 Entering Gaussian System, Link 0=g16
 Input=JOBS/0_A.gjf
 Output=JOBS/0_A.log
 Initial command:
 /data/app/gaussian/C01-avx2//g16/l1.exe "/tmp/Gau-1297692.inp" -scrdir="/tmp/"
 Entering Link 1 = /data/app/gaussian/C01-avx2//g16/l1.exe PID=   1297693.
  
 Copyright (c) 1988-2019, Gaussian, Inc.  All Rights Reserved.
  
 This is part of the Gaussian(R) 16 program.  It is based on
 the Gaussian(R) 09 system (copyright 2009, Gaussian, Inc.),
 the Gaussian(R) 03 system (copyright 2003, Gaussian, Inc.),
 the Gaussian(R) 98 system (copyright 1998, Gaussian, Inc.),
 the Gaussian(R) 94 system (copyright 1995, Gaussian, Inc.),
 the Gaussian 92(TM) system (copyright 1992, Gaussian, Inc.),
 the Gaussian 90(TM) system (copyright 1990, Gaussian, Inc.),
 the Gaussian 88(TM) system (copyright 1988, Gaussian, Inc.),
 the Gaussian 86(TM) system (copyright 1986, Carnegie Mellon
 University), and the Gaussian 82(TM) system (copyright 1983,
 Carnegie Mellon University). Gaussian is a federally registered
 trademark of Gaussian, Inc.
  
 This software contains proprietary and confidential information,
 including trade secrets, belonging to Gaussian, Inc.
  
 This software is provided under written license and may be
 used, copied, transmitted, or stored only in accord with that
 written license.
  
 The following legend is applicable only to US Government
 contracts under FAR:
  
                    RESTRICTED RIGHTS LEGEND
  
 Use, reproduction and disclosure by the US Government is
 subject to restrictions as set forth in subparagraphs (a)
 and (c) of the Commercial Computer Software - Restricted
 Rights clause in FAR 52.227-19.
  
 Gaussian, Inc.
 340 Quinnipiac St., Bldg. 40, Wallingford CT 06492
  
  
 ---------------------------------------------------------------
 Warning -- This program may not be used in any manner that
 competes with the business of Gaussian, Inc. or will provide
 assistance to any competitor of Gaussian, Inc.  The licensee
 of this program is prohibited from giving any competitor of
 Gaussian, Inc. access to this program.  By using this program,
 the user acknowledges that Gaussian, Inc. is engaged in the
 business of creating and licensing software in the field of
 computational chemistry and represents and warrants to the
 licensee that it is not a competitor of Gaussian, Inc. and that
 it will not use this program in any manner prohibited above.
 ---------------------------------------------------------------
  

 Cite this work as:
 Gaussian 16, Revision C.01,
 M. J. Frisch, G. W. Trucks, H. B. Schlegel, G. E. Scuseria, 
 M. A. Robb, J. R. Cheeseman, G. Scalmani, V. Barone, 
 G. A. Petersson, H. Nakatsuji, X. Li, M. Caricato, A. V. Marenich, 
 J. Bloino, B. G. Janesko, R. Gomperts, B. Mennucci, H. P. Hratchian, 
 J. V. Ortiz, A. F. Izmaylov, J. L. Sonnenberg, D. Williams-Young, 
 F. Ding, F. Lipparini, F. Egidi, J. Goings, B. Peng, A. Petrone, 
 T. Henderson, D. Ranasinghe, V. G. Zakrzewski, J. Gao, N. Rega, 
 G. Zheng, W. Liang, M. Hada, M. Ehara, K. Toyota, R. Fukuda, 
 J. Hasegawa, M. Ishida, T. Nakajima, Y. Honda, O. Kitao, H. Nakai, 
 T. Vreven, K. Throssell, J. A. Montgomery, Jr., J. E. Peralta, 
 F. Ogliaro, M. J. Bearpark, J. J. Heyd, E. N. Brothers, K. N. Kudin, 
 V. N. Staroverov, T. A. Keith, R. Kobayashi, J. Normand, 
 K. Raghavachari, A. P. Rendell, J. C. Burant, S. S. Iyengar, 
 J. Tomasi, M. Cossi, J. M. Millam, M. Klene, C. Adamo, R. Cammi, 
 J. W. Ochterski, R. L. Martin, K. Morokuma, O. Farkas, 
 J. B. Foresman, and D. J. Fox, Gaussian, Inc., Wallingford CT, 2019.
 
 ******************************************
 Gaussian 16:  ES64L-G16RevC.01  3-Jul-2019
                13-Jul-2024 
 ******************************************
 %chk=a.chk
 %nprocshared=28
 Will use up to   28 processors via shared memory.
 %mem=48gb
 ----------------------------------------------------------------------
 # 6-31g(d) m062x g09default scf=(xqc,maxcycle=64) force guess=read td 
 nosymm
 ----------------------------------------------------------------------
 1/10=7,30=1,38=1,158=3,167=1/1,3;
 2/12=2,15=1,17=6,18=5,40=1/2;
 3/5=1,6=6,7=1,11=9,25=1,27=10,30=1,71=1,74=-55,75=-4,116=-2,158=3/1,2,3,8;
 4/5=1,60=-1/1;
 5/5=2,7=64,8=3,13=1,38=6,87=10/2,8;
 8/6=1,10=2,87=10/1;
 9/15=2,42=1,70=2,87=10/14;
 10/5=4,31=1,87=10/2;
 6/7=2,8=2,9=2,10=2,18=1,87=10/1;
 7/12=6,13=5,29=1,30=1,87=10/1,2,3,16;
 1/10=7,30=1,158=3,167=1/3;
 99//99;
 Using 2006 physical constants.
 ----------
 Title Card
 ----------
 Symbolic Z-matrix:
 Charge =  0 Multiplicity = 1
 6                     1.40869   0.49706  -0.47944 
 6                     1.42511  -0.49987   0.55947 
 6                     2.63519  -0.97384   1.01646 
 6                     3.8466   -0.49524   0.49843 
 6                     3.81979   0.49213  -0.57723 
 6                     2.58423   0.97702  -1.01584 
 1                     2.65855  -1.74276   1.78506 
 1                     2.55234   1.74801  -1.78154 
 6                     5.00108   0.96327  -1.20509 
 7                     5.94468   1.36762  -1.74989 
 6                     5.06982  -0.97645   1.0283 
 7                     6.06604  -1.37982   1.47509 
 6                    -0.32992   2.24341  -0.26552 
 6                    -0.87745   0.46952  -1.52453 
 6                     0.37068   3.16491   0.52599 
 6                    -1.68877   2.42815  -0.63699 
 6                    -0.83604  -0.72972  -2.23267 
 6                    -2.03864   1.27431  -1.45896 
 6                    -0.32678   4.28247   0.95905 
 1                     1.41958   3.01062   0.75635 
 6                    -2.35596   3.56251  -0.20466 
 6                    -2.0086   -1.12865  -2.87944 
 1                     0.07522  -1.31261  -2.29036 
 6                    -3.175     0.88038  -2.14253 
 6                    -1.66736   4.48174   0.59762 
 1                     0.17785   5.02038   1.5726 
 1                    -3.38865   3.74784  -0.48132 
 6                    -3.15515  -0.33725  -2.84571 
 1                    -2.0125   -2.06387  -3.42876 
 1                    -4.06475   1.50094  -2.14815 
 1                    -2.17865   5.37655   0.93529 
 1                    -4.04345  -0.6574   -3.37754 
 6                    -0.87875  -0.48276   1.59468 
 6                    -0.30437  -2.25561   0.33872 
 6                    -0.8668    0.69988   2.33275 
 6                    -2.04636  -1.26614   1.4629 
 6                     0.39206  -3.19304  -0.43429 
 6                    -1.68402  -2.40849   0.64281 
 6                    -2.06237   1.09194   2.93469 
 1                     0.04599   1.27234   2.45189 
 6                    -3.21872  -0.8713    2.09775 
 6                    -0.32028  -4.27575  -0.91656 
 1                     1.4571   -3.07725  -0.62212 
 6                    -2.3754   -3.50592   0.1473 
 6                    -3.22059   0.31781   2.82906 
 1                    -2.0863    2.01329   3.50871 
 1                    -4.11756  -1.47796   2.03233 
 6                    -1.69263  -4.43154  -0.63857 
 1                     0.18851  -5.02922  -1.50874 
 1                    -3.43173  -3.64139   0.36621 
 1                    -4.12911   0.63864   3.32781 
 1                    -2.21834  -5.29087  -1.0366 
 7                     0.13846   1.07271  -0.80017 
 7                     0.16713  -1.092     0.90609 
 

 GradGradGradGradGradGradGradGradGradGradGradGradGradGradGradGradGradGrad
 Berny optimization.
 Initialization pass.
 Trust Radius=3.00D-01 FncErr=1.00D-07 GrdErr=1.00D-07 EigMax=2.50D+02 EigMin=1.00D-04
 Number of steps in this run=      2 maximum allowed number of steps=      2.
 GradGradGradGradGradGradGradGradGradGradGradGradGradGradGradGradGradGrad

 Symmetry turned off by external request.
 Stoichiometry    C32H18N4
 Framework group  C1[X(C32H18N4)]
 Deg. of freedom   156
 Full point group                 C1      NOp   1
                          Input orientation:                          
 ---------------------------------------------------------------------
 Center     Atomic      Atomic             Coordinates (Angstroms)
 Number     Number       Type             X           Y           Z
 ---------------------------------------------------------------------
      1          6           0        1.408689    0.497060   -0.479442
      2          6           0        1.425112   -0.499871    0.559470
      3          6           0        2.635189   -0.973837    1.016456
      4          6           0        3.846596   -0.495244    0.498433
      5          6           0        3.819785    0.492126   -0.577234
      6          6           0        2.584226    0.977019   -1.015841
      7          1           0        2.658553   -1.742761    1.785060
      8          1           0        2.552337    1.748009   -1.781540
      9          6           0        5.001085    0.963269   -1.205086
     10          7           0        5.944679    1.367615   -1.749889
     11          6           0        5.069816   -0.976448    1.028303
     12          7           0        6.066043   -1.379818    1.475090
     13          6           0       -0.329916    2.243409   -0.265517
     14          6           0       -0.877447    0.469517   -1.524531
     15          6           0        0.370675    3.164910    0.525994
     16          6           0       -1.688769    2.428148   -0.636991
     17          6           0       -0.836038   -0.729718   -2.232668
     18          6           0       -2.038637    1.274313   -1.458963
     19          6           0       -0.326778    4.282468    0.959049
     20          1           0        1.419577    3.010619    0.756347
     21          6           0       -2.355957    3.562513   -0.204662
     22          6           0       -2.008604   -1.128652   -2.879442
     23          1           0        0.075215   -1.312611   -2.290357
     24          6           0       -3.174997    0.880381   -2.142531
     25          6           0       -1.667357    4.481738    0.597615
     26          1           0        0.177845    5.020380    1.572604
     27          1           0       -3.388654    3.747841   -0.481317
     28          6           0       -3.155148   -0.337253   -2.845707
     29          1           0       -2.012501   -2.063870   -3.428756
     30          1           0       -4.064748    1.500936   -2.148147
     31          1           0       -2.178653    5.376552    0.935287
     32          1           0       -4.043448   -0.657396   -3.377538
     33          6           0       -0.878746   -0.482762    1.594679
     34          6           0       -0.304370   -2.255612    0.338720
     35          6           0       -0.866801    0.699878    2.332748
     36          6           0       -2.046356   -1.266137    1.462900
     37          6           0        0.392059   -3.193043   -0.434287
     38          6           0       -1.684023   -2.408491    0.642814
     39          6           0       -2.062365    1.091945    2.934694
     40          1           0        0.045986    1.272338    2.451891
     41          6           0       -3.218721   -0.871304    2.097749
     42          6           0       -0.320279   -4.275745   -0.916562
     43          1           0        1.457095   -3.077246   -0.622124
     44          6           0       -2.375395   -3.505920    0.147299
     45          6           0       -3.220587    0.317814    2.829063
     46          1           0       -2.086303    2.013288    3.508711
     47          1           0       -4.117560   -1.477961    2.032325
     48          6           0       -1.692629   -4.431536   -0.638573
     49          1           0        0.188505   -5.029221   -1.508743
     50          1           0       -3.431730   -3.641391    0.366208
     51          1           0       -4.129112    0.638636    3.327812
     52          1           0       -2.218338   -5.290868   -1.036605
     53          7           0        0.138459    1.072707   -0.800167
     54          7           0        0.167130   -1.092000    0.906091
 ---------------------------------------------------------------------
 Rotational constants (GHZ):           0.1590043           0.1163971           0.0924966
 Standard basis: 6-31G(d) (6D, 7F)
   576 basis functions,  1080 primitive gaussians,   576 cartesian basis functions
   119 alpha electrons      119 beta electrons
       nuclear repulsion energy      3659.6631482799 Hartrees.
 NAtoms=   54 NActive=   54 NUniq=   54 SFac= 1.00D+00 NAtFMM=   60 NAOKFM=F Big=F
 Integral buffers will be    131072 words long.
 Regular integral format.
 Two-electron integral symmetry is turned off.
 One-electron integrals computed using PRISM.
 NBasis=   576 RedAO= T EigKep=  2.59D-04  NBF=   576
 NBsUse=   576 1.00D-06 EigRej= -1.00D+00 NBFU=   576
 Initial guess from the checkpoint file:  "a.chk"
 B after Tr=    -0.000508   -0.000836    0.000403
         Rot=    1.000000    0.000124   -0.000131   -0.000018 Ang=   0.02 deg.
 Requested convergence on RMS density matrix=1.00D-08 within  64 cycles.
 Requested convergence on MAX density matrix=1.00D-06.
 Requested convergence on             energy=1.00D-06.
 No special actions if energy rises.
 SCF Done:  E(RM062X) =  -1448.68796680     A.U. after   11 cycles
            NFock= 11  Conv=0.59D-08     -V/T= 2.0088
 QCSCF skips out because SCF is already converged.
 DoSCS=F DFT=T ScalE2(SS,OS)=  1.000000  1.000000
 ExpMin= 1.61D-01 ExpMax= 4.17D+03 ExpMxC= 6.27D+02 IAcc=3 IRadAn=         5 AccDes= 0.00D+00
 HarFok:  IExCor=  205 AccDes= 0.00D+00 IRadAn=         5 IDoV=-2 UseB2=F ITyADJ=14
 ICtDFT= 12500011 ScaDFX=  1.000000  1.000000  1.000000  1.000000
 GSVD:  LWork=       -1584 too small for GESVD, short by        7020 words or        7020 for optimal perf.
 Range of M.O.s used for correlation:    37   576
 NBasis=   576 NAE=   119 NBE=   119 NFC=    36 NFV=     0
 NROrb=    540 NOA=    83 NOB=    83 NVA=   457 NVB=   457
    12 initial guesses have been made.
 Convergence on wavefunction:    0.000001000000000
 Iteration     1 Dimension    12 NMult     0 NNew     12
 CISAX will form    12 AO SS matrices at one time.
 Iteration     2 Dimension    18 NMult    12 NNew      6
 Iteration     3 Dimension    24 NMult    18 NNew      6
 Iteration     4 Dimension    30 NMult    24 NNew      6
 Iteration     5 Dimension    36 NMult    30 NNew      6
 Iteration     6 Dimension    42 NMult    36 NNew      6
 Iteration     7 Dimension    48 NMult    42 NNew      6
 Iteration     8 Dimension    54 NMult    48 NNew      6
 Iteration     9 Dimension    60 NMult    54 NNew      6
 Iteration    10 Dimension    66 NMult    60 NNew      6
 Iteration    11 Dimension    72 NMult    66 NNew      6
 Iteration    12 Dimension    78 NMult    72 NNew      6
 Iteration    13 Dimension    80 NMult    78 NNew      2
 ***********************************************************************
 Excited states from <AA,BB:AA,BB> singles matrix:
 ***********************************************************************
 
 Ground to excited state transition densities written to RWF  633
 Ground to excited state transition electric dipole moments (Au):
       state          X           Y           Z        Dip. S.      Osc.
         1         0.0828     -0.2891      0.2469      0.1514      0.0107
         2        -0.5562     -0.0585      0.0689      0.3176      0.0247
         3         0.0107      0.1382     -0.0743      0.0247      0.0022
 Ground to excited state transition velocity dipole moments (Au):
       state          X           Y           Z        Dip. S.      Osc.
         1        -0.0089      0.0286     -0.0315      0.0019      0.0119
         2         0.0656      0.0068     -0.0090      0.0044      0.0254
         3        -0.0013     -0.0214      0.0133      0.0006      0.0032
 Ground to excited state transition magnetic dipole moments (Au):
       state          X           Y           Z
         1        -0.0327      0.2745      0.2839
         2         0.2387      0.0779      0.0613
         3         0.0077     -0.2305      0.0424
 Ground to excited state transition velocity quadrupole moments (Au):
       state          XX          YY          ZZ          XY          XZ          YZ
         1        -0.0616      0.0288      0.0059      0.0058     -0.0121      0.0070
         2         0.3791     -0.1634     -0.0579      0.0102     -0.0134     -0.0611
         3        -0.0006      0.0028     -0.0039     -0.0510      0.0315     -0.0010
 <0|del|b> * <b|rxdel|0> + <0|del|b> * <b|delr+rdel|0>
 Rotatory Strengths (R) in cgs (10**-40 erg-esu-cm/Gauss)
       state          XX          YY          ZZ    R(velocity)    E-M Angle
         1        -3.0864    -28.4614     26.2255     -1.7741       92.65
         2        -0.0655     33.9953     61.0414     31.6571       24.63
         3        14.6801      3.3040     11.3477      9.7773       22.04
 1/2[<0|r|b>*<b|rxdel|0> + (<0|rxdel|b>*<b|r|0>)*]
 Rotatory Strengths (R) in cgs (10**-40 erg-esu-cm/Gauss)
       state          XX          YY          ZZ     R(length)
         1         1.9164     56.1140    -49.5530      2.8258
         2        93.8916      3.2261     -2.9830     31.3782
         3        -0.0585     22.5162      2.2311      8.2296
  1/2[<0|del|b>*<b|r|0> + (<0|r|b>*<b|del|0>)*] (Au)
       state          X           Y           Z        Dip. S.   Osc.(frdel)
         1        -0.0007     -0.0083     -0.0078      0.0168      0.0112
         2        -0.0365     -0.0004     -0.0006      0.0375      0.0250
         3        -0.0000     -0.0030     -0.0010      0.0040      0.0026

 Excitation energies and oscillator strengths:
 
 Excited state symmetry could not be determined.
 Excited State   1:      Singlet-?Sym    2.8852 eV  429.72 nm  f=0.0107  <S**2>=0.000
     119 ->120         0.68977
 This state for optimization and/or second-order correction.
 Total Energy, E(TD-HF/TD-DFT) =  -1448.58193604    
 Copying the excited state density for this state as the 1-particle RhoCI density.
 
 Excited state symmetry could not be determined.
 Excited State   2:      Singlet-?Sym    3.1703 eV  391.08 nm  f=0.0247  <S**2>=0.000
     118 ->120         0.68811
 
 Excited state symmetry could not be determined.
 Excited State   3:      Singlet-?Sym    3.6022 eV  344.19 nm  f=0.0022  <S**2>=0.000
     117 ->120         0.69427
 SavETr:  write IOETrn=   770 NScale= 10 NData=  16 NLR=1 NState=    3 LETran=      64.
          IDoAtm=11111111111111111111111111111111111111111111111111
          IDoAtm=1111
          Differentiating once with respect to electric field.
                with respect to dipole field.
          Differentiating once with respect to nuclear coordinates.
          There are     1 degrees of freedom in the 1st order CPHF.  IDoFFX=0 NUNeed=     1.
 LinEq1:  Iter=  0 NonCon=     1 RMS=3.97D-03 Max=2.01D-01 NDo=     1
 AX will form     1 AO Fock derivatives at one time.
 LinEq1:  Iter=  1 NonCon=     1 RMS=2.45D-03 Max=1.78D-01 NDo=     1
 LinEq1:  Iter=  2 NonCon=     1 RMS=1.68D-03 Max=9.88D-02 NDo=     1
 LinEq1:  Iter=  3 NonCon=     1 RMS=8.97D-04 Max=5.82D-02 NDo=     1
 LinEq1:  Iter=  4 NonCon=     1 RMS=6.07D-04 Max=4.25D-02 NDo=     1
 LinEq1:  Iter=  5 NonCon=     1 RMS=3.20D-04 Max=1.47D-02 NDo=     1
 LinEq1:  Iter=  6 NonCon=     1 RMS=1.56D-04 Max=1.24D-02 NDo=     1
 LinEq1:  Iter=  7 NonCon=     1 RMS=9.57D-05 Max=5.53D-03 NDo=     1
 LinEq1:  Iter=  8 NonCon=     1 RMS=6.26D-05 Max=3.97D-03 NDo=     1
 LinEq1:  Iter=  9 NonCon=     1 RMS=4.06D-05 Max=1.88D-03 NDo=     1
 LinEq1:  Iter= 10 NonCon=     1 RMS=1.97D-05 Max=7.03D-04 NDo=     1
 LinEq1:  Iter= 11 NonCon=     1 RMS=9.69D-06 Max=5.45D-04 NDo=     1
 LinEq1:  Iter= 12 NonCon=     1 RMS=6.27D-06 Max=3.28D-04 NDo=     1
 LinEq1:  Iter= 13 NonCon=     1 RMS=3.94D-06 Max=2.27D-04 NDo=     1
 LinEq1:  Iter= 14 NonCon=     1 RMS=2.54D-06 Max=1.36D-04 NDo=     1
 LinEq1:  Iter= 15 NonCon=     1 RMS=1.25D-06 Max=4.76D-05 NDo=     1
 LinEq1:  Iter= 16 NonCon=     1 RMS=8.10D-07 Max=3.29D-05 NDo=     1
 LinEq1:  Iter= 17 NonCon=     1 RMS=3.38D-07 Max=1.03D-05 NDo=     1
 LinEq1:  Iter= 18 NonCon=     1 RMS=1.57D-07 Max=6.91D-06 NDo=     1
 LinEq1:  Iter= 19 NonCon=     1 RMS=8.37D-08 Max=3.39D-06 NDo=     1
 LinEq1:  Iter= 20 NonCon=     1 RMS=4.05D-08 Max=1.76D-06 NDo=     1
 LinEq1:  Iter= 21 NonCon=     1 RMS=2.34D-08 Max=1.10D-06 NDo=     1
 LinEq1:  Iter= 22 NonCon=     1 RMS=1.46D-08 Max=7.70D-07 NDo=     1
 LinEq1:  Iter= 23 NonCon=     1 RMS=5.84D-09 Max=2.84D-07 NDo=     1
 LinEq1:  Iter= 24 NonCon=     1 RMS=3.04D-09 Max=1.24D-07 NDo=     1
 LinEq1:  Iter= 25 NonCon=     1 RMS=1.41D-09 Max=6.82D-08 NDo=     1
 LinEq1:  Iter= 26 NonCon=     1 RMS=7.25D-10 Max=2.72D-08 NDo=     1
 LinEq1:  Iter= 27 NonCon=     1 RMS=3.41D-10 Max=1.25D-08 NDo=     1
 LinEq1:  Iter= 28 NonCon=     1 RMS=1.33D-10 Max=7.69D-09 NDo=     1
 LinEq1:  Iter= 29 NonCon=     1 RMS=6.66D-11 Max=3.37D-09 NDo=     1
 LinEq1:  Iter= 30 NonCon=     1 RMS=2.84D-11 Max=1.33D-09 NDo=     1
 LinEq1:  Iter= 31 NonCon=     0 RMS=1.44D-11 Max=4.92D-10 NDo=     1
 Linear equations converged to 1.000D-10 1.000D-09 after    31 iterations.
 End of Minotr F.D. properties file   721 does not exist.
 End of Minotr F.D. properties file   722 does not exist.
 End of Minotr F.D. properties file   788 does not exist.

 **********************************************************************

            Population analysis using the SCF Density.

 **********************************************************************

 Alpha  occ. eigenvalues --  -14.82728 -14.82480 -14.79616 -14.79578 -10.65583
 Alpha  occ. eigenvalues --  -10.65447 -10.65347 -10.65285 -10.62098 -10.62011
 Alpha  occ. eigenvalues --  -10.61616 -10.61584 -10.60037 -10.59928 -10.59734
 Alpha  occ. eigenvalues --  -10.59614 -10.56209 -10.56120 -10.56025 -10.56020
 Alpha  occ. eigenvalues --  -10.56010 -10.55948 -10.55942 -10.55932 -10.55844
 Alpha  occ. eigenvalues --  -10.55833 -10.55789 -10.55674 -10.55646 -10.55646
 Alpha  occ. eigenvalues --  -10.55484 -10.55408 -10.55250 -10.55156 -10.54933
 Alpha  occ. eigenvalues --  -10.54885  -1.13923  -1.11552  -1.05178  -1.03464
 Alpha  occ. eigenvalues --   -1.01769  -0.96829  -0.96247  -0.95869  -0.95545
 Alpha  occ. eigenvalues --   -0.92261  -0.91729  -0.88354  -0.87640  -0.85702
 Alpha  occ. eigenvalues --   -0.85301  -0.83699  -0.82626  -0.81959  -0.81825
 Alpha  occ. eigenvalues --   -0.78807  -0.76932  -0.73308  -0.72988  -0.70038
 Alpha  occ. eigenvalues --   -0.69920  -0.69765  -0.69153  -0.66556  -0.66272
 Alpha  occ. eigenvalues --   -0.66234  -0.63689  -0.62277  -0.61349  -0.60164
 Alpha  occ. eigenvalues --   -0.59736  -0.59017  -0.58449  -0.56329  -0.55887
 Alpha  occ. eigenvalues --   -0.53872  -0.53503  -0.53172  -0.53080  -0.52706
 Alpha  occ. eigenvalues --   -0.52494  -0.51380  -0.51283  -0.50666  -0.50600
 Alpha  occ. eigenvalues --   -0.49295  -0.49218  -0.49171  -0.49127  -0.48648
 Alpha  occ. eigenvalues --   -0.48439  -0.46204  -0.46059  -0.45271  -0.44081
 Alpha  occ. eigenvalues --   -0.43749  -0.43474  -0.43278  -0.43035  -0.42645
 Alpha  occ. eigenvalues --   -0.42262  -0.42200  -0.42085  -0.40701  -0.40590
 Alpha  occ. eigenvalues --   -0.40360  -0.40150  -0.39771  -0.39375  -0.36471
 Alpha  occ. eigenvalues --   -0.34580  -0.34386  -0.33948  -0.31831  -0.30497
 Alpha  occ. eigenvalues --   -0.27395  -0.26670  -0.26413  -0.25050
 Alpha virt. eigenvalues --   -0.08041  -0.03916  -0.00464  -0.00285   0.02709
 Alpha virt. eigenvalues --    0.03553   0.04573   0.05376   0.05698   0.05934
 Alpha virt. eigenvalues --    0.07155   0.07489   0.07697   0.10860   0.11045
 Alpha virt. eigenvalues --    0.13408   0.13622   0.14148   0.14724   0.14863
 Alpha virt. eigenvalues --    0.15917   0.17212   0.18106   0.18279   0.19350
 Alpha virt. eigenvalues --    0.19529   0.19698   0.20004   0.20270   0.21065
 Alpha virt. eigenvalues --    0.21487   0.21823   0.22772   0.22891   0.23272
 Alpha virt. eigenvalues --    0.23571   0.24457   0.24484   0.24776   0.24930
 Alpha virt. eigenvalues --    0.25283   0.26444   0.27582   0.27716   0.28527
 Alpha virt. eigenvalues --    0.28993   0.29609   0.29668   0.31137   0.32097
 Alpha virt. eigenvalues --    0.32628   0.33333   0.33872   0.34208   0.35971
 Alpha virt. eigenvalues --    0.36539   0.37041   0.37337   0.38393   0.39086
 Alpha virt. eigenvalues --    0.40079   0.40146   0.40808   0.41242   0.42484
 Alpha virt. eigenvalues --    0.42817   0.44072   0.45922   0.46326   0.47198
 Alpha virt. eigenvalues --    0.48627   0.48759   0.49294   0.51580   0.51703
 Alpha virt. eigenvalues --    0.52172   0.53104   0.53419   0.54140   0.54912
 Alpha virt. eigenvalues --    0.55050   0.56098   0.56249   0.56707   0.57151
 Alpha virt. eigenvalues --    0.57922   0.58514   0.58579   0.58812   0.59333
 Alpha virt. eigenvalues --    0.59533   0.60044   0.60324   0.60772   0.60893
 Alpha virt. eigenvalues --    0.61500   0.62083   0.62249   0.62529   0.62663
 Alpha virt. eigenvalues --    0.63492   0.64125   0.64192   0.64589   0.64794
 Alpha virt. eigenvalues --    0.64827   0.65198   0.65237   0.65408   0.66050
 Alpha virt. eigenvalues --    0.66352   0.66974   0.67156   0.67365   0.67738
 Alpha virt. eigenvalues --    0.68194   0.68364   0.68730   0.69007   0.69492
 Alpha virt. eigenvalues --    0.69568   0.69733   0.70105   0.70177   0.72180
 Alpha virt. eigenvalues --    0.72244   0.73406   0.74240   0.74741   0.75592
 Alpha virt. eigenvalues --    0.76164   0.76675   0.78029   0.78680   0.79024
 Alpha virt. eigenvalues --    0.82019   0.82527   0.82943   0.83485   0.83637
 Alpha virt. eigenvalues --    0.84872   0.85342   0.85842   0.86354   0.86749
 Alpha virt. eigenvalues --    0.86821   0.87780   0.87871   0.88340   0.89076
 Alpha virt. eigenvalues --    0.89373   0.89588   0.89863   0.90272   0.90337
 Alpha virt. eigenvalues --    0.90840   0.91091   0.91246   0.91798   0.91974
 Alpha virt. eigenvalues --    0.92368   0.92433   0.92654   0.93646   0.93954
 Alpha virt. eigenvalues --    0.94454   0.94806   0.95528   0.96097   0.96520
 Alpha virt. eigenvalues --    0.97389   0.97615   0.98802   0.99873   1.00376
 Alpha virt. eigenvalues --    1.01159   1.01403   1.01577   1.02535   1.03228
 Alpha virt. eigenvalues --    1.03509   1.03908   1.04932   1.05127   1.05590
 Alpha virt. eigenvalues --    1.06668   1.07337   1.08101   1.09548   1.10095
 Alpha virt. eigenvalues --    1.10384   1.13202   1.14208   1.14505   1.15050
 Alpha virt. eigenvalues --    1.16719   1.17668   1.18669   1.19342   1.19885
 Alpha virt. eigenvalues --    1.20328   1.20949   1.21723   1.21882   1.22786
 Alpha virt. eigenvalues --    1.24002   1.24530   1.25410   1.25944   1.26376
 Alpha virt. eigenvalues --    1.28931   1.29838   1.30860   1.31074   1.31854
 Alpha virt. eigenvalues --    1.32757   1.32834   1.34059   1.34655   1.35309
 Alpha virt. eigenvalues --    1.36433   1.37403   1.37777   1.38806   1.39618
 Alpha virt. eigenvalues --    1.40131   1.40726   1.41737   1.42636   1.42905
 Alpha virt. eigenvalues --    1.43499   1.44634   1.46566   1.47318   1.47736
 Alpha virt. eigenvalues --    1.49274   1.50204   1.50883   1.51077   1.52511
 Alpha virt. eigenvalues --    1.52615   1.52757   1.53180   1.53515   1.54146
 Alpha virt. eigenvalues --    1.54289   1.54443   1.54605   1.54820   1.55541
 Alpha virt. eigenvalues --    1.55655   1.55935   1.57127   1.58752   1.59540
 Alpha virt. eigenvalues --    1.60287   1.61631   1.63316   1.64085   1.67641
 Alpha virt. eigenvalues --    1.67855   1.69310   1.71646   1.73215   1.74205
 Alpha virt. eigenvalues --    1.74356   1.76221   1.76897   1.78064   1.78887
 Alpha virt. eigenvalues --    1.80388   1.80695   1.81358   1.81603   1.82243
 Alpha virt. eigenvalues --    1.82951   1.83800   1.84806   1.85151   1.86560
 Alpha virt. eigenvalues --    1.87031   1.87479   1.88567   1.89217   1.89843
 Alpha virt. eigenvalues --    1.91309   1.92130   1.93083   1.93775   1.94747
 Alpha virt. eigenvalues --    1.94968   1.96013   1.96950   1.97111   1.98236
 Alpha virt. eigenvalues --    1.98506   1.98678   1.99909   2.00701   2.01526
 Alpha virt. eigenvalues --    2.02022   2.02253   2.02420   2.03197   2.03374
 Alpha virt. eigenvalues --    2.03686   2.04011   2.04497   2.05834   2.06077
 Alpha virt. eigenvalues --    2.07150   2.07540   2.08867   2.09727   2.11108
 Alpha virt. eigenvalues --    2.11730   2.12676   2.13018   2.14491   2.14685
 Alpha virt. eigenvalues --    2.14900   2.15580   2.16722   2.17280   2.17495
 Alpha virt. eigenvalues --    2.18782   2.19634   2.21280   2.21879   2.22225
 Alpha virt. eigenvalues --    2.23452   2.23534   2.24474   2.24776   2.26829
 Alpha virt. eigenvalues --    2.27652   2.27859   2.28585   2.28663   2.29246
 Alpha virt. eigenvalues --    2.29517   2.30748   2.30840   2.31492   2.32700
 Alpha virt. eigenvalues --    2.33185   2.33554   2.34811   2.36144   2.36844
 Alpha virt. eigenvalues --    2.40688   2.40893   2.42653   2.43115   2.43481
 Alpha virt. eigenvalues --    2.46180   2.48131   2.49855   2.50975   2.51311
 Alpha virt. eigenvalues --    2.53701   2.54762   2.56071   2.56703   2.57340
 Alpha virt. eigenvalues --    2.59681   2.60535   2.60804   2.63211   2.65028
 Alpha virt. eigenvalues --    2.65802   2.66182   2.66225   2.67996   2.68551
 Alpha virt. eigenvalues --    2.69102   2.69907   2.70432   2.70772   2.71509
 Alpha virt. eigenvalues --    2.71975   2.72158   2.72769   2.72951   2.74923
 Alpha virt. eigenvalues --    2.75310   2.75565   2.75866   2.77867   2.79051
 Alpha virt. eigenvalues --    2.81704   2.82527   2.83525   2.85531   2.85716
 Alpha virt. eigenvalues --    2.85962   2.86537   2.87030   2.88687   2.91643
 Alpha virt. eigenvalues --    2.93806   2.94167   2.96193   2.97790   3.00272
 Alpha virt. eigenvalues --    3.00501   3.03411   3.08717   3.08862   3.21162
 Alpha virt. eigenvalues --    3.23143   3.23793   3.25838   3.30495   3.32468
 Alpha virt. eigenvalues --    3.32559   3.38704   3.38832   3.49863   3.52275
 Alpha virt. eigenvalues --    3.52934   3.99611   4.07447   4.09986   4.10540
 Alpha virt. eigenvalues --    4.10944   4.12759   4.12965   4.13900   4.15041
 Alpha virt. eigenvalues --    4.16839   4.17578   4.19004   4.20624   4.23104
 Alpha virt. eigenvalues --    4.23692   4.26865   4.28187   4.31054   4.34378
 Alpha virt. eigenvalues --    4.34975   4.37378   4.42002   4.43352   4.44841
 Alpha virt. eigenvalues --    4.47953   4.48626   4.51312   4.52896   4.53135
 Alpha virt. eigenvalues --    4.66158   4.68601   4.77102   4.78943   4.86829
 Alpha virt. eigenvalues --    4.90261   4.93129
          Condensed to atoms (all electrons):
 Mulliken charges:
               1
     1  C    0.221150
     2  C    0.236539
     3  C   -0.198612
     4  C    0.130359
     5  C    0.124294
     6  C   -0.181572
     7  H    0.234894
     8  H    0.236969
     9  C    0.235451
    10  N   -0.438496
    11  C    0.231562
    12  N   -0.439590
    13  C    0.286207
    14  C    0.276940
    15  C   -0.186198
    16  C    0.043420
    17  C   -0.166715
    18  C    0.049003
    19  C   -0.173509
    20  H    0.159889
    21  C   -0.190980
    22  C   -0.166830
    23  H    0.159786
    24  C   -0.196332
    25  C   -0.186505
    26  H    0.166586
    27  H    0.170264
    28  C   -0.181512
    29  H    0.165590
    30  H    0.166635
    31  H    0.160174
    32  H    0.160034
    33  C    0.280941
    34  C    0.284705
    35  C   -0.167232
    36  C    0.040839
    37  C   -0.185964
    38  C    0.038537
    39  C   -0.167335
    40  H    0.160088
    41  C   -0.186721
    42  C   -0.175025
    43  H    0.160520
    44  C   -0.183099
    45  C   -0.180549
    46  H    0.165773
    47  H    0.167004
    48  C   -0.187001
    49  H    0.166746
    50  H    0.170015
    51  H    0.161307
    52  H    0.161710
    53  N   -0.716230
    54  N   -0.717925
 Sum of Mulliken charges =  -0.00000
 Mulliken charges with hydrogens summed into heavy atoms:
               1
     1  C    0.221150
     2  C    0.236539
     3  C    0.036281
     4  C    0.130359
     5  C    0.124294
     6  C    0.055398
     9  C    0.235451
    10  N   -0.438496
    11  C    0.231562
    12  N   -0.439590
    13  C    0.286207
    14  C    0.276940
    15  C   -0.026309
    16  C    0.043420
    17  C   -0.006929
    18  C    0.049003
    19  C   -0.006923
    21  C   -0.020717
    22  C   -0.001240
    24  C   -0.029698
    25  C   -0.026331
    28  C   -0.021478
    33  C    0.280941
    34  C    0.284705
    35  C   -0.007144
    36  C    0.040839
    37  C   -0.025444
    38  C    0.038537
    39  C   -0.001561
    41  C   -0.019717
    42  C   -0.008279
    44  C   -0.013084
    45  C   -0.019242
    48  C   -0.025290
    53  N   -0.716230
    54  N   -0.717925
 Electronic spatial extent (au):  <R**2>=          12744.9825
 Charge=             -0.0000 electrons
 Dipole moment (field-independent basis, Debye):
    X=             -5.4826    Y=             -0.0062    Z=              0.2118  Tot=              5.4867
 Quadrupole moment (field-independent basis, Debye-Ang):
   XX=           -236.6501   YY=           -193.3080   ZZ=           -206.1987
   XY=              0.0385   XZ=              1.8139   YZ=             13.2164
 Traceless Quadrupole moment (field-independent basis, Debye-Ang):
   XX=            -24.5978   YY=             18.7443   ZZ=              5.8536
   XY=              0.0385   XZ=              1.8139   YZ=             13.2164
 Octapole moment (field-independent basis, Debye-Ang**2):
  XXX=           -448.1423  YYY=              1.2891  ZZZ=              4.3530  XYY=            -43.8301
  XXY=              2.6303  XXZ=              7.6728  XZZ=            -36.2794  YZZ=             -0.0268
  YYZ=             -1.0703  XYZ=             18.3616
 Hexadecapole moment (field-independent basis, Debye-Ang**3):
 XXXX=         -11205.7951 YYYY=          -5723.1492 ZZZZ=          -3078.3977 XXXY=             38.6102
 XXXZ=             86.4854 YYYX=              3.9195 YYYZ=            150.4190 ZZZX=             63.0666
 ZZZY=            -12.6356 XXYY=          -2467.3033 XXZZ=          -2100.8457 YYZZ=          -1468.6964
 XXYZ=            148.9441 YYXZ=             25.7941 ZZXY=             -7.2096
 N-N= 3.659663148280D+03 E-N=-1.067466541641D+04  KE= 1.436116912119D+03
 Calling FoFJK, ICntrl=  10005127 FMM=F ISym2X=0 I1Cent= 0 IOpClX= 0 NMat=1 NMatS=1 NMatT=0.
 -------------------------------------------------------------------
 Center     Atomic                   Forces (Hartrees/Bohr)
 Number     Number              X              Y              Z
 -------------------------------------------------------------------
      1        6          -0.000653979    0.000940927   -0.000844748
      2        6          -0.001161251   -0.000623958    0.000231964
      3        6           0.000313802   -0.001417559    0.001260284
      4        6           0.000540279   -0.000478690    0.000431074
      5        6          -0.000612410    0.001021743   -0.000979145
      6        6           0.000406204    0.000468294    0.000029940
      7        1          -0.000392992    0.000383461   -0.000260522
      8        1           0.000202033   -0.000751095   -0.000328580
      9        6          -0.002372495   -0.000927034    0.001515908
     10        7           0.002150042    0.000888107   -0.000550015
     11        6           0.000937838   -0.000456753    0.000542783
     12        7          -0.001268237    0.000225833   -0.000699192
     13        6          -0.000010140    0.002141552   -0.000771057
     14        6          -0.000260436   -0.000857781   -0.000353908
     15        6           0.000017730   -0.000093769   -0.000527226
     16        6           0.000417495    0.000458088   -0.000746188
     17        6           0.000095305    0.000733823   -0.000111153
     18        6           0.000599298    0.000686594    0.000306178
     19        6          -0.000713843    0.000207957   -0.000503154
     20        1          -0.000530651   -0.000731909    0.001070164
     21        6           0.000866687    0.000612373    0.000561928
     22        6          -0.000071905    0.000076741   -0.000451012
     23        1           0.000439175    0.000356322   -0.000405611
     24        6          -0.000452983   -0.002051402   -0.000910096
     25        6          -0.000172580   -0.000934178   -0.000653285
     26        1          -0.000068808    0.000404098   -0.000015742
     27        1          -0.000511608   -0.000532657    0.000178533
     28        6           0.000993000    0.001734442    0.001500012
     29        1          -0.000266025   -0.000115093   -0.000057883
     30        1          -0.001025820   -0.000303337    0.001103212
     31        1          -0.000438228    0.000136721    0.000401718
     32        1          -0.000634322   -0.000243944   -0.000280944
     33        6           0.000036663    0.001386421    0.001152138
     34        6          -0.002778841   -0.000258067    0.002295063
     35        6           0.000328038   -0.001277530   -0.000379375
     36        6           0.000329142   -0.001113165   -0.000787387
     37        6           0.004379983    0.001270953    0.000084602
     38        6           0.002892031    0.001825015    0.000921171
     39        6           0.000256699    0.001003015    0.000449159
     40        1           0.000579389   -0.000072212    0.000299210
     41        6          -0.000506843    0.001230344    0.000194722
     42        6          -0.004477329   -0.002499342   -0.000367458
     43        1          -0.001786060    0.000702043   -0.000419269
     44        6          -0.002025935   -0.002232715   -0.000850874
     45        6          -0.000069158   -0.000497982   -0.000834248
     46        1           0.000367912   -0.000200421   -0.000097247
     47        1           0.000126615    0.000229966   -0.000566013
     48        6           0.003216852    0.001831707    0.000394659
     49        1           0.000153974    0.000281834   -0.000303510
     50        1           0.000772440    0.000193958   -0.000357804
     51        1           0.000086255    0.000218174   -0.000041178
     52        1          -0.000779908   -0.001177217   -0.000145997
     53        7           0.000964465   -0.000818954   -0.000485998
     54        7           0.001573440   -0.000983744    0.000161399
 -------------------------------------------------------------------
 Cartesian Forces:  Max     0.004477329 RMS     0.001058740

 GradGradGradGradGradGradGradGradGradGradGradGradGradGradGradGradGradGrad
 Berny optimization.
 Search for a local minimum.
 Step number   1 out of a maximum of    2
 All quantities printed in internal units (Hartrees-Bohrs-Radians)
 Second derivative matrix not updated -- first step.
 ITU=  0
     Eigenvalues ---    0.00008   0.00009   0.00022   0.00075   0.00079
     Eigenvalues ---    0.00114   0.00182   0.00266   0.00291   0.00300
     Eigenvalues ---    0.00322   0.00448   0.00715   0.00849   0.00932
     Eigenvalues ---    0.01020   0.01226   0.01234   0.01249   0.01255
     Eigenvalues ---    0.01678   0.02382   0.02428   0.02527   0.02579
     Eigenvalues ---    0.02603   0.02619   0.02736   0.02956   0.03425
     Eigenvalues ---    0.03445   0.03625   0.04610   0.04648   0.04702
     Eigenvalues ---    0.04979   0.06575   0.06740   0.07000   0.07010
     Eigenvalues ---    0.07024   0.07034   0.07053   0.07068   0.07099
     Eigenvalues ---    0.07110   0.07451   0.07907   0.07926   0.07943
     Eigenvalues ---    0.08627   0.08981   0.09452   0.10181   0.10543
     Eigenvalues ---    0.10656   0.10772   0.10795   0.11106   0.12448
     Eigenvalues ---    0.12466   0.12504   0.12630   0.12883   0.13595
     Eigenvalues ---    0.13725   0.13884   0.15061   0.15074   0.15296
     Eigenvalues ---    0.17575   0.18438   0.19487   0.19642   0.21251
     Eigenvalues ---    0.21865   0.23418   0.24214   0.26489   0.27646
     Eigenvalues ---    0.28054   0.28254   0.29715   0.30092   0.30756
     Eigenvalues ---    0.30932   0.31608   0.32988   0.35713   0.35790
     Eigenvalues ---    0.35797   0.36605   0.38145   0.40820   0.42817
     Eigenvalues ---    0.43085   0.43159   0.43380   0.45990   0.47693
     Eigenvalues ---    0.48274   0.49854   0.50381   0.50617   0.50709
     Eigenvalues ---    0.52484   0.53247   0.59329   0.60305   0.62272
     Eigenvalues ---    0.64145   0.71284   0.71421   0.74417   0.77876
     Eigenvalues ---    0.81878   0.82499   0.89860   0.90570   0.94721
     Eigenvalues ---    1.02915   1.06660   1.11021   1.12914   1.14142
     Eigenvalues ---    1.15144   1.15226   1.15456   1.19181   1.20068
     Eigenvalues ---    1.26272   1.29779   1.30638   1.39768   1.40200
     Eigenvalues ---    1.41089   1.43156   1.48861   1.49128   1.49536
     Eigenvalues ---    1.49893   1.50149   1.54787   1.58574   1.64349
     Eigenvalues ---    1.65043   1.66812   1.69579   1.71178   1.74620
     Eigenvalues ---    1.76263   1.76686   2.79664   2.81704  27.88980
     Eigenvalues ---  191.34194
 Eigenvalue     1 is   8.02D-05 Eigenvector:
                          Z51       Z46       Z32       Z45       X49
   1                    0.21372   0.19065  -0.17591   0.17271  -0.16736
                          X46       X52       X29       Z39       X26
   1                    0.16594  -0.15994   0.15969   0.15948  -0.15704
 Eigenvalue     2 is   9.15D-05 Eigenvector:
                          Z29       Z26       Z31       Z52       Z49
   1                    0.22268  -0.22112  -0.21662  -0.21340  -0.20461
                          Z46       Z32       Z19       Z25       Z48
   1                    0.17567   0.17226  -0.17013  -0.16756  -0.16712
 Quadratic step=4.003D+00 exceeds max=3.000D-01 adjusted using Lamda=-4.535D-03.
 Angle between NR and scaled steps=  56.39 degrees.
 Angle between quadratic step and forces=  75.64 degrees.
 Linear search not attempted -- first point.
 B after Tr=     0.001092   -0.000133    0.000631
         Rot=    1.000000    0.000114    0.000211    0.000060 Ang=   0.03 deg.
 Variable       Old X    -DE/DX   Delta X   Delta X   Delta X     New X
                                 (Linear)    (Quad)   (Total)
    X1        2.66204  -0.00065   0.00000  -0.00123   0.00036   2.66240
    Y1        0.93931   0.00094   0.00000  -0.00185  -0.00251   0.93679
    Z1       -0.90601  -0.00084   0.00000  -0.00860  -0.00706  -0.91308
    X2        2.69307  -0.00116   0.00000  -0.00103  -0.00049   2.69258
    Y2       -0.94462  -0.00062   0.00000  -0.00583  -0.00605  -0.95067
    Z2        1.05725   0.00023   0.00000  -0.00256  -0.00057   1.05667
    X3        4.97979   0.00031   0.00000  -0.00334  -0.00328   4.97651
    Y3       -1.84029  -0.00142   0.00000  -0.00937  -0.00966  -1.84995
    Z3        1.92082   0.00126   0.00000   0.00139   0.00454   1.92536
    X4        7.26901   0.00054   0.00000  -0.00276  -0.00218   7.26683
    Y4       -0.93588  -0.00048   0.00000  -0.00902  -0.00982  -0.94569
    Z4        0.94190   0.00043   0.00000   0.00380   0.00772   0.94962
    X5        7.21835  -0.00061   0.00000  -0.00089   0.00077   7.21911
    Y5        0.92998   0.00102   0.00000  -0.00080  -0.00206   0.92793
    Z5       -1.09081  -0.00098   0.00000   0.00845   0.01191  -1.07890
    X6        4.88348   0.00041   0.00000   0.00278   0.00490   4.88838
    Y6        1.84630   0.00047   0.00000  -0.00671  -0.00788   1.83842
    Z6       -1.91966   0.00003   0.00000  -0.00539  -0.00312  -1.92278
    X7        5.02394  -0.00039   0.00000  -0.01067  -0.01140   5.01254
    Y7       -3.29334   0.00038   0.00000  -0.00786  -0.00782  -3.30116
    Z7        3.37327  -0.00026   0.00000   0.00113   0.00463   3.37790
    X8        4.82322   0.00020   0.00000   0.00982   0.01273   4.83595
    Y8        3.30326  -0.00075   0.00000  -0.01961  -0.02110   3.28216
    Z8       -3.36662  -0.00033   0.00000  -0.01748  -0.01556  -3.38218
    X9        9.45068  -0.00237   0.00000   0.00560   0.00786   9.45854
    Y9        1.82031  -0.00093   0.00000   0.01168   0.00989   1.83021
    Z9       -2.27728   0.00152   0.00000   0.03313   0.03733  -2.23995
   X10       11.23382   0.00215   0.00000   0.01709   0.01987  11.25368
   Y10        2.58442   0.00089   0.00000   0.02061   0.01837   2.60279
   Z10       -3.30681  -0.00055   0.00000   0.05572   0.06050  -3.24631
   X11        9.58056   0.00094   0.00000  -0.00475  -0.00470   9.57586
   Y11       -1.84522  -0.00046   0.00000  -0.01900  -0.01985  -1.86506
   Z11        1.94321   0.00054   0.00000  -0.00249   0.00261   1.94582
   X12       11.46316  -0.00127   0.00000  -0.00679  -0.00719  11.45597
   Y12       -2.60748   0.00023   0.00000  -0.02692  -0.02781  -2.63528
   Z12        2.78752  -0.00070   0.00000  -0.00810  -0.00204   2.78548
   X13       -0.62345  -0.00001   0.00000   0.00120   0.00303  -0.62042
   Y13        4.23943   0.00214   0.00000   0.01218   0.01200   4.25143
   Z13       -0.50175  -0.00077   0.00000  -0.02368  -0.02428  -0.52603
   X14       -1.65813  -0.00026   0.00000   0.00659   0.00902  -1.64912
   Y14        0.88726  -0.00086   0.00000   0.01168   0.01109   0.89834
   Z14       -2.88095  -0.00035   0.00000  -0.02856  -0.02883  -2.90978
   X15        0.70047   0.00002   0.00000  -0.01331  -0.01191   0.68856
   Y15        5.98081  -0.00009   0.00000   0.00578   0.00579   5.98660
   Z15        0.99398  -0.00053   0.00000  -0.00428  -0.00473   0.98926
   X16       -3.19131   0.00042   0.00000  -0.00107   0.00110  -3.19021
   Y16        4.58853   0.00046   0.00000   0.00384   0.00381   4.59234
   Z16       -1.20374  -0.00075   0.00000  -0.01757  -0.01934  -1.22308
   X17       -1.57988   0.00010   0.00000   0.01434   0.01707  -1.56281
   Y17       -1.37897   0.00073   0.00000   0.02551   0.02459  -1.35437
   Z17       -4.21913  -0.00011   0.00000  -0.04919  -0.04891  -4.26804
   X18       -3.85247   0.00060   0.00000  -0.00330  -0.00075  -3.85322
   Y18        2.40810   0.00069   0.00000  -0.00388  -0.00418   2.40392
   Z18       -2.75704   0.00031   0.00000  -0.00284  -0.00438  -2.76142
   X19       -0.61752  -0.00071   0.00000  -0.02034  -0.01903  -0.63655
   Y19        8.09269   0.00021   0.00000   0.00564   0.00599   8.09868
   Z19        1.81234  -0.00050   0.00000  -0.01097  -0.01246   1.79988
   X20        2.68261  -0.00053   0.00000  -0.02373  -0.02257   2.66004
   Y20        5.68925  -0.00073   0.00000  -0.00900  -0.00912   5.68013
   Z20        1.42929   0.00107   0.00000   0.03171   0.03217   1.46146
   X21       -4.45211   0.00087   0.00000  -0.01398  -0.01191  -4.46402
   Y21        6.73217   0.00061   0.00000  -0.00972  -0.00940   6.72277
   Z21       -0.38676   0.00056   0.00000  -0.00407  -0.00686  -0.39361
   X22       -3.79571  -0.00007   0.00000   0.00536   0.00851  -3.78721
   Y22       -2.13284   0.00008   0.00000   0.01195   0.01102  -2.12182
   Z22       -5.44136  -0.00045   0.00000  -0.02596  -0.02645  -5.46780
   X23        0.14214   0.00044   0.00000   0.02652   0.02917   0.17131
   Y23       -2.48048   0.00036   0.00000   0.04654   0.04538  -2.43509
   Z23       -4.32815  -0.00041   0.00000  -0.07928  -0.07803  -4.40617
   X24       -5.99987  -0.00045   0.00000  -0.02214  -0.01916  -6.01904
   Y24        1.66368  -0.00205   0.00000  -0.03047  -0.03079   1.63289
   Z24       -4.04880  -0.00091   0.00000   0.04145   0.03917  -4.00963
   X25       -3.15085  -0.00017   0.00000  -0.02221  -0.02057  -3.17142
   Y25        8.46926  -0.00093   0.00000  -0.00504  -0.00453   8.46473
   Z25        1.12933  -0.00065   0.00000  -0.00690  -0.00954   1.11979
   X26        0.33608  -0.00007   0.00000  -0.02828  -0.02729   0.30879
   Y26        9.48714   0.00040   0.00000   0.00828   0.00878   9.49593
   Z26        2.97179  -0.00002   0.00000  -0.00620  -0.00761   2.96419
   X27       -6.40363  -0.00051   0.00000  -0.02392  -0.02160  -6.42523
   Y27        7.08239  -0.00053   0.00000  -0.03276  -0.03233   7.05007
   Z27       -0.90956   0.00018   0.00000   0.01437   0.01068  -0.89888
   X28       -5.96237   0.00099   0.00000  -0.01179  -0.00852  -5.97089
   Y28       -0.63732   0.00173   0.00000  -0.01529  -0.01593  -0.65324
   Z28       -5.37761   0.00150   0.00000   0.02359   0.02186  -5.35575
   X29       -3.80308  -0.00027   0.00000   0.00548   0.00885  -3.79423
   Y29       -3.90015  -0.00012   0.00000   0.01832   0.01715  -3.88299
   Z29       -6.47941  -0.00006   0.00000  -0.03743  -0.03752  -6.51693
   X30       -7.68126  -0.00103   0.00000  -0.04688  -0.04379  -7.72505
   Y30        2.83636  -0.00030   0.00000  -0.06221  -0.06232   2.77404
   Z30       -4.05941   0.00110   0.00000   0.09629   0.09302  -3.96639
   X31       -4.11706  -0.00044   0.00000  -0.03390  -0.03233  -4.14939
   Y31       10.16021   0.00014   0.00000  -0.01529  -0.01452  10.14569
   Z31        1.76744   0.00040   0.00000   0.00641   0.00298   1.77041
   X32       -7.64101  -0.00063   0.00000  -0.02254  -0.01893  -7.65994
   Y32       -1.24230  -0.00024   0.00000  -0.02942  -0.03007  -1.27237
   Z32       -6.38262  -0.00028   0.00000   0.04598   0.04367  -6.33896
   X33       -1.66059   0.00004   0.00000   0.01746   0.01716  -1.64343
   Y33       -0.91229   0.00139   0.00000  -0.00914  -0.00838  -0.92067
   Z33        3.01351   0.00115   0.00000   0.02007   0.02022   3.03373
   X34       -0.57518  -0.00278   0.00000   0.00229   0.00259  -0.57258
   Y34       -4.26249  -0.00026   0.00000  -0.01020  -0.01011  -4.27260
   Z34        0.64009   0.00230   0.00000   0.01618   0.01755   0.65764
   X35       -1.63802   0.00033   0.00000   0.03344   0.03282  -1.60520
   Y35        1.32258  -0.00128   0.00000  -0.01665  -0.01557   1.30700
   Z35        4.40825  -0.00038   0.00000   0.02740   0.02705   4.43531
   X36       -3.86705   0.00033   0.00000   0.00868   0.00832  -3.85873
   Y36       -2.39265  -0.00111   0.00000   0.00614   0.00710  -2.38555
   Z36        2.76448  -0.00079   0.00000   0.00275   0.00230   2.76678
   X37        0.74088   0.00438   0.00000  -0.00413  -0.00341   0.73747
   Y37       -6.03398   0.00127   0.00000   0.00358   0.00317  -6.03081
   Z37       -0.82068   0.00008   0.00000  -0.00996  -0.00764  -0.82832
   X38       -3.18234   0.00289   0.00000   0.00645   0.00647  -3.17587
   Y38       -4.55139   0.00183   0.00000  -0.00506  -0.00453  -4.55592
   Z38        1.21474   0.00092   0.00000   0.01747   0.01780   1.23255
   X39       -3.89731   0.00026   0.00000   0.03134   0.03034  -3.86697
   Y39        2.06348   0.00100   0.00000   0.00861   0.01021   2.07369
   Z39        5.54577   0.00045   0.00000   0.00692   0.00545   5.55121
   X40        0.08690   0.00058   0.00000   0.04595   0.04536   0.13226
   Y40        2.40437  -0.00007   0.00000  -0.03839  -0.03747   2.36690
   Z40        4.63340   0.00030   0.00000   0.04555   0.04570   4.67910
   X41       -6.08250  -0.00051   0.00000   0.00210   0.00134  -6.08116
   Y41       -1.64653   0.00123   0.00000   0.03747   0.03897  -1.60756
   Z41        3.96417   0.00019   0.00000  -0.02763  -0.02920   3.93497
   X42       -0.60524  -0.00448   0.00000  -0.01186  -0.01101  -0.61625
   Y42       -8.07999  -0.00250   0.00000   0.00049   0.00003  -8.07995
   Z42       -1.73205  -0.00037   0.00000  -0.00755  -0.00533  -1.73738
   X43        2.75351  -0.00179   0.00000  -0.01690  -0.01599   2.73752
   Y43       -5.81515   0.00070   0.00000   0.02604   0.02530  -5.78985
   Z43       -1.17564  -0.00042   0.00000  -0.04257  -0.03946  -1.21510
   X44       -4.48885  -0.00203   0.00000   0.00067   0.00083  -4.48801
   Y44       -6.62523  -0.00223   0.00000  -0.00615  -0.00567  -6.63090
   Z44        0.27835  -0.00085   0.00000   0.01471   0.01497   0.29332
   X45       -6.08603  -0.00007   0.00000   0.01456   0.01348  -6.07255
   Y45        0.60058  -0.00050   0.00000   0.03574   0.03755   0.63814
   Z45        5.34615  -0.00083   0.00000  -0.02564  -0.02772   5.31843
   X46       -3.94254   0.00037   0.00000   0.04332   0.04207  -3.90047
   Y46        3.80456  -0.00020   0.00000   0.00466   0.00652   3.81108
   Z46        6.63050  -0.00010   0.00000   0.01227   0.01039   6.64089
   X47       -7.78106   0.00013   0.00000  -0.01017  -0.01100  -7.79206
   Y47       -2.79294   0.00023   0.00000   0.05898   0.06065  -2.73229
   Z47        3.84054  -0.00057   0.00000  -0.05390  -0.05593   3.78461
   X48       -3.19861   0.00322   0.00000  -0.00144  -0.00086  -3.19946
   Y48       -8.37439   0.00183   0.00000  -0.00567  -0.00569  -8.38008
   Z48       -1.20673   0.00039   0.00000   0.01352   0.01472  -1.19201
   X49        0.35622   0.00015   0.00000  -0.01773  -0.01657   0.33965
   Y49       -9.50385   0.00028   0.00000   0.01245   0.01162  -9.49223
   Z49       -2.85111  -0.00030   0.00000  -0.02809  -0.02515  -2.87626
   X50       -6.48503   0.00077   0.00000   0.00165   0.00162  -6.48341
   Y50       -6.88123   0.00019   0.00000  -0.00178  -0.00097  -6.88220
   Z50        0.69203  -0.00036   0.00000   0.01015   0.00962   0.70166
   X51       -7.80289   0.00009   0.00000   0.01156   0.01017  -7.79272
   Y51        1.20685   0.00022   0.00000   0.05449   0.05673   1.26357
   Z51        6.28865  -0.00004   0.00000  -0.04296  -0.04591   6.24274
   X52       -4.19205  -0.00078   0.00000  -0.00597  -0.00527  -4.19732
   Y52       -9.99829  -0.00118   0.00000  -0.01096  -0.01103 -10.00932
   Z52       -1.95890  -0.00015   0.00000   0.02059   0.02174  -1.93716
   X53        0.26165   0.00096   0.00000   0.00461   0.00659   0.26824
   Y53        2.02712  -0.00082   0.00000   0.00773   0.00722   2.03434
   Z53       -1.51210  -0.00049   0.00000  -0.02065  -0.02037  -1.53247
   X54        0.31583   0.00157   0.00000   0.00922   0.00933   0.32516
   Y54       -2.06358  -0.00098   0.00000  -0.01199  -0.01177  -2.07535
   Z54        1.71226   0.00016   0.00000   0.01247   0.01371   1.72597
         Item               Value     Threshold  Converged?
 Maximum Force            0.004477     0.000450     NO 
 RMS     Force            0.001059     0.000300     NO 
 Maximum Displacement     0.093024     0.001800     NO 
 RMS     Displacement     0.023507     0.001200     NO 
 Predicted change in Energy=-7.050589D-04
 GradGradGradGradGradGradGradGradGradGradGradGradGradGradGradGradGradGrad

 Unable to Open any file for archive entry.
 1\1\GINC-X10P1N1\Force\RM062X TD-FC\6-31G(d)\C32H18N4\MAYUMIAO\13-Jul-
 2024\0\\# 6-31g(d) m062x g09default scf=(xqc,maxcycle=64) force guess=
 read td nosymm\\Title Card\\0,1\C,1.408689,0.49706,-0.479442\C,1.42511
 2,-0.499871,0.55947\C,2.635189,-0.973837,1.016456\C,3.846596,-0.495244
 ,0.498433\C,3.819785,0.492126,-0.577234\C,2.584226,0.977019,-1.015841\
 H,2.658553,-1.742761,1.78506\H,2.552337,1.748009,-1.78154\C,5.001085,0
 .963269,-1.205086\N,5.944679,1.367615,-1.749889\C,5.069816,-0.976448,1
 .028303\N,6.066043,-1.379818,1.47509\C,-0.329916,2.243409,-0.265517\C,
 -0.877447,0.469517,-1.524531\C,0.370675,3.16491,0.525994\C,-1.688769,2
 .428148,-0.636991\C,-0.836038,-0.729718,-2.232668\C,-2.038637,1.274313
 ,-1.458963\C,-0.326778,4.282468,0.959049\H,1.419577,3.010619,0.756347\
 C,-2.355957,3.562513,-0.204662\C,-2.008604,-1.128652,-2.879442\H,0.075
 215,-1.312611,-2.290357\C,-3.174997,0.880381,-2.142531\C,-1.667357,4.4
 81738,0.597615\H,0.177845,5.02038,1.572604\H,-3.388654,3.747841,-0.481
 317\C,-3.155148,-0.337253,-2.845707\H,-2.012501,-2.06387,-3.428756\H,-
 4.064748,1.500936,-2.148147\H,-2.178653,5.376552,0.935287\H,-4.043448,
 -0.657396,-3.377538\C,-0.878746,-0.482762,1.594679\C,-0.30437,-2.25561
 2,0.33872\C,-0.866801,0.699878,2.332748\C,-2.046356,-1.266137,1.4629\C
 ,0.392059,-3.193043,-0.434287\C,-1.684023,-2.408491,0.642814\C,-2.0623
 65,1.091945,2.934694\H,0.045986,1.272338,2.451891\C,-3.218721,-0.87130
 4,2.097749\C,-0.320279,-4.275745,-0.916562\H,1.457095,-3.077246,-0.622
 124\C,-2.375395,-3.50592,0.147299\C,-3.220587,0.317814,2.829063\H,-2.0
 86303,2.013288,3.508711\H,-4.11756,-1.477961,2.032325\C,-1.692629,-4.4
 31536,-0.638573\H,0.188505,-5.029221,-1.508743\H,-3.43173,-3.641391,0.
 366208\H,-4.129112,0.638636,3.327812\H,-2.218338,-5.290868,-1.036605\N
 ,0.138459,1.072707,-0.800167\N,0.16713,-1.092,0.906091\\Version=ES64L-
 G16RevC.01\HF=-1448.6879668\RMSD=5.905e-09\RMSF=1.059e-03\Dipole=-7.31
 57896,0.5642779,-0.236806\PG=C01 [X(C32H18N4)]\\@
 The archive entry for this job was punched.


      HUMANKIND PERIODICALLY GOES THROUGH A SPEEDUP OF ITS AFFAIRS, 
      THEREBY EXPERIENCING THE RACE BETWEEN THE RENEWABLE VITALITY
      OF THE LIVING, AND THE BECKONING VITIATION OF DECADENCE.
      IN THIS PERIODIC RACE, ANY PAUSE BECOMES A LUXURY.
      ONLY THEN CAN ONE REFLECT THAT ALL IS PERMITTED;
      ALL IS POSSIBLE.

                              -- THE APOCRYPHA OF MUAD'DIB
                                 CHILDREN OF DUNE, BY FRANK HERBERT
 Job cpu time:       0 days  4 hours 24 minutes 15.9 seconds.
 Elapsed time:       0 days  0 hours  9 minutes 31.4 seconds.
 File lengths (MBytes):  RWF=   1633 Int=      0 D2E=      0 Chk=     65 Scr=      1
 Normal termination of Gaussian 16 at Sat Jul 13 20:57:13 2024.
