 Entering Gaussian System, Link 0=g16
 Input=JOBS/0_B.gjf
 Output=JOBS/0_B.log
 Initial command:
 /data/app/gaussian/C01-avx2//g16/l1.exe "/tmp/Gau-1297218.inp" -scrdir="/tmp/"
 Entering Link 1 = /data/app/gaussian/C01-avx2//g16/l1.exe PID=   1297219.
  
 Copyright (c) 1988-2019, Gaussian, Inc.  All Rights Reserved.
  
 This is part of the Gaussian(R) 16 program.  It is based on
 the Gaussian(R) 09 system (copyright 2009, Gaussian, Inc.),
 the Gaussian(R) 03 system (copyright 2003, Gaussian, Inc.),
 the Gaussian(R) 98 system (copyright 1998, Gaussian, Inc.),
 the Gaussian(R) 94 system (copyright 1995, Gaussian, Inc.),
 the Gaussian 92(TM) system (copyright 1992, Gaussian, Inc.),
 the Gaussian 90(TM) system (copyright 1990, Gaussian, Inc.),
 the Gaussian 88(TM) system (copyright 1988, Gaussian, Inc.),
 the Gaussian 86(TM) system (copyright 1986, Carnegie Mellon
 University), and the Gaussian 82(TM) system (copyright 1983,
 Carnegie Mellon University). Gaussian is a federally registered
 trademark of Gaussian, Inc.
  
 This software contains proprietary and confidential information,
 including trade secrets, belonging to Gaussian, Inc.
  
 This software is provided under written license and may be
 used, copied, transmitted, or stored only in accord with that
 written license.
  
 The following legend is applicable only to US Government
 contracts under FAR:
  
                    RESTRICTED RIGHTS LEGEND
  
 Use, reproduction and disclosure by the US Government is
 subject to restrictions as set forth in subparagraphs (a)
 and (c) of the Commercial Computer Software - Restricted
 Rights clause in FAR 52.227-19.
  
 Gaussian, Inc.
 340 Quinnipiac St., Bldg. 40, Wallingford CT 06492
  
  
 ---------------------------------------------------------------
 Warning -- This program may not be used in any manner that
 competes with the business of Gaussian, Inc. or will provide
 assistance to any competitor of Gaussian, Inc.  The licensee
 of this program is prohibited from giving any competitor of
 Gaussian, Inc. access to this program.  By using this program,
 the user acknowledges that Gaussian, Inc. is engaged in the
 business of creating and licensing software in the field of
 computational chemistry and represents and warrants to the
 licensee that it is not a competitor of Gaussian, Inc. and that
 it will not use this program in any manner prohibited above.
 ---------------------------------------------------------------
  

 Cite this work as:
 Gaussian 16, Revision C.01,
 M. J. Frisch, G. W. Trucks, H. B. Schlegel, G. E. Scuseria, 
 M. A. Robb, J. R. Cheeseman, G. Scalmani, V. Barone, 
 G. A. Petersson, H. Nakatsuji, X. Li, M. Caricato, A. V. Marenich, 
 J. Bloino, B. G. Janesko, R. Gomperts, B. Mennucci, H. P. Hratchian, 
 J. V. Ortiz, A. F. Izmaylov, J. L. Sonnenberg, D. Williams-Young, 
 F. Ding, F. Lipparini, F. Egidi, J. Goings, B. Peng, A. Petrone, 
 T. Henderson, D. Ranasinghe, V. G. Zakrzewski, J. Gao, N. Rega, 
 G. Zheng, W. Liang, M. Hada, M. Ehara, K. Toyota, R. Fukuda, 
 J. Hasegawa, M. Ishida, T. Nakajima, Y. Honda, O. Kitao, H. Nakai, 
 T. Vreven, K. Throssell, J. A. Montgomery, Jr., J. E. Peralta, 
 F. Ogliaro, M. J. Bearpark, J. J. Heyd, E. N. Brothers, K. N. Kudin, 
 V. N. Staroverov, T. A. Keith, R. Kobayashi, J. Normand, 
 K. Raghavachari, A. P. Rendell, J. C. Burant, S. S. Iyengar, 
 J. Tomasi, M. Cossi, J. M. Millam, M. Klene, C. Adamo, R. Cammi, 
 J. W. Ochterski, R. L. Martin, K. Morokuma, O. Farkas, 
 J. B. Foresman, and D. J. Fox, Gaussian, Inc., Wallingford CT, 2019.
 
 ******************************************
 Gaussian 16:  ES64L-G16RevC.01  3-Jul-2019
                13-Jul-2024 
 ******************************************
 %chk=b.chk
 %nprocshared=28
 Will use up to   28 processors via shared memory.
 %mem=48gb
 ----------------------------------------------------------------------
 # 6-31g(d) m062x g09default scf=(xqc,maxcycle=64) force guess=read nos
 ymm
 ----------------------------------------------------------------------
 1/10=7,30=1,38=1,158=3,167=1/1,3;
 2/12=2,15=1,17=6,18=5,40=1/2;
 3/5=1,6=6,7=1,11=2,25=1,27=10,30=1,71=1,74=-55,75=-4,116=-2,158=3/1,2,3;
 4/5=1,60=-1/1;
 5/5=2,7=64,8=3,13=1,38=6,87=10/2,8;
 6/7=2,8=2,9=2,10=2,28=1,87=10/1;
 7/29=1,30=1,87=10/1,2,3,16;
 1/10=7,30=1,158=3,167=1/3;
 99//99;
 Using 2006 physical constants.
 ----------
 Title Card
 ----------
 Symbolic Z-matrix:
 Charge =  0 Multiplicity = 3
 6                     1.40869   0.49706  -0.47944 
 6                     1.42511  -0.49987   0.55947 
 6                     2.63519  -0.97384   1.01646 
 6                     3.8466   -0.49524   0.49843 
 6                     3.81979   0.49213  -0.57723 
 6                     2.58423   0.97702  -1.01584 
 1                     2.65855  -1.74276   1.78506 
 1                     2.55234   1.74801  -1.78154 
 6                     5.00108   0.96327  -1.20509 
 7                     5.94468   1.36762  -1.74989 
 6                     5.06982  -0.97645   1.0283 
 7                     6.06604  -1.37982   1.47509 
 6                    -0.32992   2.24341  -0.26552 
 6                    -0.87745   0.46952  -1.52453 
 6                     0.37068   3.16491   0.52599 
 6                    -1.68877   2.42815  -0.63699 
 6                    -0.83604  -0.72972  -2.23267 
 6                    -2.03864   1.27431  -1.45896 
 6                    -0.32678   4.28247   0.95905 
 1                     1.41958   3.01062   0.75635 
 6                    -2.35596   3.56251  -0.20466 
 6                    -2.0086   -1.12865  -2.87944 
 1                     0.07522  -1.31261  -2.29036 
 6                    -3.175     0.88038  -2.14253 
 6                    -1.66736   4.48174   0.59762 
 1                     0.17785   5.02038   1.5726 
 1                    -3.38865   3.74784  -0.48132 
 6                    -3.15515  -0.33725  -2.84571 
 1                    -2.0125   -2.06387  -3.42876 
 1                    -4.06475   1.50094  -2.14815 
 1                    -2.17865   5.37655   0.93529 
 1                    -4.04345  -0.6574   -3.37754 
 6                    -0.87875  -0.48276   1.59468 
 6                    -0.30437  -2.25561   0.33872 
 6                    -0.8668    0.69988   2.33275 
 6                    -2.04636  -1.26614   1.4629 
 6                     0.39206  -3.19304  -0.43429 
 6                    -1.68402  -2.40849   0.64281 
 6                    -2.06237   1.09194   2.93469 
 1                     0.04599   1.27234   2.45189 
 6                    -3.21872  -0.8713    2.09775 
 6                    -0.32028  -4.27575  -0.91656 
 1                     1.4571   -3.07725  -0.62212 
 6                    -2.3754   -3.50592   0.1473 
 6                    -3.22059   0.31781   2.82906 
 1                    -2.0863    2.01329   3.50871 
 1                    -4.11756  -1.47796   2.03233 
 6                    -1.69263  -4.43154  -0.63857 
 1                     0.18851  -5.02922  -1.50874 
 1                    -3.43173  -3.64139   0.36621 
 1                    -4.12911   0.63864   3.32781 
 1                    -2.21834  -5.29087  -1.0366 
 7                     0.13846   1.07271  -0.80017 
 7                     0.16713  -1.092     0.90609 
 

 GradGradGradGradGradGradGradGradGradGradGradGradGradGradGradGradGradGrad
 Berny optimization.
 Initialization pass.
 Trust Radius=3.00D-01 FncErr=1.00D-07 GrdErr=1.00D-07 EigMax=2.50D+02 EigMin=1.00D-04
 Number of steps in this run=      2 maximum allowed number of steps=      2.
 GradGradGradGradGradGradGradGradGradGradGradGradGradGradGradGradGradGrad

 Symmetry turned off by external request.
 Stoichiometry    C32H18N4(3)
 Framework group  C1[X(C32H18N4)]
 Deg. of freedom   156
 Full point group                 C1      NOp   1
                          Input orientation:                          
 ---------------------------------------------------------------------
 Center     Atomic      Atomic             Coordinates (Angstroms)
 Number     Number       Type             X           Y           Z
 ---------------------------------------------------------------------
      1          6           0        1.408689    0.497060   -0.479442
      2          6           0        1.425112   -0.499871    0.559470
      3          6           0        2.635189   -0.973837    1.016456
      4          6           0        3.846596   -0.495244    0.498433
      5          6           0        3.819785    0.492126   -0.577234
      6          6           0        2.584226    0.977019   -1.015841
      7          1           0        2.658553   -1.742761    1.785060
      8          1           0        2.552337    1.748009   -1.781540
      9          6           0        5.001085    0.963269   -1.205086
     10          7           0        5.944679    1.367615   -1.749889
     11          6           0        5.069816   -0.976448    1.028303
     12          7           0        6.066043   -1.379818    1.475090
     13          6           0       -0.329916    2.243409   -0.265517
     14          6           0       -0.877447    0.469517   -1.524531
     15          6           0        0.370675    3.164910    0.525994
     16          6           0       -1.688769    2.428148   -0.636991
     17          6           0       -0.836038   -0.729718   -2.232668
     18          6           0       -2.038637    1.274313   -1.458963
     19          6           0       -0.326778    4.282468    0.959049
     20          1           0        1.419577    3.010619    0.756347
     21          6           0       -2.355957    3.562513   -0.204662
     22          6           0       -2.008604   -1.128652   -2.879442
     23          1           0        0.075215   -1.312611   -2.290357
     24          6           0       -3.174997    0.880381   -2.142531
     25          6           0       -1.667357    4.481738    0.597615
     26          1           0        0.177845    5.020380    1.572604
     27          1           0       -3.388654    3.747841   -0.481317
     28          6           0       -3.155148   -0.337253   -2.845707
     29          1           0       -2.012501   -2.063870   -3.428756
     30          1           0       -4.064748    1.500936   -2.148147
     31          1           0       -2.178653    5.376552    0.935287
     32          1           0       -4.043448   -0.657396   -3.377538
     33          6           0       -0.878746   -0.482762    1.594679
     34          6           0       -0.304370   -2.255612    0.338720
     35          6           0       -0.866801    0.699878    2.332748
     36          6           0       -2.046356   -1.266137    1.462900
     37          6           0        0.392059   -3.193043   -0.434287
     38          6           0       -1.684023   -2.408491    0.642814
     39          6           0       -2.062365    1.091945    2.934694
     40          1           0        0.045986    1.272338    2.451891
     41          6           0       -3.218721   -0.871304    2.097749
     42          6           0       -0.320279   -4.275745   -0.916562
     43          1           0        1.457095   -3.077246   -0.622124
     44          6           0       -2.375395   -3.505920    0.147299
     45          6           0       -3.220587    0.317814    2.829063
     46          1           0       -2.086303    2.013288    3.508711
     47          1           0       -4.117560   -1.477961    2.032325
     48          6           0       -1.692629   -4.431536   -0.638573
     49          1           0        0.188505   -5.029221   -1.508743
     50          1           0       -3.431730   -3.641391    0.366208
     51          1           0       -4.129112    0.638636    3.327812
     52          1           0       -2.218338   -5.290868   -1.036605
     53          7           0        0.138459    1.072707   -0.800167
     54          7           0        0.167130   -1.092000    0.906091
 ---------------------------------------------------------------------
 Rotational constants (GHZ):           0.1590043           0.1163971           0.0924966
 Standard basis: 6-31G(d) (6D, 7F)
   576 basis functions,  1080 primitive gaussians,   576 cartesian basis functions
   120 alpha electrons      118 beta electrons
       nuclear repulsion energy      3659.6631482799 Hartrees.
 NAtoms=   54 NActive=   54 NUniq=   54 SFac= 1.00D+00 NAtFMM=   60 NAOKFM=F Big=F
 Integral buffers will be    131072 words long.
 Raffenetti 2 integral format.
 Two-electron integral symmetry is turned off.
 One-electron integrals computed using PRISM.
 NBasis=   576 RedAO= T EigKep=  2.59D-04  NBF=   576
 NBsUse=   576 1.00D-06 EigRej= -1.00D+00 NBFU=   576
 Initial guess from the checkpoint file:  "b.chk"
 B after Tr=    -0.000508   -0.000836    0.000403
         Rot=    1.000000    0.000124   -0.000131   -0.000018 Ang=   0.02 deg.
 Initial guess <Sx>= 0.0000 <Sy>= 0.0000 <Sz>= 1.0000 <S**2>= 2.0297 S= 1.0099
 Requested convergence on RMS density matrix=1.00D-08 within  64 cycles.
 Requested convergence on MAX density matrix=1.00D-06.
 Requested convergence on             energy=1.00D-06.
 No special actions if energy rises.
 SCF Done:  E(UM062X) =  -1448.58163616     A.U. after   20 cycles
            NFock= 20  Conv=0.75D-08     -V/T= 2.0086
 <Sx>= 0.0000 <Sy>= 0.0000 <Sz>= 1.0000 <S**2>= 2.0295 S= 1.0098
 <L.S>=  0.00000000000    
 Annihilation of the first spin contaminant:
 S**2 before annihilation     2.0295,   after     2.0006
 QCSCF skips out because SCF is already converged.

 **********************************************************************

            Population analysis using the SCF Density.

 **********************************************************************

 Alpha  occ. eigenvalues --  -14.86229 -14.85145 -14.73034 -14.72993 -10.62283
 Alpha  occ. eigenvalues --  -10.61956 -10.61690 -10.61382 -10.60194 -10.60132
 Alpha  occ. eigenvalues --  -10.59253 -10.58967 -10.58861 -10.58838 -10.58824
 Alpha  occ. eigenvalues --  -10.58738 -10.58616 -10.58448 -10.58343 -10.58188
 Alpha  occ. eigenvalues --  -10.58172 -10.58156 -10.58154 -10.58108 -10.58105
 Alpha  occ. eigenvalues --  -10.57962 -10.57845 -10.57758 -10.57652 -10.57631
 Alpha  occ. eigenvalues --  -10.57544 -10.57468 -10.57418 -10.57349 -10.55557
 Alpha  occ. eigenvalues --  -10.55551  -1.15673  -1.13493  -1.00688  -0.98770
 Alpha  occ. eigenvalues --   -0.98642  -0.98254  -0.97901  -0.97656  -0.95749
 Alpha  occ. eigenvalues --   -0.91701  -0.91107  -0.88397  -0.88136  -0.87710
 Alpha  occ. eigenvalues --   -0.87564  -0.84790  -0.84558  -0.83942  -0.83145
 Alpha  occ. eigenvalues --   -0.77663  -0.76200  -0.73809  -0.73249  -0.72585
 Alpha  occ. eigenvalues --   -0.71755  -0.69573  -0.69226  -0.68956  -0.68306
 Alpha  occ. eigenvalues --   -0.65044  -0.64172  -0.62633  -0.61889  -0.61764
 Alpha  occ. eigenvalues --   -0.60739  -0.59451  -0.58690  -0.56127  -0.55848
 Alpha  occ. eigenvalues --   -0.55183  -0.55118  -0.54234  -0.53948  -0.53281
 Alpha  occ. eigenvalues --   -0.53171  -0.53049  -0.52651  -0.52059  -0.51791
 Alpha  occ. eigenvalues --   -0.51403  -0.51349  -0.50839  -0.49195  -0.47389
 Alpha  occ. eigenvalues --   -0.46607  -0.46355  -0.45843  -0.45606  -0.45359
 Alpha  occ. eigenvalues --   -0.45070  -0.44726  -0.43400  -0.42931  -0.42611
 Alpha  occ. eigenvalues --   -0.42408  -0.41910  -0.41731  -0.40593  -0.40500
 Alpha  occ. eigenvalues --   -0.40485  -0.39576  -0.37276  -0.36652  -0.36617
 Alpha  occ. eigenvalues --   -0.36432  -0.34543  -0.33220  -0.32976  -0.30894
 Alpha  occ. eigenvalues --   -0.29988  -0.29157  -0.28721  -0.27729  -0.15285
 Alpha virt. eigenvalues --   -0.03150  -0.02533   0.00042   0.00244   0.01237
 Alpha virt. eigenvalues --    0.02917   0.03363   0.04870   0.05445   0.09107
 Alpha virt. eigenvalues --    0.10368   0.11430   0.11579   0.12147   0.12190
 Alpha virt. eigenvalues --    0.12946   0.14006   0.14668   0.15524   0.15995
 Alpha virt. eigenvalues --    0.16573   0.17435   0.17486   0.17667   0.17944
 Alpha virt. eigenvalues --    0.18062   0.18437   0.18581   0.20310   0.21380
 Alpha virt. eigenvalues --    0.21672   0.21899   0.22178   0.22479   0.22591
 Alpha virt. eigenvalues --    0.22916   0.23724   0.24772   0.25525   0.26231
 Alpha virt. eigenvalues --    0.26499   0.26956   0.27368   0.27375   0.27899
 Alpha virt. eigenvalues --    0.28149   0.29783   0.30281   0.30664   0.31276
 Alpha virt. eigenvalues --    0.31783   0.34030   0.34334   0.34944   0.35596
 Alpha virt. eigenvalues --    0.36021   0.36272   0.36820   0.38074   0.40094
 Alpha virt. eigenvalues --    0.40768   0.40914   0.42378   0.43207   0.43569
 Alpha virt. eigenvalues --    0.44398   0.44469   0.45811   0.46138   0.46733
 Alpha virt. eigenvalues --    0.47448   0.48738   0.49761   0.51146   0.51501
 Alpha virt. eigenvalues --    0.53643   0.54220   0.54519   0.55065   0.55445
 Alpha virt. eigenvalues --    0.55616   0.55715   0.56443   0.56532   0.57392
 Alpha virt. eigenvalues --    0.57801   0.58046   0.58345   0.58579   0.59287
 Alpha virt. eigenvalues --    0.59620   0.59842   0.59941   0.60711   0.60879
 Alpha virt. eigenvalues --    0.61289   0.61698   0.61991   0.62131   0.62353
 Alpha virt. eigenvalues --    0.62724   0.62910   0.63008   0.63100   0.63705
 Alpha virt. eigenvalues --    0.63859   0.64167   0.64293   0.65193   0.65382
 Alpha virt. eigenvalues --    0.65583   0.65821   0.65864   0.66176   0.66674
 Alpha virt. eigenvalues --    0.67315   0.67354   0.67885   0.68476   0.68645
 Alpha virt. eigenvalues --    0.70606   0.71641   0.72542   0.72822   0.74141
 Alpha virt. eigenvalues --    0.74260   0.74469   0.75562   0.76003   0.77052
 Alpha virt. eigenvalues --    0.77311   0.77907   0.79856   0.79993   0.80549
 Alpha virt. eigenvalues --    0.81289   0.82188   0.83357   0.83726   0.84323
 Alpha virt. eigenvalues --    0.84692   0.85395   0.86508   0.86827   0.86840
 Alpha virt. eigenvalues --    0.86991   0.87330   0.88032   0.88127   0.88453
 Alpha virt. eigenvalues --    0.88671   0.89099   0.89192   0.89460   0.89902
 Alpha virt. eigenvalues --    0.90305   0.90633   0.90685   0.91360   0.92185
 Alpha virt. eigenvalues --    0.92666   0.92844   0.93245   0.93626   0.93955
 Alpha virt. eigenvalues --    0.94759   0.95222   0.95546   0.96178   0.96729
 Alpha virt. eigenvalues --    0.97228   0.97891   0.98419   1.00006   1.00169
 Alpha virt. eigenvalues --    1.00912   1.01156   1.01636   1.02509   1.02976
 Alpha virt. eigenvalues --    1.03326   1.03781   1.04439   1.05126   1.06907
 Alpha virt. eigenvalues --    1.07210   1.07872   1.07926   1.08599   1.09879
 Alpha virt. eigenvalues --    1.11824   1.13219   1.14194   1.16022   1.16867
 Alpha virt. eigenvalues --    1.17400   1.17868   1.18844   1.19393   1.19542
 Alpha virt. eigenvalues --    1.20103   1.21291   1.21711   1.23195   1.23490
 Alpha virt. eigenvalues --    1.24339   1.25018   1.26064   1.27496   1.28637
 Alpha virt. eigenvalues --    1.29193   1.29281   1.30054   1.30163   1.30961
 Alpha virt. eigenvalues --    1.32547   1.33225   1.33813   1.34320   1.35257
 Alpha virt. eigenvalues --    1.36609   1.37779   1.38202   1.38518   1.40416
 Alpha virt. eigenvalues --    1.41186   1.41409   1.42134   1.43720   1.44670
 Alpha virt. eigenvalues --    1.44841   1.45640   1.46399   1.47283   1.47574
 Alpha virt. eigenvalues --    1.48310   1.48621   1.48943   1.50377   1.50553
 Alpha virt. eigenvalues --    1.50968   1.51447   1.51741   1.51870   1.51991
 Alpha virt. eigenvalues --    1.52571   1.53032   1.55219   1.57023   1.59004
 Alpha virt. eigenvalues --    1.59439   1.59976   1.60195   1.61281   1.61770
 Alpha virt. eigenvalues --    1.62691   1.62795   1.64298   1.66383   1.68030
 Alpha virt. eigenvalues --    1.68286   1.73010   1.73418   1.74610   1.75764
 Alpha virt. eigenvalues --    1.77417   1.77557   1.78504   1.78765   1.79193
 Alpha virt. eigenvalues --    1.80112   1.80891   1.81354   1.82569   1.83743
 Alpha virt. eigenvalues --    1.84100   1.85091   1.85841   1.86616   1.87052
 Alpha virt. eigenvalues --    1.87531   1.88640   1.88884   1.89235   1.90991
 Alpha virt. eigenvalues --    1.91401   1.92330   1.92928   1.94145   1.94912
 Alpha virt. eigenvalues --    1.95697   1.96292   1.97071   1.97922   1.98467
 Alpha virt. eigenvalues --    1.98614   1.99663   2.00056   2.00575   2.00981
 Alpha virt. eigenvalues --    2.01809   2.02115   2.02388   2.04092   2.04492
 Alpha virt. eigenvalues --    2.04977   2.05052   2.06392   2.07098   2.08487
 Alpha virt. eigenvalues --    2.09172   2.09323   2.10489   2.10706   2.11115
 Alpha virt. eigenvalues --    2.11359   2.12315   2.13060   2.14089   2.14652
 Alpha virt. eigenvalues --    2.14958   2.15910   2.16057   2.18258   2.18477
 Alpha virt. eigenvalues --    2.19109   2.20430   2.21011   2.21274   2.21728
 Alpha virt. eigenvalues --    2.21976   2.22461   2.23741   2.24904   2.25653
 Alpha virt. eigenvalues --    2.26348   2.26647   2.27200   2.27933   2.28566
 Alpha virt. eigenvalues --    2.29031   2.29727   2.29902   2.30611   2.31401
 Alpha virt. eigenvalues --    2.32649   2.33741   2.34909   2.36020   2.38562
 Alpha virt. eigenvalues --    2.39221   2.41766   2.42592   2.43351   2.47705
 Alpha virt. eigenvalues --    2.48406   2.49167   2.50191   2.52695   2.53936
 Alpha virt. eigenvalues --    2.54319   2.54796   2.56088   2.56272   2.58034
 Alpha virt. eigenvalues --    2.59209   2.59690   2.62031   2.63421   2.63931
 Alpha virt. eigenvalues --    2.64290   2.66152   2.66219   2.66740   2.68083
 Alpha virt. eigenvalues --    2.68424   2.68702   2.69295   2.69415   2.69869
 Alpha virt. eigenvalues --    2.70235   2.71073   2.72396   2.72632   2.73325
 Alpha virt. eigenvalues --    2.76795   2.77886   2.79432   2.81458   2.81951
 Alpha virt. eigenvalues --    2.82844   2.83112   2.83865   2.84046   2.86415
 Alpha virt. eigenvalues --    2.87366   2.89486   2.90676   2.91962   2.93886
 Alpha virt. eigenvalues --    2.94146   2.96150   2.97960   2.98248   2.98909
 Alpha virt. eigenvalues --    3.03768   3.07003   3.08383   3.22372   3.22939
 Alpha virt. eigenvalues --    3.27125   3.29352   3.30215   3.30732   3.31626
 Alpha virt. eigenvalues --    3.36496   3.38321   3.49637   3.50670   3.53924
 Alpha virt. eigenvalues --    4.05184   4.05773   4.07438   4.09480   4.10237
 Alpha virt. eigenvalues --    4.11124   4.11799   4.14064   4.14992   4.16376
 Alpha virt. eigenvalues --    4.16561   4.17034   4.21208   4.24056   4.25720
 Alpha virt. eigenvalues --    4.26187   4.27761   4.30405   4.32539   4.33365
 Alpha virt. eigenvalues --    4.37756   4.39576   4.42799   4.45126   4.46152
 Alpha virt. eigenvalues --    4.48721   4.49074   4.50652   4.59045   4.66170
 Alpha virt. eigenvalues --    4.70543   4.74961   4.76687   4.84222   4.89259
 Alpha virt. eigenvalues --    4.96619
  Beta  occ. eigenvalues --  -14.85921 -14.84919 -14.72836 -14.72803 -10.62297
  Beta  occ. eigenvalues --  -10.61974 -10.61690 -10.61392 -10.59960 -10.59897
  Beta  occ. eigenvalues --  -10.59202 -10.58899 -10.58856 -10.58847 -10.58759
  Beta  occ. eigenvalues --  -10.58730 -10.58549 -10.58402 -10.58373 -10.58177
  Beta  occ. eigenvalues --  -10.58140 -10.58125 -10.58122 -10.58111 -10.58096
  Beta  occ. eigenvalues --  -10.57961 -10.57823 -10.57750 -10.57715 -10.57657
  Beta  occ. eigenvalues --  -10.57621 -10.57328 -10.57222 -10.57162 -10.55630
  Beta  occ. eigenvalues --  -10.55621  -1.14836  -1.12777  -1.00217  -0.98491
  Beta  occ. eigenvalues --   -0.98265  -0.97917  -0.97778  -0.97077  -0.95247
  Beta  occ. eigenvalues --   -0.91404  -0.90844  -0.88168  -0.87659  -0.87370
  Beta  occ. eigenvalues --   -0.87312  -0.84709  -0.84171  -0.83836  -0.82558
  Beta  occ. eigenvalues --   -0.77150  -0.75941  -0.73407  -0.72927  -0.72273
  Beta  occ. eigenvalues --   -0.71517  -0.69243  -0.69009  -0.68675  -0.68184
  Beta  occ. eigenvalues --   -0.64650  -0.63856  -0.62402  -0.61690  -0.61514
  Beta  occ. eigenvalues --   -0.60527  -0.58341  -0.58259  -0.55942  -0.55651
  Beta  occ. eigenvalues --   -0.55019  -0.54905  -0.53786  -0.53695  -0.52969
  Beta  occ. eigenvalues --   -0.52768  -0.52566  -0.52225  -0.51917  -0.51677
  Beta  occ. eigenvalues --   -0.51264  -0.51233  -0.50723  -0.48723  -0.46268
  Beta  occ. eigenvalues --   -0.46063  -0.45852  -0.45565  -0.45336  -0.45042
  Beta  occ. eigenvalues --   -0.44727  -0.44317  -0.43252  -0.42520  -0.42359
  Beta  occ. eigenvalues --   -0.41848  -0.41269  -0.40927  -0.39947  -0.39849
  Beta  occ. eigenvalues --   -0.38796  -0.37631  -0.36749  -0.36313  -0.36219
  Beta  occ. eigenvalues --   -0.36095  -0.33595  -0.31926  -0.31471  -0.29865
  Beta  occ. eigenvalues --   -0.28979  -0.27017  -0.26255
  Beta virt. eigenvalues --   -0.18183  -0.02689  -0.02136  -0.01324   0.00572
  Beta virt. eigenvalues --    0.00726   0.01543   0.03916   0.04158   0.05378
  Beta virt. eigenvalues --    0.05805   0.10667   0.11281   0.11636   0.11965
  Beta virt. eigenvalues --    0.12234   0.12288   0.13259   0.14410   0.14829
  Beta virt. eigenvalues --    0.15624   0.16743   0.17342   0.17530   0.17735
  Beta virt. eigenvalues --    0.17884   0.18089   0.18245   0.18584   0.18836
  Beta virt. eigenvalues --    0.20377   0.21573   0.21841   0.22113   0.22331
  Beta virt. eigenvalues --    0.22652   0.22784   0.23064   0.24115   0.25137
  Beta virt. eigenvalues --    0.26259   0.26660   0.26882   0.27370   0.27759
  Beta virt. eigenvalues --    0.28005   0.28137   0.28541   0.30016   0.30558
  Beta virt. eigenvalues --    0.31067   0.31443   0.31897   0.34341   0.34650
  Beta virt. eigenvalues --    0.35370   0.35833   0.36353   0.36703   0.37099
  Beta virt. eigenvalues --    0.38208   0.40243   0.41002   0.41140   0.42813
  Beta virt. eigenvalues --    0.43616   0.43868   0.44691   0.45282   0.46264
  Beta virt. eigenvalues --    0.46765   0.47166   0.47746   0.48995   0.49896
  Beta virt. eigenvalues --    0.51333   0.51775   0.53934   0.54443   0.54726
  Beta virt. eigenvalues --    0.55344   0.55820   0.55941   0.56193   0.56705
  Beta virt. eigenvalues --    0.56905   0.57662   0.58034   0.58256   0.58546
  Beta virt. eigenvalues --    0.58778   0.59485   0.59773   0.60120   0.60365
  Beta virt. eigenvalues --    0.60765   0.61067   0.61507   0.61920   0.62245
  Beta virt. eigenvalues --    0.62274   0.62552   0.62903   0.63094   0.63145
  Beta virt. eigenvalues --    0.63340   0.63903   0.64294   0.64425   0.64582
  Beta virt. eigenvalues --    0.65372   0.65642   0.65894   0.66060   0.66095
  Beta virt. eigenvalues --    0.66424   0.66882   0.67597   0.67879   0.68267
  Beta virt. eigenvalues --    0.68593   0.68941   0.70942   0.72019   0.72678
  Beta virt. eigenvalues --    0.73045   0.74228   0.74467   0.74541   0.75623
  Beta virt. eigenvalues --    0.76404   0.77322   0.77542   0.78618   0.80174
  Beta virt. eigenvalues --    0.80365   0.80836   0.81811   0.82486   0.83706
  Beta virt. eigenvalues --    0.84007   0.84635   0.84881   0.85600   0.86628
  Beta virt. eigenvalues --    0.87017   0.87123   0.87487   0.87758   0.88144
  Beta virt. eigenvalues --    0.88341   0.88757   0.88897   0.89294   0.89539
  Beta virt. eigenvalues --    0.89857   0.90162   0.90408   0.91013   0.91158
  Beta virt. eigenvalues --    0.91640   0.92607   0.93005   0.93099   0.93460
  Beta virt. eigenvalues --    0.93848   0.94336   0.95077   0.95468   0.95868
  Beta virt. eigenvalues --    0.96504   0.97068   0.97500   0.98570   0.98853
  Beta virt. eigenvalues --    1.00421   1.00765   1.01173   1.01593   1.01880
  Beta virt. eigenvalues --    1.02749   1.03302   1.03586   1.04173   1.04795
  Beta virt. eigenvalues --    1.05592   1.07204   1.07393   1.08153   1.08396
  Beta virt. eigenvalues --    1.09208   1.10250   1.12047   1.13503   1.14431
  Beta virt. eigenvalues --    1.16278   1.17086   1.17830   1.18187   1.19431
  Beta virt. eigenvalues --    1.19810   1.19911   1.20331   1.21587   1.21884
  Beta virt. eigenvalues --    1.23441   1.23739   1.25073   1.25458   1.26578
  Beta virt. eigenvalues --    1.27743   1.29054   1.29558   1.29595   1.30422
  Beta virt. eigenvalues --    1.30961   1.31453   1.33006   1.33671   1.34253
  Beta virt. eigenvalues --    1.34739   1.35627   1.36918   1.38213   1.38457
  Beta virt. eigenvalues --    1.40039   1.40667   1.41461   1.41669   1.42642
  Beta virt. eigenvalues --    1.44612   1.44910   1.45226   1.45902   1.46651
  Beta virt. eigenvalues --    1.47605   1.47881   1.48823   1.49072   1.49805
  Beta virt. eigenvalues --    1.50653   1.50862   1.51260   1.51837   1.52105
  Beta virt. eigenvalues --    1.52132   1.52301   1.52843   1.53345   1.55498
  Beta virt. eigenvalues --    1.57448   1.59328   1.59637   1.60359   1.60554
  Beta virt. eigenvalues --    1.61421   1.62066   1.62999   1.63160   1.64720
  Beta virt. eigenvalues --    1.66613   1.68324   1.68803   1.73392   1.73978
  Beta virt. eigenvalues --    1.75022   1.76076   1.77753   1.78177   1.78759
  Beta virt. eigenvalues --    1.79104   1.79532   1.80462   1.81347   1.81751
  Beta virt. eigenvalues --    1.83067   1.84082   1.84320   1.85397   1.86102
  Beta virt. eigenvalues --    1.86853   1.87611   1.87853   1.89032   1.89366
  Beta virt. eigenvalues --    1.89735   1.91241   1.91785   1.92846   1.93379
  Beta virt. eigenvalues --    1.94705   1.95290   1.96267   1.96814   1.97361
  Beta virt. eigenvalues --    1.98248   1.98754   1.98945   2.00001   2.00339
  Beta virt. eigenvalues --    2.00853   2.01380   2.02265   2.02498   2.02862
  Beta virt. eigenvalues --    2.04468   2.04924   2.05263   2.05356   2.06672
  Beta virt. eigenvalues --    2.07489   2.08878   2.09493   2.09610   2.10844
  Beta virt. eigenvalues --    2.11110   2.11633   2.11900   2.12597   2.13927
  Beta virt. eigenvalues --    2.14601   2.14901   2.15399   2.16314   2.16401
  Beta virt. eigenvalues --    2.18586   2.19061   2.19410   2.21101   2.21331
  Beta virt. eigenvalues --    2.22087   2.22157   2.22818   2.22912   2.24493
  Beta virt. eigenvalues --    2.25223   2.26008   2.26706   2.26990   2.27536
  Beta virt. eigenvalues --    2.28404   2.29027   2.29489   2.30269   2.30594
  Beta virt. eigenvalues --    2.31104   2.32030   2.33064   2.34292   2.35386
  Beta virt. eigenvalues --    2.36377   2.38893   2.39823   2.42421   2.43195
  Beta virt. eigenvalues --    2.43840   2.48262   2.49037   2.49683   2.50561
  Beta virt. eigenvalues --    2.53833   2.54217   2.54705   2.55188   2.56703
  Beta virt. eigenvalues --    2.56938   2.58461   2.59774   2.60121   2.62481
  Beta virt. eigenvalues --    2.63799   2.64315   2.64762   2.66597   2.66753
  Beta virt. eigenvalues --    2.67369   2.68403   2.68751   2.69201   2.69713
  Beta virt. eigenvalues --    2.69845   2.70486   2.70657   2.71465   2.73078
  Beta virt. eigenvalues --    2.73677   2.74037   2.77519   2.78478   2.79989
  Beta virt. eigenvalues --    2.82168   2.82671   2.83187   2.83635   2.84201
  Beta virt. eigenvalues --    2.84463   2.86804   2.87953   2.89890   2.91274
  Beta virt. eigenvalues --    2.92940   2.94352   2.94571   2.96798   2.98357
  Beta virt. eigenvalues --    2.98792   2.99330   3.04597   3.07496   3.09308
  Beta virt. eigenvalues --    3.23080   3.23601   3.28254   3.29961   3.30847
  Beta virt. eigenvalues --    3.31604   3.32561   3.36877   3.39151   3.50065
  Beta virt. eigenvalues --    3.51007   3.55733   4.05444   4.06891   4.07737
  Beta virt. eigenvalues --    4.09807   4.10517   4.11407   4.12050   4.14381
  Beta virt. eigenvalues --    4.15287   4.16619   4.17272   4.17493   4.21325
  Beta virt. eigenvalues --    4.24388   4.25892   4.26309   4.28709   4.30563
  Beta virt. eigenvalues --    4.32862   4.33788   4.38455   4.39810   4.43076
  Beta virt. eigenvalues --    4.45453   4.46428   4.49197   4.49530   4.50994
  Beta virt. eigenvalues --    4.59364   4.66203   4.71849   4.75214   4.76858
  Beta virt. eigenvalues --    4.84485   4.89503   4.97870
          Condensed to atoms (all electrons):
          Atomic-Atomic Spin Densities.
 Mulliken charges and spin densities:
               1          2
     1  C    0.156247   0.272214
     2  C    0.178320   0.275549
     3  C   -0.207245  -0.119736
     4  C    0.085891   0.330657
     5  C    0.079676   0.317296
     6  C   -0.191402  -0.115790
     7  H    0.199594   0.003200
     8  H    0.199684   0.002927
     9  C    0.193137  -0.071639
    10  N   -0.490254   0.166298
    11  C    0.189781  -0.075225
    12  N   -0.490565   0.172756
    13  C    0.280824  -0.029405
    14  C    0.273047  -0.030058
    15  C   -0.164550   0.101689
    16  C    0.053851   0.073760
    17  C   -0.153788   0.091318
    18  C    0.053017   0.012502
    19  C   -0.177876  -0.046832
    20  H    0.209469  -0.005011
    21  C   -0.190943  -0.029127
    22  C   -0.167416  -0.020263
    23  H    0.196265  -0.004166
    24  C   -0.190924   0.023718
    25  C   -0.169628   0.111883
    26  H    0.186125   0.001455
    27  H    0.181705   0.000956
    28  C   -0.170752   0.061886
    29  H    0.180511   0.000297
    30  H    0.180224  -0.001490
    31  H    0.179820  -0.005605
    32  H    0.177109  -0.003342
    33  C    0.275511  -0.019248
    34  C    0.279593  -0.015097
    35  C   -0.165487   0.060010
    36  C    0.040101   0.001446
    37  C   -0.173897   0.070918
    38  C    0.043335   0.063179
    39  C   -0.168488  -0.006600
    40  H    0.187354  -0.002887
    41  C   -0.183385   0.024327
    42  C   -0.179401  -0.034390
    43  H    0.203647  -0.003565
    44  C   -0.185632  -0.026733
    45  C   -0.175600   0.033605
    46  H    0.174702  -0.000109
    47  H    0.176120  -0.001372
    48  C   -0.175680   0.084727
    49  H    0.181896   0.001098
    50  H    0.176763   0.001038
    51  H    0.172300  -0.001894
    52  H    0.175607  -0.004210
    53  N   -0.667867   0.182904
    54  N   -0.680447   0.130178
 Sum of Mulliken charges =  -0.00000   2.00000
 Mulliken charges and spin densities with hydrogens summed into heavy atoms:
               1          2
     1  C    0.156247   0.272214
     2  C    0.178320   0.275549
     3  C   -0.007651  -0.116535
     4  C    0.085891   0.330657
     5  C    0.079676   0.317296
     6  C    0.008282  -0.112863
     9  C    0.193137  -0.071639
    10  N   -0.490254   0.166298
    11  C    0.189781  -0.075225
    12  N   -0.490565   0.172756
    13  C    0.280824  -0.029405
    14  C    0.273047  -0.030058
    15  C    0.044919   0.096678
    16  C    0.053851   0.073760
    17  C    0.042476   0.087152
    18  C    0.053017   0.012502
    19  C    0.008249  -0.045377
    21  C   -0.009238  -0.028171
    22  C    0.013095  -0.019966
    24  C   -0.010699   0.022227
    25  C    0.010192   0.106278
    28  C    0.006357   0.058544
    33  C    0.275511  -0.019248
    34  C    0.279593  -0.015097
    35  C    0.021867   0.057123
    36  C    0.040101   0.001446
    37  C    0.029750   0.067353
    38  C    0.043335   0.063179
    39  C    0.006214  -0.006709
    41  C   -0.007265   0.022956
    42  C    0.002495  -0.033292
    44  C   -0.008868  -0.025694
    45  C   -0.003299   0.031711
    48  C   -0.000073   0.080517
    53  N   -0.667867   0.182904
    54  N   -0.680447   0.130178
 Electronic spatial extent (au):  <R**2>=          12755.4942
 Charge=             -0.0000 electrons
 Dipole moment (field-independent basis, Debye):
    X=            -16.6682    Y=              0.6555    Z=             -0.0948  Tot=             16.6814
 Quadrupole moment (field-independent basis, Debye-Ang):
   XX=           -270.7536   YY=           -177.3773   ZZ=           -202.1643
   XY=             -0.7441   XZ=              3.6740   YZ=             18.2892
 Traceless Quadrupole moment (field-independent basis, Debye-Ang):
   XX=            -53.9885   YY=             39.3878   ZZ=             14.6007
   XY=             -0.7441   XZ=              3.6740   YZ=             18.2892
 Octapole moment (field-independent basis, Debye-Ang**2):
  XXX=           -702.2847  YYY=             14.5392  ZZZ=              1.3674  XYY=            -77.5968
  XXY=              5.4984  XXZ=              7.6953  XZZ=            -73.5669  YZZ=             -0.4118
  YYZ=              0.3137  XYZ=             30.5486
 Hexadecapole moment (field-independent basis, Debye-Ang**3):
 XXXX=         -12410.7803 YYYY=          -5356.9042 ZZZZ=          -3017.8024 XXXY=             38.4989
 XXXZ=            118.4207 YYYX=            -14.0715 YYYZ=            209.4980 ZZZX=             80.8856
 ZZZY=             13.6770 XXYY=          -2501.7940 XXZZ=          -2164.8289 YYZZ=          -1441.9922
 XXYZ=            227.9282 YYXZ=             28.5314 ZZXY=             -9.6729
 N-N= 3.659663148280D+03 E-N=-1.067418578783D+04  KE= 1.436274440158D+03
                          Isotropic Fermi Contact Couplings
        Atom                 a.u.       MegaHertz       Gauss      10(-4) cm-1
     1  C(13)              0.04553      25.59310       9.13226       8.53694
     2  C(13)              0.05132      28.84854      10.29388       9.62284
     3  C(13)             -0.03452     -19.40576      -6.92446      -6.47306
     4  C(13)              0.04923      27.67233       9.87418       9.23050
     5  C(13)              0.04692      26.37367       9.41078       8.79731
     6  C(13)             -0.03251     -18.27462      -6.52084      -6.09576
     7  H(1)               0.00109       2.42606       0.86568       0.80925
     8  H(1)               0.00096       2.15580       0.76924       0.71910
     9  C(13)             -0.02753     -15.47478      -5.52178      -5.16183
    10  N(14)              0.03355       5.42048       1.93416       1.80808
    11  C(13)             -0.02862     -16.08916      -5.74101      -5.36677
    12  N(14)              0.03481       5.62418       2.00685       1.87602
    13  C(13)             -0.00022      -0.12179      -0.04346      -0.04063
    14  C(13)             -0.00270      -1.51769      -0.54155      -0.50625
    15  C(13)              0.01808      10.16478       3.62705       3.39061
    16  C(13)              0.01240       6.96964       2.48694       2.32482
    17  C(13)              0.01718       9.65444       3.44495       3.22038
    18  C(13)             -0.00034      -0.19340      -0.06901      -0.06451
    19  C(13)             -0.01152      -6.47483      -2.31038      -2.15977
    20  H(1)              -0.00174      -3.89459      -1.38969      -1.29909
    21  C(13)             -0.00783      -4.39971      -1.56992      -1.46758
    22  C(13)             -0.00647      -3.63508      -1.29709      -1.21253
    23  H(1)              -0.00141      -3.14065      -1.12066      -1.04761
    24  C(13)              0.00247       1.38777       0.49519       0.46291
    25  C(13)              0.01928      10.83736       3.86704       3.61495
    26  H(1)               0.00046       1.03769       0.37027       0.34614
    27  H(1)               0.00034       0.76863       0.27427       0.25639
    28  C(13)              0.00966       5.43044       1.93771       1.81140
    29  H(1)               0.00022       0.49882       0.17799       0.16639
    30  H(1)              -0.00046      -1.02984      -0.36747      -0.34352
    31  H(1)              -0.00174      -3.88584      -1.38656      -1.29618
    32  H(1)              -0.00103      -2.30695      -0.82318      -0.76952
    33  C(13)              0.00002       0.01193       0.00426       0.00398
    34  C(13)              0.00422       2.37481       0.84739       0.79215
    35  C(13)              0.01156       6.49780       2.31858       2.16743
    36  C(13)             -0.00174      -0.98077      -0.34996      -0.32715
    37  C(13)              0.01242       6.98258       2.49156       2.32914
    38  C(13)              0.01120       6.29428       2.24596       2.09955
    39  C(13)             -0.00313      -1.75896      -0.62764      -0.58672
    40  H(1)              -0.00083      -1.86255      -0.66461      -0.62128
    41  C(13)              0.00328       1.84157       0.65712       0.61428
    42  C(13)             -0.00852      -4.78713      -1.70817      -1.59682
    43  H(1)              -0.00126      -2.81288      -1.00371      -0.93828
    44  C(13)             -0.00672      -3.77692      -1.34770      -1.25984
    45  C(13)              0.00491       2.76218       0.98561       0.92136
    46  H(1)               0.00008       0.18561       0.06623       0.06191
    47  H(1)              -0.00042      -0.94927      -0.33872      -0.31664
    48  C(13)              0.01458       8.19788       2.92521       2.73452
    49  H(1)               0.00035       0.77642       0.27704       0.25898
    50  H(1)               0.00036       0.80928       0.28877       0.26995
    51  H(1)              -0.00058      -1.30302      -0.46495      -0.43464
    52  H(1)              -0.00130      -2.90330      -1.03597      -0.96844
    53  N(14)              0.03994       6.45253       2.30242       2.15233
    54  N(14)              0.02697       4.35777       1.55496       1.45360
 --------------------------------------------------------
       Center         ----  Spin Dipole Couplings  ----
                      3XX-RR        3YY-RR        3ZZ-RR
 --------------------------------------------------------
     1   Atom       -0.144783      0.052739      0.092044
     2   Atom       -0.147537      0.057514      0.090022
     3   Atom        0.053020     -0.026676     -0.026343
     4   Atom       -0.179421      0.116389      0.063031
     5   Atom       -0.171147      0.111299      0.059848
     6   Atom        0.054231     -0.026673     -0.027557
     7   Atom        0.007624     -0.003849     -0.003775
     8   Atom        0.007900     -0.003879     -0.004021
     9   Atom        0.031879     -0.017954     -0.013925
    10   Atom       -0.150962      0.094775      0.056186
    11   Atom        0.037162     -0.018495     -0.018667
    12   Atom       -0.162013      0.098466      0.063547
    13   Atom        0.008012      0.009121     -0.017133
    14   Atom        0.017436     -0.003428     -0.014008
    15   Atom       -0.034012     -0.010228      0.044240
    16   Atom       -0.029508     -0.010528      0.040035
    17   Atom       -0.039176      0.002231      0.036945
    18   Atom       -0.002597     -0.003442      0.006039
    19   Atom        0.012111      0.006332     -0.018443
    20   Atom        0.004619      0.000749     -0.005367
    21   Atom        0.004833      0.005525     -0.010358
    22   Atom        0.005989     -0.001007     -0.004982
    23   Atom        0.004215     -0.002500     -0.001715
    24   Atom       -0.007663     -0.003336      0.010999
    25   Atom       -0.037908     -0.010506      0.048414
    26   Atom        0.000521      0.001336     -0.001857
    27   Atom        0.000655      0.000608     -0.001262
    28   Atom       -0.017024     -0.012720      0.029744
    29   Atom        0.000287     -0.000342      0.000055
    30   Atom        0.001762      0.000238     -0.002000
    31   Atom       -0.003878      0.006199     -0.002321
    32   Atom        0.002299     -0.002782      0.000483
    33   Atom        0.015915     -0.004128     -0.011786
    34   Atom        0.005474      0.005318     -0.010792
    35   Atom       -0.027643      0.007162      0.020481
    36   Atom        0.000313     -0.001965      0.001653
    37   Atom       -0.027161     -0.004221      0.031382
    38   Atom       -0.027115     -0.007345      0.034461
    39   Atom        0.001806     -0.002572      0.000766
    40   Atom        0.002542     -0.002691      0.000149
    41   Atom       -0.008514     -0.002385      0.010899
    42   Atom        0.009969      0.004540     -0.014509
    43   Atom        0.003004      0.002064     -0.005069
    44   Atom        0.006326      0.004227     -0.010554
    45   Atom       -0.010123     -0.006866      0.016989
    46   Atom       -0.000217     -0.000235      0.000452
    47   Atom        0.001796     -0.000201     -0.001596
    48   Atom       -0.032672     -0.002844      0.035515
    49   Atom        0.000408      0.001241     -0.001648
    50   Atom        0.000339      0.000798     -0.001137
    51   Atom        0.001600     -0.001770      0.000170
    52   Atom       -0.002867      0.004380     -0.001512
    53   Atom       -0.145152     -0.102562      0.247714
    54   Atom       -0.107040     -0.079704      0.186744
 --------------------------------------------------------
                        XY            XZ            YZ
 --------------------------------------------------------
     1   Atom        0.023088      0.031744      0.223770
     2   Atom       -0.019671     -0.024602      0.221848
     3   Atom       -0.002766     -0.002074     -0.059305
     4   Atom       -0.003750      0.001222      0.271951
     5   Atom        0.026827      0.020116      0.261697
     6   Atom        0.000626     -0.001417     -0.057788
     7   Atom       -0.001020      0.000979     -0.003488
     8   Atom        0.001051     -0.002096     -0.003627
     9   Atom        0.020470     -0.026874     -0.024598
    10   Atom        0.015632      0.035306      0.216190
    11   Atom       -0.023600      0.023109     -0.023406
    12   Atom        0.006567     -0.014596      0.224534
    13   Atom       -0.017713     -0.002204      0.024375
    14   Atom        0.001443      0.020194      0.018508
    15   Atom        0.019153     -0.034620     -0.054545
    16   Atom        0.006022     -0.011690     -0.044949
    17   Atom        0.013423     -0.013041     -0.061372
    18   Atom        0.002881     -0.003210     -0.008781
    19   Atom       -0.009373      0.010826      0.020277
    20   Atom       -0.001253      0.003283      0.000794
    21   Atom       -0.005411      0.008045      0.010775
    22   Atom       -0.001331      0.006113      0.007853
    23   Atom       -0.002641      0.000271      0.003203
    24   Atom        0.007353     -0.010921     -0.015399
    25   Atom        0.020350     -0.038473     -0.060217
    26   Atom       -0.001879     -0.000143      0.001080
    27   Atom       -0.000450      0.000922      0.001123
    28   Atom        0.014954     -0.023706     -0.031269
    29   Atom        0.001358      0.002270      0.001205
    30   Atom       -0.002945      0.000195      0.000075
    31   Atom       -0.005969     -0.003994      0.002347
    32   Atom        0.003765      0.004085      0.001067
    33   Atom       -0.002726     -0.014557      0.013012
    34   Atom        0.014696      0.007873      0.017482
    35   Atom       -0.006217      0.002740     -0.043556
    36   Atom       -0.000022     -0.001316     -0.003329
    37   Atom       -0.011230      0.020319     -0.040010
    38   Atom       -0.000899      0.002500     -0.041731
    39   Atom       -0.000660     -0.002467      0.001842
    40   Atom        0.001089     -0.000685      0.002926
    41   Atom       -0.005871      0.008380     -0.015837
    42   Atom        0.006003     -0.005955      0.015905
    43   Atom        0.000468     -0.002168      0.000997
    44   Atom        0.005230     -0.006178      0.011524
    45   Atom       -0.007886      0.011528     -0.017941
    46   Atom       -0.001307     -0.002054      0.001098
    47   Atom        0.002549     -0.000137     -0.000101
    48   Atom       -0.011959      0.022465     -0.048664
    49   Atom        0.001379      0.000204      0.000930
    50   Atom        0.000753     -0.000517      0.000841
    51   Atom       -0.002247     -0.002868      0.000660
    52   Atom        0.004863      0.003181      0.001973
    53   Atom        0.105454     -0.204395     -0.252194
    54   Atom       -0.077360      0.154096     -0.186537
 --------------------------------------------------------


 ---------------------------------------------------------------------------------
              Anisotropic Spin Dipole Couplings in Principal Axis System
 ---------------------------------------------------------------------------------

       Atom             a.u.   MegaHertz   Gauss  10(-4) cm-1        Axes

              Baa    -0.1551   -20.808    -7.425    -6.941 -0.5378 -0.5894  0.6028
     1 C(13)  Bbb    -0.1454   -19.508    -6.961    -6.507  0.8385 -0.4480  0.3101
              Bcc     0.3004    40.316    14.386    13.448  0.0873  0.6723  0.7352
 
              Baa    -0.1516   -20.344    -7.259    -6.786  0.7805 -0.4189  0.4640
     2 C(13)  Bbb    -0.1468   -19.701    -7.030    -6.572  0.6212  0.6031 -0.5004
              Bcc     0.2984    40.046    14.289    13.358 -0.0703  0.6788  0.7309
 
              Baa    -0.0859   -11.527    -4.113    -3.845  0.0246  0.7080  0.7058
     3 C(13)  Bbb     0.0328     4.399     1.570     1.467 -0.0238 -0.7054  0.7084
              Bcc     0.0531     7.128     2.543     2.378  0.9994 -0.0343 -0.0005
 
              Baa    -0.1855   -24.890    -8.881    -8.302 -0.4923 -0.5860  0.6437
     4 C(13)  Bbb    -0.1775   -23.818    -8.499    -7.945  0.8704 -0.3283  0.3668
              Bcc     0.3630    48.708    17.380    16.247 -0.0036  0.7408  0.6717
 
              Baa    -0.1791   -24.028    -8.574    -8.015  0.4730 -0.6136  0.6323
     5 C(13)  Bbb    -0.1716   -23.029    -8.217    -7.681  0.8788  0.2765 -0.3890
              Bcc     0.3507    47.056    16.791    15.696  0.0639  0.7396  0.6700
 
              Baa    -0.0849   -11.394    -4.066    -3.801  0.0041  0.7044  0.7098
     6 C(13)  Bbb     0.0306     4.104     1.465     1.369 -0.0609  0.7087 -0.7029
              Bcc     0.0543     7.289     2.601     2.431  0.9981  0.0404 -0.0458
 
              Baa    -0.0073    -3.895    -1.390    -1.299  0.0025  0.7112  0.7030
     7 H(1)   Bbb    -0.0006    -0.303    -0.108    -0.101 -0.1700 -0.6925  0.7011
              Bcc     0.0079     4.198     1.498     1.400  0.9854 -0.1213  0.1192
 
              Baa    -0.0076    -4.064    -1.450    -1.356  0.0512  0.6881  0.7238
     8 H(1)   Bbb    -0.0009    -0.468    -0.167    -0.156 -0.2427  0.7116 -0.6593
              Bcc     0.0085     4.532     1.617     1.512  0.9688  0.1419 -0.2034
 
              Baa    -0.0408    -5.478    -1.955    -1.827  0.0631  0.7042  0.7072
     9 C(13)  Bbb    -0.0151    -2.030    -0.724    -0.677 -0.5772  0.6038 -0.5498
              Bcc     0.0559     7.508     2.679     2.504  0.8141  0.3735 -0.4446
 
              Baa    -0.1643    -6.336    -2.261    -2.113  0.8243  0.3326 -0.4582
    10 N(14)  Bbb    -0.1311    -5.055    -1.804    -1.686 -0.5606  0.5925 -0.5784
              Bcc     0.2953    11.390     4.064     3.799  0.0791  0.7337  0.6749
 
              Baa    -0.0420    -5.634    -2.011    -1.879  0.0051  0.7084  0.7058
    11 C(13)  Bbb    -0.0158    -2.117    -0.756    -0.706 -0.5293 -0.5970  0.6029
              Bcc     0.0578     7.752     2.766     2.586  0.8484 -0.3767  0.3719
 
              Baa    -0.1707    -6.585    -2.350    -2.197  0.8681 -0.3303  0.3706
    12 N(14)  Bbb    -0.1355    -5.227    -1.865    -1.744 -0.4963 -0.5938  0.6333
              Bcc     0.3063    11.812     4.215     3.940 -0.0109  0.7337  0.6794
 
              Baa    -0.0331    -4.443    -1.585    -1.482 -0.1934 -0.5500  0.8124
    13 C(13)  Bbb    -0.0011    -0.145    -0.052    -0.048  0.8191  0.3654  0.4423
              Bcc     0.0342     4.588     1.637     1.530 -0.5401  0.7510  0.3799
 
              Baa    -0.0330    -4.426    -1.579    -1.477 -0.3112 -0.4934  0.8122
    14 C(13)  Bbb     0.0026     0.352     0.126     0.118 -0.4948  0.8138  0.3047
              Bcc     0.0304     4.074     1.454     1.359  0.8114  0.3071  0.4974
 
              Baa    -0.0475    -6.374    -2.274    -2.126  0.8472  0.2504  0.4686
    15 C(13)  Bbb    -0.0430    -5.772    -2.060    -1.925 -0.4367  0.8305  0.3459
              Bcc     0.0905    12.146     4.334     4.052 -0.3025 -0.4976  0.8129
 
              Baa    -0.0369    -4.952    -1.767    -1.652  0.1220  0.8488  0.5144
    16 C(13)  Bbb    -0.0312    -4.185    -1.493    -1.396  0.9835 -0.1730  0.0522
              Bcc     0.0681     9.137     3.260     3.048 -0.1333 -0.4996  0.8559
 
              Baa    -0.0461    -6.184    -2.206    -2.063 -0.5526  0.7094  0.4376
    17 C(13)  Bbb    -0.0400    -5.370    -1.916    -1.791  0.8206  0.3709  0.4348
              Bcc     0.0861    11.554     4.123     3.854 -0.1461 -0.5993  0.7871
 
              Baa    -0.0088    -1.182    -0.422    -0.394 -0.1540  0.8647  0.4781
    18 C(13)  Bbb    -0.0037    -0.491    -0.175    -0.164  0.9502 -0.0031  0.3117
              Bcc     0.0125     1.673     0.597     0.558 -0.2710 -0.5022  0.8212
 
              Baa    -0.0341    -4.575    -1.632    -1.526 -0.2914 -0.4820  0.8263
    19 C(13)  Bbb     0.0142     1.907     0.680     0.636  0.7496  0.4215  0.5103
              Bcc     0.0199     2.668     0.952     0.890 -0.5942  0.7681  0.2385
 
              Baa    -0.0065    -3.481    -1.242    -1.161 -0.2951 -0.1539  0.9430
    20 H(1)   Bbb     0.0007     0.390     0.139     0.130  0.1415  0.9690  0.2024
              Bcc     0.0058     3.091     1.103     1.031  0.9449 -0.1932  0.2642
 
              Baa    -0.0196    -2.630    -0.938    -0.877 -0.3670 -0.4323  0.8237
    21 C(13)  Bbb     0.0082     1.097     0.392     0.366  0.8619  0.1751  0.4759
              Bcc     0.0114     1.533     0.547     0.511 -0.3499  0.8846  0.3084
 
              Baa    -0.0128    -1.721    -0.614    -0.574 -0.2928 -0.5519  0.7808
    22 C(13)  Bbb     0.0035     0.473     0.169     0.158 -0.4946  0.7863  0.3703
              Bcc     0.0093     1.247     0.445     0.416  0.8183  0.2778  0.5031
 
              Baa    -0.0058    -3.103    -1.107    -1.035  0.2172  0.7622 -0.6098
    23 H(1)   Bbb     0.0006     0.309     0.110     0.103  0.3278  0.5315  0.7811
              Bcc     0.0052     2.794     0.997     0.932  0.9194 -0.3695 -0.1344
 
              Baa    -0.0133    -1.789    -0.638    -0.597 -0.4732  0.8248  0.3096
    24 C(13)  Bbb    -0.0126    -1.695    -0.605    -0.566  0.8020  0.2580  0.5387
              Bcc     0.0260     3.485     1.243     1.162 -0.3645 -0.5032  0.7836
 
              Baa    -0.0533    -7.151    -2.552    -2.385  0.8298  0.2827  0.4813
    25 C(13)  Bbb    -0.0464    -6.227    -2.222    -2.077 -0.4700  0.8189  0.3294
              Bcc     0.0997    13.378     4.774     4.462 -0.3010 -0.4995  0.8124
 
              Baa    -0.0023    -1.214    -0.433    -0.405 -0.2079 -0.3779  0.9022
    26 H(1)   Bbb    -0.0008    -0.403    -0.144    -0.134  0.7762  0.4976  0.3873
              Bcc     0.0030     1.617     0.577     0.539 -0.5953  0.7808  0.1899
 
              Baa    -0.0022    -1.154    -0.412    -0.385 -0.3423 -0.4002  0.8501
    27 H(1)   Bbb     0.0010     0.548     0.195     0.183  0.9300 -0.0157  0.3671
              Bcc     0.0011     0.606     0.216     0.202 -0.1336  0.9163  0.3776
 
              Baa    -0.0306    -4.106    -1.465    -1.370 -0.5174  0.8257  0.2246
    28 C(13)  Bbb    -0.0263    -3.528    -1.259    -1.177  0.7791  0.3460  0.5227
              Bcc     0.0569     7.633     2.724     2.546 -0.3539 -0.4455  0.8224
 
              Baa    -0.0021    -1.123    -0.401    -0.375 -0.7046  0.0595  0.7071
    29 H(1)   Bbb    -0.0012    -0.658    -0.235    -0.219 -0.2761  0.8949 -0.3505
              Bcc     0.0033     1.781     0.636     0.594  0.6536  0.4422  0.6142
 
              Baa    -0.0022    -1.175    -0.419    -0.392 -0.4656 -0.5825  0.6663
    30 H(1)   Bbb    -0.0018    -0.983    -0.351    -0.328  0.3971  0.5353  0.7455
              Bcc     0.0040     2.157     0.770     0.720  0.7909 -0.6117  0.0179
 
              Baa    -0.0081    -4.305    -1.536    -1.436  0.8386  0.2733  0.4713
    31 H(1)   Bbb    -0.0021    -1.124    -0.401    -0.375 -0.3157 -0.4612  0.8292
              Bcc     0.0102     5.428     1.937     1.811 -0.4440  0.8441  0.3005
 
              Baa    -0.0050    -2.689    -0.959    -0.897 -0.5492  0.7967  0.2522
    32 H(1)   Bbb    -0.0019    -1.017    -0.363    -0.339 -0.3414 -0.4894  0.8025
              Bcc     0.0069     3.706     1.322     1.236  0.7628  0.3546  0.5408
 
              Baa    -0.0243    -3.260    -1.163    -1.087  0.2654 -0.4972  0.8261
    33 C(13)  Bbb    -0.0001    -0.017    -0.006    -0.006  0.4547  0.8201  0.3475
              Bcc     0.0244     3.277     1.169     1.093  0.8502 -0.2834 -0.4437
 
              Baa    -0.0221    -2.961    -1.057    -0.988  0.0633 -0.5609  0.8254
    34 C(13)  Bbb    -0.0065    -0.866    -0.309    -0.289  0.8082 -0.4564 -0.3722
              Bcc     0.0285     3.827     1.366     1.277  0.5855  0.6907  0.4244
 
              Baa    -0.0323    -4.331    -1.546    -1.445  0.5702  0.6478  0.5052
    35 C(13)  Bbb    -0.0260    -3.495    -1.247    -1.166  0.8184 -0.3947 -0.4177
              Bcc     0.0583     7.826     2.793     2.611  0.0712 -0.6516  0.7552
 
              Baa    -0.0041    -0.545    -0.194    -0.182  0.1621  0.8358  0.5245
    36 C(13)  Bbb     0.0001     0.011     0.004     0.004  0.9412 -0.2906  0.1722
              Bcc     0.0040     0.534     0.191     0.178 -0.2964 -0.4658  0.8338
 
              Baa    -0.0338    -4.536    -1.619    -1.513  0.8853 -0.2189 -0.4103
    37 C(13)  Bbb    -0.0295    -3.959    -1.413    -1.320  0.3933  0.8231  0.4096
              Bcc     0.0633     8.494     3.031     2.833  0.2481 -0.5240  0.8148
 
              Baa    -0.0332    -4.451    -1.588    -1.485 -0.0914  0.8459  0.5254
    38 C(13)  Bbb    -0.0271    -3.642    -1.300    -1.215  0.9954  0.0934  0.0229
              Bcc     0.0603     8.093     2.888     2.699  0.0297 -0.5250  0.8506
 
              Baa    -0.0034    -0.460    -0.164    -0.153 -0.0995  0.8882 -0.4486
    39 C(13)  Bbb    -0.0008    -0.108    -0.038    -0.036  0.6832  0.3887  0.6182
              Bcc     0.0042     0.568     0.203     0.189  0.7234 -0.2450 -0.6455
 
              Baa    -0.0048    -2.535    -0.904    -0.846 -0.1737  0.8346 -0.5228
    40 H(1)   Bbb     0.0020     1.057     0.377     0.353  0.0025  0.5312  0.8472
              Bcc     0.0028     1.478     0.527     0.493  0.9848  0.1459 -0.0944
 
              Baa    -0.0130    -1.739    -0.621    -0.580  0.1740  0.8475  0.5014
    41 C(13)  Bbb    -0.0116    -1.561    -0.557    -0.521  0.9394  0.0098 -0.3426
              Bcc     0.0246     3.300     1.177     1.101  0.2952 -0.5307  0.7945
 
              Baa    -0.0254    -3.409    -1.216    -1.137  0.2251 -0.4919  0.8411
    42 C(13)  Bbb     0.0103     1.384     0.494     0.462  0.8017 -0.3971 -0.4467
              Bcc     0.0151     2.025     0.723     0.675  0.5537  0.7749  0.3050
 
              Baa    -0.0058    -3.075    -1.097    -1.026  0.2447 -0.1369  0.9599
    43 H(1)   Bbb     0.0022     1.164     0.415     0.388 -0.1132  0.9792  0.1685
              Bcc     0.0036     1.911     0.682     0.637  0.9630  0.1499 -0.2241
 
              Baa    -0.0193    -2.592    -0.925    -0.865  0.2964 -0.4722  0.8302
    44 C(13)  Bbb     0.0079     1.057     0.377     0.352  0.8225 -0.3156 -0.4731
              Bcc     0.0114     1.535     0.548     0.512  0.4854  0.8230  0.2949
 
              Baa    -0.0173    -2.321    -0.828    -0.774  0.4704  0.8369  0.2798
    45 C(13)  Bbb    -0.0140    -1.875    -0.669    -0.625  0.8230 -0.3017 -0.4813
              Bcc     0.0313     4.196     1.497     1.400  0.3184 -0.4567  0.8307
 
              Baa    -0.0020    -1.086    -0.388    -0.362  0.7979  0.2428  0.5518
    46 H(1)   Bbb    -0.0010    -0.548    -0.195    -0.183  0.0913  0.8561 -0.5087
              Bcc     0.0031     1.634     0.583     0.545 -0.5959  0.4563  0.6609
 
              Baa    -0.0019    -1.035    -0.369    -0.345 -0.5631  0.8262  0.0177
    47 H(1)   Bbb    -0.0016    -0.854    -0.305    -0.285  0.0372  0.0040  0.9993
              Bcc     0.0035     1.889     0.674     0.630  0.8256  0.5633 -0.0330
 
              Baa    -0.0403    -5.408    -1.930    -1.804  0.8278 -0.3274 -0.4555
    48 C(13)  Bbb    -0.0343    -4.604    -1.643    -1.536  0.5118  0.7733  0.3743
              Bcc     0.0746    10.012     3.573     3.340  0.2297 -0.5429  0.8078
 
              Baa    -0.0019    -1.036    -0.370    -0.346  0.1067 -0.3211  0.9410
    49 H(1)   Bbb    -0.0005    -0.271    -0.097    -0.091  0.8207 -0.5059 -0.2657
              Bcc     0.0025     1.308     0.467     0.436  0.5613  0.8006  0.2096
 
              Baa    -0.0017    -0.926    -0.330    -0.309  0.3532 -0.3879  0.8513
    50 H(1)   Bbb     0.0003     0.167     0.060     0.056  0.7882 -0.3667 -0.4942
              Bcc     0.0014     0.759     0.271     0.253  0.5039  0.8456  0.1762
 
              Baa    -0.0031    -1.677    -0.598    -0.559  0.5610  0.7572  0.3346
    51 H(1)   Bbb    -0.0015    -0.776    -0.277    -0.259  0.3046 -0.5647  0.7670
              Bcc     0.0046     2.453     0.875     0.818  0.7697 -0.3284 -0.5474
 
              Baa    -0.0063    -3.346    -1.194    -1.116  0.8454 -0.3047 -0.4388
    52 H(1)   Bbb    -0.0017    -0.886    -0.316    -0.296  0.2602 -0.4826  0.8363
              Bcc     0.0079     4.232     1.510     1.412  0.4666  0.8211  0.3287
 
              Baa    -0.2349    -9.060    -3.233    -3.022  0.3267  0.7738  0.5427
    53 N(14)  Bbb    -0.2312    -8.918    -3.182    -2.975  0.8771 -0.4622  0.1309
              Bcc     0.4661    17.978     6.415     5.997 -0.3521 -0.4332  0.8297
 
              Baa    -0.1764    -6.802    -2.427    -2.269 -0.3510  0.7640  0.5414
    54 N(14)  Bbb    -0.1717    -6.622    -2.363    -2.209  0.8668  0.4839 -0.1208
              Bcc     0.3481    13.424     4.790     4.478  0.3543 -0.4269  0.8320
 

 ---------------------------------------------------------------------------------

 Calling FoFJK, ICntrl=      2127 FMM=F ISym2X=0 I1Cent= 0 IOpClX= 1 NMat=1 NMatS=1 NMatT=0.
 -------------------------------------------------------------------
 Center     Atomic                   Forces (Hartrees/Bohr)
 Number     Number              X              Y              Z
 -------------------------------------------------------------------
      1        6          -0.006397478    0.009373787   -0.005584699
      2        6          -0.004251940   -0.008672773    0.003856104
      3        6          -0.000054717   -0.004739796    0.000625356
      4        6           0.001757769   -0.006372275    0.007143312
      5        6           0.001318563    0.007147612   -0.008057767
      6        6          -0.000228930    0.003520504    0.002287684
      7        1          -0.000465880    0.000362447   -0.000067358
      8        1          -0.000217089   -0.000662947   -0.000367565
      9        6          -0.004694357   -0.002814772    0.002481420
     10        7           0.003282668    0.001406604   -0.001068283
     11        6          -0.001417529    0.001015725   -0.000078407
     12        7          -0.000220466   -0.000225976   -0.000335826
     13        6          -0.000911658    0.012993188   -0.000596062
     14        6          -0.003288545   -0.004863317    0.001060823
     15        6          -0.002418899   -0.002001232   -0.002777502
     16        6           0.004622094   -0.001965043   -0.000944315
     17        6          -0.001914892    0.001548823   -0.001099322
     18        6           0.002160860    0.000898194    0.001489811
     19        6          -0.001274866    0.000201108   -0.000844754
     20        1           0.000137343   -0.000912412    0.001369837
     21        6           0.001389952    0.003976520    0.003328851
     22        6           0.002864858   -0.000116136    0.000456190
     23        1           0.000862328    0.000160605   -0.000592253
     24        6          -0.001650671   -0.004774051   -0.003207350
     25        6          -0.001834289   -0.002016951   -0.001802424
     26        1           0.000033992    0.000556921    0.000117707
     27        1          -0.000614207   -0.000597264    0.000197696
     28        6          -0.000378653    0.004957184    0.003153598
     29        1          -0.000230414   -0.000239295   -0.000154815
     30        1          -0.000938758   -0.000133982    0.000921184
     31        1          -0.000475714    0.000182061    0.000466390
     32        1          -0.000709205   -0.000241071   -0.000402701
     33        6          -0.002390713    0.003795955   -0.000317949
     34        6          -0.004008319   -0.008942993    0.002342711
     35        6          -0.000026740   -0.001327229    0.000246483
     36        6          -0.000375701   -0.000053986   -0.000195838
     37        6           0.003090106    0.002837163    0.002062300
     38        6           0.005851259    0.001412878    0.000196318
     39        6           0.001071662    0.001204140    0.000496643
     40        1           0.000661398    0.000114748    0.000272205
     41        6           0.000021681    0.000544536   -0.000141173
     42        6          -0.005425376   -0.003056726   -0.000405407
     43        1          -0.001344943    0.000798972   -0.000649296
     44        6          -0.001857152   -0.002323820   -0.001358805
     45        6           0.000404763   -0.000572868   -0.001123449
     46        1           0.000425661   -0.000233991   -0.000229838
     47        1           0.000249437    0.000162826   -0.000497717
     48        6           0.003706524    0.002040421    0.000398330
     49        1           0.000165007    0.000282242   -0.000361406
     50        1           0.000775347    0.000308166   -0.000436756
     51        1           0.000079669    0.000235468   -0.000031914
     52        1          -0.000766665   -0.001152198   -0.000184433
     53        7           0.008830550   -0.006670190   -0.000782842
     54        7           0.007021273    0.003644497   -0.000272726
 -------------------------------------------------------------------
 Cartesian Forces:  Max     0.012993188 RMS     0.002956346

 GradGradGradGradGradGradGradGradGradGradGradGradGradGradGradGradGradGrad
 Berny optimization.
 Search for a local minimum.
 Step number   1 out of a maximum of    2
 All quantities printed in internal units (Hartrees-Bohrs-Radians)
 Second derivative matrix not updated -- first step.
 ITU=  0
     Eigenvalues ---    0.00008   0.00009   0.00022   0.00075   0.00079
     Eigenvalues ---    0.00114   0.00182   0.00266   0.00291   0.00300
     Eigenvalues ---    0.00322   0.00448   0.00715   0.00849   0.00932
     Eigenvalues ---    0.01020   0.01226   0.01234   0.01249   0.01255
     Eigenvalues ---    0.01678   0.02382   0.02428   0.02527   0.02579
     Eigenvalues ---    0.02603   0.02619   0.02736   0.02956   0.03425
     Eigenvalues ---    0.03445   0.03625   0.04610   0.04648   0.04702
     Eigenvalues ---    0.04979   0.06575   0.06740   0.07000   0.07010
     Eigenvalues ---    0.07024   0.07034   0.07053   0.07068   0.07099
     Eigenvalues ---    0.07110   0.07451   0.07907   0.07926   0.07943
     Eigenvalues ---    0.08627   0.08981   0.09452   0.10181   0.10543
     Eigenvalues ---    0.10656   0.10772   0.10795   0.11106   0.12448
     Eigenvalues ---    0.12466   0.12504   0.12630   0.12883   0.13595
     Eigenvalues ---    0.13725   0.13884   0.15061   0.15074   0.15296
     Eigenvalues ---    0.17575   0.18438   0.19487   0.19642   0.21251
     Eigenvalues ---    0.21865   0.23418   0.24214   0.26489   0.27646
     Eigenvalues ---    0.28054   0.28254   0.29715   0.30092   0.30756
     Eigenvalues ---    0.30932   0.31608   0.32988   0.35713   0.35790
     Eigenvalues ---    0.35797   0.36605   0.38145   0.40820   0.42817
     Eigenvalues ---    0.43085   0.43159   0.43380   0.45990   0.47693
     Eigenvalues ---    0.48274   0.49854   0.50381   0.50617   0.50709
     Eigenvalues ---    0.52484   0.53247   0.59329   0.60305   0.62272
     Eigenvalues ---    0.64145   0.71284   0.71421   0.74417   0.77876
     Eigenvalues ---    0.81878   0.82499   0.89860   0.90570   0.94721
     Eigenvalues ---    1.02915   1.06660   1.11021   1.12914   1.14142
     Eigenvalues ---    1.15144   1.15226   1.15456   1.19181   1.20068
     Eigenvalues ---    1.26272   1.29779   1.30638   1.39768   1.40200
     Eigenvalues ---    1.41089   1.43156   1.48861   1.49128   1.49536
     Eigenvalues ---    1.49893   1.50149   1.54787   1.58574   1.64349
     Eigenvalues ---    1.65043   1.66812   1.69579   1.71178   1.74620
     Eigenvalues ---    1.76263   1.76686   2.79664   2.81704  27.88980
     Eigenvalues ---  191.34194
 Eigenvalue     1 is   8.02D-05 Eigenvector:
                          Z51       Z46       Z32       Z45       X49
   1                    0.21372   0.19065  -0.17591   0.17271  -0.16736
                          X46       X52       X29       Z39       X26
   1                    0.16594  -0.15994   0.15969   0.15948  -0.15704
 Eigenvalue     2 is   9.15D-05 Eigenvector:
                          Z29       Z26       Z31       Z52       Z49
   1                    0.22268  -0.22112  -0.21662  -0.21340  -0.20461
                          Z46       Z32       Z19       Z25       Z48
   1                    0.17567   0.17226  -0.17013  -0.16756  -0.16712
 Quadratic step=4.232D+00 exceeds max=3.000D-01 adjusted using Lamda=-8.225D-03.
 Angle between NR and scaled steps=  55.51 degrees.
 Angle between quadratic step and forces=  73.84 degrees.
 Linear search not attempted -- first point.
 B after Tr=     0.000945   -0.000371    0.000498
         Rot=    1.000000    0.000173    0.000154    0.000060 Ang=   0.03 deg.
 Variable       Old X    -DE/DX   Delta X   Delta X   Delta X     New X
                                 (Linear)    (Quad)   (Total)
    X1        2.66204  -0.00640   0.00000  -0.00838  -0.00705   2.65499
    Y1        0.93931   0.00937   0.00000   0.02752   0.02652   0.96583
    Z1       -0.90601  -0.00558   0.00000   0.00843   0.00941  -0.89660
    X2        2.69307  -0.00425   0.00000  -0.00647  -0.00596   2.68711
    Y2       -0.94462  -0.00867   0.00000  -0.03775  -0.03808  -0.98270
    Z2        1.05725   0.00386   0.00000  -0.01906  -0.01739   1.03986
    X3        4.97979  -0.00005   0.00000  -0.01095  -0.01081   4.96897
    Y3       -1.84029  -0.00474   0.00000  -0.06203  -0.06234  -1.90262
    Z3        1.92082   0.00063   0.00000  -0.02779  -0.02510   1.89572
    X4        7.26901   0.00176   0.00000  -0.01063  -0.01009   7.25893
    Y4       -0.93588  -0.00637   0.00000  -0.02849  -0.02941  -0.96528
    Z4        0.94190   0.00714   0.00000   0.00152   0.00459   0.94649
    X5        7.21835   0.00132   0.00000  -0.00833  -0.00694   7.21141
    Y5        0.92998   0.00715   0.00000   0.02279   0.02119   0.95117
    Z5       -1.09081  -0.00806   0.00000   0.01483   0.01723  -1.07359
    X6        4.88348  -0.00023   0.00000  -0.00539  -0.00364   4.87984
    Y6        1.84630   0.00352   0.00000   0.05267   0.05106   1.89736
    Z6       -1.91966   0.00229   0.00000   0.03693   0.03828  -1.88138
    X7        5.02394  -0.00047   0.00000  -0.01884  -0.01933   5.00461
    Y7       -3.29334   0.00036   0.00000  -0.07130  -0.07111  -3.36445
    Z7        3.37327  -0.00007   0.00000  -0.03886  -0.03565   3.33762
    X8        4.82322  -0.00022   0.00000  -0.00390  -0.00152   4.82169
    Y8        3.30326  -0.00066   0.00000   0.05686   0.05476   3.35802
    Z8       -3.36662  -0.00037   0.00000   0.04226   0.04308  -3.32355
    X9        9.45068  -0.00469   0.00000  -0.00496  -0.00310   9.44758
    Y9        1.82031  -0.00281   0.00000   0.01363   0.01135   1.83166
    Z9       -2.27728   0.00248   0.00000   0.02551   0.02829  -2.24899
   X10       11.23382   0.00328   0.00000   0.00752   0.00979  11.24360
   Y10        2.58442   0.00141   0.00000   0.00726   0.00441   2.58883
   Z10       -3.30681  -0.00107   0.00000   0.03611   0.03918  -3.26763
   X11        9.58056  -0.00142   0.00000  -0.01261  -0.01249   9.56808
   Y11       -1.84522   0.00102   0.00000  -0.02263  -0.02347  -1.86869
   Z11        1.94321  -0.00008   0.00000   0.00009   0.00419   1.94740
   X12       11.46316  -0.00022   0.00000  -0.01001  -0.01024  11.45292
   Y12       -2.60748  -0.00023   0.00000  -0.01810  -0.01888  -2.62636
   Z12        2.78752  -0.00034   0.00000  -0.00210   0.00284   2.79036
   X13       -0.62345  -0.00091   0.00000   0.01342   0.01505  -0.60840
   Y13        4.23943   0.01299   0.00000   0.05765   0.05717   4.29659
   Z13       -0.50175  -0.00060   0.00000  -0.04566  -0.04684  -0.54860
   X14       -1.65813  -0.00329   0.00000  -0.00050   0.00143  -1.65670
   Y14        0.88726  -0.00486   0.00000   0.00489   0.00373   0.89098
   Z14       -2.88095   0.00106   0.00000   0.00775   0.00743  -2.87351
   X15        0.70047  -0.00242   0.00000  -0.00526  -0.00389   0.69659
   Y15        5.98081  -0.00200   0.00000   0.04816   0.04804   6.02885
   Z15        0.99398  -0.00278   0.00000  -0.03373  -0.03511   0.95887
   X16       -3.19131   0.00462   0.00000   0.01007   0.01194  -3.17937
   Y16        4.58853  -0.00197   0.00000   0.02731   0.02689   4.61543
   Z16       -1.20374  -0.00094   0.00000  -0.02032  -0.02240  -1.22614
   X17       -1.57988  -0.00191   0.00000   0.00407   0.00616  -1.57373
   Y17       -1.37897   0.00155   0.00000   0.01786   0.01621  -1.36275
   Z17       -4.21913  -0.00110   0.00000  -0.00940  -0.00891  -4.22805
   X18       -3.85247   0.00216   0.00000   0.00187   0.00395  -3.84851
   Y18        2.40810   0.00090   0.00000   0.00751   0.00664   2.41475
   Z18       -2.75704   0.00149   0.00000   0.00914   0.00761  -2.74943
   X19       -0.61752  -0.00127   0.00000  -0.01797  -0.01660  -0.63412
   Y19        8.09269   0.00020   0.00000   0.03877   0.03909   8.13178
   Z19        1.81234  -0.00084   0.00000  -0.02626  -0.02877   1.78357
   X20        2.68261   0.00014   0.00000  -0.01460  -0.01341   2.66920
   Y20        5.68925  -0.00091   0.00000   0.02967   0.02948   5.71873
   Z20        1.42929   0.00137   0.00000   0.00559   0.00493   1.43422
   X21       -4.45211   0.00139   0.00000  -0.01010  -0.00822  -4.46034
   Y21        6.73217   0.00398   0.00000   0.01270   0.01273   6.74490
   Z21       -0.38676   0.00333   0.00000   0.00056  -0.00265  -0.38941
   X22       -3.79571   0.00286   0.00000   0.00295   0.00532  -3.79039
   Y22       -2.13284  -0.00012   0.00000   0.01359   0.01179  -2.12105
   Z22       -5.44136   0.00046   0.00000   0.00266   0.00273  -5.43863
   X23        0.14214   0.00086   0.00000   0.01480   0.01680   0.15894
   Y23       -2.48048   0.00016   0.00000   0.03370   0.03180  -2.44868
   Z23       -4.32815  -0.00059   0.00000  -0.03636  -0.03496  -4.36311
   X24       -5.99987  -0.00165   0.00000  -0.01341  -0.01103  -6.01090
   Y24        1.66368  -0.00477   0.00000  -0.01192  -0.01296   1.65072
   Z24       -4.04880  -0.00321   0.00000   0.03540   0.03347  -4.01533
   X25       -3.15085  -0.00183   0.00000  -0.02422  -0.02260  -3.17345
   Y25        8.46926  -0.00202   0.00000   0.01984   0.02024   8.48949
   Z25        1.12933  -0.00180   0.00000  -0.00926  -0.01269   1.11664
   X26        0.33608   0.00003   0.00000  -0.02619  -0.02501   0.31106
   Y26        9.48714   0.00056   0.00000   0.03658   0.03720   9.52434
   Z26        2.97179   0.00012   0.00000  -0.01474  -0.01745   2.95434
   X27       -6.40363  -0.00061   0.00000  -0.02462  -0.02256  -6.42619
   Y27        7.08239  -0.00060   0.00000  -0.02139  -0.02130   7.06109
   Z27       -0.90956   0.00020   0.00000   0.02827   0.02434  -0.88522
   X28       -5.96237  -0.00038   0.00000  -0.00851  -0.00599  -5.96835
   Y28       -0.63732   0.00496   0.00000   0.00141  -0.00010  -0.63741
   Z28       -5.37761   0.00315   0.00000   0.03153   0.03040  -5.34720
   X29       -3.80308  -0.00023   0.00000   0.00228   0.00477  -3.79831
   Y29       -3.90015  -0.00024   0.00000   0.01871   0.01655  -3.88360
   Z29       -6.47941  -0.00015   0.00000  -0.00815  -0.00748  -6.48689
   X30       -7.68126  -0.00094   0.00000  -0.02659  -0.02407  -7.70534
   Y30        2.83636  -0.00013   0.00000  -0.02737  -0.02821   2.80815
   Z30       -4.05941   0.00092   0.00000   0.06133   0.05847  -4.00094
   X31       -4.11706  -0.00048   0.00000  -0.04015  -0.03854  -4.15560
   Y31       10.16021   0.00018   0.00000   0.00361   0.00435  10.16457
   Z31        1.76744   0.00047   0.00000   0.01246   0.00815   1.77559
   X32       -7.64101  -0.00071   0.00000  -0.01352  -0.01077  -7.65178
   Y32       -1.24230  -0.00024   0.00000  -0.00462  -0.00627  -1.24857
   Z32       -6.38262  -0.00040   0.00000   0.03835   0.03691  -6.34571
   X33       -1.66059  -0.00239   0.00000   0.01135   0.01126  -1.64933
   Y33       -0.91229   0.00380   0.00000  -0.00710  -0.00623  -0.91852
   Z33        3.01351  -0.00032   0.00000  -0.01163  -0.01133   3.00218
   X34       -0.57518  -0.00401   0.00000   0.01025   0.01047  -0.56471
   Y34       -4.26249  -0.00894   0.00000  -0.05492  -0.05499  -4.31748
   Z34        0.64009   0.00234   0.00000   0.03554   0.03736   0.67745
   X35       -1.63802  -0.00003   0.00000   0.02627   0.02602  -1.61200
   Y35        1.32258  -0.00133   0.00000  -0.01057  -0.00923   1.31335
   Z35        4.40825   0.00025   0.00000  -0.00835  -0.00880   4.39945
   X36       -3.86705  -0.00038   0.00000   0.01138   0.01119  -3.85586
   Y36       -2.39265  -0.00005   0.00000  -0.00743  -0.00639  -2.39904
   Z36        2.76448  -0.00020   0.00000  -0.00758  -0.00744   2.75704
   X37        0.74088   0.00309   0.00000   0.00491   0.00537   0.74626
   Y37       -6.03398   0.00284   0.00000  -0.04100  -0.04173  -6.07571
   Z37       -0.82068   0.00206   0.00000   0.02139   0.02422  -0.79646
   X38       -3.18234   0.00585   0.00000   0.01402   0.01403  -3.16831
   Y38       -4.55139   0.00141   0.00000  -0.02951  -0.02908  -4.58047
   Z38        1.21474   0.00020   0.00000   0.01802   0.01913   1.23387
   X39       -3.89731   0.00107   0.00000   0.02953   0.02902  -3.86829
   Y39        2.06348   0.00120   0.00000   0.00489   0.00690   2.07038
   Z39        5.54577   0.00050   0.00000  -0.01481  -0.01622   5.52954
   X40        0.08690   0.00066   0.00000   0.03513   0.03493   0.12183
   Y40        2.40437   0.00011   0.00000  -0.02421  -0.02299   2.38138
   Z40        4.63340   0.00027   0.00000   0.00221   0.00192   4.63532
   X41       -6.08250   0.00002   0.00000   0.00986   0.00939  -6.07311
   Y41       -1.64653   0.00054   0.00000   0.01533   0.01705  -1.62948
   Z41        3.96417  -0.00014   0.00000  -0.02665  -0.02747   3.93671
   X42       -0.60524  -0.00543   0.00000  -0.00723  -0.00672  -0.61196
   Y42       -8.07999  -0.00306   0.00000  -0.03425  -0.03515  -8.11514
   Z42       -1.73205  -0.00041   0.00000   0.00780   0.01092  -1.72113
   X43        2.75351  -0.00134   0.00000  -0.00632  -0.00571   2.74780
   Y43       -5.81515   0.00080   0.00000  -0.01669  -0.01780  -5.83295
   Z43       -1.17564  -0.00065   0.00000  -0.00971  -0.00635  -1.18199
   X44       -4.48885  -0.00186   0.00000   0.00265   0.00271  -4.48613
   Y44       -6.62523  -0.00232   0.00000  -0.02225  -0.02199  -6.64722
   Z44        0.27835  -0.00136   0.00000   0.00632   0.00773   0.28609
   X45       -6.08603   0.00040   0.00000   0.02024   0.01962  -6.06640
   Y45        0.60058  -0.00057   0.00000   0.01806   0.02026   0.62084
   Z45        5.34615  -0.00112   0.00000  -0.03085  -0.03244   5.31371
   X46       -3.94254   0.00043   0.00000   0.03852   0.03788  -3.90466
   Y46        3.80456  -0.00023   0.00000   0.00170   0.00409   3.80865
   Z46        6.63050  -0.00023   0.00000  -0.01089  -0.01291   6.61759
   X47       -7.78106   0.00025   0.00000   0.00421   0.00365  -7.77741
   Y47       -2.79294   0.00016   0.00000   0.02511   0.02699  -2.76595
   Z47        3.84054  -0.00050   0.00000  -0.03343  -0.03438   3.80616
   X48       -3.19861   0.00371   0.00000  -0.00046  -0.00015  -3.19876
   Y48       -8.37439   0.00204   0.00000  -0.02613  -0.02653  -8.40092
   Z48       -1.20673   0.00040   0.00000   0.01060   0.01302  -1.19371
   X49        0.35622   0.00017   0.00000  -0.01351  -0.01282   0.34340
   Y49       -9.50385   0.00028   0.00000  -0.01972  -0.02112  -9.52497
   Z49       -2.85111  -0.00036   0.00000  -0.01585  -0.01194  -2.86305
   X50       -6.48503   0.00078   0.00000  -0.00110  -0.00119  -6.48622
   Y50       -6.88123   0.00031   0.00000  -0.00364  -0.00299  -6.88423
   Z50        0.69203  -0.00044   0.00000  -0.01261  -0.01173   0.68030
   X51       -7.80289   0.00008   0.00000   0.02029   0.01945  -7.78344
   Y51        1.20685   0.00024   0.00000   0.02839   0.03111   1.23796
   Z51        6.28865  -0.00003   0.00000  -0.03622  -0.03855   6.25010
   X52       -4.19205  -0.00077   0.00000  -0.01005  -0.00970  -4.20175
   Y52       -9.99829  -0.00115   0.00000  -0.02202  -0.02256 -10.02085
   Z52       -1.95890  -0.00018   0.00000   0.00529   0.00796  -1.95094
   X53        0.26165   0.00883   0.00000   0.00853   0.01020   0.27184
   Y53        2.02712  -0.00667   0.00000   0.02298   0.02205   2.04917
   Z53       -1.51210  -0.00078   0.00000  -0.00884  -0.00897  -1.52107
   X54        0.31583   0.00702   0.00000   0.00959   0.00976   0.32559
   Y54       -2.06358   0.00364   0.00000  -0.02892  -0.02873  -2.09231
   Z54        1.71226  -0.00027   0.00000  -0.00117   0.00016   1.71242
         Item               Value     Threshold  Converged?
 Maximum Force            0.012993     0.000450     NO 
 RMS     Force            0.002956     0.000300     NO 
 Maximum Displacement     0.071109     0.001800     NO 
 RMS     Displacement     0.023586     0.001200     NO 
 Predicted change in Energy=-1.948706D-03
 GradGradGradGradGradGradGradGradGradGradGradGradGradGradGradGradGradGrad

 Unable to Open any file for archive entry.
 1\1\GINC-X10P1N1\Force\UM062X\6-31G(d)\C32H18N4(3)\MAYUMIAO\13-Jul-202
 4\0\\# 6-31g(d) m062x g09default scf=(xqc,maxcycle=64) force guess=rea
 d nosymm\\Title Card\\0,3\C,1.408689,0.49706,-0.479442\C,1.425112,-0.4
 99871,0.55947\C,2.635189,-0.973837,1.016456\C,3.846596,-0.495244,0.498
 433\C,3.819785,0.492126,-0.577234\C,2.584226,0.977019,-1.015841\H,2.65
 8553,-1.742761,1.78506\H,2.552337,1.748009,-1.78154\C,5.001085,0.96326
 9,-1.205086\N,5.944679,1.367615,-1.749889\C,5.069816,-0.976448,1.02830
 3\N,6.066043,-1.379818,1.47509\C,-0.329916,2.243409,-0.265517\C,-0.877
 447,0.469517,-1.524531\C,0.370675,3.16491,0.525994\C,-1.688769,2.42814
 8,-0.636991\C,-0.836038,-0.729718,-2.232668\C,-2.038637,1.274313,-1.45
 8963\C,-0.326778,4.282468,0.959049\H,1.419577,3.010619,0.756347\C,-2.3
 55957,3.562513,-0.204662\C,-2.008604,-1.128652,-2.879442\H,0.075215,-1
 .312611,-2.290357\C,-3.174997,0.880381,-2.142531\C,-1.667357,4.481738,
 0.597615\H,0.177845,5.02038,1.572604\H,-3.388654,3.747841,-0.481317\C,
 -3.155148,-0.337253,-2.845707\H,-2.012501,-2.06387,-3.428756\H,-4.0647
 48,1.500936,-2.148147\H,-2.178653,5.376552,0.935287\H,-4.043448,-0.657
 396,-3.377538\C,-0.878746,-0.482762,1.594679\C,-0.30437,-2.255612,0.33
 872\C,-0.866801,0.699878,2.332748\C,-2.046356,-1.266137,1.4629\C,0.392
 059,-3.193043,-0.434287\C,-1.684023,-2.408491,0.642814\C,-2.062365,1.0
 91945,2.934694\H,0.045986,1.272338,2.451891\C,-3.218721,-0.871304,2.09
 7749\C,-0.320279,-4.275745,-0.916562\H,1.457095,-3.077246,-0.622124\C,
 -2.375395,-3.50592,0.147299\C,-3.220587,0.317814,2.829063\H,-2.086303,
 2.013288,3.508711\H,-4.11756,-1.477961,2.032325\C,-1.692629,-4.431536,
 -0.638573\H,0.188505,-5.029221,-1.508743\H,-3.43173,-3.641391,0.366208
 \H,-4.129112,0.638636,3.327812\H,-2.218338,-5.290868,-1.036605\N,0.138
 459,1.072707,-0.800167\N,0.16713,-1.092,0.906091\\Version=ES64L-G16Rev
 C.01\HF=-1448.5816362\S2=2.029517\S2-1=0.\S2A=2.000556\RMSD=7.487e-09\
 RMSF=2.956e-03\Dipole=-6.5577815,0.257893,-0.0373026\Quadrupole=-40.13
 9162,29.2838629,10.8552991,-0.5532046,2.7315145,13.5975994\PG=C01 [X(C
 32H18N4)]\\@
 The archive entry for this job was punched.


 COMMON SENSE IS NOT SO COMMON.   -- VOLTAIRE
 Job cpu time:       0 days  0 hours 59 minutes 20.1 seconds.
 Elapsed time:       0 days  0 hours  2 minutes  8.4 seconds.
 File lengths (MBytes):  RWF=    314 Int=      0 D2E=      0 Chk=     25 Scr=      1
 Normal termination of Gaussian 16 at Sat Jul 13 20:47:40 2024.
