 Entering Gaussian System, Link 0=g16
 Input=JOBS/10_B.gjf
 Output=JOBS/10_B.log
 Initial command:
 /data/app/gaussian/C01-avx2//g16/l1.exe "/tmp/Gau-1307945.inp" -scrdir="/tmp/"
 Entering Link 1 = /data/app/gaussian/C01-avx2//g16/l1.exe PID=   1307946.
  
 Copyright (c) 1988-2019, Gaussian, Inc.  All Rights Reserved.
  
 This is part of the Gaussian(R) 16 program.  It is based on
 the Gaussian(R) 09 system (copyright 2009, Gaussian, Inc.),
 the Gaussian(R) 03 system (copyright 2003, Gaussian, Inc.),
 the Gaussian(R) 98 system (copyright 1998, Gaussian, Inc.),
 the Gaussian(R) 94 system (copyright 1995, Gaussian, Inc.),
 the Gaussian 92(TM) system (copyright 1992, Gaussian, Inc.),
 the Gaussian 90(TM) system (copyright 1990, Gaussian, Inc.),
 the Gaussian 88(TM) system (copyright 1988, Gaussian, Inc.),
 the Gaussian 86(TM) system (copyright 1986, Carnegie Mellon
 University), and the Gaussian 82(TM) system (copyright 1983,
 Carnegie Mellon University). Gaussian is a federally registered
 trademark of Gaussian, Inc.
  
 This software contains proprietary and confidential information,
 including trade secrets, belonging to Gaussian, Inc.
  
 This software is provided under written license and may be
 used, copied, transmitted, or stored only in accord with that
 written license.
  
 The following legend is applicable only to US Government
 contracts under FAR:
  
                    RESTRICTED RIGHTS LEGEND
  
 Use, reproduction and disclosure by the US Government is
 subject to restrictions as set forth in subparagraphs (a)
 and (c) of the Commercial Computer Software - Restricted
 Rights clause in FAR 52.227-19.
  
 Gaussian, Inc.
 340 Quinnipiac St., Bldg. 40, Wallingford CT 06492
  
  
 ---------------------------------------------------------------
 Warning -- This program may not be used in any manner that
 competes with the business of Gaussian, Inc. or will provide
 assistance to any competitor of Gaussian, Inc.  The licensee
 of this program is prohibited from giving any competitor of
 Gaussian, Inc. access to this program.  By using this program,
 the user acknowledges that Gaussian, Inc. is engaged in the
 business of creating and licensing software in the field of
 computational chemistry and represents and warrants to the
 licensee that it is not a competitor of Gaussian, Inc. and that
 it will not use this program in any manner prohibited above.
 ---------------------------------------------------------------
  

 Cite this work as:
 Gaussian 16, Revision C.01,
 M. J. Frisch, G. W. Trucks, H. B. Schlegel, G. E. Scuseria, 
 M. A. Robb, J. R. Cheeseman, G. Scalmani, V. Barone, 
 G. A. Petersson, H. Nakatsuji, X. Li, M. Caricato, A. V. Marenich, 
 J. Bloino, B. G. Janesko, R. Gomperts, B. Mennucci, H. P. Hratchian, 
 J. V. Ortiz, A. F. Izmaylov, J. L. Sonnenberg, D. Williams-Young, 
 F. Ding, F. Lipparini, F. Egidi, J. Goings, B. Peng, A. Petrone, 
 T. Henderson, D. Ranasinghe, V. G. Zakrzewski, J. Gao, N. Rega, 
 G. Zheng, W. Liang, M. Hada, M. Ehara, K. Toyota, R. Fukuda, 
 J. Hasegawa, M. Ishida, T. Nakajima, Y. Honda, O. Kitao, H. Nakai, 
 T. Vreven, K. Throssell, J. A. Montgomery, Jr., J. E. Peralta, 
 F. Ogliaro, M. J. Bearpark, J. J. Heyd, E. N. Brothers, K. N. Kudin, 
 V. N. Staroverov, T. A. Keith, R. Kobayashi, J. Normand, 
 K. Raghavachari, A. P. Rendell, J. C. Burant, S. S. Iyengar, 
 J. Tomasi, M. Cossi, J. M. Millam, M. Klene, C. Adamo, R. Cammi, 
 J. W. Ochterski, R. L. Martin, K. Morokuma, O. Farkas, 
 J. B. Foresman, and D. J. Fox, Gaussian, Inc., Wallingford CT, 2019.
 
 ******************************************
 Gaussian 16:  ES64L-G16RevC.01  3-Jul-2019
                13-Jul-2024 
 ******************************************
 %chk=b.chk
 %nprocshared=28
 Will use up to   28 processors via shared memory.
 %mem=48gb
 ----------------------------------------------------------------------
 # 6-31g(d) m062x g09default scf=(xqc,maxcycle=64) force guess=read nos
 ymm
 ----------------------------------------------------------------------
 1/10=7,30=1,38=1,158=3,167=1/1,3;
 2/12=2,15=1,17=6,18=5,40=1/2;
 3/5=1,6=6,7=1,11=2,25=1,27=10,30=1,71=1,74=-55,75=-4,116=-2,158=3/1,2,3;
 4/5=1,60=-1/1;
 5/5=2,7=64,8=3,13=1,38=6,87=10/2,8;
 6/7=2,8=2,9=2,10=2,28=1,87=10/1;
 7/29=1,30=1,87=10/1,2,3,16;
 1/10=7,30=1,158=3,167=1/3;
 99//99;
 Using 2006 physical constants.
 ----------
 Title Card
 ----------
 Symbolic Z-matrix:
 Charge =  0 Multiplicity = 3
 6                     1.40837   0.48874  -0.48222 
 6                     1.42452  -0.49838   0.56298 
 6                     2.63488  -0.96951   1.02089 
 6                     3.84654  -0.49341   0.49698 
 6                     3.81501   0.49033  -0.57128 
 6                     2.5847    0.96784  -1.02182 
 1                     2.65043  -1.74145   1.78659 
 1                     2.5579    1.73225  -1.79422 
 6                     4.99779   0.96744  -1.19516 
 7                     5.94836   1.36889  -1.73143 
 6                     5.06875  -0.9784    1.02491 
 7                     6.06215  -1.38711   1.47037 
 6                    -0.32546   2.24916  -0.28203 
 6                    -0.87459   0.47881  -1.53747 
 6                     0.37121   3.16977   0.52004 
 6                    -1.686     2.44114  -0.65749 
 6                    -0.83103  -0.72461  -2.23939 
 6                    -2.03942   1.28073  -1.46782 
 6                    -0.32814   4.28846   0.95042 
 1                     1.40714   2.99347   0.7852 
 6                    -2.35681   3.56272  -0.21364 
 6                    -2.00764  -1.12521  -2.886 
 1                     0.08402  -1.30078  -2.30166 
 6                    -3.18027   0.87696  -2.13162 
 6                    -1.66902   4.48379   0.59251 
 1                     0.17073   5.02646   1.56953 
 1                    -3.39699   3.73273  -0.47232 
 6                    -3.15332  -0.33871  -2.84199 
 1                    -2.01878  -2.06276  -3.43181 
 1                    -4.08267   1.48095  -2.11606 
 1                    -2.18797   5.37068   0.94346 
 1                    -4.04435  -0.65864  -3.37143 
 6                    -0.86994  -0.4909    1.60823 
 6                    -0.30159  -2.2611    0.35372 
 6                    -0.85826   0.69608   2.33839 
 6                    -2.04175  -1.26725   1.4654 
 6                     0.39348  -3.19391  -0.43117 
 6                    -1.68065  -2.41341   0.65488 
 6                    -2.05499   1.09608   2.93282 
 1                     0.05795   1.26399   2.46081 
 6                    -3.21923  -0.85878   2.08759 
 6                    -0.32241  -4.27751  -0.91627 
 1                     1.44907  -3.05727  -0.64059 
 6                    -2.37423  -3.51044   0.14968 
 6                    -3.21873   0.32719   2.81922 
 1                    -2.07577   2.01537   3.511 
 1                    -4.11711  -1.46585   2.01554 
 6                    -1.69168  -4.43488  -0.63427 
 1                     0.18466  -5.02371  -1.51938 
 1                    -3.43201  -3.64106   0.35834 
 1                    -4.12533   0.64638   3.32213 
 1                    -2.22071  -5.2968   -1.02965 
 7                     0.13777   1.07818  -0.80823 
 7                     0.17514  -1.10403   0.92497 
 

 GradGradGradGradGradGradGradGradGradGradGradGradGradGradGradGradGradGrad
 Berny optimization.
 Initialization pass.
 Trust Radius=3.00D-01 FncErr=1.00D-07 GrdErr=1.00D-07 EigMax=2.50D+02 EigMin=1.00D-04
 Number of steps in this run=      2 maximum allowed number of steps=      2.
 GradGradGradGradGradGradGradGradGradGradGradGradGradGradGradGradGradGrad

 Symmetry turned off by external request.
 Stoichiometry    C32H18N4(3)
 Framework group  C1[X(C32H18N4)]
 Deg. of freedom   156
 Full point group                 C1      NOp   1
                          Input orientation:                          
 ---------------------------------------------------------------------
 Center     Atomic      Atomic             Coordinates (Angstroms)
 Number     Number       Type             X           Y           Z
 ---------------------------------------------------------------------
      1          6           0        1.408374    0.488737   -0.482222
      2          6           0        1.424516   -0.498384    0.562979
      3          6           0        2.634875   -0.969508    1.020886
      4          6           0        3.846541   -0.493415    0.496983
      5          6           0        3.815005    0.490335   -0.571281
      6          6           0        2.584698    0.967839   -1.021822
      7          1           0        2.650429   -1.741448    1.786587
      8          1           0        2.557899    1.732254   -1.794223
      9          6           0        4.997794    0.967445   -1.195160
     10          7           0        5.948356    1.368889   -1.731427
     11          6           0        5.068752   -0.978399    1.024912
     12          7           0        6.062154   -1.387106    1.470367
     13          6           0       -0.325457    2.249157   -0.282028
     14          6           0       -0.874593    0.478811   -1.537470
     15          6           0        0.371213    3.169766    0.520042
     16          6           0       -1.686001    2.441140   -0.657493
     17          6           0       -0.831029   -0.724615   -2.239389
     18          6           0       -2.039415    1.280734   -1.467818
     19          6           0       -0.328145    4.288456    0.950422
     20          1           0        1.407137    2.993471    0.785203
     21          6           0       -2.356809    3.562717   -0.213637
     22          6           0       -2.007636   -1.125213   -2.885996
     23          1           0        0.084016   -1.300784   -2.301663
     24          6           0       -3.180271    0.876962   -2.131615
     25          6           0       -1.669018    4.483788    0.592505
     26          1           0        0.170725    5.026458    1.569530
     27          1           0       -3.396993    3.732734   -0.472323
     28          6           0       -3.153315   -0.338711   -2.841989
     29          1           0       -2.018777   -2.062760   -3.431807
     30          1           0       -4.082669    1.480950   -2.116063
     31          1           0       -2.187972    5.370680    0.943460
     32          1           0       -4.044350   -0.658637   -3.371428
     33          6           0       -0.869944   -0.490904    1.608232
     34          6           0       -0.301593   -2.261101    0.353725
     35          6           0       -0.858261    0.696083    2.338387
     36          6           0       -2.041750   -1.267248    1.465400
     37          6           0        0.393478   -3.193908   -0.431171
     38          6           0       -1.680647   -2.413413    0.654883
     39          6           0       -2.054989    1.096076    2.932818
     40          1           0        0.057949    1.263987    2.460812
     41          6           0       -3.219233   -0.858779    2.087591
     42          6           0       -0.322411   -4.277515   -0.916271
     43          1           0        1.449074   -3.057267   -0.640587
     44          6           0       -2.374234   -3.510439    0.149677
     45          6           0       -3.218731    0.327192    2.819224
     46          1           0       -2.075770    2.015366    3.511000
     47          1           0       -4.117113   -1.465851    2.015536
     48          6           0       -1.691680   -4.434884   -0.634269
     49          1           0        0.184656   -5.023710   -1.519380
     50          1           0       -3.432007   -3.641058    0.358342
     51          1           0       -4.125334    0.646381    3.322129
     52          1           0       -2.220711   -5.296795   -1.029647
     53          7           0        0.137768    1.078181   -0.808227
     54          7           0        0.175140   -1.104029    0.924968
 ---------------------------------------------------------------------
 Rotational constants (GHZ):           0.1587980           0.1164408           0.0924731
 Standard basis: 6-31G(d) (6D, 7F)
   576 basis functions,  1080 primitive gaussians,   576 cartesian basis functions
   120 alpha electrons      118 beta electrons
       nuclear repulsion energy      3658.1371131137 Hartrees.
 NAtoms=   54 NActive=   54 NUniq=   54 SFac= 1.00D+00 NAtFMM=   60 NAOKFM=F Big=F
 Integral buffers will be    131072 words long.
 Raffenetti 2 integral format.
 Two-electron integral symmetry is turned off.
 One-electron integrals computed using PRISM.
 NBasis=   576 RedAO= T EigKep=  2.61D-04  NBF=   576
 NBsUse=   576 1.00D-06 EigRej= -1.00D+00 NBFU=   576
 Initial guess from the checkpoint file:  "b.chk"
 B after Tr=     0.000616    0.000226   -0.000113
         Rot=    1.000000    0.000134    0.000062    0.000034 Ang=   0.02 deg.
 Initial guess <Sx>= 0.0000 <Sy>= 0.0000 <Sz>= 1.0000 <S**2>= 2.0294 S= 1.0098
 Requested convergence on RMS density matrix=1.00D-08 within  64 cycles.
 Requested convergence on MAX density matrix=1.00D-06.
 Requested convergence on             energy=1.00D-06.
 No special actions if energy rises.
 Restarting incremental Fock formation.
 SCF Done:  E(UM062X) =  -1448.58121873     A.U. after   21 cycles
            NFock= 21  Conv=0.73D-08     -V/T= 2.0086
 <Sx>= 0.0000 <Sy>= 0.0000 <Sz>= 1.0000 <S**2>= 2.0292 S= 1.0097
 <L.S>=  0.00000000000    
 Annihilation of the first spin contaminant:
 S**2 before annihilation     2.0292,   after     2.0005
 QCSCF skips out because SCF is already converged.

 **********************************************************************

            Population analysis using the SCF Density.

 **********************************************************************

 Alpha  occ. eigenvalues --  -14.86733 -14.84718 -14.72922 -14.72800 -10.62630
 Alpha  occ. eigenvalues --  -10.62221 -10.61461 -10.61160 -10.60095 -10.60035
 Alpha  occ. eigenvalues --  -10.59564 -10.59365 -10.59207 -10.59171 -10.59135
 Alpha  occ. eigenvalues --  -10.59028 -10.59019 -10.58629 -10.58487 -10.58379
 Alpha  occ. eigenvalues --  -10.58212 -10.57977 -10.57971 -10.57966 -10.57921
 Alpha  occ. eigenvalues --  -10.57744 -10.57634 -10.57616 -10.57558 -10.57558
 Alpha  occ. eigenvalues --  -10.57356 -10.57263 -10.57194 -10.57166 -10.55490
 Alpha  occ. eigenvalues --  -10.55346  -1.15898  -1.13406  -1.00695  -0.98917
 Alpha  occ. eigenvalues --   -0.98803  -0.98134  -0.97672  -0.97513  -0.95711
 Alpha  occ. eigenvalues --   -0.91920  -0.90933  -0.88663  -0.88208  -0.87588
 Alpha  occ. eigenvalues --   -0.87385  -0.85087  -0.84572  -0.83711  -0.83132
 Alpha  occ. eigenvalues --   -0.77755  -0.76130  -0.73867  -0.73327  -0.72716
 Alpha  occ. eigenvalues --   -0.71538  -0.69623  -0.69388  -0.68931  -0.68162
 Alpha  occ. eigenvalues --   -0.65117  -0.64049  -0.62920  -0.61932  -0.61677
 Alpha  occ. eigenvalues --   -0.60675  -0.59423  -0.58679  -0.56247  -0.56104
 Alpha  occ. eigenvalues --   -0.55069  -0.54994  -0.54410  -0.54087  -0.53459
 Alpha  occ. eigenvalues --   -0.53122  -0.52978  -0.52524  -0.52334  -0.51824
 Alpha  occ. eigenvalues --   -0.51502  -0.51125  -0.50683  -0.49066  -0.47340
 Alpha  occ. eigenvalues --   -0.46698  -0.46482  -0.46041  -0.45778  -0.45146
 Alpha  occ. eigenvalues --   -0.44927  -0.44646  -0.43707  -0.43068  -0.42684
 Alpha  occ. eigenvalues --   -0.42414  -0.41822  -0.41565  -0.40494  -0.40355
 Alpha  occ. eigenvalues --   -0.40315  -0.39505  -0.37595  -0.36508  -0.36438
 Alpha  occ. eigenvalues --   -0.36321  -0.34709  -0.33124  -0.32907  -0.30824
 Alpha  occ. eigenvalues --   -0.30196  -0.29308  -0.28570  -0.27662  -0.15082
 Alpha virt. eigenvalues --   -0.03403  -0.02429  -0.00213   0.00312   0.01374
 Alpha virt. eigenvalues --    0.02649   0.03549   0.04655   0.05587   0.09173
 Alpha virt. eigenvalues --    0.10514   0.11358   0.11659   0.11993   0.12240
 Alpha virt. eigenvalues --    0.13007   0.13988   0.14481   0.15615   0.16081
 Alpha virt. eigenvalues --    0.16424   0.17221   0.17344   0.17650   0.17937
 Alpha virt. eigenvalues --    0.18136   0.18557   0.18609   0.20211   0.21223
 Alpha virt. eigenvalues --    0.21568   0.21985   0.22064   0.22338   0.22705
 Alpha virt. eigenvalues --    0.23058   0.23741   0.24664   0.25589   0.26138
 Alpha virt. eigenvalues --    0.26440   0.26819   0.27480   0.27533   0.28005
 Alpha virt. eigenvalues --    0.28155   0.29623   0.30166   0.30717   0.31089
 Alpha virt. eigenvalues --    0.31884   0.33948   0.34285   0.34930   0.35568
 Alpha virt. eigenvalues --    0.35991   0.36289   0.36766   0.38074   0.39795
 Alpha virt. eigenvalues --    0.40788   0.41068   0.42257   0.43260   0.43538
 Alpha virt. eigenvalues --    0.44498   0.44667   0.45778   0.46333   0.46681
 Alpha virt. eigenvalues --    0.47475   0.48806   0.49651   0.51044   0.51460
 Alpha virt. eigenvalues --    0.53514   0.54074   0.54495   0.54999   0.55415
 Alpha virt. eigenvalues --    0.55449   0.55828   0.56251   0.56548   0.57292
 Alpha virt. eigenvalues --    0.57675   0.58001   0.58365   0.58413   0.59219
 Alpha virt. eigenvalues --    0.59685   0.59849   0.60026   0.60653   0.60823
 Alpha virt. eigenvalues --    0.61234   0.61628   0.61899   0.62122   0.62357
 Alpha virt. eigenvalues --    0.62571   0.62847   0.62953   0.63102   0.63765
 Alpha virt. eigenvalues --    0.63896   0.64141   0.64337   0.65119   0.65306
 Alpha virt. eigenvalues --    0.65518   0.65755   0.65900   0.66171   0.66622
 Alpha virt. eigenvalues --    0.67310   0.67391   0.67875   0.68437   0.68715
 Alpha virt. eigenvalues --    0.70601   0.71710   0.72394   0.72901   0.74207
 Alpha virt. eigenvalues --    0.74254   0.74587   0.75597   0.76016   0.76978
 Alpha virt. eigenvalues --    0.77299   0.78072   0.79911   0.80145   0.80447
 Alpha virt. eigenvalues --    0.81332   0.82013   0.83199   0.83489   0.84207
 Alpha virt. eigenvalues --    0.84461   0.85376   0.86525   0.86701   0.86786
 Alpha virt. eigenvalues --    0.86887   0.87377   0.87763   0.88117   0.88404
 Alpha virt. eigenvalues --    0.88469   0.89131   0.89245   0.89424   0.89819
 Alpha virt. eigenvalues --    0.90299   0.90545   0.90736   0.91384   0.92158
 Alpha virt. eigenvalues --    0.92616   0.92747   0.93251   0.93596   0.93948
 Alpha virt. eigenvalues --    0.94649   0.95240   0.95506   0.96140   0.96793
 Alpha virt. eigenvalues --    0.97092   0.98015   0.98465   0.99799   1.00024
 Alpha virt. eigenvalues --    1.00743   1.00971   1.01664   1.02546   1.02943
 Alpha virt. eigenvalues --    1.03278   1.03762   1.04372   1.05215   1.06808
 Alpha virt. eigenvalues --    1.07143   1.07645   1.07865   1.08570   1.09735
 Alpha virt. eigenvalues --    1.11717   1.13262   1.14197   1.15928   1.17008
 Alpha virt. eigenvalues --    1.17306   1.17712   1.19014   1.19340   1.19455
 Alpha virt. eigenvalues --    1.20031   1.21199   1.21592   1.23043   1.23392
 Alpha virt. eigenvalues --    1.24415   1.25011   1.25968   1.27319   1.28079
 Alpha virt. eigenvalues --    1.28735   1.29160   1.29925   1.30408   1.30949
 Alpha virt. eigenvalues --    1.32401   1.32881   1.33628   1.34265   1.35184
 Alpha virt. eigenvalues --    1.36539   1.37832   1.38327   1.38563   1.40542
 Alpha virt. eigenvalues --    1.41087   1.41491   1.42200   1.43653   1.44131
 Alpha virt. eigenvalues --    1.44684   1.45814   1.46595   1.47179   1.47631
 Alpha virt. eigenvalues --    1.48092   1.48659   1.49037   1.49872   1.50501
 Alpha virt. eigenvalues --    1.50693   1.51200   1.51482   1.51638   1.52057
 Alpha virt. eigenvalues --    1.52764   1.53102   1.54750   1.57127   1.58640
 Alpha virt. eigenvalues --    1.59583   1.60126   1.60245   1.61182   1.61849
 Alpha virt. eigenvalues --    1.62703   1.62841   1.64364   1.66264   1.67902
 Alpha virt. eigenvalues --    1.67996   1.72572   1.73278   1.74184   1.75632
 Alpha virt. eigenvalues --    1.77236   1.77791   1.78634   1.78964   1.79254
 Alpha virt. eigenvalues --    1.80105   1.80773   1.81344   1.82674   1.83758
 Alpha virt. eigenvalues --    1.83917   1.85261   1.85799   1.86482   1.87116
 Alpha virt. eigenvalues --    1.87510   1.88817   1.88923   1.89391   1.91076
 Alpha virt. eigenvalues --    1.91355   1.92168   1.93114   1.94130   1.94710
 Alpha virt. eigenvalues --    1.95545   1.96352   1.96830   1.97754   1.98341
 Alpha virt. eigenvalues --    1.98492   1.99416   2.00039   2.00435   2.01129
 Alpha virt. eigenvalues --    2.01796   2.02067   2.02366   2.04124   2.04518
 Alpha virt. eigenvalues --    2.04886   2.05070   2.06155   2.07180   2.08480
 Alpha virt. eigenvalues --    2.09067   2.09332   2.10290   2.10843   2.10928
 Alpha virt. eigenvalues --    2.11407   2.12374   2.13000   2.13799   2.14583
 Alpha virt. eigenvalues --    2.14966   2.15623   2.16123   2.18128   2.18419
 Alpha virt. eigenvalues --    2.19088   2.20463   2.20992   2.21261   2.21426
 Alpha virt. eigenvalues --    2.21957   2.22396   2.23770   2.24617   2.25462
 Alpha virt. eigenvalues --    2.26134   2.26573   2.27028   2.27700   2.28501
 Alpha virt. eigenvalues --    2.28910   2.29472   2.30023   2.30727   2.31262
 Alpha virt. eigenvalues --    2.32161   2.33548   2.34922   2.35917   2.38246
 Alpha virt. eigenvalues --    2.39216   2.41659   2.42685   2.43360   2.47636
 Alpha virt. eigenvalues --    2.48562   2.49226   2.50224   2.53036   2.53850
 Alpha virt. eigenvalues --    2.54216   2.54838   2.56259   2.56473   2.58071
 Alpha virt. eigenvalues --    2.59288   2.59682   2.61863   2.63387   2.63850
 Alpha virt. eigenvalues --    2.64120   2.65910   2.66016   2.66782   2.68003
 Alpha virt. eigenvalues --    2.68299   2.68545   2.69289   2.69388   2.69828
 Alpha virt. eigenvalues --    2.70151   2.71062   2.72259   2.72563   2.73509
 Alpha virt. eigenvalues --    2.76469   2.77905   2.79400   2.81313   2.81993
 Alpha virt. eigenvalues --    2.82557   2.83325   2.83688   2.83958   2.86289
 Alpha virt. eigenvalues --    2.87465   2.89312   2.90692   2.92104   2.93510
 Alpha virt. eigenvalues --    2.94033   2.96197   2.97917   2.98593   2.98790
 Alpha virt. eigenvalues --    3.03381   3.06862   3.08252   3.22679   3.22731
 Alpha virt. eigenvalues --    3.27196   3.29199   3.30281   3.30809   3.31765
 Alpha virt. eigenvalues --    3.36254   3.38411   3.49276   3.50629   3.54352
 Alpha virt. eigenvalues --    4.05131   4.06056   4.07273   4.09227   4.10176
 Alpha virt. eigenvalues --    4.11126   4.11820   4.13844   4.14738   4.16410
 Alpha virt. eigenvalues --    4.16615   4.17094   4.21086   4.23813   4.25461
 Alpha virt. eigenvalues --    4.26253   4.27850   4.30230   4.32465   4.33225
 Alpha virt. eigenvalues --    4.37469   4.39447   4.42754   4.44909   4.46302
 Alpha virt. eigenvalues --    4.48666   4.49167   4.50272   4.59076   4.64834
 Alpha virt. eigenvalues --    4.70441   4.74640   4.76568   4.84142   4.88869
 Alpha virt. eigenvalues --    4.96974
  Beta  occ. eigenvalues --  -14.86397 -14.84519 -14.72743 -14.72602 -10.62648
  Beta  occ. eigenvalues --  -10.62244 -10.61458 -10.61167 -10.59863 -10.59800
  Beta  occ. eigenvalues --  -10.59509 -10.59288 -10.59156 -10.59151 -10.59134
  Beta  occ. eigenvalues --  -10.59019 -10.58945 -10.58665 -10.58459 -10.58381
  Beta  occ. eigenvalues --  -10.58170 -10.57956 -10.57937 -10.57936 -10.57922
  Beta  occ. eigenvalues --  -10.57745 -10.57699 -10.57643 -10.57562 -10.57521
  Beta  occ. eigenvalues --  -10.57442 -10.57149 -10.57026 -10.56932 -10.55556
  Beta  occ. eigenvalues --  -10.55419  -1.15007  -1.12754  -1.00226  -0.98734
  Beta  occ. eigenvalues --   -0.98329  -0.97792  -0.97558  -0.96950  -0.95224
  Beta  occ. eigenvalues --   -0.91621  -0.90677  -0.88406  -0.87699  -0.87267
  Beta  occ. eigenvalues --   -0.87157  -0.85010  -0.84124  -0.83635  -0.82577
  Beta  occ. eigenvalues --   -0.77265  -0.75859  -0.73461  -0.72988  -0.72390
  Beta  occ. eigenvalues --   -0.71319  -0.69271  -0.69221  -0.68604  -0.68055
  Beta  occ. eigenvalues --   -0.64717  -0.63738  -0.62678  -0.61670  -0.61493
  Beta  occ. eigenvalues --   -0.60460  -0.58339  -0.58229  -0.56039  -0.55890
  Beta  occ. eigenvalues --   -0.54879  -0.54840  -0.53911  -0.53880  -0.52936
  Beta  occ. eigenvalues --   -0.52740  -0.52619  -0.52187  -0.52174  -0.51658
  Beta  occ. eigenvalues --   -0.51366  -0.51026  -0.50576  -0.48604  -0.46418
  Beta  occ. eigenvalues --   -0.46121  -0.45935  -0.45610  -0.45358  -0.44915
  Beta  occ. eigenvalues --   -0.44641  -0.44257  -0.43550  -0.42549  -0.42322
  Beta  occ. eigenvalues --   -0.41813  -0.41362  -0.40834  -0.39887  -0.39685
  Beta  occ. eigenvalues --   -0.38680  -0.37625  -0.37011  -0.36194  -0.36073
  Beta  occ. eigenvalues --   -0.35983  -0.33622  -0.31923  -0.31374  -0.30123
  Beta  occ. eigenvalues --   -0.28797  -0.27075  -0.26209
  Beta virt. eigenvalues --   -0.18247  -0.02870  -0.02065  -0.01194   0.00371
  Beta virt. eigenvalues --    0.00765   0.01657   0.03796   0.04225   0.05230
  Beta virt. eigenvalues --    0.05912   0.10801   0.11295   0.11453   0.12098
  Beta virt. eigenvalues --    0.12185   0.12337   0.13270   0.14427   0.14657
  Beta virt. eigenvalues --    0.15708   0.16601   0.17317   0.17392   0.17599
  Beta virt. eigenvalues --    0.17945   0.18136   0.18217   0.18637   0.18895
  Beta virt. eigenvalues --    0.20282   0.21464   0.21762   0.22117   0.22264
  Beta virt. eigenvalues --    0.22511   0.22884   0.23182   0.24132   0.24995
  Beta virt. eigenvalues --    0.26087   0.26523   0.26992   0.27403   0.27810
  Beta virt. eigenvalues --    0.28121   0.28277   0.28548   0.29887   0.30456
  Beta virt. eigenvalues --    0.31083   0.31259   0.31990   0.34279   0.34570
  Beta virt. eigenvalues --    0.35351   0.35805   0.36268   0.36756   0.37069
  Beta virt. eigenvalues --    0.38205   0.39958   0.41096   0.41229   0.42694
  Beta virt. eigenvalues --    0.43607   0.43897   0.44751   0.45429   0.46215
  Beta virt. eigenvalues --    0.46983   0.47141   0.47767   0.49058   0.49794
  Beta virt. eigenvalues --    0.51246   0.51738   0.53799   0.54309   0.54699
  Beta virt. eigenvalues --    0.55295   0.55699   0.55883   0.56235   0.56511
  Beta virt. eigenvalues --    0.56908   0.57571   0.57944   0.58230   0.58544
  Beta virt. eigenvalues --    0.58621   0.59425   0.59837   0.60132   0.60432
  Beta virt. eigenvalues --    0.60852   0.60930   0.61439   0.61851   0.62135
  Beta virt. eigenvalues --    0.62261   0.62575   0.62746   0.63055   0.63184
  Beta virt. eigenvalues --    0.63248   0.63968   0.64252   0.64431   0.64664
  Beta virt. eigenvalues --    0.65238   0.65588   0.65848   0.65998   0.66142
  Beta virt. eigenvalues --    0.66425   0.66839   0.67607   0.67893   0.68301
  Beta virt. eigenvalues --    0.68585   0.68975   0.70891   0.72095   0.72535
  Beta virt. eigenvalues --    0.73131   0.74311   0.74498   0.74621   0.75641
  Beta virt. eigenvalues --    0.76413   0.77235   0.77542   0.78789   0.80216
  Beta virt. eigenvalues --    0.80505   0.80724   0.81870   0.82299   0.83508
  Beta virt. eigenvalues --    0.83841   0.84533   0.84681   0.85532   0.86660
  Beta virt. eigenvalues --    0.86898   0.87001   0.87380   0.87831   0.87949
  Beta virt. eigenvalues --    0.88258   0.88567   0.88874   0.89386   0.89432
  Beta virt. eigenvalues --    0.89825   0.90144   0.90393   0.91013   0.91154
  Beta virt. eigenvalues --    0.91672   0.92549   0.92887   0.93043   0.93507
  Beta virt. eigenvalues --    0.93793   0.94319   0.94986   0.95497   0.95816
  Beta virt. eigenvalues --    0.96447   0.97116   0.97374   0.98638   0.98933
  Beta virt. eigenvalues --    1.00205   1.00657   1.00995   1.01412   1.01906
  Beta virt. eigenvalues --    1.02817   1.03311   1.03510   1.04131   1.04748
  Beta virt. eigenvalues --    1.05688   1.07114   1.07309   1.07908   1.08266
  Beta virt. eigenvalues --    1.09253   1.10076   1.11945   1.13567   1.14442
  Beta virt. eigenvalues --    1.16179   1.17213   1.17694   1.18108   1.19492
  Beta virt. eigenvalues --    1.19745   1.19963   1.20227   1.21508   1.21769
  Beta virt. eigenvalues --    1.23285   1.23645   1.24849   1.25776   1.26448
  Beta virt. eigenvalues --    1.27573   1.28517   1.29080   1.29547   1.30515
  Beta virt. eigenvalues --    1.30875   1.31498   1.32877   1.33349   1.34086
  Beta virt. eigenvalues --    1.34659   1.35574   1.36825   1.38263   1.38559
  Beta virt. eigenvalues --    1.40087   1.40767   1.41392   1.41721   1.42706
  Beta virt. eigenvalues --    1.44075   1.44850   1.45094   1.46041   1.46873
  Beta virt. eigenvalues --    1.47510   1.47938   1.48836   1.48984   1.49702
  Beta virt. eigenvalues --    1.50392   1.50710   1.50980   1.51500   1.51915
  Beta virt. eigenvalues --    1.52064   1.52313   1.52990   1.53387   1.55038
  Beta virt. eigenvalues --    1.57550   1.58962   1.59778   1.60509   1.60595
  Beta virt. eigenvalues --    1.61342   1.62130   1.63048   1.63168   1.64766
  Beta virt. eigenvalues --    1.66515   1.68189   1.68490   1.72966   1.73847
  Beta virt. eigenvalues --    1.74596   1.75932   1.77536   1.78438   1.78946
  Beta virt. eigenvalues --    1.79248   1.79617   1.80463   1.81171   1.81786
  Beta virt. eigenvalues --    1.83171   1.84058   1.84182   1.85549   1.86084
  Beta virt. eigenvalues --    1.86732   1.87660   1.87821   1.89210   1.89385
  Beta virt. eigenvalues --    1.89872   1.91374   1.91722   1.92765   1.93515
  Beta virt. eigenvalues --    1.94685   1.95168   1.96096   1.96842   1.97114
  Beta virt. eigenvalues --    1.98073   1.98667   1.98820   1.99798   2.00315
  Beta virt. eigenvalues --    2.00720   2.01550   2.02237   2.02470   2.02799
  Beta virt. eigenvalues --    2.04509   2.04905   2.05192   2.05385   2.06426
  Beta virt. eigenvalues --    2.07567   2.08879   2.09341   2.09656   2.10632
  Beta virt. eigenvalues --    2.11220   2.11463   2.11933   2.12682   2.13793
  Beta virt. eigenvalues --    2.14382   2.14773   2.15425   2.16044   2.16458
  Beta virt. eigenvalues --    2.18494   2.18951   2.19376   2.21085   2.21380
  Beta virt. eigenvalues --    2.21838   2.21982   2.22729   2.22981   2.24540
  Beta virt. eigenvalues --    2.24983   2.25829   2.26517   2.26924   2.27391
  Beta virt. eigenvalues --    2.28162   2.28962   2.29377   2.29940   2.30585
  Beta virt. eigenvalues --    2.31355   2.31873   2.32571   2.34087   2.35451
  Beta virt. eigenvalues --    2.36316   2.38616   2.39817   2.42317   2.43247
  Beta virt. eigenvalues --    2.43856   2.48186   2.49151   2.49801   2.50594
  Beta virt. eigenvalues --    2.54070   2.54191   2.54619   2.55191   2.56794
  Beta virt. eigenvalues --    2.57172   2.58570   2.59805   2.60154   2.62341
  Beta virt. eigenvalues --    2.63725   2.64306   2.64595   2.66349   2.66532
  Beta virt. eigenvalues --    2.67346   2.68456   2.68620   2.69010   2.69642
  Beta virt. eigenvalues --    2.69928   2.70423   2.70579   2.71449   2.72765
  Beta virt. eigenvalues --    2.73810   2.74226   2.77216   2.78540   2.79929
  Beta virt. eigenvalues --    2.82009   2.82715   2.82934   2.83813   2.84072
  Beta virt. eigenvalues --    2.84356   2.86657   2.88043   2.89745   2.91229
  Beta virt. eigenvalues --    2.93105   2.93923   2.94499   2.96864   2.98357
  Beta virt. eigenvalues --    2.99066   2.99231   3.04216   3.07378   3.09126
  Beta virt. eigenvalues --    3.23221   3.23567   3.28269   3.29815   3.30936
  Beta virt. eigenvalues --    3.31669   3.32655   3.36670   3.39256   3.49755
  Beta virt. eigenvalues --    3.50938   3.56136   4.05402   4.07135   4.07592
  Beta virt. eigenvalues --    4.09591   4.10475   4.11403   4.12058   4.14188
  Beta virt. eigenvalues --    4.15045   4.16600   4.17315   4.17590   4.21204
  Beta virt. eigenvalues --    4.24147   4.25633   4.26388   4.28813   4.30418
  Beta virt. eigenvalues --    4.32784   4.33657   4.38123   4.39695   4.43047
  Beta virt. eigenvalues --    4.45249   4.46579   4.49016   4.49697   4.50644
  Beta virt. eigenvalues --    4.59391   4.64862   4.71732   4.74931   4.76738
  Beta virt. eigenvalues --    4.84418   4.89107   4.98208
          Condensed to atoms (all electrons):
          Atomic-Atomic Spin Densities.
 Mulliken charges and spin densities:
               1          2
     1  C    0.146160   0.272866
     2  C    0.176657   0.268448
     3  C   -0.206388  -0.117558
     4  C    0.086024   0.333260
     5  C    0.079199   0.296490
     6  C   -0.190665  -0.111347
     7  H    0.199034   0.003154
     8  H    0.199433   0.002731
     9  C    0.193015  -0.066635
    10  N   -0.491544   0.156585
    11  C    0.188590  -0.074785
    12  N   -0.491459   0.173134
    13  C    0.283882  -0.033763
    14  C    0.273008  -0.034798
    15  C   -0.159411   0.116278
    16  C    0.056385   0.079889
    17  C   -0.151270   0.104996
    18  C    0.055581   0.014307
    19  C   -0.177500  -0.053079
    20  H    0.211615  -0.005783
    21  C   -0.191915  -0.031807
    22  C   -0.166309  -0.024422
    23  H    0.199600  -0.004760
    24  C   -0.191030   0.025841
    25  C   -0.167698   0.127044
    26  H    0.188165   0.001633
    27  H    0.183285   0.000993
    28  C   -0.169195   0.070739
    29  H    0.183067   0.000385
    30  H    0.182185  -0.001631
    31  H    0.182102  -0.006357
    32  H    0.178600  -0.003808
    33  C    0.276430  -0.016186
    34  C    0.278035  -0.011103
    35  C   -0.168742   0.052811
    36  C    0.033713  -0.000825
    37  C   -0.174793   0.064742
    38  C    0.042205   0.057627
    39  C   -0.169352  -0.003712
    40  H    0.184831  -0.002635
    41  C   -0.181768   0.024678
    42  C   -0.180076  -0.031096
    43  H    0.201654  -0.003389
    44  C   -0.184908  -0.024377
    45  C   -0.177346   0.027854
    46  H    0.173000  -0.000215
    47  H    0.174597  -0.001350
    48  C   -0.176100   0.075786
    49  H    0.180632   0.001007
    50  H    0.175257   0.000981
    51  H    0.170874  -0.001596
    52  H    0.174102  -0.003779
    53  N   -0.662541   0.202895
    54  N   -0.680908   0.113646
 Sum of Mulliken charges =  -0.00000   2.00000
 Mulliken charges and spin densities with hydrogens summed into heavy atoms:
               1          2
     1  C    0.146160   0.272866
     2  C    0.176657   0.268448
     3  C   -0.007354  -0.114404
     4  C    0.086024   0.333260
     5  C    0.079199   0.296490
     6  C    0.008768  -0.108616
     9  C    0.193015  -0.066635
    10  N   -0.491544   0.156585
    11  C    0.188590  -0.074785
    12  N   -0.491459   0.173134
    13  C    0.283882  -0.033763
    14  C    0.273008  -0.034798
    15  C    0.052204   0.110495
    16  C    0.056385   0.079889
    17  C    0.048330   0.100236
    18  C    0.055581   0.014307
    19  C    0.010665  -0.051446
    21  C   -0.008630  -0.030814
    22  C    0.016759  -0.024037
    24  C   -0.008845   0.024210
    25  C    0.014403   0.120687
    28  C    0.009405   0.066930
    33  C    0.276430  -0.016186
    34  C    0.278035  -0.011103
    35  C    0.016089   0.050177
    36  C    0.033713  -0.000825
    37  C    0.026861   0.061352
    38  C    0.042205   0.057627
    39  C    0.003648  -0.003927
    41  C   -0.007171   0.023329
    42  C    0.000556  -0.030090
    44  C   -0.009651  -0.023396
    45  C   -0.006472   0.026258
    48  C   -0.001997   0.072007
    53  N   -0.662541   0.202895
    54  N   -0.680908   0.113646
 Electronic spatial extent (au):  <R**2>=          12758.6342
 Charge=             -0.0000 electrons
 Dipole moment (field-independent basis, Debye):
    X=            -16.9206    Y=              1.1441    Z=             -0.4032  Tot=             16.9640
 Quadrupole moment (field-independent basis, Debye-Ang):
   XX=           -271.4131   YY=           -177.4335   ZZ=           -201.8756
   XY=             -1.1040   XZ=              4.1144   YZ=             18.6055
 Traceless Quadrupole moment (field-independent basis, Debye-Ang):
   XX=            -54.5057   YY=             39.4739   ZZ=             15.0318
   XY=             -1.1040   XZ=              4.1144   YZ=             18.6055
 Octapole moment (field-independent basis, Debye-Ang**2):
  XXX=           -709.0951  YYY=             22.5243  ZZZ=             -1.1206  XYY=            -79.1063
  XXY=              7.6776  XXZ=              4.6142  XZZ=            -73.0033  YZZ=             -0.1951
  YYZ=              1.3605  XYZ=             30.1982
 Hexadecapole moment (field-independent basis, Debye-Ang**3):
 XXXX=         -12429.0217 YYYY=          -5368.2253 ZZZZ=          -3015.7288 XXXY=             39.1768
 XXXZ=            117.8937 YYYX=            -19.8902 YYYZ=            218.0485 ZZZX=             79.9323
 ZZZY=             19.0127 XXYY=          -2506.6919 XXZZ=          -2162.2827 YYZZ=          -1442.5078
 XXYZ=            231.9770 YYXZ=             25.4057 ZZXY=             -7.2049
 N-N= 3.658137113114D+03 E-N=-1.067111678046D+04  KE= 1.436266903862D+03
                          Isotropic Fermi Contact Couplings
        Atom                 a.u.       MegaHertz       Gauss      10(-4) cm-1
     1  C(13)              0.04477      25.16523       8.97958       8.39422
     2  C(13)              0.05142      28.90140      10.31274       9.64047
     3  C(13)             -0.03416     -19.20246      -6.85192      -6.40525
     4  C(13)              0.04966      27.91115       9.95939       9.31016
     5  C(13)              0.04316      24.26130       8.65704       8.09270
     6  C(13)             -0.03104     -17.44656      -6.22537      -5.81955
     7  H(1)               0.00110       2.44769       0.87340       0.81646
     8  H(1)               0.00090       2.00614       0.71584       0.66918
     9  C(13)             -0.02581     -14.50530      -5.17585      -4.83845
    10  N(14)              0.03167       5.11621       1.82559       1.70658
    11  C(13)             -0.02864     -16.10099      -5.74523      -5.37071
    12  N(14)              0.03495       5.64608       2.01466       1.88333
    13  C(13)             -0.00149      -0.83788      -0.29898      -0.27949
    14  C(13)             -0.00378      -2.12585      -0.75855      -0.70911
    15  C(13)              0.02064      11.60419       4.14067       3.87074
    16  C(13)              0.01318       7.40981       2.64400       2.47165
    17  C(13)              0.01985      11.15610       3.98077       3.72127
    18  C(13)             -0.00021      -0.11619      -0.04146      -0.03876
    19  C(13)             -0.01305      -7.33322      -2.61667      -2.44610
    20  H(1)              -0.00197      -4.41259      -1.57452      -1.47188
    21  C(13)             -0.00865      -4.86266      -1.73512      -1.62201
    22  C(13)             -0.00754      -4.23578      -1.51143      -1.41290
    23  H(1)              -0.00164      -3.66938      -1.30932      -1.22397
    24  C(13)              0.00261       1.46779       0.52374       0.48960
    25  C(13)              0.02193      12.32584       4.39817       4.11146
    26  H(1)               0.00052       1.17020       0.41756       0.39034
    27  H(1)               0.00035       0.78986       0.28184       0.26347
    28  C(13)              0.01111       6.24746       2.22925       2.08393
    29  H(1)               0.00024       0.52527       0.18743       0.17521
    30  H(1)              -0.00051      -1.13259      -0.40414      -0.37779
    31  H(1)              -0.00198      -4.42213      -1.57792      -1.47506
    32  H(1)              -0.00118      -2.63277      -0.93944      -0.87820
    33  C(13)              0.00097       0.54288       0.19371       0.18109
    34  C(13)              0.00535       3.00507       1.07228       1.00238
    35  C(13)              0.01044       5.87006       2.09458       1.95804
    36  C(13)             -0.00197      -1.10639      -0.39479      -0.36905
    37  C(13)              0.01142       6.41949       2.29064       2.14131
    38  C(13)              0.01020       5.73129       2.04507       1.91175
    39  C(13)             -0.00240      -1.35055      -0.48191      -0.45050
    40  H(1)              -0.00068      -1.51958      -0.54222      -0.50688
    41  C(13)              0.00347       1.94861       0.69531       0.64999
    42  C(13)             -0.00770      -4.32955      -1.54489      -1.44418
    43  H(1)              -0.00115      -2.56053      -0.91366      -0.85410
    44  C(13)             -0.00608      -3.41963      -1.22021      -1.14067
    45  C(13)              0.00395       2.22297       0.79321       0.74150
    46  H(1)               0.00005       0.10330       0.03686       0.03446
    47  H(1)              -0.00042      -0.93616      -0.33405      -0.31227
    48  C(13)              0.01306       7.33930       2.61884       2.44813
    49  H(1)               0.00032       0.71190       0.25402       0.23746
    50  H(1)               0.00034       0.76147       0.27171       0.25400
    51  H(1)              -0.00049      -1.09593      -0.39106      -0.36556
    52  H(1)              -0.00117      -2.60401      -0.92918      -0.86860
    53  N(14)              0.04526       7.31217       2.60917       2.43908
    54  N(14)              0.02328       3.76058       1.34187       1.25440
 --------------------------------------------------------
       Center         ----  Spin Dipole Couplings  ----
                      3XX-RR        3YY-RR        3ZZ-RR
 --------------------------------------------------------
     1   Atom       -0.145251      0.050934      0.094317
     2   Atom       -0.143735      0.058515      0.085220
     3   Atom        0.051252     -0.025617     -0.025635
     4   Atom       -0.179936      0.116748      0.063188
     5   Atom       -0.160993      0.105936      0.055057
     6   Atom        0.053553     -0.027414     -0.026139
     7   Atom        0.007370     -0.003785     -0.003585
     8   Atom        0.007944     -0.003916     -0.004028
     9   Atom        0.030372     -0.016913     -0.013458
    10   Atom       -0.142872      0.091347      0.051525
    11   Atom        0.036978     -0.018541     -0.018437
    12   Atom       -0.162401      0.100219      0.062182
    13   Atom        0.008007      0.010222     -0.018229
    14   Atom        0.018490     -0.002990     -0.015500
    15   Atom       -0.036106     -0.012789      0.048895
    16   Atom       -0.031513     -0.011091      0.042604
    17   Atom       -0.044287      0.000411      0.043877
    18   Atom       -0.003951     -0.003746      0.007698
    19   Atom        0.013832      0.006711     -0.020543
    20   Atom        0.005321     -0.000038     -0.005283
    21   Atom        0.005601      0.005233     -0.010833
    22   Atom        0.007380     -0.000609     -0.006772
    23   Atom        0.004808     -0.002593     -0.002215
    24   Atom       -0.009739     -0.003310      0.013050
    25   Atom       -0.044312     -0.010172      0.054484
    26   Atom        0.000712      0.001278     -0.001990
    27   Atom        0.000709      0.000574     -0.001283
    28   Atom       -0.020068     -0.013393      0.033460
    29   Atom        0.000473     -0.000395     -0.000079
    30   Atom        0.001923      0.000230     -0.002153
    31   Atom       -0.004304      0.006712     -0.002407
    32   Atom        0.002520     -0.003061      0.000541
    33   Atom        0.014882     -0.004086     -0.010796
    34   Atom        0.003994      0.004291     -0.008285
    35   Atom       -0.024751      0.006323      0.018429
    36   Atom        0.000948     -0.001718      0.000770
    37   Atom       -0.024124     -0.002947      0.027071
    38   Atom       -0.024749     -0.006580      0.031329
    39   Atom        0.000878     -0.002733      0.001855
    40   Atom        0.002144     -0.002719      0.000575
    41   Atom       -0.008928     -0.002681      0.011609
    42   Atom        0.008853      0.004160     -0.013014
    43   Atom        0.002556      0.002289     -0.004845
    44   Atom        0.005957      0.003877     -0.009834
    45   Atom       -0.008304     -0.005670      0.013974
    46   Atom       -0.000391     -0.000211      0.000601
    47   Atom        0.001761     -0.000275     -0.001486
    48   Atom       -0.029251     -0.002516      0.031767
    49   Atom        0.000270      0.001318     -0.001589
    50   Atom        0.000308      0.000787     -0.001094
    51   Atom        0.001381     -0.001574      0.000193
    52   Atom       -0.002563      0.004030     -0.001468
    53   Atom       -0.152703     -0.111491      0.264194
    54   Atom       -0.090530     -0.069960      0.160490
 --------------------------------------------------------
                        XY            XZ            YZ
 --------------------------------------------------------
     1   Atom        0.025437      0.035671      0.226406
     2   Atom       -0.021897     -0.025394      0.214807
     3   Atom       -0.002598     -0.001873     -0.057686
     4   Atom       -0.001697      0.003285      0.272989
     5   Atom        0.020927      0.015148      0.245782
     6   Atom        0.001313     -0.000763     -0.055908
     7   Atom       -0.001139      0.001025     -0.003493
     8   Atom        0.001065     -0.002126     -0.003591
     9   Atom        0.019561     -0.024917     -0.023045
    10   Atom        0.013128      0.031104      0.203607
    11   Atom       -0.023686      0.022987     -0.023086
    12   Atom        0.008879     -0.012625      0.225302
    13   Atom       -0.018473     -0.000914      0.026457
    14   Atom        0.001139      0.021395      0.020920
    15   Atom        0.024092     -0.042428     -0.061376
    16   Atom        0.007270     -0.013407     -0.048143
    17   Atom        0.015383     -0.016395     -0.068995
    18   Atom        0.002769     -0.002932     -0.009911
    19   Atom       -0.010497      0.012225      0.022880
    20   Atom       -0.001537      0.003999      0.000482
    21   Atom       -0.005524      0.008144      0.012191
    22   Atom       -0.001684      0.006890      0.009492
    23   Atom       -0.003276     -0.000047      0.003280
    24   Atom        0.007278     -0.010907     -0.017245
    25   Atom        0.022820     -0.041795     -0.069830
    26   Atom       -0.002025     -0.000115      0.001122
    27   Atom       -0.000345      0.001052      0.001296
    28   Atom        0.017144     -0.026517     -0.036497
    29   Atom        0.001397      0.002344      0.001297
    30   Atom       -0.003172      0.000025      0.000221
    31   Atom       -0.006695     -0.004582      0.002747
    32   Atom        0.004247      0.004548      0.001158
    33   Atom       -0.002843     -0.013057      0.011129
    34   Atom        0.013890      0.008520      0.014894
    35   Atom       -0.004470      0.000873     -0.039038
    36   Atom        0.000724     -0.002302     -0.001987
    37   Atom       -0.011317      0.019893     -0.036740
    38   Atom       -0.000456      0.001739     -0.038633
    39   Atom       -0.001076     -0.001730      0.000522
    40   Atom        0.000757     -0.000806      0.002760
    41   Atom       -0.005249      0.007788     -0.015919
    42   Atom        0.005631     -0.005475      0.014521
    43   Atom        0.000545     -0.002014      0.001053
    44   Atom        0.004869     -0.005507      0.010567
    45   Atom       -0.006747      0.009557     -0.015144
    46   Atom       -0.001273     -0.002009      0.001036
    47   Atom        0.002509     -0.000150     -0.000180
    48   Atom       -0.010509      0.020170     -0.043405
    49   Atom        0.001277      0.000223      0.000899
    50   Atom        0.000798     -0.000482      0.000702
    51   Atom       -0.001906     -0.002657      0.000596
    52   Atom        0.004446      0.002837      0.001740
    53   Atom        0.118107     -0.227158     -0.273059
    54   Atom       -0.070219      0.139210     -0.164314
 --------------------------------------------------------


 ---------------------------------------------------------------------------------
              Anisotropic Spin Dipole Couplings in Principal Axis System
 ---------------------------------------------------------------------------------

       Atom             a.u.   MegaHertz   Gauss  10(-4) cm-1        Axes

              Baa    -0.1579   -21.194    -7.562    -7.069 -0.5164 -0.5997  0.6113
     1 C(13)  Bbb    -0.1463   -19.638    -7.007    -6.550  0.8509 -0.4396  0.2875
              Bcc     0.3043    40.831    14.570    13.620  0.0963  0.6686  0.7373
 
              Baa    -0.1469   -19.713    -7.034    -6.575  0.9247 -0.2236  0.3081
     2 C(13)  Bbb    -0.1428   -19.159    -6.837    -6.391  0.3728  0.6958 -0.6140
              Bcc     0.2897    38.872    13.871    12.966 -0.0771  0.6826  0.7267
 
              Baa    -0.0834   -11.190    -3.993    -3.732  0.0235  0.7069  0.7069
     3 C(13)  Bbb     0.0320     4.300     1.534     1.434 -0.0266 -0.7064  0.7073
              Bcc     0.0513     6.889     2.458     2.298  0.9994 -0.0354  0.0022
 
              Baa    -0.1863   -25.004    -8.922    -8.340 -0.4880 -0.5857  0.6472
     4 C(13)  Bbb    -0.1779   -23.878    -8.520    -7.965  0.8728 -0.3289  0.3605
              Bcc     0.3643    48.881    17.442    16.305  0.0017  0.7408  0.6717
 
              Baa    -0.1680   -22.538    -8.042    -7.518  0.4406 -0.6180  0.6511
     5 C(13)  Bbb    -0.1610   -21.602    -7.708    -7.206  0.8962  0.2605 -0.3592
              Bcc     0.3289    44.140    15.750    14.724  0.0524  0.7418  0.6686
 
              Baa    -0.0827   -11.096    -3.959    -3.701 -0.0029  0.7112  0.7030
     6 C(13)  Bbb     0.0290     3.898     1.391     1.300  0.0597 -0.7017  0.7100
              Bcc     0.0536     7.198     2.569     2.401  0.9982  0.0440 -0.0404
 
              Baa    -0.0072    -3.831    -1.367    -1.278  0.0072  0.7183  0.6957
     7 H(1)   Bbb    -0.0005    -0.260    -0.093    -0.087 -0.1909 -0.6820  0.7060
              Bcc     0.0077     4.091     1.460     1.365  0.9816 -0.1379  0.1322
 
              Baa    -0.0076    -4.057    -1.448    -1.353  0.0516  0.6891  0.7228
     8 H(1)   Bbb    -0.0009    -0.504    -0.180    -0.168 -0.2431  0.7107 -0.6602
              Bcc     0.0085     4.561     1.627     1.521  0.9686  0.1416 -0.2042
 
              Baa    -0.0384    -5.158    -1.841    -1.721  0.0550  0.7060  0.7061
     9 C(13)  Bbb    -0.0143    -1.914    -0.683    -0.639 -0.5739  0.6010 -0.5562
              Bcc     0.0527     7.072     2.524     2.359  0.8171  0.3746 -0.4382
 
              Baa    -0.1545    -5.959    -2.126    -1.988  0.8311  0.3277 -0.4493
    10 N(14)  Bbb    -0.1237    -4.772    -1.703    -1.592 -0.5514  0.5910 -0.5888
              Bcc     0.2782    10.731     3.829     3.580  0.0726  0.7371  0.6719
 
              Baa    -0.0416    -5.580    -1.991    -1.861  0.0097  0.7127  0.7014
    11 C(13)  Bbb    -0.0160    -2.143    -0.765    -0.715 -0.5289 -0.5916  0.6085
              Bcc     0.0575     7.723     2.756     2.576  0.8487 -0.3768  0.3712
 
              Baa    -0.1713    -6.606    -2.357    -2.204  0.8650 -0.3369  0.3719
    12 N(14)  Bbb    -0.1360    -5.246    -1.872    -1.750 -0.5017 -0.5870  0.6353
              Bcc     0.3073    11.852     4.229     3.954 -0.0043  0.7361  0.6768
 
              Baa    -0.0359    -4.824    -1.721    -1.609 -0.2138 -0.5487  0.8082
    13 C(13)  Bbb    -0.0000    -0.001    -0.000    -0.000  0.8281  0.3371  0.4479
              Bcc     0.0360     4.825     1.722     1.609 -0.5182  0.7651  0.3823
 
              Baa    -0.0364    -4.884    -1.743    -1.629 -0.3060 -0.4978  0.8115
    14 C(13)  Bbb     0.0041     0.551     0.197     0.184 -0.5114  0.8050  0.3009
              Bcc     0.0323     4.333     1.546     1.445  0.8030  0.3229  0.5008
 
              Baa    -0.0539    -7.239    -2.583    -2.415  0.8439  0.2293  0.4850
    15 C(13)  Bbb    -0.0498    -6.683    -2.385    -2.229 -0.4236  0.8396  0.3400
              Bcc     0.1037    13.922     4.968     4.644 -0.3293 -0.4924  0.8057
 
              Baa    -0.0394    -5.289    -1.887    -1.764  0.0896  0.8525  0.5150
    16 C(13)  Bbb    -0.0337    -4.520    -1.613    -1.508  0.9855 -0.1507  0.0781
              Bcc     0.0731     9.809     3.500     3.272 -0.1442 -0.5006  0.8536
 
              Baa    -0.0519    -6.968    -2.486    -2.324 -0.5369  0.7255  0.4306
    17 C(13)  Bbb    -0.0461    -6.181    -2.205    -2.062  0.8293  0.3600  0.4274
              Bcc     0.0980    13.148     4.692     4.386 -0.1550 -0.5866  0.7949
 
              Baa    -0.0096    -1.294    -0.462    -0.432 -0.1824  0.8666  0.4645
    18 C(13)  Bbb    -0.0046    -0.621    -0.221    -0.207  0.9603  0.0557  0.2733
              Bcc     0.0143     1.914     0.683     0.639 -0.2109 -0.4959  0.8424
 
              Baa    -0.0384    -5.147    -1.836    -1.717 -0.2908 -0.4861  0.8241
    19 C(13)  Bbb     0.0162     2.170     0.774     0.724  0.7331  0.4402  0.5184
              Bcc     0.0222     2.976     1.062     0.993 -0.6148  0.7549  0.2284
 
              Baa    -0.0068    -3.606    -1.287    -1.203 -0.3274 -0.1419  0.9342
    20 H(1)   Bbb    -0.0002    -0.080    -0.029    -0.027  0.1315  0.9722  0.1938
              Bcc     0.0069     3.686     1.315     1.229  0.9357 -0.1863  0.2996
 
              Baa    -0.0210    -2.819    -1.006    -0.940 -0.3456 -0.4543  0.8211
    21 C(13)  Bbb     0.0089     1.194     0.426     0.398  0.8917  0.1136  0.4382
              Bcc     0.0121     1.625     0.580     0.542 -0.2923  0.8836  0.3658
 
              Baa    -0.0156    -2.090    -0.746    -0.697 -0.2785 -0.5366  0.7966
    22 C(13)  Bbb     0.0048     0.646     0.230     0.215 -0.4743  0.7980  0.3717
              Bcc     0.0108     1.444     0.515     0.482  0.8351  0.2743  0.4767
 
              Baa    -0.0062    -3.322    -1.185    -1.108  0.2219  0.7561 -0.6157
    23 H(1)   Bbb    -0.0000    -0.009    -0.003    -0.003  0.3621  0.5224  0.7720
              Bcc     0.0062     3.331     1.189     1.111  0.9053 -0.3943 -0.1579
 
              Baa    -0.0145    -1.950    -0.696    -0.650 -0.6807  0.7112  0.1755
    24 C(13)  Bbb    -0.0139    -1.868    -0.667    -0.623  0.6567  0.4862  0.5764
              Bcc     0.0285     3.818     1.363     1.274 -0.3246 -0.5076  0.7981
 
              Baa    -0.0604    -8.103    -2.891    -2.703  0.8356  0.2787  0.4735
    25 C(13)  Bbb    -0.0530    -7.117    -2.540    -2.374 -0.4676  0.8133  0.3464
              Bcc     0.1134    15.220     5.431     5.077 -0.2885 -0.5108  0.8098
 
              Baa    -0.0024    -1.306    -0.466    -0.435 -0.2156 -0.3872  0.8964
    26 H(1)   Bbb    -0.0008    -0.405    -0.145    -0.135  0.7502  0.5220  0.4059
              Bcc     0.0032     1.711     0.610     0.571 -0.6251  0.7600  0.1779
 
              Baa    -0.0023    -1.249    -0.446    -0.417 -0.3381 -0.4154  0.8445
    27 H(1)   Bbb     0.0010     0.530     0.189     0.177  0.7828 -0.6222  0.0073
              Bcc     0.0013     0.720     0.257     0.240  0.5224  0.6635  0.5356
 
              Baa    -0.0349    -4.678    -1.669    -1.560 -0.5377  0.8125  0.2254
    28 C(13)  Bbb    -0.0302    -4.052    -1.446    -1.352  0.7684  0.3621  0.5277
              Bcc     0.0651     8.730     3.115     2.912 -0.3471 -0.4569  0.8190
 
              Baa    -0.0022    -1.155    -0.412    -0.385 -0.6515 -0.0410  0.7576
    29 H(1)   Bbb    -0.0013    -0.709    -0.253    -0.236 -0.3581  0.8969 -0.2595
              Bcc     0.0035     1.863     0.665     0.622  0.6688  0.4404  0.5990
 
              Baa    -0.0024    -1.266    -0.452    -0.422 -0.4500 -0.6043  0.6575
    30 H(1)   Bbb    -0.0020    -1.061    -0.379    -0.354  0.4114  0.5132  0.7532
              Bcc     0.0044     2.327     0.830     0.776  0.7926 -0.6095 -0.0176
 
              Baa    -0.0090    -4.825    -1.722    -1.609  0.8406  0.2759  0.4662
    31 H(1)   Bbb    -0.0023    -1.234    -0.440    -0.412 -0.3021 -0.4756  0.8261
              Bcc     0.0114     6.059     2.162     2.021 -0.4497  0.8353  0.3164
 
              Baa    -0.0057    -3.020    -1.078    -1.007 -0.5546  0.7908  0.2590
    32 H(1)   Bbb    -0.0021    -1.106    -0.395    -0.369 -0.3340 -0.4966  0.8011
              Bcc     0.0077     4.126     1.472     1.376  0.7621  0.3578  0.5396
 
              Baa    -0.0214    -2.878    -1.027    -0.960  0.2605 -0.4904  0.8316
    33 C(13)  Bbb    -0.0009    -0.119    -0.042    -0.040  0.4393  0.8273  0.3502
              Bcc     0.0223     2.997     1.069     1.000  0.8598 -0.2741 -0.4309
 
              Baa    -0.0182    -2.441    -0.871    -0.814  0.0413 -0.5695  0.8210
    34 C(13)  Bbb    -0.0080    -1.068    -0.381    -0.356  0.8046 -0.4682 -0.3653
              Bcc     0.0261     3.508     1.252     1.170  0.5924  0.6756  0.4389
 
              Baa    -0.0291    -3.899    -1.391    -1.301  0.5631  0.6434  0.5186
    35 C(13)  Bbb    -0.0230    -3.085    -1.101    -1.029  0.8251 -0.4024 -0.3966
              Bcc     0.0520     6.984     2.492     2.330  0.0465 -0.6512  0.7574
 
              Baa    -0.0029    -0.390    -0.139    -0.130  0.1762  0.8154  0.5514
    36 C(13)  Bbb    -0.0009    -0.124    -0.044    -0.042  0.7497 -0.4742  0.4616
              Bcc     0.0038     0.514     0.184     0.172 -0.6378 -0.3320  0.6949
 
              Baa    -0.0312    -4.188    -1.494    -1.397  0.8770 -0.2104 -0.4320
    37 C(13)  Bbb    -0.0269    -3.607    -1.287    -1.203  0.3991  0.8196  0.4110
              Bcc     0.0581     7.795     2.781     2.600  0.2676 -0.5328  0.8028
 
              Baa    -0.0307    -4.120    -1.470    -1.374 -0.0896  0.8443  0.5283
    38 C(13)  Bbb    -0.0247    -3.320    -1.184    -1.107  0.9958  0.0873  0.0293
              Bcc     0.0554     7.440     2.655     2.482  0.0214 -0.5287  0.8485
 
              Baa    -0.0030    -0.406    -0.145    -0.136  0.2611  0.9653 -0.0106
    39 C(13)  Bbb    -0.0003    -0.043    -0.016    -0.014  0.7449 -0.1945  0.6382
              Bcc     0.0034     0.450     0.161     0.150 -0.6140  0.1745  0.7698
 
              Baa    -0.0045    -2.377    -0.848    -0.793 -0.1584  0.8547 -0.4944
    40 H(1)   Bbb     0.0019     1.011     0.361     0.337  0.6015  0.4806  0.6382
              Bcc     0.0026     1.367     0.488     0.456  0.7830 -0.1962 -0.5902
 
              Baa    -0.0130    -1.745    -0.623    -0.582  0.1114  0.8502  0.5146
    41 C(13)  Bbb    -0.0115    -1.549    -0.553    -0.517  0.9564  0.0490 -0.2880
              Bcc     0.0245     3.294     1.175     1.099  0.2701 -0.5242  0.8076
 
              Baa    -0.0231    -3.098    -1.105    -1.033  0.2308 -0.4943  0.8381
    42 C(13)  Bbb     0.0092     1.240     0.442     0.413  0.8103 -0.3791 -0.4468
              Bcc     0.0138     1.858     0.663     0.620  0.5386  0.7822  0.3131
 
              Baa    -0.0055    -2.949    -1.052    -0.984  0.2485 -0.1462  0.9575
    43 H(1)   Bbb     0.0024     1.259     0.449     0.420 -0.3055  0.9263  0.2207
              Bcc     0.0032     1.690     0.603     0.564  0.9192  0.3474 -0.1855
 
              Baa    -0.0177    -2.382    -0.850    -0.794  0.2903 -0.4721  0.8324
    44 C(13)  Bbb     0.0071     0.956     0.341     0.319  0.8064 -0.3476 -0.4784
              Bcc     0.0106     1.426     0.509     0.476  0.5152  0.8101  0.2798
 
              Baa    -0.0146    -1.960    -0.699    -0.654  0.4555  0.8406  0.2931
    45 C(13)  Bbb    -0.0115    -1.546    -0.552    -0.516  0.8307 -0.2830 -0.4795
              Bcc     0.0261     3.506     1.251     1.170  0.3201 -0.4619  0.8272
 
              Baa    -0.0021    -1.104    -0.394    -0.368  0.8164  0.2764  0.5070
    46 H(1)   Bbb    -0.0009    -0.488    -0.174    -0.163  0.0401  0.8488 -0.5272
              Bcc     0.0030     1.592     0.568     0.531 -0.5761  0.4507  0.6819
 
              Baa    -0.0020    -1.053    -0.376    -0.351 -0.5488  0.8249  0.1353
    47 H(1)   Bbb    -0.0015    -0.794    -0.283    -0.265  0.1131 -0.0871  0.9898
              Bcc     0.0035     1.847     0.659     0.616  0.8283  0.5585 -0.0454
 
              Baa    -0.0362    -4.856    -1.733    -1.620  0.8264 -0.3301 -0.4562
    48 C(13)  Bbb    -0.0304    -4.084    -1.457    -1.362  0.5142  0.7726  0.3724
              Bcc     0.0666     8.940     3.190     2.982  0.2295 -0.5423  0.8082
 
              Baa    -0.0019    -0.990    -0.353    -0.330  0.0818 -0.3019  0.9498
    49 H(1)   Bbb    -0.0005    -0.274    -0.098    -0.091  0.8476 -0.4803 -0.2257
              Bcc     0.0024     1.263     0.451     0.421  0.5243  0.8235  0.2166
 
              Baa    -0.0016    -0.859    -0.307    -0.287  0.3691 -0.3722  0.8516
    50 H(1)   Bbb     0.0002     0.104     0.037     0.035  0.7549 -0.4145 -0.5083
              Bcc     0.0014     0.755     0.270     0.252  0.5422  0.8305  0.1280
 
              Baa    -0.0028    -1.474    -0.526    -0.492  0.5723  0.7337  0.3663
    51 H(1)   Bbb    -0.0014    -0.727    -0.259    -0.243  0.2983 -0.6024  0.7403
              Bcc     0.0041     2.201     0.785     0.734  0.7638 -0.3144 -0.5636
 
              Baa    -0.0057    -3.025    -1.079    -1.009  0.8429 -0.3070 -0.4419
    52 H(1)   Bbb    -0.0015    -0.826    -0.295    -0.276  0.2670 -0.4744  0.8389
              Bcc     0.0072     3.851     1.374     1.285  0.4672  0.8251  0.3178
 
              Baa    -0.2554    -9.852    -3.515    -3.286  0.2895  0.7894  0.5414
    53 N(14)  Bbb    -0.2517    -9.707    -3.464    -3.238  0.8862 -0.4348  0.1601
              Bcc     0.5071    19.559     6.979     6.524 -0.3617 -0.4334  0.8254
 
              Baa    -0.1562    -6.022    -2.149    -2.009 -0.3480  0.7608  0.5478
    54 N(14)  Bbb    -0.1509    -5.821    -2.077    -1.942  0.8635  0.4876 -0.1287
              Bcc     0.3071    11.844     4.226     3.951  0.3650 -0.4282  0.8267
 

 ---------------------------------------------------------------------------------

 Calling FoFJK, ICntrl=      2127 FMM=F ISym2X=0 I1Cent= 0 IOpClX= 1 NMat=1 NMatS=1 NMatT=0.
 -------------------------------------------------------------------
 Center     Atomic                   Forces (Hartrees/Bohr)
 Number     Number              X              Y              Z
 -------------------------------------------------------------------
      1        6          -0.009986665    0.012288105   -0.008123138
      2        6          -0.003534225   -0.011266540    0.005950282
      3        6          -0.000986858   -0.003916763   -0.000456183
      4        6           0.001452557   -0.009031908    0.011006228
      5        6           0.003462160    0.009510950   -0.011714909
      6        6          -0.000969637    0.003429001    0.003352257
      7        1           0.000311683    0.000595058    0.000095081
      8        1          -0.000589298   -0.000553552   -0.000127733
      9        6          -0.002052114   -0.002471693    0.001368266
     10        7           0.001026171    0.000848188   -0.000011196
     11        6          -0.003356055    0.001864529   -0.001235598
     12        7           0.002133109   -0.001126032    0.000748177
     13        6          -0.001951027    0.017695372    0.002301706
     14        6          -0.004641493   -0.006849719    0.001246357
     15        6          -0.004554054   -0.004298307   -0.002789501
     16        6           0.007362326   -0.005808779    0.000500394
     17        6          -0.003810801    0.002131151   -0.002145189
     18        6           0.003275568    0.001002102    0.001245433
     19        6          -0.000772413    0.000030430   -0.000476308
     20        1           0.001389671   -0.000008125    0.000275183
     21        6           0.000284218    0.006728740    0.004895026
     22        6           0.005419203   -0.000697993    0.001843494
     23        1           0.000700665   -0.000275021   -0.000216896
     24        6          -0.002468660   -0.004972290   -0.004318565
     25        6          -0.003106765   -0.002070978   -0.002669421
     26        1           0.000136749   -0.000104897    0.000080910
     27        1          -0.000259165    0.000057780   -0.000083102
     28        6          -0.003247418    0.005410150    0.002869158
     29        1           0.000460546    0.000157309   -0.000236653
     30        1           0.000193024   -0.000121350    0.000275698
     31        1           0.000130875   -0.000444185   -0.000075884
     32        1          -0.000233427   -0.000487542    0.000198032
     33        6          -0.003793460    0.003707053   -0.001648894
     34        6          -0.001977112   -0.012119975   -0.001188270
     35        6          -0.000172702   -0.000399950    0.001049028
     36        6          -0.001738371    0.001602941    0.002138483
     37        6          -0.002266296    0.002576648    0.001626451
     38        6           0.004285796   -0.000500239   -0.002043444
     39        6           0.000634322    0.000344318    0.000312575
     40        1           0.000230535   -0.000060723    0.000226535
     41        6           0.001680100   -0.001896330   -0.000863190
     42        6          -0.001296560   -0.000187449    0.000122368
     43        1           0.000818822   -0.000264424   -0.000343238
     44        6          -0.000285320    0.000721493    0.000348327
     45        6           0.001332864    0.000748533   -0.000042337
     46        1           0.000286564   -0.000370965   -0.000540372
     47        1          -0.000281846    0.000602252   -0.000282674
     48        6           0.001489624   -0.000146264   -0.000077169
     49        1           0.000091521    0.000213841   -0.000192692
     50        1           0.000047396    0.000142566    0.000128746
     51        1          -0.000147416    0.000708033   -0.000418330
     52        1           0.000301127    0.000362820    0.000066314
     53        7           0.012493745   -0.010307003   -0.000651043
     54        7           0.007048213    0.007279632   -0.001298575
 -------------------------------------------------------------------
 Cartesian Forces:  Max     0.017695372 RMS     0.003865842

 GradGradGradGradGradGradGradGradGradGradGradGradGradGradGradGradGradGrad
 Berny optimization.
 Search for a local minimum.
 Step number   1 out of a maximum of    2
 All quantities printed in internal units (Hartrees-Bohrs-Radians)
 Second derivative matrix not updated -- first step.
 ITU=  0
     Eigenvalues ---    0.00008   0.00009   0.00022   0.00075   0.00078
     Eigenvalues ---    0.00114   0.00183   0.00268   0.00291   0.00302
     Eigenvalues ---    0.00322   0.00446   0.00715   0.00849   0.00932
     Eigenvalues ---    0.01031   0.01220   0.01232   0.01239   0.01259
     Eigenvalues ---    0.01671   0.02379   0.02421   0.02537   0.02597
     Eigenvalues ---    0.02602   0.02618   0.02713   0.02975   0.03427
     Eigenvalues ---    0.03443   0.03626   0.04610   0.04644   0.04708
     Eigenvalues ---    0.04973   0.06580   0.06738   0.06985   0.07002
     Eigenvalues ---    0.07021   0.07024   0.07050   0.07063   0.07101
     Eigenvalues ---    0.07114   0.07447   0.07890   0.07910   0.07933
     Eigenvalues ---    0.08603   0.08957   0.09472   0.10197   0.10535
     Eigenvalues ---    0.10662   0.10769   0.10809   0.11142   0.12454
     Eigenvalues ---    0.12494   0.12521   0.12616   0.12848   0.13580
     Eigenvalues ---    0.13716   0.13866   0.15044   0.15092   0.15307
     Eigenvalues ---    0.17588   0.18455   0.19479   0.19667   0.21181
     Eigenvalues ---    0.21824   0.23459   0.24351   0.26494   0.27617
     Eigenvalues ---    0.28017   0.28295   0.29621   0.30107   0.30697
     Eigenvalues ---    0.30956   0.31614   0.32950   0.35630   0.35761
     Eigenvalues ---    0.35814   0.36572   0.38111   0.40806   0.42828
     Eigenvalues ---    0.42996   0.43155   0.43374   0.46038   0.47523
     Eigenvalues ---    0.48242   0.49746   0.50291   0.50567   0.50846
     Eigenvalues ---    0.52418   0.53141   0.59284   0.60286   0.62177
     Eigenvalues ---    0.64030   0.71402   0.71423   0.74337   0.77807
     Eigenvalues ---    0.81823   0.82360   0.89624   0.90642   0.94737
     Eigenvalues ---    1.02908   1.06783   1.10856   1.13036   1.14074
     Eigenvalues ---    1.15062   1.15250   1.15440   1.19103   1.20111
     Eigenvalues ---    1.26275   1.29411   1.30775   1.39493   1.40142
     Eigenvalues ---    1.41620   1.43499   1.48474   1.48773   1.49619
     Eigenvalues ---    1.49893   1.49945   1.55160   1.58487   1.64034
     Eigenvalues ---    1.64837   1.66755   1.69632   1.71239   1.74509
     Eigenvalues ---    1.75987   1.77099   2.80593   2.81096  47.01764
     Eigenvalues ---  146.34111
 Eigenvalue     1 is   7.74D-05 Eigenvector:
                          Z51       Z32       Z46       X29       Z29
   1                    0.20028  -0.19449   0.17091   0.16466  -0.16364
                          X26       X49       X46       Z45       Z28
   1                   -0.16349  -0.16284   0.16247   0.16216  -0.15742
 Eigenvalue     2 is   8.83D-05 Eigenvector:
                          Z52       Z31       Z26       Z49       Z29
   1                    0.21641   0.21525   0.21506   0.21481  -0.20707
                          Z46       Z48       Z42       Z25       Z19
   1                   -0.19404   0.16931   0.16822   0.16747   0.16723
 Quadratic step=5.097D+00 exceeds max=3.000D-01 adjusted using Lamda=-6.574D-03.
 Angle between NR and scaled steps=  49.30 degrees.
 Angle between quadratic step and forces=  76.28 degrees.
 Linear search not attempted -- first point.
 B after Tr=     0.000275   -0.000659    0.000571
         Rot=    1.000000   -0.000026    0.000119    0.000022 Ang=  -0.01 deg.
 Variable       Old X    -DE/DX   Delta X   Delta X   Delta X     New X
                                 (Linear)    (Quad)   (Total)
    X1        2.66144  -0.00999   0.00000  -0.00679  -0.00626   2.65518
    Y1        0.92358   0.01229   0.00000   0.03414   0.03341   0.95699
    Z1       -0.91127  -0.00812   0.00000   0.00713   0.00838  -0.90289
    X2        2.69195  -0.00353   0.00000  -0.00425  -0.00426   2.68768
    Y2       -0.94181  -0.01127   0.00000  -0.03870  -0.03953  -0.98134
    Z2        1.06388   0.00595   0.00000  -0.02690  -0.02574   1.03813
    X3        4.97919  -0.00099   0.00000  -0.01025  -0.01050   4.96869
    Y3       -1.83210  -0.00392   0.00000  -0.06330  -0.06427  -1.89638
    Z3        1.92919  -0.00046   0.00000  -0.03317  -0.03152   1.89768
    X4        7.26891   0.00145   0.00000  -0.00623  -0.00623   7.26268
    Y4       -0.93242  -0.00903   0.00000  -0.02911  -0.03013  -0.96255
    Z4        0.93916   0.01101   0.00000   0.00469   0.00694   0.94610
    X5        7.20931   0.00346   0.00000   0.00087   0.00144   7.21075
    Y5        0.92660   0.00951   0.00000   0.03001   0.02909   0.95569
    Z5       -1.07956  -0.01171   0.00000   0.01163   0.01397  -1.06560
    X6        4.88437  -0.00097   0.00000  -0.00217  -0.00136   4.88301
    Y6        1.82895   0.00343   0.00000   0.06786   0.06709   1.89604
    Z6       -1.93096   0.00335   0.00000   0.04549   0.04732  -1.88365
    X7        5.00858   0.00031   0.00000  -0.01239  -0.01306   4.99553
    Y7       -3.29086   0.00060   0.00000  -0.07199  -0.07304  -3.36390
    Z7        3.37616   0.00010   0.00000  -0.04385  -0.04227   3.33389
    X8        4.83373  -0.00059   0.00000  -0.00658  -0.00537   4.82836
    Y8        3.27348  -0.00055   0.00000   0.08245   0.08176   3.35524
    Z8       -3.39059  -0.00013   0.00000   0.06158   0.06347  -3.32711
    X9        9.44446  -0.00205   0.00000   0.00522   0.00611   9.45057
    Y9        1.82821  -0.00247   0.00000   0.01992   0.01897   1.84717
    Z9       -2.25853   0.00137   0.00000   0.02294   0.02586  -2.23267
   X10       11.24076   0.00103   0.00000   0.01399   0.01514  11.25591
   Y10        2.58683   0.00085   0.00000   0.01397   0.01299   2.59982
   Z10       -3.27192  -0.00001   0.00000   0.03207   0.03546  -3.23647
   X11        9.57855  -0.00336   0.00000  -0.00906  -0.00933   9.56923
   Y11       -1.84891   0.00186   0.00000  -0.02618  -0.02736  -1.87627
   Z11        1.93680  -0.00124   0.00000   0.00421   0.00696   1.94376
   X12       11.45581   0.00213   0.00000  -0.00581  -0.00631  11.44950
   Y12       -2.62125  -0.00113   0.00000  -0.02462  -0.02593  -2.64718
   Z12        2.77859   0.00075   0.00000   0.00352   0.00667   2.78526
   X13       -0.61502  -0.00195   0.00000   0.00888   0.00948  -0.60555
   Y13        4.25029   0.01770   0.00000   0.04586   0.04525   4.29554
   Z13       -0.53296   0.00230   0.00000  -0.02170  -0.02104  -0.55400
   X14       -1.65274  -0.00464   0.00000  -0.00600  -0.00500  -1.65774
   Y14        0.90482  -0.00685   0.00000  -0.01574  -0.01617   0.88865
   Z14       -2.90540   0.00125   0.00000   0.03209   0.03232  -2.87308
   X15        0.70149  -0.00455   0.00000  -0.00612  -0.00581   0.69568
   Y15        5.98999  -0.00430   0.00000   0.04025   0.03951   6.02950
   Z15        0.98274  -0.00279   0.00000  -0.02679  -0.02573   0.95701
   X16       -3.18608   0.00736   0.00000   0.00584   0.00661  -3.17947
   Y16        4.61309  -0.00581   0.00000   0.00554   0.00508   4.61817
   Z16       -1.24248   0.00050   0.00000   0.00891   0.00897  -1.23351
   X17       -1.57042  -0.00381   0.00000  -0.00232  -0.00110  -1.57152
   Y17       -1.36932   0.00213   0.00000   0.00125   0.00088  -1.36844
   Z17       -4.23183  -0.00215   0.00000   0.01173   0.01185  -4.21998
   X18       -3.85394   0.00328   0.00000   0.00084   0.00188  -3.85206
   Y18        2.42024   0.00100   0.00000  -0.00881  -0.00915   2.41109
   Z18       -2.77377   0.00125   0.00000   0.02577   0.02555  -2.74822
   X19       -0.62010  -0.00077   0.00000  -0.01815  -0.01794  -0.63804
   Y19        8.10401   0.00003   0.00000   0.02922   0.02849   8.13250
   Z19        1.79604  -0.00048   0.00000  -0.01774  -0.01689   1.77915
   X20        2.65910   0.00139   0.00000  -0.00069  -0.00051   2.65859
   Y20        5.65684  -0.00001   0.00000   0.04744   0.04659   5.70343
   Z20        1.48382   0.00028   0.00000  -0.02608  -0.02457   1.45925
   X21       -4.45372   0.00028   0.00000  -0.01155  -0.01089  -4.46461
   Y21        6.73256   0.00673   0.00000   0.00578   0.00534   6.73790
   Z21       -0.40372   0.00490   0.00000   0.01347   0.01334  -0.39037
   X22       -3.79388   0.00542   0.00000   0.00252   0.00399  -3.78989
   Y22       -2.12635  -0.00070   0.00000  -0.00216  -0.00237  -2.12871
   Z22       -5.45374   0.00184   0.00000   0.02220   0.02176  -5.43198
   X23        0.15877   0.00070   0.00000   0.00633   0.00754   0.16630
   Y23       -2.45813  -0.00028   0.00000   0.01353   0.01309  -2.44504
   Z23       -4.34951  -0.00022   0.00000  -0.01171  -0.01122  -4.36074
   X24       -6.00984  -0.00247   0.00000  -0.00783  -0.00654  -6.01638
   Y24        1.65722  -0.00497   0.00000  -0.01761  -0.01780   1.63942
   Z24       -4.02817  -0.00432   0.00000   0.03025   0.02948  -3.99869
   X25       -3.15399  -0.00311   0.00000  -0.02327  -0.02289  -3.17688
   Y25        8.47313  -0.00207   0.00000   0.01461   0.01403   8.48716
   Z25        1.11967  -0.00267   0.00000  -0.00557  -0.00530   1.11437
   X26        0.32262   0.00014   0.00000  -0.02024  -0.02025   0.30238
   Y26        9.49863  -0.00010   0.00000   0.02771   0.02688   9.52551
   Z26        2.96598   0.00008   0.00000  -0.01411  -0.01297   2.95302
   X27       -6.41939  -0.00026   0.00000  -0.01751  -0.01672  -6.43610
   Y27        7.05385   0.00006   0.00000  -0.01194  -0.01227   7.04157
   Z27       -0.89256  -0.00008   0.00000   0.02319   0.02260  -0.86996
   X28       -5.95890  -0.00325   0.00000  -0.01227  -0.01076  -5.96966
   Y28       -0.64007   0.00541   0.00000  -0.01310  -0.01322  -0.65329
   Z28       -5.37058   0.00287   0.00000   0.04145   0.04057  -5.33001
   X29       -3.81494   0.00046   0.00000   0.01399   0.01564  -3.79930
   Y29       -3.89805   0.00016   0.00000   0.00689   0.00674  -3.89131
   Z29       -6.48518  -0.00024   0.00000   0.00620   0.00566  -6.47951
   X30       -7.71513   0.00019   0.00000  -0.00695  -0.00561  -7.72073
   Y30        2.79859  -0.00012   0.00000  -0.01736  -0.01747   2.78112
   Z30       -3.99878   0.00028   0.00000   0.03237   0.03126  -3.96752
   X31       -4.13467   0.00013   0.00000  -0.03090  -0.03060  -4.16527
   Y31       10.14911  -0.00044   0.00000   0.00617   0.00560  10.15471
   Z31        1.78288  -0.00008   0.00000  -0.00057  -0.00045   1.78243
   X32       -7.64271  -0.00023   0.00000  -0.01532  -0.01360  -7.65631
   Y32       -1.24464  -0.00049   0.00000  -0.02324  -0.02323  -1.26788
   Z32       -6.37107   0.00020   0.00000   0.05111   0.04980  -6.32128
   X33       -1.64396  -0.00379   0.00000   0.00247   0.00199  -1.64197
   Y33       -0.92767   0.00371   0.00000   0.00859   0.00784  -0.91983
   Z33        3.03912  -0.00165   0.00000  -0.03802  -0.03789   3.00123
   X34       -0.56993  -0.00198   0.00000   0.00436   0.00429  -0.56564
   Y34       -4.27286  -0.01212   0.00000  -0.04297  -0.04364  -4.31650
   Z34        0.66844  -0.00119   0.00000   0.00307   0.00328   0.67172
   X35       -1.62188  -0.00017   0.00000   0.02190   0.02119  -1.60069
   Y35        1.31541  -0.00040   0.00000   0.00020  -0.00062   1.31479
   Z35        4.41891   0.00105   0.00000  -0.02433  -0.02407   4.39484
   X36       -3.85835  -0.00174   0.00000   0.00572   0.00524  -3.85311
   Y36       -2.39475   0.00160   0.00000   0.00296   0.00232  -2.39243
   Z36        2.76920   0.00214   0.00000  -0.01905  -0.01952   2.74969
   X37        0.74357  -0.00227   0.00000  -0.00058  -0.00038   0.74318
   Y37       -6.03561   0.00258   0.00000  -0.03706  -0.03771  -6.07332
   Z37       -0.81480   0.00163   0.00000   0.00676   0.00719  -0.80761
   X38       -3.17596   0.00429   0.00000   0.00726   0.00704  -3.16892
   Y38       -4.56069  -0.00050   0.00000  -0.01507  -0.01565  -4.57634
   Z38        1.23755  -0.00204   0.00000  -0.00558  -0.00600   1.23155
   X39       -3.88337   0.00063   0.00000   0.02890   0.02796  -3.85541
   Y39        2.07128   0.00034   0.00000   0.01161   0.01082   2.08211
   Z39        5.54222   0.00031   0.00000  -0.02421  -0.02445   5.51778
   X40        0.10951   0.00023   0.00000   0.03018   0.02946   0.13896
   Y40        2.38859  -0.00006   0.00000  -0.01494  -0.01585   2.37274
   Z40        4.65026   0.00023   0.00000  -0.01395  -0.01322   4.63704
   X41       -6.08347   0.00168   0.00000   0.01194   0.01121  -6.07226
   Y41       -1.62286  -0.00190   0.00000   0.01530   0.01470  -1.60815
   Z41        3.94498  -0.00086   0.00000  -0.02285  -0.02380   3.92117
   X42       -0.60927  -0.00130   0.00000  -0.00734  -0.00701  -0.61628
   Y42       -8.08333  -0.00019   0.00000  -0.02793  -0.02847  -8.11180
   Z42       -1.73150   0.00012   0.00000   0.00145   0.00144  -1.73006
   X43        2.73835   0.00082   0.00000   0.00080   0.00110   2.73946
   Y43       -5.77740  -0.00026   0.00000  -0.03894  -0.03965  -5.81705
   Z43       -1.21053  -0.00034   0.00000  -0.00004   0.00088  -1.20966
   X44       -4.48665  -0.00029   0.00000  -0.00064  -0.00072  -4.48737
   Y44       -6.63377   0.00072   0.00000  -0.01111  -0.01159  -6.64536
   Z44        0.28285   0.00035   0.00000   0.00211   0.00127   0.28412
   X45       -6.08252   0.00133   0.00000   0.02253   0.02158  -6.06094
   Y45        0.61830   0.00075   0.00000   0.02449   0.02381   0.64212
   Z45        5.32756  -0.00004   0.00000  -0.03280  -0.03363   5.29393
   X46       -3.92264   0.00029   0.00000   0.03745   0.03632  -3.88632
   Y46        3.80849  -0.00037   0.00000   0.01008   0.00924   3.81773
   Z46        6.63483  -0.00054   0.00000  -0.02452  -0.02467   6.61016
   X47       -7.78022  -0.00028   0.00000   0.00207   0.00132  -7.77889
   Y47       -2.77006   0.00060   0.00000   0.02977   0.02925  -2.74080
   Z47        3.80881  -0.00028   0.00000  -0.02279  -0.02421   3.78460
   X48       -3.19681   0.00149   0.00000  -0.00461  -0.00442  -3.20124
   Y48       -8.38072  -0.00015   0.00000  -0.01816  -0.01862  -8.39933
   Z48       -1.19860  -0.00008   0.00000   0.00528   0.00465  -1.19394
   X49        0.34895   0.00009   0.00000  -0.01212  -0.01158   0.33737
   Y49       -9.49344   0.00021   0.00000  -0.02274  -0.02327  -9.51670
   Z49       -2.87121  -0.00019   0.00000  -0.00851  -0.00836  -2.87957
   X50       -6.48555   0.00005   0.00000  -0.00214  -0.00233  -6.48788
   Y50       -6.88060   0.00014   0.00000   0.00071   0.00030  -6.88030
   Z50        0.67717   0.00013   0.00000   0.00111  -0.00022   0.67695
   X51       -7.79575  -0.00015   0.00000   0.02060   0.01945  -7.77630
   Y51        1.22148   0.00071   0.00000   0.04424   0.04359   1.26507
   Z51        6.27791  -0.00042   0.00000  -0.04693  -0.04814   6.22977
   X52       -4.19654   0.00030   0.00000  -0.00923  -0.00893  -4.20547
   Y52      -10.00949   0.00036   0.00000  -0.01236  -0.01273 -10.02223
   Z52       -1.94575   0.00007   0.00000   0.00307   0.00211  -1.94364
   X53        0.26034   0.01249   0.00000   0.00825   0.00897   0.26932
   Y53        2.03747  -0.01031   0.00000   0.01252   0.01193   2.04940
   Z53       -1.52733  -0.00065   0.00000   0.00465   0.00539  -1.52193
   X54        0.33097   0.00705   0.00000   0.00156   0.00134   0.33230
   Y54       -2.08631   0.00728   0.00000  -0.01411  -0.01487  -2.10118
   Z54        1.74794  -0.00130   0.00000  -0.02904  -0.02850   1.71943
         Item               Value     Threshold  Converged?
 Maximum Force            0.017695     0.000450     NO 
 RMS     Force            0.003866     0.000300     NO 
 Maximum Displacement     0.081757     0.001800     NO 
 RMS     Displacement     0.023603     0.001200     NO 
 Predicted change in Energy=-2.051476D-03
 GradGradGradGradGradGradGradGradGradGradGradGradGradGradGradGradGradGrad

 Unable to Open any file for archive entry.
 1\1\GINC-X10P1N1\Force\UM062X\6-31G(d)\C32H18N4(3)\MAYUMIAO\13-Jul-202
 4\0\\# 6-31g(d) m062x g09default scf=(xqc,maxcycle=64) force guess=rea
 d nosymm\\Title Card\\0,3\C,1.40837371,0.48873726,-0.48222227\C,1.4245
 1641,-0.49838411,0.5629793\C,2.63487511,-0.9695082,1.02088598\C,3.8465
 4087,-0.4934145,0.49698303\C,3.81500501,0.49033458,-0.57128099\C,2.584
 69829,0.96783946,-1.02182213\H,2.65042898,-1.74144835,1.78658685\H,2.5
 5789864,1.73225353,-1.79422254\C,4.99779413,0.96744476,-1.19515998\N,5
 .94835585,1.36888906,-1.73142743\C,5.06875186,-0.9783986,1.02491224\N,
 6.06215393,-1.3871063,1.47036655\C,-0.32545721,2.24915704,-0.28202826\
 C,-0.87459265,0.47881088,-1.53747021\C,0.37121286,3.16976585,0.5200415
 3\C,-1.68600114,2.44114016,-0.65749323\C,-0.83102908,-0.72461461,-2.23
 938931\C,-2.03941512,1.28073425,-1.46781845\C,-0.32814471,4.28845629,0
 .95042239\H,1.40713715,2.99347137,0.78520256\C,-2.35680865,3.56271744,
 -0.21363729\C,-2.00763573,-1.12521345,-2.88599581\H,0.08401609,-1.3007
 8399,-2.30166297\C,-3.18027128,0.87696222,-2.13161544\C,-1.66901846,4.
 48378811,0.59250504\H,0.17072507,5.02645846,1.56952958\H,-3.39699295,3
 .73273416,-0.47232298\C,-3.15331533,-0.33871052,-2.841989\H,-2.0187769
 6,-2.06275958,-3.43180705\H,-4.08266908,1.4809504,-2.11606309\H,-2.187
 97163,5.37068032,0.94346028\H,-4.04435032,-0.65863656,-3.37142755\C,-0
 .86994371,-0.49090392,1.60823156\C,-0.30159275,-2.26110141,0.35372485\
 C,-0.85826141,0.69608316,2.33838735\C,-2.04174969,-1.26724825,1.465399
 91\C,0.39347766,-3.19390755,-0.43117119\C,-1.68064729,-2.41341284,0.65
 488326\C,-2.05498934,1.09607599,2.9328176\H,0.05794855,1.26398673,2.46
 081181\C,-3.21923349,-0.8587786,2.08759146\C,-0.32241074,-4.27751496,-
 0.91627108\H,1.44907374,-3.05726703,-0.64058668\C,-2.37423404,-3.51043
 906,0.1496772\C,-3.2187308,0.32719166,2.81922409\H,-2.07577013,2.01536
 59,3.51099989\H,-4.11711332,-1.46585067,2.01553632\C,-1.6916804,-4.434
 88413,-0.63426926\H,0.1846559,-5.02370978,-1.51937954\H,-3.43200658,-3
 .641058,0.35834157\H,-4.12533373,0.64638118,3.32212856\H,-2.22071134,-
 5.296795,-1.0296467\N,0.13776833,1.07818146,-0.80822671\N,0.1751399,-1
 .10402884,0.92496849\\Version=ES64L-G16RevC.01\HF=-1448.5812187\S2=2.0
 29198\S2-1=0.\S2A=2.000549\RMSD=7.252e-09\RMSF=3.866e-03\Dipole=-6.657
 0592,0.4501135,-0.1586303\Quadrupole=-40.5236758,29.3478946,11.1757812
 ,-0.8208247,3.0589407,13.8327068\PG=C01 [X(C32H18N4)]\\@
 The archive entry for this job was punched.


     "IF I COULD JUST GET IT ON PAPER"
 LIFE AND INK, THEY RUN OUT AT THE SAME TIME,
 OR SO SAID MY OLD FRIEND THE SQUID.
     -- JIMMY BUFFETT, 1981
 Job cpu time:       0 days  1 hours  3 minutes 23.0 seconds.
 Elapsed time:       0 days  0 hours  2 minutes 17.1 seconds.
 File lengths (MBytes):  RWF=    314 Int=      0 D2E=      0 Chk=     25 Scr=      1
 Normal termination of Gaussian 16 at Sat Jul 13 22:47:05 2024.
