 Entering Gaussian System, Link 0=g16
 Input=JOBS/12_A.gjf
 Output=JOBS/12_A.log
 Initial command:
 /data/app/gaussian/C01-avx2//g16/l1.exe "/tmp/Gau-1310576.inp" -scrdir="/tmp/"
 Entering Link 1 = /data/app/gaussian/C01-avx2//g16/l1.exe PID=   1310577.
  
 Copyright (c) 1988-2019, Gaussian, Inc.  All Rights Reserved.
  
 This is part of the Gaussian(R) 16 program.  It is based on
 the Gaussian(R) 09 system (copyright 2009, Gaussian, Inc.),
 the Gaussian(R) 03 system (copyright 2003, Gaussian, Inc.),
 the Gaussian(R) 98 system (copyright 1998, Gaussian, Inc.),
 the Gaussian(R) 94 system (copyright 1995, Gaussian, Inc.),
 the Gaussian 92(TM) system (copyright 1992, Gaussian, Inc.),
 the Gaussian 90(TM) system (copyright 1990, Gaussian, Inc.),
 the Gaussian 88(TM) system (copyright 1988, Gaussian, Inc.),
 the Gaussian 86(TM) system (copyright 1986, Carnegie Mellon
 University), and the Gaussian 82(TM) system (copyright 1983,
 Carnegie Mellon University). Gaussian is a federally registered
 trademark of Gaussian, Inc.
  
 This software contains proprietary and confidential information,
 including trade secrets, belonging to Gaussian, Inc.
  
 This software is provided under written license and may be
 used, copied, transmitted, or stored only in accord with that
 written license.
  
 The following legend is applicable only to US Government
 contracts under FAR:
  
                    RESTRICTED RIGHTS LEGEND
  
 Use, reproduction and disclosure by the US Government is
 subject to restrictions as set forth in subparagraphs (a)
 and (c) of the Commercial Computer Software - Restricted
 Rights clause in FAR 52.227-19.
  
 Gaussian, Inc.
 340 Quinnipiac St., Bldg. 40, Wallingford CT 06492
  
  
 ---------------------------------------------------------------
 Warning -- This program may not be used in any manner that
 competes with the business of Gaussian, Inc. or will provide
 assistance to any competitor of Gaussian, Inc.  The licensee
 of this program is prohibited from giving any competitor of
 Gaussian, Inc. access to this program.  By using this program,
 the user acknowledges that Gaussian, Inc. is engaged in the
 business of creating and licensing software in the field of
 computational chemistry and represents and warrants to the
 licensee that it is not a competitor of Gaussian, Inc. and that
 it will not use this program in any manner prohibited above.
 ---------------------------------------------------------------
  

 Cite this work as:
 Gaussian 16, Revision C.01,
 M. J. Frisch, G. W. Trucks, H. B. Schlegel, G. E. Scuseria, 
 M. A. Robb, J. R. Cheeseman, G. Scalmani, V. Barone, 
 G. A. Petersson, H. Nakatsuji, X. Li, M. Caricato, A. V. Marenich, 
 J. Bloino, B. G. Janesko, R. Gomperts, B. Mennucci, H. P. Hratchian, 
 J. V. Ortiz, A. F. Izmaylov, J. L. Sonnenberg, D. Williams-Young, 
 F. Ding, F. Lipparini, F. Egidi, J. Goings, B. Peng, A. Petrone, 
 T. Henderson, D. Ranasinghe, V. G. Zakrzewski, J. Gao, N. Rega, 
 G. Zheng, W. Liang, M. Hada, M. Ehara, K. Toyota, R. Fukuda, 
 J. Hasegawa, M. Ishida, T. Nakajima, Y. Honda, O. Kitao, H. Nakai, 
 T. Vreven, K. Throssell, J. A. Montgomery, Jr., J. E. Peralta, 
 F. Ogliaro, M. J. Bearpark, J. J. Heyd, E. N. Brothers, K. N. Kudin, 
 V. N. Staroverov, T. A. Keith, R. Kobayashi, J. Normand, 
 K. Raghavachari, A. P. Rendell, J. C. Burant, S. S. Iyengar, 
 J. Tomasi, M. Cossi, J. M. Millam, M. Klene, C. Adamo, R. Cammi, 
 J. W. Ochterski, R. L. Martin, K. Morokuma, O. Farkas, 
 J. B. Foresman, and D. J. Fox, Gaussian, Inc., Wallingford CT, 2019.
 
 ******************************************
 Gaussian 16:  ES64L-G16RevC.01  3-Jul-2019
                13-Jul-2024 
 ******************************************
 %chk=a.chk
 %nprocshared=28
 Will use up to   28 processors via shared memory.
 %mem=48gb
 ----------------------------------------------------------------------
 # 6-31g(d) m062x g09default scf=(xqc,maxcycle=64) force guess=read td 
 nosymm
 ----------------------------------------------------------------------
 1/10=7,30=1,38=1,158=3,167=1/1,3;
 2/12=2,15=1,17=6,18=5,40=1/2;
 3/5=1,6=6,7=1,11=9,25=1,27=10,30=1,71=1,74=-55,75=-4,116=-2,158=3/1,2,3,8;
 4/5=1,60=-1/1;
 5/5=2,7=64,8=3,13=1,38=6,87=10/2,8;
 8/6=1,10=2,87=10/1;
 9/15=2,42=1,70=2,87=10/14;
 10/5=4,31=1,87=10/2;
 6/7=2,8=2,9=2,10=2,18=1,87=10/1;
 7/12=6,13=5,29=1,30=1,87=10/1,2,3,16;
 1/10=7,30=1,158=3,167=1/3;
 99//99;
 Using 2006 physical constants.
 ----------
 Title Card
 ----------
 Symbolic Z-matrix:
 Charge =  0 Multiplicity = 1
 6                     1.40569   0.48579  -0.48615 
 6                     1.42271  -0.49469   0.56841 
 6                     2.63404  -0.96444   1.02319 
 6                     3.84718  -0.49285   0.49939 
 6                     3.81494   0.48935  -0.57218 
 6                     2.58423   0.95966  -1.02691 
 1                     2.6494   -1.73791   1.78505 
 1                     2.55981   1.72485  -1.79756 
 6                     4.99853   0.96882  -1.19048 
 7                     5.94958   1.37073  -1.72527 
 6                     5.06952  -0.9801    1.0231 
 7                     6.06204  -1.3902    1.4692 
 6                    -0.32713   2.24866  -0.27854 
 6                    -0.87253   0.48325  -1.54538 
 6                     0.36961   3.16782   0.52204 
 6                    -1.68543   2.4414   -0.65879 
 6                    -0.82993  -0.72181  -2.24395 
 6                    -2.03778   1.28377  -1.47411 
 6                    -0.32837   4.28949   0.94761 
 1                     1.40481   2.99038   0.79209 
 6                    -2.35735   3.56343  -0.21658 
 6                    -2.00683  -1.12464  -2.88662 
 1                     0.08527  -1.29761  -2.30394 
 6                    -3.18216   0.87497  -2.12957 
 6                    -1.66934   4.48378   0.58921 
 1                     0.16888   5.02715   1.56857 
 1                    -3.40021   3.72942  -0.47048 
 6                    -3.15398  -0.33969  -2.84042 
 1                    -2.01876  -2.06145  -3.43308 
 1                    -4.08759   1.47424  -2.10502 
 1                    -2.18994   5.36741   0.94511 
 1                    -4.04561  -0.66107  -3.36848 
 6                    -0.86806  -0.49348   1.61293 
 6                    -0.3015   -2.26092   0.35207 
 6                    -0.85587   0.69454   2.34168 
 6                    -2.03972  -1.26827   1.46915 
 6                     0.3921   -3.19094  -0.43373 
 6                    -1.67941  -2.41301   0.65545 
 6                    -2.05255   1.09663   2.93216 
 1                     0.06113   1.26022   2.46417 
 6                    -3.21888  -0.85606   2.08603 
 6                    -0.32275  -4.2773   -0.91669 
 1                     1.44732  -3.0539   -0.64555 
 6                    -2.37334  -3.51156   0.15159 
 6                    -3.21786   0.33049   2.81676 
 1                    -2.07217   2.01515   3.5108 
 1                    -4.11837  -1.4597    2.00975 
 6                    -1.69142  -4.43539  -0.63153 
 1                     0.1836   -5.02097  -1.52232 
 1                    -3.43264  -3.64117   0.35739 
 1                    -4.12474   0.65093   3.31878 
 1                    -2.22025  -5.29753  -1.02745 
 7                     0.13846   1.07751  -0.81014 
 7                     0.17731  -1.10443   0.92942 
 

 GradGradGradGradGradGradGradGradGradGradGradGradGradGradGradGradGradGrad
 Berny optimization.
 Initialization pass.
 Trust Radius=3.00D-01 FncErr=1.00D-07 GrdErr=1.00D-07 EigMax=2.50D+02 EigMin=1.00D-04
 Number of steps in this run=      2 maximum allowed number of steps=      2.
 GradGradGradGradGradGradGradGradGradGradGradGradGradGradGradGradGradGrad

 Symmetry turned off by external request.
 Stoichiometry    C32H18N4
 Framework group  C1[X(C32H18N4)]
 Deg. of freedom   156
 Full point group                 C1      NOp   1
                          Input orientation:                          
 ---------------------------------------------------------------------
 Center     Atomic      Atomic             Coordinates (Angstroms)
 Number     Number       Type             X           Y           Z
 ---------------------------------------------------------------------
      1          6           0        1.405690    0.485791   -0.486148
      2          6           0        1.422707   -0.494687    0.568411
      3          6           0        2.634036   -0.964444    1.023194
      4          6           0        3.847182   -0.492850    0.499390
      5          6           0        3.814939    0.489351   -0.572183
      6          6           0        2.584227    0.959662   -1.026913
      7          1           0        2.649405   -1.737911    1.785050
      8          1           0        2.559808    1.724848   -1.797561
      9          6           0        4.998525    0.968821   -1.190485
     10          7           0        5.949577    1.370726   -1.725274
     11          6           0        5.069523   -0.980104    1.023099
     12          7           0        6.062044   -1.390202    1.469204
     13          6           0       -0.327130    2.248662   -0.278545
     14          6           0       -0.872531    0.483254   -1.545376
     15          6           0        0.369614    3.167817    0.522044
     16          6           0       -1.685431    2.441398   -0.658787
     17          6           0       -0.829929   -0.721813   -2.243947
     18          6           0       -2.037784    1.283770   -1.474108
     19          6           0       -0.328371    4.289490    0.947607
     20          1           0        1.404810    2.990376    0.792091
     21          6           0       -2.357349    3.563431   -0.216577
     22          6           0       -2.006829   -1.124644   -2.886618
     23          1           0        0.085266   -1.297612   -2.303936
     24          6           0       -3.182156    0.874969   -2.129574
     25          6           0       -1.669343    4.483778    0.589212
     26          1           0        0.168882    5.027147    1.568568
     27          1           0       -3.400215    3.729416   -0.470481
     28          6           0       -3.153981   -0.339692   -2.840417
     29          1           0       -2.018761   -2.061454   -3.433085
     30          1           0       -4.087593    1.474241   -2.105015
     31          1           0       -2.189938    5.367411    0.945109
     32          1           0       -4.045614   -0.661070   -3.368480
     33          6           0       -0.868063   -0.493477    1.612928
     34          6           0       -0.301502   -2.260924    0.352074
     35          6           0       -0.855866    0.694535    2.341680
     36          6           0       -2.039718   -1.268272    1.469149
     37          6           0        0.392104   -3.190944   -0.433733
     38          6           0       -1.679408   -2.413008    0.655454
     39          6           0       -2.052547    1.096632    2.932164
     40          1           0        0.061133    1.260224    2.464169
     41          6           0       -3.218879   -0.856062    2.086025
     42          6           0       -0.322752   -4.277300   -0.916691
     43          1           0        1.447324   -3.053898   -0.645550
     44          6           0       -2.373336   -3.511558    0.151590
     45          6           0       -3.217861    0.330492    2.816756
     46          1           0       -2.072170    2.015147    3.510804
     47          1           0       -4.118373   -1.459699    2.009750
     48          6           0       -1.691416   -4.435390   -0.631535
     49          1           0        0.183602   -5.020974   -1.522319
     50          1           0       -3.432641   -3.641173    0.357394
     51          1           0       -4.124739    0.650929    3.318779
     52          1           0       -2.220253   -5.297532   -1.027451
     53          7           0        0.138457    1.077511   -0.810136
     54          7           0        0.177312   -1.104426    0.929423
 ---------------------------------------------------------------------
 Rotational constants (GHZ):           0.1587856           0.1164286           0.0924853
 Standard basis: 6-31G(d) (6D, 7F)
   576 basis functions,  1080 primitive gaussians,   576 cartesian basis functions
   119 alpha electrons      119 beta electrons
       nuclear repulsion energy      3657.9915049690 Hartrees.
 NAtoms=   54 NActive=   54 NUniq=   54 SFac= 1.00D+00 NAtFMM=   60 NAOKFM=F Big=F
 Integral buffers will be    131072 words long.
 Regular integral format.
 Two-electron integral symmetry is turned off.
 One-electron integrals computed using PRISM.
 NBasis=   576 RedAO= T EigKep=  2.60D-04  NBF=   576
 NBsUse=   576 1.00D-06 EigRej= -1.00D+00 NBFU=   576
 Initial guess from the checkpoint file:  "a.chk"
 B after Tr=     0.000363    0.000139   -0.000047
         Rot=    1.000000    0.000061    0.000041    0.000017 Ang=   0.01 deg.
 Requested convergence on RMS density matrix=1.00D-08 within  64 cycles.
 Requested convergence on MAX density matrix=1.00D-06.
 Requested convergence on             energy=1.00D-06.
 No special actions if energy rises.
 SCF Done:  E(RM062X) =  -1448.68830240     A.U. after   10 cycles
            NFock= 10  Conv=0.81D-08     -V/T= 2.0087
 QCSCF skips out because SCF is already converged.
 DoSCS=F DFT=T ScalE2(SS,OS)=  1.000000  1.000000
 ExpMin= 1.61D-01 ExpMax= 4.17D+03 ExpMxC= 6.27D+02 IAcc=3 IRadAn=         5 AccDes= 0.00D+00
 HarFok:  IExCor=  205 AccDes= 0.00D+00 IRadAn=         5 IDoV=-2 UseB2=F ITyADJ=14
 ICtDFT= 12500011 ScaDFX=  1.000000  1.000000  1.000000  1.000000
 GSVD:  LWork=       -1584 too small for GESVD, short by        7020 words or        7020 for optimal perf.
 Range of M.O.s used for correlation:    37   576
 NBasis=   576 NAE=   119 NBE=   119 NFC=    36 NFV=     0
 NROrb=    540 NOA=    83 NOB=    83 NVA=   457 NVB=   457

 **** Warning!!: The largest alpha MO coefficient is  0.10406601D+02

    12 initial guesses have been made.
 Convergence on wavefunction:    0.000001000000000
 Iteration     1 Dimension    12 NMult     0 NNew     12
 CISAX will form    12 AO SS matrices at one time.
 Iteration     2 Dimension    18 NMult    12 NNew      6
 Iteration     3 Dimension    24 NMult    18 NNew      6
 Iteration     4 Dimension    30 NMult    24 NNew      6
 Iteration     5 Dimension    36 NMult    30 NNew      6
 Iteration     6 Dimension    42 NMult    36 NNew      6
 Iteration     7 Dimension    48 NMult    42 NNew      6
 Iteration     8 Dimension    54 NMult    48 NNew      6
 Iteration     9 Dimension    60 NMult    54 NNew      6
 Iteration    10 Dimension    66 NMult    60 NNew      6
 Iteration    11 Dimension    72 NMult    66 NNew      6
 Iteration    12 Dimension    78 NMult    72 NNew      6
 Iteration    13 Dimension    80 NMult    78 NNew      2
 ***********************************************************************
 Excited states from <AA,BB:AA,BB> singles matrix:
 ***********************************************************************
 
 Ground to excited state transition densities written to RWF  633
 Ground to excited state transition electric dipole moments (Au):
       state          X           Y           Z        Dip. S.      Osc.
         1         0.1232     -0.2609      0.2250      0.1339      0.0095
         2        -0.4996     -0.0797      0.0883      0.2638      0.0204
         3         0.0048      0.1333     -0.0681      0.0224      0.0020
 Ground to excited state transition velocity dipole moments (Au):
       state          X           Y           Z        Dip. S.      Osc.
         1        -0.0133      0.0257     -0.0291      0.0017      0.0106
         2         0.0589      0.0088     -0.0120      0.0037      0.0211
         3        -0.0006     -0.0208      0.0124      0.0006      0.0030
 Ground to excited state transition magnetic dipole moments (Au):
       state          X           Y           Z
         1        -0.0490      0.2571      0.2533
         2         0.2405      0.1018      0.0870
         3         0.0181     -0.2229      0.0319
 Ground to excited state transition velocity quadrupole moments (Au):
       state          XX          YY          ZZ          XY          XZ          YZ
         1        -0.0860      0.0421      0.0094      0.0031     -0.0083      0.0121
         2         0.3348     -0.1440     -0.0531      0.0097     -0.0150     -0.0535
         3         0.0018      0.0081     -0.0059     -0.0481      0.0325     -0.0008
 <0|del|b> * <b|rxdel|0> + <0|del|b> * <b|delr+rdel|0>
 Rotatory Strengths (R) in cgs (10**-40 erg-esu-cm/Gauss)
       state          XX          YY          ZZ    R(velocity)    E-M Angle
         1        -2.1313    -22.5862     23.9989     -0.2396       90.41
         2        -0.3916     30.6591     54.9488     28.4054       33.03
         3        13.6610      2.6239     10.5518      8.9456       23.47
 1/2[<0|r|b>*<b|rxdel|0> + (<0|rxdel|b>*<b|r|0>)*]
 Rotatory Strengths (R) in cgs (10**-40 erg-esu-cm/Gauss)
       state          XX          YY          ZZ     R(length)
         1         4.2702     47.4438    -40.3033      3.8036
         2        84.9594      5.7321     -5.4316     28.4200
         3        -0.0620     21.0221      1.5372      7.4991
  1/2[<0|del|b>*<b|r|0> + (<0|r|b>*<b|del|0>)*] (Au)
       state          X           Y           Z        Dip. S.   Osc.(frdel)
         1        -0.0016     -0.0067     -0.0065      0.0149      0.0099
         2        -0.0294     -0.0007     -0.0011      0.0312      0.0208
         3        -0.0000     -0.0028     -0.0008      0.0036      0.0024

 Excitation energies and oscillator strengths:
 
 Excited state symmetry could not be determined.
 Excited State   1:      Singlet-?Sym    2.8878 eV  429.34 nm  f=0.0095  <S**2>=0.000
     119 ->120         0.68894
 This state for optimization and/or second-order correction.
 Total Energy, E(TD-HF/TD-DFT) =  -1448.58217769    
 Copying the excited state density for this state as the 1-particle RhoCI density.
 
 Excited state symmetry could not be determined.
 Excited State   2:      Singlet-?Sym    3.1629 eV  392.00 nm  f=0.0204  <S**2>=0.000
     118 ->120         0.68794
 
 Excited state symmetry could not be determined.
 Excited State   3:      Singlet-?Sym    3.5949 eV  344.89 nm  f=0.0020  <S**2>=0.000
     117 ->120         0.69508
 SavETr:  write IOETrn=   770 NScale= 10 NData=  16 NLR=1 NState=    3 LETran=      64.
          IDoAtm=11111111111111111111111111111111111111111111111111
          IDoAtm=1111
          Differentiating once with respect to electric field.
                with respect to dipole field.
          Differentiating once with respect to nuclear coordinates.
          There are     1 degrees of freedom in the 1st order CPHF.  IDoFFX=0 NUNeed=     1.
 LinEq1:  Iter=  0 NonCon=     1 RMS=4.01D-03 Max=1.78D-01 NDo=     1
 AX will form     1 AO Fock derivatives at one time.
 LinEq1:  Iter=  1 NonCon=     1 RMS=2.46D-03 Max=1.76D-01 NDo=     1
 LinEq1:  Iter=  2 NonCon=     1 RMS=1.70D-03 Max=9.86D-02 NDo=     1
 LinEq1:  Iter=  3 NonCon=     1 RMS=9.31D-04 Max=5.98D-02 NDo=     1
 LinEq1:  Iter=  4 NonCon=     1 RMS=6.32D-04 Max=4.29D-02 NDo=     1
 LinEq1:  Iter=  5 NonCon=     1 RMS=3.29D-04 Max=1.41D-02 NDo=     1
 LinEq1:  Iter=  6 NonCon=     1 RMS=1.61D-04 Max=1.20D-02 NDo=     1
 LinEq1:  Iter=  7 NonCon=     1 RMS=9.75D-05 Max=4.95D-03 NDo=     1
 LinEq1:  Iter=  8 NonCon=     1 RMS=6.29D-05 Max=3.69D-03 NDo=     1
 LinEq1:  Iter=  9 NonCon=     1 RMS=4.11D-05 Max=1.85D-03 NDo=     1
 LinEq1:  Iter= 10 NonCon=     1 RMS=2.03D-05 Max=8.58D-04 NDo=     1
 LinEq1:  Iter= 11 NonCon=     1 RMS=1.07D-05 Max=6.04D-04 NDo=     1
 LinEq1:  Iter= 12 NonCon=     1 RMS=7.86D-06 Max=3.89D-04 NDo=     1
 LinEq1:  Iter= 13 NonCon=     1 RMS=4.52D-06 Max=2.27D-04 NDo=     1
 LinEq1:  Iter= 14 NonCon=     1 RMS=2.86D-06 Max=1.41D-04 NDo=     1
 LinEq1:  Iter= 15 NonCon=     1 RMS=1.39D-06 Max=5.36D-05 NDo=     1
 LinEq1:  Iter= 16 NonCon=     1 RMS=8.95D-07 Max=3.64D-05 NDo=     1
 LinEq1:  Iter= 17 NonCon=     1 RMS=3.54D-07 Max=1.03D-05 NDo=     1
 LinEq1:  Iter= 18 NonCon=     1 RMS=1.66D-07 Max=6.47D-06 NDo=     1
 LinEq1:  Iter= 19 NonCon=     1 RMS=9.03D-08 Max=3.47D-06 NDo=     1
 LinEq1:  Iter= 20 NonCon=     1 RMS=4.57D-08 Max=1.86D-06 NDo=     1
 LinEq1:  Iter= 21 NonCon=     1 RMS=2.69D-08 Max=1.23D-06 NDo=     1
 LinEq1:  Iter= 22 NonCon=     1 RMS=1.57D-08 Max=8.61D-07 NDo=     1
 LinEq1:  Iter= 23 NonCon=     1 RMS=6.26D-09 Max=3.45D-07 NDo=     1
 LinEq1:  Iter= 24 NonCon=     1 RMS=3.42D-09 Max=1.44D-07 NDo=     1
 LinEq1:  Iter= 25 NonCon=     1 RMS=1.56D-09 Max=8.21D-08 NDo=     1
 LinEq1:  Iter= 26 NonCon=     1 RMS=7.97D-10 Max=2.85D-08 NDo=     1
 LinEq1:  Iter= 27 NonCon=     1 RMS=3.62D-10 Max=1.14D-08 NDo=     1
 LinEq1:  Iter= 28 NonCon=     1 RMS=1.51D-10 Max=7.40D-09 NDo=     1
 LinEq1:  Iter= 29 NonCon=     1 RMS=7.35D-11 Max=3.22D-09 NDo=     1
 LinEq1:  Iter= 30 NonCon=     1 RMS=3.39D-11 Max=1.48D-09 NDo=     1
 LinEq1:  Iter= 31 NonCon=     0 RMS=1.62D-11 Max=6.32D-10 NDo=     1
 Linear equations converged to 1.000D-10 1.000D-09 after    31 iterations.
 End of Minotr F.D. properties file   721 does not exist.
 End of Minotr F.D. properties file   722 does not exist.
 End of Minotr F.D. properties file   788 does not exist.

 **********************************************************************

            Population analysis using the SCF Density.

 **********************************************************************

 Alpha  occ. eigenvalues --  -14.82723 -14.82513 -14.79622 -14.79605 -10.65614
 Alpha  occ. eigenvalues --  -10.65553 -10.65320 -10.65230 -10.62062 -10.62014
 Alpha  occ. eigenvalues --  -10.61615 -10.61597 -10.60034 -10.59968 -10.59688
 Alpha  occ. eigenvalues --  -10.59603 -10.56253 -10.56127 -10.56058 -10.56052
 Alpha  occ. eigenvalues --  -10.55993 -10.55983 -10.55922 -10.55913 -10.55835
 Alpha  occ. eigenvalues --  -10.55809 -10.55799 -10.55682 -10.55671 -10.55643
 Alpha  occ. eigenvalues --  -10.55518 -10.55420 -10.55273 -10.55147 -10.54945
 Alpha  occ. eigenvalues --  -10.54857  -1.13891  -1.11631  -1.05260  -1.03492
 Alpha  occ. eigenvalues --   -1.01823  -0.96841  -0.96252  -0.95845  -0.95525
 Alpha  occ. eigenvalues --   -0.92294  -0.91774  -0.88353  -0.87651  -0.85716
 Alpha  occ. eigenvalues --   -0.85303  -0.83700  -0.82604  -0.81953  -0.81797
 Alpha  occ. eigenvalues --   -0.78814  -0.76956  -0.73319  -0.73035  -0.70036
 Alpha  occ. eigenvalues --   -0.69985  -0.69744  -0.69126  -0.66581  -0.66316
 Alpha  occ. eigenvalues --   -0.66223  -0.63675  -0.62315  -0.61386  -0.60154
 Alpha  occ. eigenvalues --   -0.59743  -0.59001  -0.58467  -0.56314  -0.55897
 Alpha  occ. eigenvalues --   -0.53881  -0.53510  -0.53118  -0.53102  -0.52699
 Alpha  occ. eigenvalues --   -0.52515  -0.51399  -0.51291  -0.50704  -0.50600
 Alpha  occ. eigenvalues --   -0.49356  -0.49243  -0.49172  -0.49093  -0.48640
 Alpha  occ. eigenvalues --   -0.48468  -0.46223  -0.46073  -0.45288  -0.44080
 Alpha  occ. eigenvalues --   -0.43727  -0.43455  -0.43256  -0.43028  -0.42645
 Alpha  occ. eigenvalues --   -0.42230  -0.42203  -0.42132  -0.40717  -0.40590
 Alpha  occ. eigenvalues --   -0.40369  -0.40142  -0.39769  -0.39439  -0.36500
 Alpha  occ. eigenvalues --   -0.34578  -0.34401  -0.34036  -0.31846  -0.30499
 Alpha  occ. eigenvalues --   -0.27366  -0.26653  -0.26407  -0.25088
 Alpha virt. eigenvalues --   -0.08044  -0.03945  -0.00516  -0.00273   0.02742
 Alpha virt. eigenvalues --    0.03541   0.04573   0.05344   0.05721   0.05991
 Alpha virt. eigenvalues --    0.07037   0.07445   0.07737   0.10860   0.11005
 Alpha virt. eigenvalues --    0.13314   0.13577   0.14124   0.14757   0.14917
 Alpha virt. eigenvalues --    0.15776   0.17297   0.17966   0.18260   0.19337
 Alpha virt. eigenvalues --    0.19527   0.19743   0.19996   0.20257   0.21053
 Alpha virt. eigenvalues --    0.21435   0.21909   0.22850   0.22969   0.23253
 Alpha virt. eigenvalues --    0.23583   0.24464   0.24611   0.24704   0.24925
 Alpha virt. eigenvalues --    0.25177   0.26495   0.27527   0.27656   0.28573
 Alpha virt. eigenvalues --    0.29010   0.29609   0.29637   0.31268   0.32036
 Alpha virt. eigenvalues --    0.32624   0.33277   0.33909   0.34174   0.36046
 Alpha virt. eigenvalues --    0.36421   0.36864   0.37345   0.38332   0.39153
 Alpha virt. eigenvalues --    0.39975   0.40410   0.40751   0.41151   0.42418
 Alpha virt. eigenvalues --    0.42834   0.43990   0.45903   0.46369   0.47193
 Alpha virt. eigenvalues --    0.48705   0.48721   0.49309   0.51536   0.51649
 Alpha virt. eigenvalues --    0.52045   0.53054   0.53520   0.54133   0.54872
 Alpha virt. eigenvalues --    0.55001   0.56038   0.56290   0.56641   0.57166
 Alpha virt. eigenvalues --    0.57880   0.58496   0.58555   0.58798   0.59349
 Alpha virt. eigenvalues --    0.59471   0.60034   0.60383   0.60715   0.60892
 Alpha virt. eigenvalues --    0.61503   0.61984   0.62259   0.62441   0.62543
 Alpha virt. eigenvalues --    0.63479   0.64090   0.64228   0.64584   0.64729
 Alpha virt. eigenvalues --    0.64785   0.65200   0.65267   0.65349   0.66059
 Alpha virt. eigenvalues --    0.66358   0.66946   0.67128   0.67413   0.67718
 Alpha virt. eigenvalues --    0.68105   0.68278   0.68683   0.68978   0.69497
 Alpha virt. eigenvalues --    0.69535   0.69694   0.70091   0.70113   0.72166
 Alpha virt. eigenvalues --    0.72239   0.73396   0.74174   0.74800   0.75610
 Alpha virt. eigenvalues --    0.76141   0.76631   0.78088   0.78653   0.79054
 Alpha virt. eigenvalues --    0.82073   0.82382   0.82914   0.83466   0.83519
 Alpha virt. eigenvalues --    0.84633   0.85359   0.85726   0.86363   0.86518
 Alpha virt. eigenvalues --    0.86877   0.87697   0.87826   0.88337   0.88976
 Alpha virt. eigenvalues --    0.89338   0.89629   0.89634   0.90208   0.90247
 Alpha virt. eigenvalues --    0.90778   0.90999   0.91205   0.91703   0.91909
 Alpha virt. eigenvalues --    0.92372   0.92406   0.92634   0.93636   0.93944
 Alpha virt. eigenvalues --    0.94475   0.94670   0.95673   0.96077   0.96470
 Alpha virt. eigenvalues --    0.97277   0.97615   0.98848   0.99829   1.00375
 Alpha virt. eigenvalues --    1.00892   1.01288   1.01489   1.02475   1.03170
 Alpha virt. eigenvalues --    1.03439   1.04023   1.04650   1.05135   1.05795
 Alpha virt. eigenvalues --    1.06551   1.07139   1.07980   1.09510   1.10077
 Alpha virt. eigenvalues --    1.10293   1.13076   1.14063   1.14435   1.15043
 Alpha virt. eigenvalues --    1.16836   1.17767   1.18589   1.19167   1.19502
 Alpha virt. eigenvalues --    1.20817   1.21207   1.21697   1.21920   1.22490
 Alpha virt. eigenvalues --    1.23955   1.24288   1.25364   1.25683   1.25849
 Alpha virt. eigenvalues --    1.28672   1.30031   1.30578   1.30692   1.31682
 Alpha virt. eigenvalues --    1.32726   1.32961   1.33893   1.34365   1.35610
 Alpha virt. eigenvalues --    1.36217   1.37277   1.37808   1.38675   1.39408
 Alpha virt. eigenvalues --    1.40253   1.40806   1.41517   1.42541   1.43155
 Alpha virt. eigenvalues --    1.43494   1.44454   1.46362   1.46736   1.48112
 Alpha virt. eigenvalues --    1.49818   1.50059   1.50790   1.51165   1.52261
 Alpha virt. eigenvalues --    1.52409   1.52924   1.53103   1.53506   1.54001
 Alpha virt. eigenvalues --    1.54151   1.54371   1.54520   1.54757   1.55428
 Alpha virt. eigenvalues --    1.55496   1.55865   1.56961   1.58382   1.59604
 Alpha virt. eigenvalues --    1.60200   1.61743   1.63099   1.64074   1.67199
 Alpha virt. eigenvalues --    1.67597   1.69305   1.71490   1.73055   1.74014
 Alpha virt. eigenvalues --    1.74471   1.75830   1.76775   1.78303   1.78679
 Alpha virt. eigenvalues --    1.80346   1.80597   1.81160   1.81695   1.82305
 Alpha virt. eigenvalues --    1.83107   1.83869   1.84821   1.85218   1.86394
 Alpha virt. eigenvalues --    1.87091   1.87526   1.88360   1.89205   1.89797
 Alpha virt. eigenvalues --    1.91092   1.92061   1.93072   1.93772   1.94650
 Alpha virt. eigenvalues --    1.95087   1.96046   1.96745   1.97192   1.98150
 Alpha virt. eigenvalues --    1.98525   1.98698   1.99838   2.00628   2.01303
 Alpha virt. eigenvalues --    2.01846   2.02053   2.02430   2.03258   2.03403
 Alpha virt. eigenvalues --    2.03695   2.04055   2.04457   2.05607   2.06104
 Alpha virt. eigenvalues --    2.07170   2.07494   2.08631   2.09795   2.10995
 Alpha virt. eigenvalues --    2.11760   2.12602   2.13107   2.14408   2.14607
 Alpha virt. eigenvalues --    2.14934   2.15556   2.16707   2.17130   2.17451
 Alpha virt. eigenvalues --    2.18763   2.19529   2.21166   2.21767   2.22100
 Alpha virt. eigenvalues --    2.23296   2.23584   2.24472   2.24656   2.26623
 Alpha virt. eigenvalues --    2.27181   2.27589   2.28417   2.28867   2.29136
 Alpha virt. eigenvalues --    2.29438   2.30631   2.30834   2.31486   2.32105
 Alpha virt. eigenvalues --    2.33197   2.33424   2.34700   2.35883   2.36486
 Alpha virt. eigenvalues --    2.40291   2.40904   2.42773   2.43329   2.43647
 Alpha virt. eigenvalues --    2.46238   2.48031   2.50271   2.50767   2.51272
 Alpha virt. eigenvalues --    2.53941   2.54858   2.56274   2.56583   2.57340
 Alpha virt. eigenvalues --    2.59532   2.60514   2.61008   2.63090   2.65054
 Alpha virt. eigenvalues --    2.65818   2.66105   2.66263   2.67845   2.68619
 Alpha virt. eigenvalues --    2.69035   2.69805   2.70352   2.70713   2.71454
 Alpha virt. eigenvalues --    2.71915   2.72156   2.72697   2.72880   2.74684
 Alpha virt. eigenvalues --    2.75261   2.75514   2.75811   2.77713   2.79144
 Alpha virt. eigenvalues --    2.81702   2.82507   2.83725   2.85482   2.85670
 Alpha virt. eigenvalues --    2.85969   2.86484   2.87142   2.88486   2.91623
 Alpha virt. eigenvalues --    2.93591   2.94326   2.95831   2.97787   3.00119
 Alpha virt. eigenvalues --    3.00613   3.02911   3.08483   3.08708   3.21503
 Alpha virt. eigenvalues --    3.23127   3.23878   3.25818   3.30659   3.32400
 Alpha virt. eigenvalues --    3.32436   3.38609   3.38742   3.50032   3.52228
 Alpha virt. eigenvalues --    3.52876   3.99771   4.07484   4.09925   4.10605
 Alpha virt. eigenvalues --    4.10913   4.12733   4.12962   4.13876   4.15076
 Alpha virt. eigenvalues --    4.16713   4.17388   4.18868   4.20698   4.23086
 Alpha virt. eigenvalues --    4.23523   4.26670   4.27843   4.30823   4.34160
 Alpha virt. eigenvalues --    4.34960   4.37280   4.41895   4.43437   4.44772
 Alpha virt. eigenvalues --    4.47757   4.48859   4.51177   4.52338   4.53025
 Alpha virt. eigenvalues --    4.65901   4.67188   4.76836   4.78840   4.86862
 Alpha virt. eigenvalues --    4.90234   4.92978
          Condensed to atoms (all electrons):
 Mulliken charges:
               1
     1  C    0.214879
     2  C    0.233574
     3  C   -0.198619
     4  C    0.134187
     5  C    0.125357
     6  C   -0.179488
     7  H    0.233942
     8  H    0.237329
     9  C    0.234208
    10  N   -0.438743
    11  C    0.231513
    12  N   -0.438773
    13  C    0.289191
    14  C    0.277349
    15  C   -0.185191
    16  C    0.043113
    17  C   -0.168523
    18  C    0.049846
    19  C   -0.172828
    20  H    0.158559
    21  C   -0.191952
    22  C   -0.165860
    23  H    0.159153
    24  C   -0.196383
    25  C   -0.187316
    26  H    0.166569
    27  H    0.170266
    28  C   -0.182187
    29  H    0.165745
    30  H    0.167016
    31  H    0.159791
    32  H    0.159202
    33  C    0.282556
    34  C    0.284196
    35  C   -0.166663
    36  C    0.035853
    37  C   -0.185189
    38  C    0.038338
    39  C   -0.167575
    40  H    0.159192
    41  C   -0.184185
    42  C   -0.175366
    43  H    0.159569
    44  C   -0.181151
    45  C   -0.180952
    46  H    0.165688
    47  H    0.166581
    48  C   -0.185533
    49  H    0.166882
    50  H    0.170133
    51  H    0.161429
    52  H    0.161924
    53  N   -0.715446
    54  N   -0.715208
 Sum of Mulliken charges =  -0.00000
 Mulliken charges with hydrogens summed into heavy atoms:
               1
     1  C    0.214879
     2  C    0.233574
     3  C    0.035323
     4  C    0.134187
     5  C    0.125357
     6  C    0.057841
     9  C    0.234208
    10  N   -0.438743
    11  C    0.231513
    12  N   -0.438773
    13  C    0.289191
    14  C    0.277349
    15  C   -0.026633
    16  C    0.043113
    17  C   -0.009370
    18  C    0.049846
    19  C   -0.006258
    21  C   -0.021686
    22  C   -0.000115
    24  C   -0.029367
    25  C   -0.027525
    28  C   -0.022985
    33  C    0.282556
    34  C    0.284196
    35  C   -0.007471
    36  C    0.035853
    37  C   -0.025619
    38  C    0.038338
    39  C   -0.001887
    41  C   -0.017604
    42  C   -0.008484
    44  C   -0.011018
    45  C   -0.019523
    48  C   -0.023608
    53  N   -0.715446
    54  N   -0.715208
 Electronic spatial extent (au):  <R**2>=          12747.6175
 Charge=              0.0000 electrons
 Dipole moment (field-independent basis, Debye):
    X=             -5.4762    Y=             -0.0505    Z=              0.2200  Tot=              5.4808
 Quadrupole moment (field-independent basis, Debye-Ang):
   XX=           -236.4065   YY=           -193.8763   ZZ=           -206.0573
   XY=              0.1596   XZ=              1.5758   YZ=             13.5512
 Traceless Quadrupole moment (field-independent basis, Debye-Ang):
   XX=            -24.2932   YY=             18.2371   ZZ=              6.0561
   XY=              0.1596   XZ=              1.5758   YZ=             13.5512
 Octapole moment (field-independent basis, Debye-Ang**2):
  XXX=           -449.2327  YYY=             -0.9187  ZZZ=              4.8847  XYY=            -44.5646
  XXY=              2.5744  XXZ=              7.4974  XZZ=            -34.7825  YZZ=              0.0328
  YYZ=             -0.6098  XYZ=             17.6639
 Hexadecapole moment (field-independent basis, Debye-Ang**3):
 XXXX=         -11191.9000 YYYY=          -5745.5772 ZZZZ=          -3079.8557 XXXY=             41.0362
 XXXZ=             78.9788 YYYX=             11.6481 YYYZ=            159.7404 ZZZX=             53.5925
 ZZZY=             -6.7706 XXYY=          -2471.7988 XXZZ=          -2097.6250 YYZZ=          -1469.9228
 XXYZ=            152.4820 YYXZ=             21.9205 ZZXY=             -4.5886
 N-N= 3.657991504969D+03 E-N=-1.067130912042D+04  KE= 1.436122686017D+03
 Calling FoFJK, ICntrl=  10005127 FMM=F ISym2X=0 I1Cent= 0 IOpClX= 0 NMat=1 NMatS=1 NMatT=0.
 -------------------------------------------------------------------
 Center     Atomic                   Forces (Hartrees/Bohr)
 Number     Number              X              Y              Z
 -------------------------------------------------------------------
      1        6          -0.002873457    0.003470250   -0.002130647
      2        6          -0.000639478   -0.003107880    0.001131336
      3        6          -0.000292959   -0.001202728   -0.000162607
      4        6           0.000075423   -0.002412089    0.003390522
      5        6           0.001167943    0.002182561   -0.003568690
      6        6          -0.000756502    0.001749309    0.001118813
      7        1           0.000283203   -0.000050280    0.000902345
      8        1          -0.000341542   -0.000512340   -0.000749614
      9        6           0.000254482   -0.000514138   -0.000286075
     10        7           0.000180406    0.000503179    0.000521123
     11        6          -0.001302697    0.000493099   -0.000107889
     12        7           0.001348792   -0.000757508    0.000281370
     13        6          -0.000540560    0.004815524    0.000033685
     14        6          -0.001447942   -0.002744342    0.000741687
     15        6          -0.001140815   -0.001651625    0.000107264
     16        6           0.002481499   -0.002612432    0.000717975
     17        6          -0.001256526    0.000993123   -0.001349669
     18        6           0.001084986    0.000566047    0.000503679
     19        6          -0.000779826   -0.000001985    0.000195402
     20        1           0.000255934    0.000202022   -0.000325944
     21        6          -0.000665737    0.001968464    0.001880122
     22        6           0.001853883   -0.000336435    0.000290046
     23        1           0.000202338   -0.000289140   -0.000052213
     24        6          -0.000524646   -0.001128013   -0.001456376
     25        6          -0.000903166   -0.000513822   -0.000639519
     26        1           0.000050243   -0.000308816   -0.000206323
     27        1           0.000553799    0.000270304   -0.000264018
     28        6          -0.001761087    0.001424027    0.000820254
     29        1           0.000518462    0.000086757   -0.000091085
     30        1           0.000222414   -0.000295403    0.000258082
     31        1           0.000176019   -0.000184354   -0.000307616
     32        1          -0.000032540   -0.000546653    0.000531815
     33        6          -0.001160240    0.002271773   -0.000401325
     34        6          -0.000869516   -0.003050199    0.000247718
     35        6          -0.000206756   -0.000999543    0.000382822
     36        6          -0.001124916    0.000021283    0.000521897
     37        6          -0.000692029   -0.000063346   -0.000741031
     38        6           0.001438911   -0.000099479   -0.001049778
     39        6           0.000292819    0.000427630    0.000642126
     40        1           0.000406069    0.000043186    0.000342068
     41        6           0.000981761   -0.000330976    0.000253939
     42        6          -0.000862272    0.001421368    0.000564998
     43        1           0.000404461   -0.000310692   -0.000089069
     44        6          -0.001063459    0.001400360    0.000833535
     45        6           0.000265033   -0.000350567   -0.000224208
     46        1           0.000144632    0.000016594   -0.000239144
     47        1          -0.000516706    0.000448287   -0.000256854
     48        6           0.001371425   -0.001068602   -0.000933890
     49        1           0.000288435   -0.000204589   -0.000290812
     50        1           0.000630414    0.000070744    0.000399724
     51        1          -0.000066568    0.000752994   -0.000574971
     52        1           0.000312870    0.000443867    0.000249274
     53        7           0.003113191   -0.002511803   -0.000329968
     54        7           0.001462095    0.002117031   -0.001034286
 -------------------------------------------------------------------
 Cartesian Forces:  Max     0.004815524 RMS     0.001197180

 GradGradGradGradGradGradGradGradGradGradGradGradGradGradGradGradGradGrad
 Berny optimization.
 Search for a local minimum.
 Step number   1 out of a maximum of    2
 All quantities printed in internal units (Hartrees-Bohrs-Radians)
 Second derivative matrix not updated -- first step.
 ITU=  0
     Eigenvalues ---    0.00008   0.00009   0.00022   0.00076   0.00078
     Eigenvalues ---    0.00113   0.00183   0.00267   0.00292   0.00302
     Eigenvalues ---    0.00322   0.00447   0.00716   0.00850   0.00937
     Eigenvalues ---    0.01032   0.01222   0.01233   0.01241   0.01266
     Eigenvalues ---    0.01671   0.02382   0.02422   0.02544   0.02601
     Eigenvalues ---    0.02606   0.02620   0.02715   0.02981   0.03426
     Eigenvalues ---    0.03443   0.03635   0.04607   0.04649   0.04704
     Eigenvalues ---    0.04976   0.06593   0.06739   0.06989   0.07002
     Eigenvalues ---    0.07020   0.07027   0.07052   0.07063   0.07104
     Eigenvalues ---    0.07114   0.07445   0.07890   0.07906   0.07936
     Eigenvalues ---    0.08611   0.08967   0.09476   0.10181   0.10550
     Eigenvalues ---    0.10669   0.10766   0.10776   0.11169   0.12467
     Eigenvalues ---    0.12506   0.12521   0.12622   0.12834   0.13572
     Eigenvalues ---    0.13713   0.13862   0.15055   0.15154   0.15348
     Eigenvalues ---    0.17494   0.18538   0.19521   0.19615   0.21241
     Eigenvalues ---    0.21814   0.23092   0.24797   0.26507   0.27622
     Eigenvalues ---    0.28028   0.28389   0.29648   0.30181   0.30718
     Eigenvalues ---    0.30980   0.31628   0.32965   0.35643   0.35766
     Eigenvalues ---    0.35831   0.36759   0.38040   0.40846   0.42787
     Eigenvalues ---    0.42991   0.43136   0.43357   0.46101   0.47467
     Eigenvalues ---    0.48238   0.49760   0.50134   0.50573   0.50833
     Eigenvalues ---    0.52436   0.53169   0.59309   0.60314   0.62202
     Eigenvalues ---    0.64110   0.71372   0.71444   0.74393   0.77952
     Eigenvalues ---    0.81840   0.82362   0.89613   0.90613   0.94869
     Eigenvalues ---    1.02957   1.06764   1.10941   1.12977   1.14102
     Eigenvalues ---    1.15088   1.15261   1.15406   1.19137   1.20120
     Eigenvalues ---    1.26138   1.29502   1.30842   1.39466   1.40143
     Eigenvalues ---    1.41230   1.43348   1.48617   1.48924   1.49666
     Eigenvalues ---    1.49971   1.50028   1.54710   1.58596   1.64200
     Eigenvalues ---    1.64968   1.66856   1.69678   1.71247   1.74225
     Eigenvalues ---    1.76199   1.76675   2.80837   2.81236  41.88345
     Eigenvalues ---  108.37248
 Eigenvalue     1 is   7.80D-05 Eigenvector:
                          Z51       Z32       Z46       X29       X49
   1                    0.20155  -0.19100   0.17283   0.16430  -0.16414
                          X46       X26       Z45       Z29       X52
   1                    0.16333  -0.16309   0.16308  -0.15928  -0.15649
 Eigenvalue     2 is   9.01D-05 Eigenvector:
                          Z52       Z26       Z31       Z49       Z29
   1                    0.21633   0.21623   0.21524   0.21336  -0.20961
                          Z46       Z48       Z19       Z25       Z42
   1                   -0.19140   0.16925   0.16789   0.16754   0.16745
 Quadratic step=3.951D+00 exceeds max=3.000D-01 adjusted using Lamda=-2.889D-03.
 Angle between NR and scaled steps=  33.95 degrees.
 Angle between quadratic step and forces=  80.38 degrees.
 Linear search not attempted -- first point.
 B after Tr=     0.000398   -0.000218    0.000574
         Rot=    1.000000   -0.000114    0.000140   -0.000010 Ang=  -0.02 deg.
 Variable       Old X    -DE/DX   Delta X   Delta X   Delta X     New X
                                 (Linear)    (Quad)   (Total)
    X1        2.65637  -0.00287   0.00000   0.00581   0.00645   2.66282
    Y1        0.91801   0.00347   0.00000   0.00778   0.00782   0.92583
    Z1       -0.91869  -0.00213   0.00000  -0.00705  -0.00552  -0.92421
    X2        2.68853  -0.00064   0.00000   0.00523   0.00535   2.69388
    Y2       -0.93482  -0.00311   0.00000  -0.00847  -0.00888  -0.94370
    Z2        1.07414   0.00113   0.00000  -0.01390  -0.01279   1.06135
    X3        4.97761  -0.00029   0.00000   0.00048   0.00038   4.97799
    Y3       -1.82253  -0.00120   0.00000  -0.01572  -0.01628  -1.83881
    Z3        1.93356  -0.00016   0.00000  -0.00629  -0.00475   1.92881
    X4        7.27012   0.00008   0.00000   0.00298   0.00313   7.27325
    Y4       -0.93135  -0.00241   0.00000  -0.00939  -0.00968  -0.94103
    Z4        0.94371   0.00339   0.00000   0.00393   0.00632   0.95003
    X5        7.20919   0.00117   0.00000   0.00886   0.00954   7.21873
    Y5        0.92474   0.00218   0.00000   0.00766   0.00783   0.93257
    Z5       -1.08127  -0.00357   0.00000   0.00221   0.00501  -1.07626
    X6        4.88348  -0.00076   0.00000   0.00753   0.00843   4.89191
    Y6        1.81350   0.00175   0.00000   0.01677   0.01709   1.83059
    Z6       -1.94058   0.00112   0.00000   0.00343   0.00579  -1.93480
    X7        5.00665   0.00028   0.00000  -0.00167  -0.00215   5.00450
    Y7       -3.28418  -0.00005   0.00000  -0.01078  -0.01167  -3.29585
    Z7        3.37326   0.00090   0.00000   0.00137   0.00259   3.37585
    X8        4.83734  -0.00034   0.00000   0.00518   0.00646   4.84380
    Y8        3.25949  -0.00051   0.00000   0.01001   0.01067   3.27016
    Z8       -3.39690  -0.00075   0.00000  -0.00381  -0.00114  -3.39804
    X9        9.44584   0.00025   0.00000   0.01549   0.01647   9.46232
    Y9        1.83081  -0.00051   0.00000   0.01896   0.01944   1.85025
    Z9       -2.24969  -0.00029   0.00000   0.02260   0.02624  -2.22345
   X10       11.24307   0.00018   0.00000   0.02383   0.02507  11.26814
   Y10        2.59030   0.00050   0.00000   0.02723   0.02797   2.61827
   Z10       -3.26029   0.00052   0.00000   0.04354   0.04787  -3.21243
   X11        9.58001  -0.00130   0.00000   0.00024   0.00014   9.58015
   Y11       -1.85213   0.00049   0.00000  -0.01806  -0.01853  -1.87066
   Z11        1.93338  -0.00011   0.00000   0.00315   0.00597   1.93935
   X12       11.45560   0.00135   0.00000   0.00043   0.00010  11.45571
   Y12       -2.62710  -0.00076   0.00000  -0.02413  -0.02476  -2.65186
   Z12        2.77639   0.00028   0.00000   0.00025   0.00342   2.77981
   X13       -0.61819  -0.00054   0.00000  -0.00300  -0.00254  -0.62073
   Y13        4.24936   0.00482   0.00000  -0.00640  -0.00651   4.24284
   Z13       -0.52637   0.00003   0.00000   0.00048   0.00185  -0.52452
   X14       -1.64885  -0.00145   0.00000   0.00216   0.00335  -1.64550
   Y14        0.91322  -0.00274   0.00000  -0.02078  -0.02036   0.89286
   Z14       -2.92034   0.00074   0.00000   0.00596   0.00628  -2.91405
   X15        0.69847  -0.00114   0.00000  -0.01278  -0.01278   0.68569
   Y15        5.98631  -0.00165   0.00000  -0.00750  -0.00793   5.97837
   Z15        0.98652   0.00011   0.00000   0.00391   0.00604   0.99256
   X16       -3.18500   0.00248   0.00000  -0.00762  -0.00697  -3.19197
   Y16        4.61357  -0.00261   0.00000  -0.02908  -0.02908   4.58450
   Z16       -1.24493   0.00072   0.00000   0.02038   0.02111  -1.22382
   X17       -1.56834  -0.00126   0.00000   0.01207   0.01368  -1.55465
   Y17       -1.36403   0.00099   0.00000  -0.00451  -0.00378  -1.36781
   Z17       -4.24045  -0.00135   0.00000  -0.01896  -0.01913  -4.25958
   X18       -3.85085   0.00108   0.00000  -0.00438  -0.00326  -3.85411
   Y18        2.42597   0.00057   0.00000  -0.03294  -0.03260   2.39337
   Z18       -2.78566   0.00050   0.00000   0.02332   0.02336  -2.76230
   X19       -0.62053  -0.00078   0.00000  -0.02259  -0.02286  -0.64339
   Y19        8.10596  -0.00000   0.00000  -0.01588  -0.01652   8.08944
   Z19        1.79072   0.00020   0.00000   0.01056   0.01280   1.80352
   X20        2.65471   0.00026   0.00000  -0.00654  -0.00667   2.64804
   Y20        5.65099   0.00020   0.00000   0.00692   0.00642   5.65741
   Z20        1.49684  -0.00033   0.00000  -0.00880  -0.00619   1.49065
   X21       -4.45474  -0.00067   0.00000  -0.01662  -0.01625  -4.47099
   Y21        6.73391   0.00197   0.00000  -0.02947  -0.02969   6.70422
   Z21       -0.40927   0.00188   0.00000   0.02022   0.02107  -0.38820
   X22       -3.79236   0.00185   0.00000   0.00986   0.01183  -3.78053
   Y22       -2.12527  -0.00034   0.00000  -0.01880  -0.01785  -2.14312
   Z22       -5.45492   0.00029   0.00000   0.00019  -0.00079  -5.45570
   X23        0.16113   0.00020   0.00000   0.02138   0.02306   0.18418
   Y23       -2.45213  -0.00029   0.00000   0.01144   0.01223  -2.43990
   Z23       -4.35381  -0.00005   0.00000  -0.04448  -0.04442  -4.39822
   X24       -6.01340  -0.00052   0.00000  -0.01082  -0.00934  -6.02274
   Y24        1.65345  -0.00113   0.00000  -0.04742  -0.04685   1.60660
   Z24       -4.02431  -0.00146   0.00000   0.03875   0.03801  -3.98630
   X25       -3.15460  -0.00090   0.00000  -0.02293  -0.02302  -3.17762
   Y25        8.47311  -0.00051   0.00000  -0.02222  -0.02276   8.45035
   Z25        1.11345  -0.00064   0.00000   0.01126   0.01287   1.12632
   X26        0.31914   0.00005   0.00000  -0.02296  -0.02358   0.29556
   Y26        9.49993  -0.00031   0.00000  -0.01329  -0.01418   9.48575
   Z26        2.96416  -0.00021   0.00000   0.00649   0.00932   2.97348
   X27       -6.42548   0.00055   0.00000  -0.01344  -0.01294  -6.43842
   Y27        7.04758   0.00027   0.00000  -0.02979  -0.02994   7.01763
   Z27       -0.88908  -0.00026   0.00000   0.01235   0.01273  -0.87635
   X28       -5.96016  -0.00176   0.00000  -0.01029  -0.00839  -5.96855
   Y28       -0.64192   0.00142   0.00000  -0.04572  -0.04484  -0.68677
   Z28       -5.36761   0.00082   0.00000   0.04003   0.03878  -5.32883
   X29       -3.81491   0.00052   0.00000   0.02415   0.02645  -3.78846
   Y29       -3.89558   0.00009   0.00000  -0.01096  -0.00977  -3.90535
   Z29       -6.48759  -0.00009   0.00000  -0.01312  -0.01450  -6.50209
   X30       -7.72443   0.00022   0.00000  -0.01820  -0.01676  -7.74120
   Y30        2.78591  -0.00030   0.00000  -0.06095  -0.06043   2.72548
   Z30       -3.97790   0.00026   0.00000   0.05983   0.05886  -3.91904
   X31       -4.13838   0.00018   0.00000  -0.02411  -0.02441  -4.16279
   Y31       10.14294  -0.00018   0.00000  -0.01992  -0.02063  10.12231
   Z31        1.78600  -0.00031   0.00000   0.00104   0.00276   1.78876
   X32       -7.64510  -0.00003   0.00000  -0.01957  -0.01739  -7.66249
   Y32       -1.24924  -0.00055   0.00000  -0.06790  -0.06684  -1.31608
   Z32       -6.36550   0.00053   0.00000   0.06964   0.06777  -6.29773
   X33       -1.64040  -0.00116   0.00000   0.00736   0.00693  -1.63347
   Y33       -0.93254   0.00227   0.00000   0.01818   0.01723  -0.91530
   Z33        3.04799  -0.00040   0.00000  -0.01424  -0.01433   3.03366
   X34       -0.56976  -0.00087   0.00000  -0.00477  -0.00446  -0.57422
   Y34       -4.27253  -0.00305   0.00000   0.00693   0.00655  -4.26598
   Z34        0.66532   0.00025   0.00000  -0.01577  -0.01633   0.64899
   X35       -1.61735  -0.00021   0.00000   0.02792   0.02705  -1.59030
   Y35        1.31248  -0.00100   0.00000   0.00211   0.00084   1.31333
   Z35        4.42513   0.00038   0.00000   0.00992   0.01035   4.43548
   X36       -3.85451  -0.00112   0.00000   0.00008  -0.00025  -3.85475
   Y36       -2.39669   0.00002   0.00000   0.02944   0.02852  -2.36817
   Z36        2.77629   0.00052   0.00000  -0.01919  -0.02024   2.75605
   X37        0.74097  -0.00069   0.00000  -0.01173  -0.01098   0.72999
   Y37       -6.03001  -0.00006   0.00000   0.00926   0.00925  -6.02076
   Z37       -0.81964  -0.00074   0.00000  -0.02365  -0.02425  -0.84388
   X38       -3.17362   0.00144   0.00000  -0.00342  -0.00328  -3.17690
   Y38       -4.55992  -0.00010   0.00000   0.02143   0.02087  -4.53906
   Z38        1.23863  -0.00105   0.00000  -0.01409  -0.01544   1.22319
   X39       -3.87875   0.00029   0.00000   0.02968   0.02848  -3.85027
   Y39        2.07233   0.00043   0.00000   0.02389   0.02232   2.09466
   Z39        5.54099   0.00064   0.00000  -0.00319  -0.00322   5.53777
   X40        0.11552   0.00041   0.00000   0.04077   0.03981   0.15533
   Y40        2.38148   0.00004   0.00000  -0.02196  -0.02325   2.35823
   Z40        4.65660   0.00034   0.00000   0.03301   0.03417   4.69077
   X41       -6.08280   0.00098   0.00000   0.00193   0.00126  -6.08154
   Y41       -1.61772  -0.00033   0.00000   0.04922   0.04798  -1.56974
   Z41        3.94202   0.00025   0.00000  -0.03027  -0.03176   3.91026
   X42       -0.60991  -0.00086   0.00000  -0.01909  -0.01804  -0.62795
   Y42       -8.08293   0.00142   0.00000   0.01694   0.01711  -8.06582
   Z42       -1.73229   0.00056   0.00000  -0.02201  -0.02345  -1.75575
   X43        2.73505   0.00040   0.00000  -0.01014  -0.00927   2.72577
   Y43       -5.77103  -0.00031   0.00000   0.00036   0.00048  -5.77055
   Z43       -1.21991  -0.00009   0.00000  -0.02701  -0.02700  -1.24691
   X44       -4.48495  -0.00106   0.00000  -0.00815  -0.00770  -4.49266
   Y44       -6.63588   0.00140   0.00000   0.02066   0.02029  -6.61560
   Z44        0.28646   0.00083   0.00000  -0.00093  -0.00312   0.28334
   X45       -6.08088   0.00027   0.00000   0.01421   0.01311  -6.06776
   Y45        0.62454  -0.00035   0.00000   0.05202   0.05047   0.67501
   Z45        5.32290  -0.00022   0.00000  -0.03406  -0.03503   5.28787
   X46       -3.91583   0.00014   0.00000   0.04041   0.03888  -3.87696
   Y46        3.80808   0.00002   0.00000   0.02163   0.01982   3.82789
   Z46        6.63446  -0.00024   0.00000  -0.00014   0.00023   6.63469
   X47       -7.78260  -0.00052   0.00000  -0.01389  -0.01449  -7.79708
   Y47       -2.75843   0.00045   0.00000   0.07351   0.07227  -2.68616
   Z47        3.79788  -0.00026   0.00000  -0.04697  -0.04919   3.74869
   X48       -3.19631   0.00137   0.00000  -0.01375  -0.01284  -3.20916
   Y48       -8.38167  -0.00107   0.00000   0.01695   0.01694  -8.36473
   Z48       -1.19343  -0.00093   0.00000  -0.00639  -0.00863  -1.20206
   X49        0.34696   0.00029   0.00000  -0.02385  -0.02245   0.32451
   Y49       -9.48827  -0.00020   0.00000   0.01637   0.01682  -9.47144
   Z49       -2.87677  -0.00029   0.00000  -0.02760  -0.02910  -2.90586
   X50       -6.48675   0.00063   0.00000  -0.00260  -0.00226  -6.48901
   Y50       -6.88082   0.00007   0.00000   0.01921   0.01870  -6.86212
   Z50        0.67538   0.00040   0.00000   0.01836   0.01555   0.69093
   X51       -7.79463  -0.00007   0.00000   0.00817   0.00680  -7.78782
   Y51        1.23008   0.00075   0.00000   0.08273   0.08094   1.31101
   Z51        6.27158  -0.00057   0.00000  -0.06428  -0.06559   6.20600
   X52       -4.19567   0.00031   0.00000  -0.01523  -0.01409  -4.20976
   Y52      -10.01088   0.00044   0.00000   0.01534   0.01548  -9.99541
   Z52       -1.94160   0.00025   0.00000   0.00360   0.00071  -1.94089
   X53        0.26165   0.00311   0.00000   0.00517   0.00596   0.26761
   Y53        2.03620  -0.00251   0.00000  -0.00622  -0.00608   2.03012
   Z53       -1.53093  -0.00033   0.00000  -0.00478  -0.00367  -1.53460
   X54        0.33507   0.00146   0.00000   0.00130   0.00126   0.33633
   Y54       -2.08706   0.00212   0.00000   0.00796   0.00735  -2.07971
   Z54        1.75636  -0.00103   0.00000  -0.01847  -0.01827   1.73808
         Item               Value     Threshold  Converged?
 Maximum Force            0.004816     0.000450     NO 
 RMS     Force            0.001197     0.000300     NO 
 Maximum Displacement     0.080936     0.001800     NO 
 RMS     Displacement     0.023612     0.001200     NO 
 Predicted change in Energy=-5.133798D-04
 GradGradGradGradGradGradGradGradGradGradGradGradGradGradGradGradGradGrad

 Unable to Open any file for archive entry.
 1\1\GINC-X10P1N1\Force\RM062X TD-FC\6-31G(d)\C32H18N4\MAYUMIAO\13-Jul-
 2024\0\\# 6-31g(d) m062x g09default scf=(xqc,maxcycle=64) force guess=
 read td nosymm\\Title Card\\0,1\C,1.40568989,0.48579112,-0.48614842\C,
 1.42270717,-0.49468662,0.56841102\C,2.6340358,-0.96444384,1.02319448\C
 ,3.84718153,-0.49284959,0.49939002\C,3.8149391,0.48935137,-0.57218307\
 C,2.58422673,0.95966215,-1.02691287\H,2.64940477,-1.73791079,1.7850501
 2\H,2.55980847,1.72484848,-1.79756139\C,4.99852538,0.96882147,-1.19048
 494\N,5.9495767,1.37072578,-1.72527378\C,5.06952313,-0.98010385,1.0230
 9935\N,6.06204398,-1.39020209,1.46920412\C,-0.32713023,2.24866208,-0.2
 7854487\C,-0.87253141,0.48325417,-1.5453757\C,0.36961418,3.16781699,0.
 52204369\C,-1.68543077,2.44139813,-0.65878716\C,-0.82992935,-0.7218125
 6,-2.24394747\C,-2.0377837,1.28377046,-1.47410813\C,-0.32837143,4.2894
 901,0.94760716\H,1.40481035,2.99037616,0.79209107\C,-2.3573486,3.56343
 058,-0.21657682\C,-2.0068287,-1.12464377,-2.88661776\H,0.08526605,-1.2
 9761191,-2.30393597\C,-3.18215584,0.87496928,-2.12957362\C,-1.66934266
 ,4.48377779,0.58921174\H,0.1688818,5.02714706,1.56856827\H,-3.40021494
 ,3.72941626,-0.47048079\C,-3.1539806,-0.33969177,-2.84041747\H,-2.0187
 6136,-2.06145424,-3.43308483\H,-4.08759337,1.47424067,-2.1050152\H,-2.
 18993806,5.36741135,0.94510943\H,-4.0456136,-0.66107009,-3.36847962\C,
 -0.86806334,-0.4934768,1.61292839\C,-0.30150186,-2.26092375,0.35207362
 \C,-0.85586605,0.69453519,2.34167977\C,-2.03971786,-1.2682724,1.469148
 88\C,0.39210439,-3.1909436,-0.43373282\C,-1.67940829,-2.41300807,0.655
 45351\C,-2.05254723,1.09663167,2.93216423\H,0.06113313,1.26022399,2.46
 416875\C,-3.218879,-0.85606203,2.08602507\C,-0.32275177,-4.27730042,-0
 .91669096\H,1.4473244,-3.05389815,-0.64555014\C,-2.37333592,-3.5115584
 6,0.15158963\C,-3.21786052,0.33049177,2.81675574\H,-2.07217038,2.01514
 697,3.51080351\H,-4.11837342,-1.45969865,2.00975011\C,-1.69141576,-4.4
 3538985,-0.63153473\H,0.18360225,-5.02097392,-1.52231941\H,-3.43264122
 ,-3.64117311,0.35739363\H,-4.1247389,0.6509294,3.31877854\H,-2.2202526
 9,-5.2975321,-1.02745129\N,0.1384568,1.07751088,-0.81013562\N,0.177311
 84,-1.10442603,0.92942313\\Version=ES64L-G16RevC.01\HF=-1448.6883024\R
 MSD=8.147e-09\RMSF=1.197e-03\Dipole=-7.3121518,0.8939923,-0.455312\PG=
 C01 [X(C32H18N4)]\\@
 The archive entry for this job was punched.


 IT IS BY LOGIC THAT WE PROVE, BUT BY INTUITION THAT WE DISCOVER.
     -- J.H.POINCARE (1854-1912)
 Job cpu time:       0 days  4 hours 21 minutes 59.4 seconds.
 Elapsed time:       0 days  0 hours  9 minutes 26.5 seconds.
 File lengths (MBytes):  RWF=   1633 Int=      0 D2E=      0 Chk=     65 Scr=      1
 Normal termination of Gaussian 16 at Sat Jul 13 23:19:56 2024.
