 Entering Gaussian System, Link 0=g16
 Input=JOBS/13_A.gjf
 Output=JOBS/13_A.log
 Initial command:
 /data/app/gaussian/C01-avx2//g16/l1.exe "/tmp/Gau-1311643.inp" -scrdir="/tmp/"
 Entering Link 1 = /data/app/gaussian/C01-avx2//g16/l1.exe PID=   1311644.
  
 Copyright (c) 1988-2019, Gaussian, Inc.  All Rights Reserved.
  
 This is part of the Gaussian(R) 16 program.  It is based on
 the Gaussian(R) 09 system (copyright 2009, Gaussian, Inc.),
 the Gaussian(R) 03 system (copyright 2003, Gaussian, Inc.),
 the Gaussian(R) 98 system (copyright 1998, Gaussian, Inc.),
 the Gaussian(R) 94 system (copyright 1995, Gaussian, Inc.),
 the Gaussian 92(TM) system (copyright 1992, Gaussian, Inc.),
 the Gaussian 90(TM) system (copyright 1990, Gaussian, Inc.),
 the Gaussian 88(TM) system (copyright 1988, Gaussian, Inc.),
 the Gaussian 86(TM) system (copyright 1986, Carnegie Mellon
 University), and the Gaussian 82(TM) system (copyright 1983,
 Carnegie Mellon University). Gaussian is a federally registered
 trademark of Gaussian, Inc.
  
 This software contains proprietary and confidential information,
 including trade secrets, belonging to Gaussian, Inc.
  
 This software is provided under written license and may be
 used, copied, transmitted, or stored only in accord with that
 written license.
  
 The following legend is applicable only to US Government
 contracts under FAR:
  
                    RESTRICTED RIGHTS LEGEND
  
 Use, reproduction and disclosure by the US Government is
 subject to restrictions as set forth in subparagraphs (a)
 and (c) of the Commercial Computer Software - Restricted
 Rights clause in FAR 52.227-19.
  
 Gaussian, Inc.
 340 Quinnipiac St., Bldg. 40, Wallingford CT 06492
  
  
 ---------------------------------------------------------------
 Warning -- This program may not be used in any manner that
 competes with the business of Gaussian, Inc. or will provide
 assistance to any competitor of Gaussian, Inc.  The licensee
 of this program is prohibited from giving any competitor of
 Gaussian, Inc. access to this program.  By using this program,
 the user acknowledges that Gaussian, Inc. is engaged in the
 business of creating and licensing software in the field of
 computational chemistry and represents and warrants to the
 licensee that it is not a competitor of Gaussian, Inc. and that
 it will not use this program in any manner prohibited above.
 ---------------------------------------------------------------
  

 Cite this work as:
 Gaussian 16, Revision C.01,
 M. J. Frisch, G. W. Trucks, H. B. Schlegel, G. E. Scuseria, 
 M. A. Robb, J. R. Cheeseman, G. Scalmani, V. Barone, 
 G. A. Petersson, H. Nakatsuji, X. Li, M. Caricato, A. V. Marenich, 
 J. Bloino, B. G. Janesko, R. Gomperts, B. Mennucci, H. P. Hratchian, 
 J. V. Ortiz, A. F. Izmaylov, J. L. Sonnenberg, D. Williams-Young, 
 F. Ding, F. Lipparini, F. Egidi, J. Goings, B. Peng, A. Petrone, 
 T. Henderson, D. Ranasinghe, V. G. Zakrzewski, J. Gao, N. Rega, 
 G. Zheng, W. Liang, M. Hada, M. Ehara, K. Toyota, R. Fukuda, 
 J. Hasegawa, M. Ishida, T. Nakajima, Y. Honda, O. Kitao, H. Nakai, 
 T. Vreven, K. Throssell, J. A. Montgomery, Jr., J. E. Peralta, 
 F. Ogliaro, M. J. Bearpark, J. J. Heyd, E. N. Brothers, K. N. Kudin, 
 V. N. Staroverov, T. A. Keith, R. Kobayashi, J. Normand, 
 K. Raghavachari, A. P. Rendell, J. C. Burant, S. S. Iyengar, 
 J. Tomasi, M. Cossi, J. M. Millam, M. Klene, C. Adamo, R. Cammi, 
 J. W. Ochterski, R. L. Martin, K. Morokuma, O. Farkas, 
 J. B. Foresman, and D. J. Fox, Gaussian, Inc., Wallingford CT, 2019.
 
 ******************************************
 Gaussian 16:  ES64L-G16RevC.01  3-Jul-2019
                13-Jul-2024 
 ******************************************
 %chk=a.chk
 %nprocshared=28
 Will use up to   28 processors via shared memory.
 %mem=48gb
 ----------------------------------------------------------------------
 # 6-31g(d) m062x g09default scf=(xqc,maxcycle=64) force guess=read td 
 nosymm
 ----------------------------------------------------------------------
 1/10=7,30=1,38=1,158=3,167=1/1,3;
 2/12=2,15=1,17=6,18=5,40=1/2;
 3/5=1,6=6,7=1,11=9,25=1,27=10,30=1,71=1,74=-55,75=-4,116=-2,158=3/1,2,3,8;
 4/5=1,60=-1/1;
 5/5=2,7=64,8=3,13=1,38=6,87=10/2,8;
 8/6=1,10=2,87=10/1;
 9/15=2,42=1,70=2,87=10/14;
 10/5=4,31=1,87=10/2;
 6/7=2,8=2,9=2,10=2,18=1,87=10/1;
 7/12=6,13=5,29=1,30=1,87=10/1,2,3,16;
 1/10=7,30=1,158=3,167=1/3;
 99//99;
 Using 2006 physical constants.
 ----------
 Title Card
 ----------
 Symbolic Z-matrix:
 Charge =  0 Multiplicity = 1
 6                     1.40502   0.48796  -0.48582 
 6                     1.42278  -0.49543   0.56727 
 6                     2.63392  -0.96597   1.02257 
 6                     3.84695  -0.49336   0.50048 
 6                     3.81567   0.48965  -0.57425 
 6                     2.58376   0.96247  -1.02536 
 1                     2.65098  -1.73832   1.78581 
 1                     2.55862   1.72712  -1.79645 
 6                     4.99946   0.96795  -1.19262 
 7                     5.94957   1.37116  -1.72808 
 6                     5.06977  -0.98001   1.02426 
 7                     6.06328  -1.38938   1.46991 
 6                    -0.3278    2.24891  -0.27648 
 6                    -0.87355   0.48048  -1.54239 
 6                     0.3691    3.16639   0.52391 
 6                    -1.68519   2.43839  -0.65432 
 6                    -0.8309   -0.72232  -2.24402 
 6                    -2.03722   1.2828   -1.47261 
 6                    -0.32883   4.28834   0.94928 
 1                     1.40691   2.99341   0.78686 
 6                    -2.35751   3.56347  -0.21423 
 6                    -2.00671  -1.12523  -2.88572 
 1                     0.08372  -1.29978  -2.30202 
 6                    -3.18105   0.87552  -2.13192 
 6                    -1.66933   4.48333   0.58998 
 1                     0.17011   5.02583   1.56884 
 1                    -3.3983    3.73228  -0.47231 
 6                    -3.15495  -0.33926  -2.84065 
 1                    -2.01718  -2.06164  -3.43263 
 1                    -4.08452   1.47732  -2.11011 
 1                    -2.18822   5.36832   0.94344 
 1                    -4.04561  -0.66144  -3.36904 
 6                    -0.87008  -0.49081   1.61021 
 6                    -0.30207  -2.2604    0.35039 
 6                    -0.85719   0.69458   2.34124 
 6                    -2.04095  -1.26831   1.46878 
 6                     0.39204  -3.19088  -0.43521 
 6                    -1.6795   -2.41203   0.65286 
 6                    -2.05387   1.09615   2.93311 
 1                     0.05939   1.26157   2.46298 
 6                    -3.21829  -0.85839   2.08812 
 6                    -0.32301  -4.27639  -0.91683 
 1                     1.44876  -3.05754  -0.64248 
 6                    -2.3742   -3.51      0.15148 
 6                    -3.21811   0.32873   2.81833 
 1                    -2.0738    2.01496   3.5103 
 1                    -4.11889  -1.46127   2.01234 
 6                    -1.69088  -4.43527  -0.63269 
 1                     0.18438  -5.02185  -1.52057 
 1                    -3.43204  -3.64118   0.3592 
 1                    -4.12535   0.65029   3.31912 
 1                    -2.21963  -5.29633  -1.02845 
 7                     0.13871   1.07628  -0.80916 
 7                     0.17554  -1.10216   0.92553 
 

 GradGradGradGradGradGradGradGradGradGradGradGradGradGradGradGradGradGrad
 Berny optimization.
 Initialization pass.
 Trust Radius=3.00D-01 FncErr=1.00D-07 GrdErr=1.00D-07 EigMax=2.50D+02 EigMin=1.00D-04
 Number of steps in this run=      2 maximum allowed number of steps=      2.
 GradGradGradGradGradGradGradGradGradGradGradGradGradGradGradGradGradGrad

 Symmetry turned off by external request.
 Stoichiometry    C32H18N4
 Framework group  C1[X(C32H18N4)]
 Deg. of freedom   156
 Full point group                 C1      NOp   1
                          Input orientation:                          
 ---------------------------------------------------------------------
 Center     Atomic      Atomic             Coordinates (Angstroms)
 Number     Number       Type             X           Y           Z
 ---------------------------------------------------------------------
      1          6           0        1.405022    0.487961   -0.485815
      2          6           0        1.422776   -0.495435    0.567267
      3          6           0        2.633920   -0.965968    1.022566
      4          6           0        3.846949   -0.493365    0.500478
      5          6           0        3.815667    0.489654   -0.574248
      6          6           0        2.583757    0.962470   -1.025358
      7          1           0        2.650984   -1.738317    1.785810
      8          1           0        2.558625    1.727120   -1.796453
      9          6           0        4.999462    0.967950   -1.192619
     10          7           0        5.949567    1.371162   -1.728084
     11          6           0        5.069767   -0.980006    1.024260
     12          7           0        6.063277   -1.389381    1.469912
     13          6           0       -0.327805    2.248910   -0.276477
     14          6           0       -0.873550    0.480483   -1.542392
     15          6           0        0.369102    3.166394    0.523912
     16          6           0       -1.685187    2.438395   -0.654322
     17          6           0       -0.830900   -0.722323   -2.244018
     18          6           0       -2.037216    1.282798   -1.472608
     19          6           0       -0.328833    4.288340    0.949278
     20          1           0        1.406911    2.993412    0.786858
     21          6           0       -2.357512    3.563467   -0.214226
     22          6           0       -2.006709   -1.125228   -2.885719
     23          1           0        0.083723   -1.299775   -2.302018
     24          6           0       -3.181053    0.875525   -2.131915
     25          6           0       -1.669333    4.483330    0.589985
     26          1           0        0.170111    5.025832    1.568835
     27          1           0       -3.398296    3.732276   -0.472312
     28          6           0       -3.154955   -0.339265   -2.840653
     29          1           0       -2.017184   -2.061635   -3.432627
     30          1           0       -4.084519    1.477315   -2.110106
     31          1           0       -2.188223    5.368323    0.943442
     32          1           0       -4.045608   -0.661437   -3.369042
     33          6           0       -0.870078   -0.490811    1.610211
     34          6           0       -0.302074   -2.260398    0.350393
     35          6           0       -0.857188    0.694577    2.341237
     36          6           0       -2.040955   -1.268311    1.468780
     37          6           0        0.392040   -3.190883   -0.435214
     38          6           0       -1.679496   -2.412035    0.652862
     39          6           0       -2.053875    1.096146    2.933111
     40          1           0        0.059391    1.261566    2.462983
     41          6           0       -3.218290   -0.858387    2.088115
     42          6           0       -0.323012   -4.276394   -0.916828
     43          1           0        1.448758   -3.057537   -0.642477
     44          6           0       -2.374198   -3.509999    0.151478
     45          6           0       -3.218110    0.328732    2.818326
     46          1           0       -2.073796    2.014956    3.510302
     47          1           0       -4.118892   -1.461273    2.012342
     48          6           0       -1.690880   -4.435272   -0.632689
     49          1           0        0.184375   -5.021848   -1.520573
     50          1           0       -3.432040   -3.641176    0.359195
     51          1           0       -4.125349    0.650293    3.319124
     52          1           0       -2.219633   -5.296332   -1.028449
     53          7           0        0.138708    1.076277   -0.809164
     54          7           0        0.175544   -1.102162    0.925533
 ---------------------------------------------------------------------
 Rotational constants (GHZ):           0.1588164           0.1164136           0.0924873
 Standard basis: 6-31G(d) (6D, 7F)
   576 basis functions,  1080 primitive gaussians,   576 cartesian basis functions
   119 alpha electrons      119 beta electrons
       nuclear repulsion energy      3658.2032661348 Hartrees.
 NAtoms=   54 NActive=   54 NUniq=   54 SFac= 1.00D+00 NAtFMM=   60 NAOKFM=F Big=F
 Integral buffers will be    131072 words long.
 Regular integral format.
 Two-electron integral symmetry is turned off.
 One-electron integrals computed using PRISM.
 NBasis=   576 RedAO= T EigKep=  2.59D-04  NBF=   576
 NBsUse=   576 1.00D-06 EigRej= -1.00D+00 NBFU=   576
 Initial guess from the checkpoint file:  "a.chk"
 B after Tr=    -0.000375   -0.000115    0.000079
         Rot=    1.000000   -0.000093   -0.000032   -0.000020 Ang=  -0.01 deg.
 Requested convergence on RMS density matrix=1.00D-08 within  64 cycles.
 Requested convergence on MAX density matrix=1.00D-06.
 Requested convergence on             energy=1.00D-06.
 No special actions if energy rises.
 SCF Done:  E(RM062X) =  -1448.68852861     A.U. after   10 cycles
            NFock= 10  Conv=0.79D-08     -V/T= 2.0088
 QCSCF skips out because SCF is already converged.
 DoSCS=F DFT=T ScalE2(SS,OS)=  1.000000  1.000000
 ExpMin= 1.61D-01 ExpMax= 4.17D+03 ExpMxC= 6.27D+02 IAcc=3 IRadAn=         5 AccDes= 0.00D+00
 HarFok:  IExCor=  205 AccDes= 0.00D+00 IRadAn=         5 IDoV=-2 UseB2=F ITyADJ=14
 ICtDFT= 12500011 ScaDFX=  1.000000  1.000000  1.000000  1.000000
 GSVD:  LWork=       -1584 too small for GESVD, short by        7020 words or        7020 for optimal perf.
 Range of M.O.s used for correlation:    37   576
 NBasis=   576 NAE=   119 NBE=   119 NFC=    36 NFV=     0
 NROrb=    540 NOA=    83 NOB=    83 NVA=   457 NVB=   457

 **** Warning!!: The largest alpha MO coefficient is  0.10474171D+02

    12 initial guesses have been made.
 Convergence on wavefunction:    0.000001000000000
 Iteration     1 Dimension    12 NMult     0 NNew     12
 CISAX will form    12 AO SS matrices at one time.
 Iteration     2 Dimension    18 NMult    12 NNew      6
 Iteration     3 Dimension    24 NMult    18 NNew      6
 Iteration     4 Dimension    30 NMult    24 NNew      6
 Iteration     5 Dimension    36 NMult    30 NNew      6
 Iteration     6 Dimension    42 NMult    36 NNew      6
 Iteration     7 Dimension    48 NMult    42 NNew      6
 Iteration     8 Dimension    54 NMult    48 NNew      6
 Iteration     9 Dimension    60 NMult    54 NNew      6
 Iteration    10 Dimension    66 NMult    60 NNew      6
 Iteration    11 Dimension    72 NMult    66 NNew      6
 Iteration    12 Dimension    78 NMult    72 NNew      6
 Iteration    13 Dimension    80 NMult    78 NNew      2
 ***********************************************************************
 Excited states from <AA,BB:AA,BB> singles matrix:
 ***********************************************************************
 
 Ground to excited state transition densities written to RWF  633
 Ground to excited state transition electric dipole moments (Au):
       state          X           Y           Z        Dip. S.      Osc.
         1         0.1129     -0.2682      0.2314      0.1382      0.0098
         2        -0.5121     -0.0740      0.0829      0.2746      0.0213
         3         0.0072      0.1337     -0.0684      0.0226      0.0020
 Ground to excited state transition velocity dipole moments (Au):
       state          X           Y           Z        Dip. S.      Osc.
         1        -0.0122      0.0265     -0.0298      0.0017      0.0109
         2         0.0602      0.0082     -0.0112      0.0038      0.0219
         3        -0.0009     -0.0208      0.0124      0.0006      0.0030
 Ground to excited state transition magnetic dipole moments (Au):
       state          X           Y           Z
         1        -0.0450      0.2633      0.2601
         2         0.2415      0.0949      0.0801
         3         0.0142     -0.2240      0.0355
 Ground to excited state transition velocity quadrupole moments (Au):
       state          XX          YY          ZZ          XY          XZ          YZ
         1        -0.0798      0.0385      0.0086      0.0039     -0.0093      0.0108
         2         0.3439     -0.1478     -0.0540      0.0096     -0.0146     -0.0548
         3         0.0002      0.0070     -0.0053     -0.0485      0.0325     -0.0007
 <0|del|b> * <b|rxdel|0> + <0|del|b> * <b|delr+rdel|0>
 Rotatory Strengths (R) in cgs (10**-40 erg-esu-cm/Gauss)
       state          XX          YY          ZZ    R(velocity)    E-M Angle
         1        -2.2328    -24.0626     24.6356     -0.5533       90.92
         2        -0.2988     31.8590     56.3740     29.3114       30.69
         3        13.8503      2.7641     10.6284      9.0810       22.63
 1/2[<0|r|b>*<b|rxdel|0> + (<0|rxdel|b>*<b|r|0>)*]
 Rotatory Strengths (R) in cgs (10**-40 erg-esu-cm/Gauss)
       state          XX          YY          ZZ     R(length)
         1         3.5910     49.9344    -42.5615      3.6547
         2        87.4624      4.9701     -4.6944     29.2460
         3        -0.0720     21.1757      1.7181      7.6073
  1/2[<0|del|b>*<b|r|0> + (<0|r|b>*<b|del|0>)*] (Au)
       state          X           Y           Z        Dip. S.   Osc.(frdel)
         1        -0.0014     -0.0071     -0.0069      0.0154      0.0103
         2        -0.0308     -0.0006     -0.0009      0.0324      0.0216
         3        -0.0000     -0.0028     -0.0009      0.0036      0.0024

 Excitation energies and oscillator strengths:
 
 Excited state symmetry could not be determined.
 Excited State   1:      Singlet-?Sym    2.8899 eV  429.03 nm  f=0.0098  <S**2>=0.000
     119 ->120         0.68912
 This state for optimization and/or second-order correction.
 Total Energy, E(TD-HF/TD-DFT) =  -1448.58232702    
 Copying the excited state density for this state as the 1-particle RhoCI density.
 
 Excited state symmetry could not be determined.
 Excited State   2:      Singlet-?Sym    3.1592 eV  392.45 nm  f=0.0213  <S**2>=0.000
     118 ->120         0.68781
 
 Excited state symmetry could not be determined.
 Excited State   3:      Singlet-?Sym    3.5949 eV  344.89 nm  f=0.0020  <S**2>=0.000
     117 ->120         0.69521
 SavETr:  write IOETrn=   770 NScale= 10 NData=  16 NLR=1 NState=    3 LETran=      64.
          IDoAtm=11111111111111111111111111111111111111111111111111
          IDoAtm=1111
          Differentiating once with respect to electric field.
                with respect to dipole field.
          Differentiating once with respect to nuclear coordinates.
          There are     1 degrees of freedom in the 1st order CPHF.  IDoFFX=0 NUNeed=     1.
 LinEq1:  Iter=  0 NonCon=     1 RMS=3.99D-03 Max=1.84D-01 NDo=     1
 AX will form     1 AO Fock derivatives at one time.
 LinEq1:  Iter=  1 NonCon=     1 RMS=2.45D-03 Max=1.76D-01 NDo=     1
 LinEq1:  Iter=  2 NonCon=     1 RMS=1.69D-03 Max=9.87D-02 NDo=     1
 LinEq1:  Iter=  3 NonCon=     1 RMS=9.21D-04 Max=5.95D-02 NDo=     1
 LinEq1:  Iter=  4 NonCon=     1 RMS=6.25D-04 Max=4.27D-02 NDo=     1
 LinEq1:  Iter=  5 NonCon=     1 RMS=3.26D-04 Max=1.41D-02 NDo=     1
 LinEq1:  Iter=  6 NonCon=     1 RMS=1.60D-04 Max=1.23D-02 NDo=     1
 LinEq1:  Iter=  7 NonCon=     1 RMS=9.79D-05 Max=5.28D-03 NDo=     1
 LinEq1:  Iter=  8 NonCon=     1 RMS=6.36D-05 Max=3.80D-03 NDo=     1
 LinEq1:  Iter=  9 NonCon=     1 RMS=4.11D-05 Max=1.85D-03 NDo=     1
 LinEq1:  Iter= 10 NonCon=     1 RMS=2.01D-05 Max=7.97D-04 NDo=     1
 LinEq1:  Iter= 11 NonCon=     1 RMS=1.04D-05 Max=5.55D-04 NDo=     1
 LinEq1:  Iter= 12 NonCon=     1 RMS=7.48D-06 Max=3.90D-04 NDo=     1
 LinEq1:  Iter= 13 NonCon=     1 RMS=4.39D-06 Max=2.31D-04 NDo=     1
 LinEq1:  Iter= 14 NonCon=     1 RMS=2.78D-06 Max=1.41D-04 NDo=     1
 LinEq1:  Iter= 15 NonCon=     1 RMS=1.35D-06 Max=5.36D-05 NDo=     1
 LinEq1:  Iter= 16 NonCon=     1 RMS=8.71D-07 Max=3.53D-05 NDo=     1
 LinEq1:  Iter= 17 NonCon=     1 RMS=3.49D-07 Max=1.07D-05 NDo=     1
 LinEq1:  Iter= 18 NonCon=     1 RMS=1.63D-07 Max=6.61D-06 NDo=     1
 LinEq1:  Iter= 19 NonCon=     1 RMS=8.82D-08 Max=3.45D-06 NDo=     1
 LinEq1:  Iter= 20 NonCon=     1 RMS=4.40D-08 Max=1.82D-06 NDo=     1
 LinEq1:  Iter= 21 NonCon=     1 RMS=2.59D-08 Max=1.22D-06 NDo=     1
 LinEq1:  Iter= 22 NonCon=     1 RMS=1.53D-08 Max=8.32D-07 NDo=     1
 LinEq1:  Iter= 23 NonCon=     1 RMS=6.13D-09 Max=3.31D-07 NDo=     1
 LinEq1:  Iter= 24 NonCon=     1 RMS=3.33D-09 Max=1.41D-07 NDo=     1
 LinEq1:  Iter= 25 NonCon=     1 RMS=1.53D-09 Max=7.94D-08 NDo=     1
 LinEq1:  Iter= 26 NonCon=     1 RMS=7.84D-10 Max=2.76D-08 NDo=     1
 LinEq1:  Iter= 27 NonCon=     1 RMS=3.55D-10 Max=1.16D-08 NDo=     1
 LinEq1:  Iter= 28 NonCon=     1 RMS=1.46D-10 Max=7.44D-09 NDo=     1
 LinEq1:  Iter= 29 NonCon=     1 RMS=7.12D-11 Max=3.26D-09 NDo=     1
 LinEq1:  Iter= 30 NonCon=     1 RMS=3.23D-11 Max=1.46D-09 NDo=     1
 LinEq1:  Iter= 31 NonCon=     0 RMS=1.57D-11 Max=6.14D-10 NDo=     1
 Linear equations converged to 1.000D-10 1.000D-09 after    31 iterations.
 End of Minotr F.D. properties file   721 does not exist.
 End of Minotr F.D. properties file   722 does not exist.
 End of Minotr F.D. properties file   788 does not exist.

 **********************************************************************

            Population analysis using the SCF Density.

 **********************************************************************

 Alpha  occ. eigenvalues --  -14.82709 -14.82492 -14.79618 -14.79594 -10.65592
 Alpha  occ. eigenvalues --  -10.65524 -10.65323 -10.65238 -10.62055 -10.62000
 Alpha  occ. eigenvalues --  -10.61613 -10.61588 -10.60038 -10.59959 -10.59692
 Alpha  occ. eigenvalues --  -10.59602 -10.56245 -10.56137 -10.56058 -10.56039
 Alpha  occ. eigenvalues --  -10.56008 -10.55980 -10.55933 -10.55929 -10.55838
 Alpha  occ. eigenvalues --  -10.55815 -10.55790 -10.55669 -10.55668 -10.55646
 Alpha  occ. eigenvalues --  -10.55512 -10.55420 -10.55270 -10.55152 -10.54943
 Alpha  occ. eigenvalues --  -10.54865  -1.13877  -1.11597  -1.05219  -1.03472
 Alpha  occ. eigenvalues --   -1.01789  -0.96834  -0.96261  -0.95861  -0.95543
 Alpha  occ. eigenvalues --   -0.92276  -0.91747  -0.88359  -0.87646  -0.85715
 Alpha  occ. eigenvalues --   -0.85311  -0.83706  -0.82611  -0.81958  -0.81813
 Alpha  occ. eigenvalues --   -0.78805  -0.76936  -0.73322  -0.73020  -0.70024
 Alpha  occ. eigenvalues --   -0.69960  -0.69743  -0.69142  -0.66590  -0.66306
 Alpha  occ. eigenvalues --   -0.66235  -0.63683  -0.62289  -0.61377  -0.60155
 Alpha  occ. eigenvalues --   -0.59737  -0.59009  -0.58461  -0.56308  -0.55894
 Alpha  occ. eigenvalues --   -0.53866  -0.53500  -0.53130  -0.53112  -0.52694
 Alpha  occ. eigenvalues --   -0.52507  -0.51404  -0.51292  -0.50696  -0.50604
 Alpha  occ. eigenvalues --   -0.49339  -0.49232  -0.49177  -0.49118  -0.48646
 Alpha  occ. eigenvalues --   -0.48461  -0.46212  -0.46066  -0.45275  -0.44067
 Alpha  occ. eigenvalues --   -0.43742  -0.43456  -0.43250  -0.43036  -0.42647
 Alpha  occ. eigenvalues --   -0.42240  -0.42196  -0.42114  -0.40719  -0.40603
 Alpha  occ. eigenvalues --   -0.40366  -0.40137  -0.39781  -0.39436  -0.36485
 Alpha  occ. eigenvalues --   -0.34568  -0.34401  -0.34002  -0.31848  -0.30509
 Alpha  occ. eigenvalues --   -0.27380  -0.26657  -0.26404  -0.25106
 Alpha virt. eigenvalues --   -0.08051  -0.03922  -0.00506  -0.00287   0.02740
 Alpha virt. eigenvalues --    0.03542   0.04574   0.05352   0.05710   0.05970
 Alpha virt. eigenvalues --    0.07054   0.07443   0.07728   0.10885   0.11025
 Alpha virt. eigenvalues --    0.13328   0.13584   0.14129   0.14751   0.14915
 Alpha virt. eigenvalues --    0.15806   0.17287   0.17993   0.18271   0.19348
 Alpha virt. eigenvalues --    0.19530   0.19725   0.19999   0.20270   0.21068
 Alpha virt. eigenvalues --    0.21444   0.21907   0.22844   0.22956   0.23259
 Alpha virt. eigenvalues --    0.23598   0.24478   0.24595   0.24716   0.24923
 Alpha virt. eigenvalues --    0.25194   0.26492   0.27574   0.27674   0.28555
 Alpha virt. eigenvalues --    0.29008   0.29608   0.29639   0.31247   0.32039
 Alpha virt. eigenvalues --    0.32629   0.33284   0.33901   0.34162   0.36038
 Alpha virt. eigenvalues --    0.36435   0.36902   0.37332   0.38341   0.39146
 Alpha virt. eigenvalues --    0.40014   0.40307   0.40753   0.41160   0.42438
 Alpha virt. eigenvalues --    0.42825   0.44007   0.45901   0.46348   0.47191
 Alpha virt. eigenvalues --    0.48669   0.48716   0.49280   0.51555   0.51669
 Alpha virt. eigenvalues --    0.52069   0.53070   0.53508   0.54141   0.54891
 Alpha virt. eigenvalues --    0.55004   0.56062   0.56271   0.56649   0.57162
 Alpha virt. eigenvalues --    0.57900   0.58500   0.58567   0.58802   0.59354
 Alpha virt. eigenvalues --    0.59492   0.60047   0.60370   0.60744   0.60880
 Alpha virt. eigenvalues --    0.61507   0.62014   0.62243   0.62457   0.62563
 Alpha virt. eigenvalues --    0.63493   0.64125   0.64232   0.64581   0.64741
 Alpha virt. eigenvalues --    0.64782   0.65204   0.65246   0.65347   0.66049
 Alpha virt. eigenvalues --    0.66346   0.66952   0.67127   0.67393   0.67726
 Alpha virt. eigenvalues --    0.68118   0.68292   0.68688   0.68964   0.69495
 Alpha virt. eigenvalues --    0.69546   0.69697   0.70099   0.70127   0.72169
 Alpha virt. eigenvalues --    0.72241   0.73393   0.74188   0.74802   0.75607
 Alpha virt. eigenvalues --    0.76152   0.76634   0.78080   0.78658   0.79052
 Alpha virt. eigenvalues --    0.82069   0.82424   0.82968   0.83475   0.83545
 Alpha virt. eigenvalues --    0.84679   0.85370   0.85752   0.86348   0.86567
 Alpha virt. eigenvalues --    0.86864   0.87704   0.87844   0.88342   0.89006
 Alpha virt. eigenvalues --    0.89348   0.89630   0.89691   0.90201   0.90270
 Alpha virt. eigenvalues --    0.90791   0.91001   0.91219   0.91726   0.91906
 Alpha virt. eigenvalues --    0.92371   0.92414   0.92640   0.93660   0.93931
 Alpha virt. eigenvalues --    0.94477   0.94695   0.95665   0.96083   0.96477
 Alpha virt. eigenvalues --    0.97298   0.97603   0.98834   0.99847   1.00371
 Alpha virt. eigenvalues --    1.00931   1.01322   1.01477   1.02486   1.03170
 Alpha virt. eigenvalues --    1.03471   1.04018   1.04718   1.05116   1.05726
 Alpha virt. eigenvalues --    1.06584   1.07171   1.08017   1.09494   1.10067
 Alpha virt. eigenvalues --    1.10291   1.13080   1.14098   1.14450   1.15059
 Alpha virt. eigenvalues --    1.16846   1.17761   1.18640   1.19206   1.19576
 Alpha virt. eigenvalues --    1.20725   1.21112   1.21727   1.21882   1.22578
 Alpha virt. eigenvalues --    1.23979   1.24371   1.25396   1.25729   1.25942
 Alpha virt. eigenvalues --    1.28731   1.30006   1.30647   1.30725   1.31694
 Alpha virt. eigenvalues --    1.32785   1.32955   1.33979   1.34445   1.35566
 Alpha virt. eigenvalues --    1.36241   1.37217   1.37860   1.38694   1.39468
 Alpha virt. eigenvalues --    1.40213   1.40811   1.41532   1.42565   1.43151
 Alpha virt. eigenvalues --    1.43534   1.44529   1.46440   1.46983   1.48051
 Alpha virt. eigenvalues --    1.49602   1.50011   1.50746   1.51067   1.52320
 Alpha virt. eigenvalues --    1.52492   1.52901   1.53088   1.53516   1.54019
 Alpha virt. eigenvalues --    1.54182   1.54340   1.54514   1.54717   1.55447
 Alpha virt. eigenvalues --    1.55507   1.55889   1.56988   1.58416   1.59557
 Alpha virt. eigenvalues --    1.60204   1.61718   1.63150   1.64080   1.67284
 Alpha virt. eigenvalues --    1.67615   1.69238   1.71499   1.73094   1.74030
 Alpha virt. eigenvalues --    1.74456   1.75903   1.76836   1.78266   1.78717
 Alpha virt. eigenvalues --    1.80404   1.80614   1.81229   1.81676   1.82268
 Alpha virt. eigenvalues --    1.83066   1.83866   1.84792   1.85201   1.86438
 Alpha virt. eigenvalues --    1.87106   1.87510   1.88376   1.89198   1.89811
 Alpha virt. eigenvalues --    1.91102   1.92103   1.93131   1.93795   1.94694
 Alpha virt. eigenvalues --    1.95078   1.96025   1.96804   1.97181   1.98176
 Alpha virt. eigenvalues --    1.98535   1.98694   1.99845   2.00635   2.01349
 Alpha virt. eigenvalues --    2.01888   2.02116   2.02414   2.03242   2.03400
 Alpha virt. eigenvalues --    2.03693   2.04052   2.04456   2.05681   2.06078
 Alpha virt. eigenvalues --    2.07179   2.07492   2.08655   2.09800   2.11043
 Alpha virt. eigenvalues --    2.11771   2.12603   2.13074   2.14431   2.14614
 Alpha virt. eigenvalues --    2.14932   2.15572   2.16707   2.17169   2.17461
 Alpha virt. eigenvalues --    2.18785   2.19519   2.21173   2.21814   2.22107
 Alpha virt. eigenvalues --    2.23374   2.23538   2.24489   2.24648   2.26662
 Alpha virt. eigenvalues --    2.27311   2.27658   2.28457   2.28867   2.29191
 Alpha virt. eigenvalues --    2.29400   2.30619   2.30804   2.31500   2.32190
 Alpha virt. eigenvalues --    2.33215   2.33480   2.34699   2.35915   2.36549
 Alpha virt. eigenvalues --    2.40362   2.40882   2.42731   2.43280   2.43615
 Alpha virt. eigenvalues --    2.46213   2.48033   2.50148   2.50808   2.51217
 Alpha virt. eigenvalues --    2.53892   2.54860   2.56191   2.56604   2.57336
 Alpha virt. eigenvalues --    2.59559   2.60547   2.60949   2.63117   2.65070
 Alpha virt. eigenvalues --    2.65792   2.66126   2.66267   2.67902   2.68608
 Alpha virt. eigenvalues --    2.69065   2.69822   2.70363   2.70724   2.71482
 Alpha virt. eigenvalues --    2.71963   2.72135   2.72717   2.72870   2.74760
 Alpha virt. eigenvalues --    2.75265   2.75534   2.75831   2.77756   2.79128
 Alpha virt. eigenvalues --    2.81725   2.82528   2.83712   2.85495   2.85672
 Alpha virt. eigenvalues --    2.85957   2.86492   2.87123   2.88547   2.91628
 Alpha virt. eigenvalues --    2.93645   2.94267   2.95891   2.97800   3.00159
 Alpha virt. eigenvalues --    3.00608   3.02967   3.08521   3.08721   3.21428
 Alpha virt. eigenvalues --    3.23115   3.23860   3.25802   3.30626   3.32413
 Alpha virt. eigenvalues --    3.32443   3.38634   3.38802   3.49925   3.52284
 Alpha virt. eigenvalues --    3.52922   3.99715   4.07464   4.09939   4.10578
 Alpha virt. eigenvalues --    4.10935   4.12738   4.12966   4.13890   4.15062
 Alpha virt. eigenvalues --    4.16737   4.17403   4.18863   4.20699   4.23098
 Alpha virt. eigenvalues --    4.23536   4.26706   4.27907   4.30879   4.34187
 Alpha virt. eigenvalues --    4.34958   4.37289   4.41885   4.43437   4.44796
 Alpha virt. eigenvalues --    4.47769   4.48808   4.51180   4.52409   4.53050
 Alpha virt. eigenvalues --    4.65958   4.67361   4.76888   4.78835   4.86876
 Alpha virt. eigenvalues --    4.90202   4.93006
          Condensed to atoms (all electrons):
 Mulliken charges:
               1
     1  C    0.216215
     2  C    0.233734
     3  C   -0.198578
     4  C    0.133230
     5  C    0.125507
     6  C   -0.180172
     7  H    0.234030
     8  H    0.237031
     9  C    0.234307
    10  N   -0.438806
    11  C    0.231617
    12  N   -0.439106
    13  C    0.288933
    14  C    0.277628
    15  C   -0.185414
    16  C    0.042373
    17  C   -0.167606
    18  C    0.049347
    19  C   -0.173059
    20  H    0.159131
    21  C   -0.190916
    22  C   -0.166298
    23  H    0.159216
    24  C   -0.196139
    25  C   -0.187046
    26  H    0.166607
    27  H    0.170385
    28  C   -0.182101
    29  H    0.165736
    30  H    0.166879
    31  H    0.159924
    32  H    0.159397
    33  C    0.282562
    34  C    0.284553
    35  C   -0.167006
    36  C    0.037198
    37  C   -0.185229
    38  C    0.038406
    39  C   -0.167622
    40  H    0.159308
    41  C   -0.185194
    42  C   -0.175100
    43  H    0.159934
    44  C   -0.181775
    45  C   -0.180811
    46  H    0.165733
    47  H    0.166580
    48  C   -0.185788
    49  H    0.166744
    50  H    0.170269
    51  H    0.161371
    52  H    0.161922
    53  N   -0.716121
    54  N   -0.715921
 Sum of Mulliken charges =  -0.00000
 Mulliken charges with hydrogens summed into heavy atoms:
               1
     1  C    0.216215
     2  C    0.233734
     3  C    0.035452
     4  C    0.133230
     5  C    0.125507
     6  C    0.056859
     9  C    0.234307
    10  N   -0.438806
    11  C    0.231617
    12  N   -0.439106
    13  C    0.288933
    14  C    0.277628
    15  C   -0.026284
    16  C    0.042373
    17  C   -0.008390
    18  C    0.049347
    19  C   -0.006452
    21  C   -0.020530
    22  C   -0.000562
    24  C   -0.029259
    25  C   -0.027122
    28  C   -0.022704
    33  C    0.282562
    34  C    0.284553
    35  C   -0.007698
    36  C    0.037198
    37  C   -0.025295
    38  C    0.038406
    39  C   -0.001889
    41  C   -0.018614
    42  C   -0.008356
    44  C   -0.011505
    45  C   -0.019439
    48  C   -0.023866
    53  N   -0.716121
    54  N   -0.715921
 Electronic spatial extent (au):  <R**2>=          12747.5090
 Charge=             -0.0000 electrons
 Dipole moment (field-independent basis, Debye):
    X=             -5.4981    Y=             -0.0343    Z=              0.2196  Tot=              5.5026
 Quadrupole moment (field-independent basis, Debye-Ang):
   XX=           -236.4926   YY=           -193.7291   ZZ=           -206.0827
   XY=              0.1330   XZ=              1.6161   YZ=             13.5128
 Traceless Quadrupole moment (field-independent basis, Debye-Ang):
   XX=            -24.3911   YY=             18.3723   ZZ=              6.0188
   XY=              0.1330   XZ=              1.6161   YZ=             13.5128
 Octapole moment (field-independent basis, Debye-Ang**2):
  XXX=           -449.5760  YYY=             -0.3317  ZZZ=              4.7577  XYY=            -44.6268
  XXY=              2.5523  XXZ=              7.4837  XZZ=            -34.9386  YZZ=              0.0353
  YYZ=             -0.6166  XYZ=             17.7480
 Hexadecapole moment (field-independent basis, Debye-Ang**3):
 XXXX=         -11196.9549 YYYY=          -5740.4851 ZZZZ=          -3080.3197 XXXY=             40.7015
 XXXZ=             80.0302 YYYX=             10.5294 YYYZ=            158.0969 ZZZX=             55.0212
 ZZZY=             -7.6724 XXYY=          -2471.0950 XXZZ=          -2098.3676 YYZZ=          -1469.7331
 XXYZ=            152.2028 YYXZ=             22.4861 ZZXY=             -4.9127
 N-N= 3.658203266135D+03 E-N=-1.067173911265D+04  KE= 1.436121681390D+03
 Calling FoFJK, ICntrl=  10005127 FMM=F ISym2X=0 I1Cent= 0 IOpClX= 0 NMat=1 NMatS=1 NMatT=0.
 -------------------------------------------------------------------
 Center     Atomic                   Forces (Hartrees/Bohr)
 Number     Number              X              Y              Z
 -------------------------------------------------------------------
      1        6          -0.001325478    0.002296360   -0.001165133
      2        6          -0.000451512   -0.002165780    0.000328441
      3        6          -0.000079319   -0.001192477    0.000117946
      4        6           0.000136560   -0.001383761    0.001879307
      5        6           0.000744682    0.001245588   -0.001999146
      6        6          -0.000511692    0.001300047    0.000831585
      7        1           0.000108063   -0.000031800    0.000753810
      8        1          -0.000324593   -0.000380675   -0.000721550
      9        6          -0.000113483   -0.000449754   -0.000173108
     10        7           0.000364923    0.000460058    0.000448132
     11        6          -0.000539488    0.000148824    0.000256604
     12        7           0.000405171   -0.000374885   -0.000118707
     13        6           0.000132953    0.002649818   -0.000399883
     14        6          -0.000815170   -0.001449396    0.000780485
     15        6          -0.000910897   -0.000653810   -0.000015265
     16        6           0.000879925   -0.000958178    0.000201561
     17        6          -0.000591759    0.000354182   -0.000825680
     18        6           0.000717226    0.000162963    0.000668918
     19        6          -0.000342981   -0.000293800    0.000204001
     20        1           0.000126931   -0.000010255   -0.000044686
     21        6           0.000240043    0.000717567    0.001269100
     22        6           0.000771375    0.000036820   -0.000049370
     23        1           0.000142127   -0.000081199   -0.000237603
     24        6          -0.000436308   -0.000892019   -0.000977186
     25        6          -0.000823706   -0.000384552   -0.000386834
     26        1          -0.000028169   -0.000129107   -0.000144135
     27        1           0.000122330    0.000164572   -0.000238942
     28        6          -0.000546593    0.000871012    0.000720058
     29        1           0.000342531   -0.000033867   -0.000148136
     30        1          -0.000020189   -0.000204996    0.000313466
     31        1          -0.000033712    0.000106370   -0.000175153
     32        1          -0.000300111   -0.000480449    0.000392283
     33        6          -0.000904952    0.000693246   -0.000631317
     34        6          -0.000168162   -0.002186539    0.000064283
     35        6           0.000028939   -0.000065232    0.000555472
     36        6          -0.000194588    0.000268099    0.000066836
     37        6          -0.000234768    0.000670594    0.000111021
     38        6           0.000440213   -0.000037549   -0.000183713
     39        6           0.000162544   -0.000052382    0.000336724
     40        1           0.000272536   -0.000105890    0.000314922
     41        6           0.000017473   -0.000527294    0.000026784
     42        6          -0.000483920    0.000076526   -0.000285161
     43        1           0.000209045   -0.000124545   -0.000247312
     44        6           0.000336321    0.000087030   -0.000312192
     45        6           0.000496976    0.000291801    0.000066478
     46        1           0.000131795    0.000244827   -0.000017084
     47        1          -0.000166454    0.000492027   -0.000243985
     48        6           0.000327772    0.000563633    0.000265488
     49        1           0.000055156    0.000112959   -0.000109587
     50        1           0.000075673    0.000103921    0.000422860
     51        1          -0.000044805    0.000571144   -0.000544674
     52        1           0.000068927   -0.000110128    0.000058204
     53        7           0.001637162   -0.001440986   -0.000353411
     54        7           0.000897438    0.001511317   -0.000705816
 -------------------------------------------------------------------
 Cartesian Forces:  Max     0.002649818 RMS     0.000683492

 GradGradGradGradGradGradGradGradGradGradGradGradGradGradGradGradGradGrad
 Berny optimization.
 Search for a local minimum.
 Step number   1 out of a maximum of    2
 All quantities printed in internal units (Hartrees-Bohrs-Radians)
 Second derivative matrix not updated -- first step.
 ITU=  0
     Eigenvalues ---    0.00008   0.00009   0.00022   0.00076   0.00078
     Eigenvalues ---    0.00113   0.00182   0.00266   0.00292   0.00302
     Eigenvalues ---    0.00322   0.00447   0.00716   0.00850   0.00937
     Eigenvalues ---    0.01028   0.01224   0.01234   0.01241   0.01262
     Eigenvalues ---    0.01673   0.02384   0.02425   0.02543   0.02599
     Eigenvalues ---    0.02605   0.02622   0.02718   0.02973   0.03426
     Eigenvalues ---    0.03443   0.03632   0.04609   0.04650   0.04704
     Eigenvalues ---    0.04979   0.06590   0.06743   0.06995   0.07008
     Eigenvalues ---    0.07025   0.07027   0.07053   0.07065   0.07103
     Eigenvalues ---    0.07114   0.07448   0.07895   0.07911   0.07940
     Eigenvalues ---    0.08612   0.08975   0.09470   0.10177   0.10556
     Eigenvalues ---    0.10676   0.10761   0.10781   0.11150   0.12473
     Eigenvalues ---    0.12510   0.12519   0.12625   0.12842   0.13576
     Eigenvalues ---    0.13718   0.13870   0.15062   0.15136   0.15326
     Eigenvalues ---    0.17525   0.18512   0.19542   0.19582   0.21249
     Eigenvalues ---    0.21827   0.23159   0.24640   0.26510   0.27634
     Eigenvalues ---    0.28039   0.28358   0.29672   0.30148   0.30747
     Eigenvalues ---    0.30978   0.31625   0.32965   0.35680   0.35787
     Eigenvalues ---    0.35809   0.36726   0.38049   0.40862   0.42802
     Eigenvalues ---    0.43016   0.43142   0.43356   0.46066   0.47535
     Eigenvalues ---    0.48257   0.49786   0.50207   0.50590   0.50804
     Eigenvalues ---    0.52465   0.53198   0.59331   0.60330   0.62234
     Eigenvalues ---    0.64134   0.71404   0.71435   0.74400   0.77977
     Eigenvalues ---    0.81885   0.82420   0.89706   0.90598   0.94844
     Eigenvalues ---    1.02946   1.06716   1.11006   1.12956   1.14175
     Eigenvalues ---    1.15154   1.15232   1.15407   1.19193   1.20131
     Eigenvalues ---    1.26171   1.29675   1.30757   1.39546   1.40070
     Eigenvalues ---    1.41175   1.43325   1.48703   1.49009   1.49687
     Eigenvalues ---    1.49948   1.50019   1.54562   1.58673   1.64373
     Eigenvalues ---    1.65083   1.66818   1.69664   1.71215   1.74248
     Eigenvalues ---    1.76246   1.76439   2.80523   2.81035  38.07319
     Eigenvalues ---  116.28764
 Eigenvalue     1 is   7.86D-05 Eigenvector:
                          Z51       Z32       Z46       Z45       X49
   1                    0.20644  -0.18450   0.17983   0.16694  -0.16594
                          X46       X29       X26       X52       Z39
   1                    0.16471   0.16258  -0.16089  -0.15831   0.15165
 Eigenvalue     2 is   9.12D-05 Eigenvector:
                          Z26       Z31       Z52       Z29       Z49
   1                    0.21865   0.21578   0.21544  -0.21521   0.20993
                          Z46       Z19       Z48       Z25       Z42
   1                   -0.18508   0.16915   0.16863   0.16772   0.16528
 Quadratic step=3.998D+00 exceeds max=3.000D-01 adjusted using Lamda=-2.997D-03.
 Angle between NR and scaled steps=  36.68 degrees.
 Angle between quadratic step and forces=  77.63 degrees.
 Linear search not attempted -- first point.
 B after Tr=     0.000567   -0.000264    0.000618
         Rot=    1.000000   -0.000073    0.000160    0.000005 Ang=  -0.02 deg.
 Variable       Old X    -DE/DX   Delta X   Delta X   Delta X     New X
                                 (Linear)    (Quad)   (Total)
    X1        2.65511  -0.00133   0.00000   0.00692   0.00779   2.66290
    Y1        0.92211   0.00230   0.00000   0.00559   0.00543   0.92754
    Z1       -0.91806  -0.00117   0.00000  -0.00665  -0.00504  -0.92310
    X2        2.68866  -0.00045   0.00000   0.00547   0.00569   2.69435
    Y2       -0.93624  -0.00217   0.00000  -0.00790  -0.00835  -0.94459
    Z2        1.07198   0.00033   0.00000  -0.01333  -0.01199   1.05999
    X3        4.97739  -0.00008   0.00000   0.00060   0.00053   4.97792
    Y3       -1.82541  -0.00119   0.00000  -0.01531  -0.01591  -1.84132
    Z3        1.93237   0.00012   0.00000  -0.00622  -0.00427   1.92810
    X4        7.26968   0.00014   0.00000   0.00244   0.00269   7.27237
    Y4       -0.93232  -0.00138   0.00000  -0.00981  -0.01029  -0.94261
    Z4        0.94577   0.00188   0.00000   0.00247   0.00529   0.95105
    X5        7.21057   0.00074   0.00000   0.00807   0.00899   7.21956
    Y5        0.92531   0.00125   0.00000   0.00569   0.00551   0.93082
    Z5       -1.08517  -0.00200   0.00000   0.00569   0.00875  -1.07642
    X6        4.88259  -0.00051   0.00000   0.00851   0.00972   4.89231
    Y6        1.81880   0.00130   0.00000   0.01232   0.01229   1.83109
    Z6       -1.93765   0.00083   0.00000   0.00284   0.00530  -1.93235
    X7        5.00963   0.00011   0.00000  -0.00347  -0.00402   5.00561
    Y7       -3.28494  -0.00003   0.00000  -0.01152  -0.01233  -3.29728
    Z7        3.37469   0.00075   0.00000  -0.00016   0.00158   3.37627
    X8        4.83510  -0.00032   0.00000   0.00731   0.00900   4.84410
    Y8        3.26378  -0.00038   0.00000   0.00632   0.00650   3.27028
    Z8       -3.39480  -0.00072   0.00000  -0.00400  -0.00135  -3.39615
    X9        9.44761  -0.00011   0.00000   0.01450   0.01580   9.46341
    Y9        1.82916  -0.00045   0.00000   0.01751   0.01747   1.84663
    Z9       -2.25372  -0.00017   0.00000   0.02685   0.03078  -2.22295
   X10       11.24305   0.00036   0.00000   0.02323   0.02486  11.26791
   Y10        2.59112   0.00046   0.00000   0.02598   0.02606   2.61718
   Z10       -3.26561   0.00045   0.00000   0.04833   0.05294  -3.21266
   X11        9.58047  -0.00054   0.00000  -0.00072  -0.00080   9.57967
   Y11       -1.85194   0.00015   0.00000  -0.01886  -0.01951  -1.87145
   Z11        1.93557   0.00026   0.00000   0.00126   0.00468   1.94025
   X12       11.45793   0.00041   0.00000  -0.00153  -0.00188  11.45605
   Y12       -2.62555  -0.00037   0.00000  -0.02520  -0.02599  -2.65154
   Z12        2.77773  -0.00012   0.00000  -0.00193   0.00198   2.77971
   X13       -0.61946   0.00013   0.00000  -0.00303  -0.00225  -0.62171
   Y13        4.24982   0.00265   0.00000  -0.00557  -0.00575   4.24407
   Z13       -0.52247  -0.00040   0.00000  -0.00327  -0.00223  -0.52470
   X14       -1.65077  -0.00082   0.00000   0.00342   0.00493  -1.64584
   Y14        0.90798  -0.00145   0.00000  -0.01489  -0.01471   0.89327
   Z14       -2.91470   0.00078   0.00000   0.00066   0.00088  -2.91382
   X15        0.69750  -0.00091   0.00000  -0.01339  -0.01308   0.68442
   Y15        5.98362  -0.00065   0.00000  -0.00490  -0.00532   5.97830
   Z15        0.99005  -0.00002   0.00000   0.00158   0.00329   0.99334
   X16       -3.18454   0.00088   0.00000  -0.00846  -0.00745  -3.19199
   Y16        4.60790  -0.00096   0.00000  -0.02392  -0.02397   4.58393
   Z16       -1.23649   0.00020   0.00000   0.01354   0.01380  -1.22269
   X17       -1.57017  -0.00059   0.00000   0.01305   0.01497  -1.55521
   Y17       -1.36499   0.00035   0.00000  -0.00031   0.00007  -1.36493
   Z17       -4.24058  -0.00083   0.00000  -0.02361  -0.02370  -4.26427
   X18       -3.84978   0.00072   0.00000  -0.00580  -0.00432  -3.85410
   Y18        2.42414   0.00016   0.00000  -0.03029  -0.03011   2.39403
   Z18       -2.78283   0.00067   0.00000   0.02149   0.02122  -2.76160
   X19       -0.62140  -0.00034   0.00000  -0.02309  -0.02302  -0.64442
   Y19        8.10379  -0.00029   0.00000  -0.01331  -0.01383   8.08996
   Z19        1.79387   0.00020   0.00000   0.00808   0.00968   1.80355
   X20        2.65868   0.00013   0.00000  -0.01031  -0.01016   2.64851
   Y20        5.65673  -0.00001   0.00000   0.00459   0.00408   5.66081
   Z20        1.48695  -0.00004   0.00000  -0.00264  -0.00034   1.48661
   X21       -4.45505   0.00024   0.00000  -0.01681  -0.01604  -4.47110
   Y21        6.73398   0.00072   0.00000  -0.02775  -0.02791   6.70606
   Z21       -0.40483   0.00127   0.00000   0.01554   0.01570  -0.38912
   X22       -3.79213   0.00077   0.00000   0.00902   0.01132  -3.78082
   Y22       -2.12637   0.00004   0.00000  -0.01407  -0.01349  -2.13986
   Z22       -5.45322  -0.00005   0.00000  -0.00499  -0.00590  -5.45911
   X23        0.15821   0.00014   0.00000   0.02335   0.02530   0.18351
   Y23       -2.45622  -0.00008   0.00000   0.01829   0.01867  -2.43755
   Z23       -4.35018  -0.00024   0.00000  -0.05364  -0.05332  -4.40350
   X24       -6.01132  -0.00044   0.00000  -0.01380  -0.01194  -6.02326
   Y24        1.65450  -0.00089   0.00000  -0.04697  -0.04658   1.60792
   Z24       -4.02874  -0.00098   0.00000   0.04238   0.04130  -3.98744
   X25       -3.15458  -0.00082   0.00000  -0.02419  -0.02389  -3.17847
   Y25        8.47227  -0.00038   0.00000  -0.02023  -0.02063   8.45164
   Z25        1.11491  -0.00039   0.00000   0.00911   0.00995   1.12486
   X26        0.32146  -0.00003   0.00000  -0.02577  -0.02605   0.29541
   Y26        9.49745  -0.00013   0.00000  -0.01047  -0.01118   9.48627
   Z26        2.96467  -0.00014   0.00000   0.00618   0.00828   2.97295
   X27       -6.42185   0.00012   0.00000  -0.01649  -0.01556  -6.43741
   Y27        7.05298   0.00016   0.00000  -0.03216  -0.03222   7.02076
   Z27       -0.89254  -0.00024   0.00000   0.01206   0.01164  -0.88090
   X28       -5.96200  -0.00055   0.00000  -0.01013  -0.00786  -5.96986
   Y28       -0.64112   0.00087   0.00000  -0.04254  -0.04196  -0.68308
   Z28       -5.36806   0.00072   0.00000   0.03825   0.03686  -5.33120
   X29       -3.81193   0.00034   0.00000   0.02077   0.02338  -3.78854
   Y29       -3.89593  -0.00003   0.00000  -0.00559  -0.00486  -3.90078
   Z29       -6.48673  -0.00015   0.00000  -0.02004  -0.02121  -6.50794
   X30       -7.71862  -0.00002   0.00000  -0.02385  -0.02200  -7.74062
   Y30        2.79172  -0.00020   0.00000  -0.06324  -0.06284   2.72888
   Z30       -3.98752   0.00031   0.00000   0.06801   0.06655  -3.92097
   X31       -4.13514  -0.00003   0.00000  -0.02757  -0.02747  -4.16261
   Y31       10.14466   0.00011   0.00000  -0.01913  -0.01961  10.12505
   Z31        1.78285  -0.00018   0.00000   0.00185   0.00262   1.78547
   X32       -7.64509  -0.00030   0.00000  -0.02054  -0.01797  -7.66306
   Y32       -1.24993  -0.00048   0.00000  -0.06275  -0.06201  -1.31194
   Z32       -6.36657   0.00039   0.00000   0.06703   0.06499  -6.30157
   X33       -1.64421  -0.00090   0.00000   0.00969   0.00927  -1.63494
   Y33       -0.92750   0.00069   0.00000   0.01318   0.01249  -0.91501
   Z33        3.04286  -0.00063   0.00000  -0.00985  -0.00989   3.03297
   X34       -0.57084  -0.00017   0.00000  -0.00359  -0.00328  -0.57412
   Y34       -4.27153  -0.00219   0.00000   0.00609   0.00573  -4.26580
   Z34        0.66215   0.00006   0.00000  -0.01258  -0.01277   0.64937
   X35       -1.61985   0.00003   0.00000   0.02973   0.02888  -1.59097
   Y35        1.31256  -0.00007   0.00000   0.00054  -0.00035   1.31221
   Z35        4.42430   0.00056   0.00000   0.01138   0.01168   4.43598
   X36       -3.85685  -0.00019   0.00000   0.00147   0.00113  -3.85572
   Y36       -2.39676   0.00027   0.00000   0.02752   0.02689  -2.36987
   Z36        2.77559   0.00007   0.00000  -0.01735  -0.01831   2.75728
   X37        0.74085  -0.00023   0.00000  -0.01079  -0.01002   0.73083
   Y37       -6.02990   0.00067   0.00000   0.01000   0.00986  -6.02004
   Z37       -0.82243   0.00011   0.00000  -0.02169  -0.02172  -0.84416
   X38       -3.17379   0.00044   0.00000  -0.00288  -0.00275  -3.17654
   Y38       -4.55809  -0.00004   0.00000   0.01753   0.01712  -4.54097
   Z38        1.23373  -0.00018   0.00000  -0.00859  -0.00966   1.22407
   X39       -3.88126   0.00016   0.00000   0.03124   0.03005  -3.85121
   Y39        2.07142  -0.00005   0.00000   0.02225   0.02122   2.09263
   Z39        5.54278   0.00034   0.00000  -0.00188  -0.00219   5.54059
   X40        0.11223   0.00027   0.00000   0.04237   0.04146   0.15369
   Y40        2.38401  -0.00011   0.00000  -0.02399  -0.02494   2.35907
   Z40        4.65436   0.00031   0.00000   0.03366   0.03467   4.68904
   X41       -6.08169   0.00002   0.00000   0.00129   0.00059  -6.08110
   Y41       -1.62212  -0.00053   0.00000   0.04964   0.04887  -1.57325
   Z41        3.94597   0.00003   0.00000  -0.03168  -0.03324   3.91273
   X42       -0.61040  -0.00048   0.00000  -0.01756  -0.01651  -0.62692
   Y42       -8.08121   0.00008   0.00000   0.01461   0.01461  -8.06660
   Z42       -1.73255  -0.00029   0.00000  -0.02032  -0.02108  -1.75364
   X43        2.73776   0.00021   0.00000  -0.01161  -0.01071   2.72705
   Y43       -5.77791  -0.00012   0.00000   0.00710   0.00699  -5.77092
   Z43       -1.21411  -0.00025   0.00000  -0.03144  -0.03079  -1.24490
   X44       -4.48658   0.00034   0.00000  -0.00594  -0.00554  -4.49212
   Y44       -6.63294   0.00009   0.00000   0.01595   0.01569  -6.61725
   Z44        0.28625  -0.00031   0.00000   0.00210   0.00031   0.28656
   X45       -6.08135   0.00050   0.00000   0.01529   0.01417  -6.06718
   Y45        0.62121   0.00029   0.00000   0.05168   0.05071   0.67192
   Z45        5.32586   0.00007   0.00000  -0.03276  -0.03399   5.29187
   X46       -3.91891   0.00013   0.00000   0.04242   0.04090  -3.87801
   Y46        3.80772   0.00024   0.00000   0.01972   0.01852   3.82624
   Z46        6.63351  -0.00002   0.00000   0.00330   0.00323   6.63674
   X47       -7.78358  -0.00017   0.00000  -0.01299  -0.01366  -7.79724
   Y47       -2.76141   0.00049   0.00000   0.07334   0.07261  -2.68879
   Z47        3.80278  -0.00024   0.00000  -0.04894  -0.05122   3.75156
   X48       -3.19530   0.00033   0.00000  -0.01294  -0.01208  -3.20738
   Y48       -8.38145   0.00056   0.00000   0.01462   0.01456  -8.36689
   Z48       -1.19561   0.00027   0.00000  -0.00206  -0.00370  -1.19931
   X49        0.34842   0.00006   0.00000  -0.02383  -0.02244   0.32598
   Y49       -9.48992   0.00011   0.00000   0.01673   0.01689  -9.47303
   Z49       -2.87347  -0.00011   0.00000  -0.02835  -0.02902  -2.90249
   X50       -6.48561   0.00008   0.00000  -0.00263  -0.00236  -6.48798
   Y50       -6.88082   0.00010   0.00000   0.01565   0.01535  -6.86547
   Z50        0.67878   0.00042   0.00000   0.01852   0.01605   0.69483
   X51       -7.79578  -0.00004   0.00000   0.01000   0.00859  -7.78719
   Y51        1.22888   0.00057   0.00000   0.07963   0.07854   1.30741
   Z51        6.27223  -0.00054   0.00000  -0.06034  -0.06203   6.21021
   X52       -4.19450   0.00007   0.00000  -0.01487  -0.01379  -4.20829
   Y52      -10.00862  -0.00011   0.00000   0.01112   0.01119  -9.99743
   Z52       -1.94349   0.00006   0.00000   0.00776   0.00557  -1.93792
   X53        0.26212   0.00164   0.00000   0.00508   0.00616   0.26828
   Y53        2.03387  -0.00144   0.00000  -0.00407  -0.00412   2.02975
   Z53       -1.52910  -0.00035   0.00000  -0.00703  -0.00603  -1.53513
   X54        0.33173   0.00090   0.00000   0.00274   0.00273   0.33446
   Y54       -2.08278   0.00151   0.00000   0.00539   0.00487  -2.07792
   Z54        1.74900  -0.00071   0.00000  -0.01499  -0.01457   1.73443
         Item               Value     Threshold  Converged?
 Maximum Force            0.002650     0.000450     NO 
 RMS     Force            0.000683     0.000300     NO 
 Maximum Displacement     0.078536     0.001800     NO 
 RMS     Displacement     0.023538     0.001200     NO 
 Predicted change in Energy=-4.137242D-04
 GradGradGradGradGradGradGradGradGradGradGradGradGradGradGradGradGradGrad

 Unable to Open any file for archive entry.
 1\1\GINC-X10P1N1\Force\RM062X TD-FC\6-31G(d)\C32H18N4\MAYUMIAO\13-Jul-
 2024\0\\# 6-31g(d) m062x g09default scf=(xqc,maxcycle=64) force guess=
 read td nosymm\\Title Card\\0,1\C,1.40502203,0.48796079,-0.48581503\C,
 1.42277569,-0.49543476,0.56726699\C,2.63392022,-0.96596791,1.0225664\C
 ,3.84694903,-0.49336478,0.50047777\C,3.81566669,0.4896539,-0.57424755\
 C,2.58375732,0.96246967,-1.02535822\H,2.65098365,-1.73831732,1.7858097
 2\H,2.55862489,1.72712033,-1.7964526\C,4.99946245,0.96795041,-1.192618
 52\N,5.9495667,1.37116157,-1.72808375\C,5.06976671,-0.98000584,1.02426
 046\N,6.06327695,-1.38938059,1.46991232\C,-0.32780454,2.24891034,-0.27
 647658\C,-0.87354963,0.48048257,-1.54239202\C,0.36910198,3.16639432,0.
 52391176\C,-1.68518701,2.4383948,-0.65432154\C,-0.83090039,-0.72232252
 ,-2.24401779\C,-2.03721607,1.28279792,-1.47260828\C,-0.32883316,4.2883
 4021,0.94927758\H,1.40691112,2.99341229,0.78685811\C,-2.35751235,3.563
 46658,-0.21422554\C,-2.00670922,-1.12522846,-2.88571857\H,0.08372292,-
 1.29977512,-2.30201844\C,-3.18105346,0.87552496,-2.13191531\C,-1.66933
 264,4.48333021,0.58998476\H,0.17011095,5.02583232,1.56883516\H,-3.3982
 9565,3.7322761,-0.4723122\C,-3.15495451,-0.33926499,-2.84065324\H,-2.0
 171844,-2.06163527,-3.43262739\H,-4.08451874,1.47731534,-2.11010584\H,
 -2.18822317,5.36832301,0.94344237\H,-4.0456077,-0.66143691,-3.36904169
 \C,-0.8700779,-0.49081064,1.61021067\C,-0.3020741,-2.26039781,0.350392
 53\C,-0.85718785,0.69457661,2.34123655\C,-2.04095483,-1.26831063,1.468
 78029\C,0.39203988,-3.19088332,-0.4352135\C,-1.67949551,-2.41203479,0.
 65286212\C,-2.05387487,1.09614637,2.93311136\H,0.05939133,1.26156586,2
 .46298329\C,-3.21828981,-0.85838652,2.08811527\C,-0.32301166,-4.276394
 3,-0.91682814\H,1.44875822,-3.05753741,-0.64247694\C,-2.37419767,-3.50
 999911,0.15147846\C,-3.21811011,0.32873202,2.81832584\H,-2.07379617,2.
 01495633,3.51030167\H,-4.11889186,-1.46127348,2.01234199\C,-1.6908803,
 -4.43527171,-0.63268872\H,0.18437532,-5.02184849,-1.52057284\H,-3.4320
 3962,-3.6411755,0.35919529\H,-4.12534917,0.65029295,3.31912378\H,-2.21
 963344,-5.2963322,-1.02844874\N,0.13870834,1.07627728,-0.80916398\N,0.
 17554414,-1.10216178,0.92553259\\Version=ES64L-G16RevC.01\HF=-1448.688
 5286\RMSD=7.923e-09\RMSF=6.835e-04\Dipole=-7.3142224,0.800856,-0.40020
 98\PG=C01 [X(C32H18N4)]\\@
 The archive entry for this job was punched.


 There ain't no surer way to find out whether you
 like people or hate them than to travel with them.
                                     -- Mark Twain
 Job cpu time:       0 days  4 hours 21 minutes 37.6 seconds.
 Elapsed time:       0 days  0 hours  9 minutes 25.6 seconds.
 File lengths (MBytes):  RWF=   1633 Int=      0 D2E=      0 Chk=     65 Scr=      1
 Normal termination of Gaussian 16 at Sat Jul 13 23:31:32 2024.
