 Entering Gaussian System, Link 0=g16
 Input=JOBS/14_B.gjf
 Output=JOBS/14_B.log
 Initial command:
 /data/app/gaussian/C01-avx2//g16/l1.exe "/tmp/Gau-1312240.inp" -scrdir="/tmp/"
 Entering Link 1 = /data/app/gaussian/C01-avx2//g16/l1.exe PID=   1312241.
  
 Copyright (c) 1988-2019, Gaussian, Inc.  All Rights Reserved.
  
 This is part of the Gaussian(R) 16 program.  It is based on
 the Gaussian(R) 09 system (copyright 2009, Gaussian, Inc.),
 the Gaussian(R) 03 system (copyright 2003, Gaussian, Inc.),
 the Gaussian(R) 98 system (copyright 1998, Gaussian, Inc.),
 the Gaussian(R) 94 system (copyright 1995, Gaussian, Inc.),
 the Gaussian 92(TM) system (copyright 1992, Gaussian, Inc.),
 the Gaussian 90(TM) system (copyright 1990, Gaussian, Inc.),
 the Gaussian 88(TM) system (copyright 1988, Gaussian, Inc.),
 the Gaussian 86(TM) system (copyright 1986, Carnegie Mellon
 University), and the Gaussian 82(TM) system (copyright 1983,
 Carnegie Mellon University). Gaussian is a federally registered
 trademark of Gaussian, Inc.
  
 This software contains proprietary and confidential information,
 including trade secrets, belonging to Gaussian, Inc.
  
 This software is provided under written license and may be
 used, copied, transmitted, or stored only in accord with that
 written license.
  
 The following legend is applicable only to US Government
 contracts under FAR:
  
                    RESTRICTED RIGHTS LEGEND
  
 Use, reproduction and disclosure by the US Government is
 subject to restrictions as set forth in subparagraphs (a)
 and (c) of the Commercial Computer Software - Restricted
 Rights clause in FAR 52.227-19.
  
 Gaussian, Inc.
 340 Quinnipiac St., Bldg. 40, Wallingford CT 06492
  
  
 ---------------------------------------------------------------
 Warning -- This program may not be used in any manner that
 competes with the business of Gaussian, Inc. or will provide
 assistance to any competitor of Gaussian, Inc.  The licensee
 of this program is prohibited from giving any competitor of
 Gaussian, Inc. access to this program.  By using this program,
 the user acknowledges that Gaussian, Inc. is engaged in the
 business of creating and licensing software in the field of
 computational chemistry and represents and warrants to the
 licensee that it is not a competitor of Gaussian, Inc. and that
 it will not use this program in any manner prohibited above.
 ---------------------------------------------------------------
  

 Cite this work as:
 Gaussian 16, Revision C.01,
 M. J. Frisch, G. W. Trucks, H. B. Schlegel, G. E. Scuseria, 
 M. A. Robb, J. R. Cheeseman, G. Scalmani, V. Barone, 
 G. A. Petersson, H. Nakatsuji, X. Li, M. Caricato, A. V. Marenich, 
 J. Bloino, B. G. Janesko, R. Gomperts, B. Mennucci, H. P. Hratchian, 
 J. V. Ortiz, A. F. Izmaylov, J. L. Sonnenberg, D. Williams-Young, 
 F. Ding, F. Lipparini, F. Egidi, J. Goings, B. Peng, A. Petrone, 
 T. Henderson, D. Ranasinghe, V. G. Zakrzewski, J. Gao, N. Rega, 
 G. Zheng, W. Liang, M. Hada, M. Ehara, K. Toyota, R. Fukuda, 
 J. Hasegawa, M. Ishida, T. Nakajima, Y. Honda, O. Kitao, H. Nakai, 
 T. Vreven, K. Throssell, J. A. Montgomery, Jr., J. E. Peralta, 
 F. Ogliaro, M. J. Bearpark, J. J. Heyd, E. N. Brothers, K. N. Kudin, 
 V. N. Staroverov, T. A. Keith, R. Kobayashi, J. Normand, 
 K. Raghavachari, A. P. Rendell, J. C. Burant, S. S. Iyengar, 
 J. Tomasi, M. Cossi, J. M. Millam, M. Klene, C. Adamo, R. Cammi, 
 J. W. Ochterski, R. L. Martin, K. Morokuma, O. Farkas, 
 J. B. Foresman, and D. J. Fox, Gaussian, Inc., Wallingford CT, 2019.
 
 ******************************************
 Gaussian 16:  ES64L-G16RevC.01  3-Jul-2019
                13-Jul-2024 
 ******************************************
 %chk=b.chk
 %nprocshared=28
 Will use up to   28 processors via shared memory.
 %mem=48gb
 ----------------------------------------------------------------------
 # 6-31g(d) m062x g09default scf=(xqc,maxcycle=64) force guess=read nos
 ymm
 ----------------------------------------------------------------------
 1/10=7,30=1,38=1,158=3,167=1/1,3;
 2/12=2,15=1,17=6,18=5,40=1/2;
 3/5=1,6=6,7=1,11=2,25=1,27=10,30=1,71=1,74=-55,75=-4,116=-2,158=3/1,2,3;
 4/5=1,60=-1/1;
 5/5=2,7=64,8=3,13=1,38=6,87=10/2,8;
 6/7=2,8=2,9=2,10=2,28=1,87=10/1;
 7/29=1,30=1,87=10/1,2,3,16;
 1/10=7,30=1,158=3,167=1/3;
 99//99;
 Using 2006 physical constants.
 ----------
 Title Card
 ----------
 Symbolic Z-matrix:
 Charge =  0 Multiplicity = 3
 6                     1.40488   0.48876  -0.48586 
 6                     1.42287  -0.49597   0.56669 
 6                     2.63385  -0.96663   1.02265 
 6                     3.84681  -0.49345   0.50104 
 6                     3.8162    0.48945  -0.57497 
 6                     2.58325   0.96354  -1.02489 
 1                     2.65139  -1.73838   1.78672 
 1                     2.55817   1.727    -1.79711 
 6                     4.99975   0.96764  -1.1932 
 7                     5.94998   1.37178  -1.72804 
 6                     5.06982  -0.9802    1.02491 
 7                     6.06368  -1.38957   1.46979 
 6                    -0.32761   2.24891  -0.27652 
 6                    -0.87375   0.4796   -1.54147 
 6                     0.36864   3.16591   0.52486 
 6                    -1.68536   2.43758  -0.6532 
 6                    -0.83113  -0.72228  -2.24475 
 6                    -2.03681   1.28271  -1.47204 
 6                    -0.32915   4.28782   0.94988 
 1                     1.40723   2.99399   0.78584 
 6                    -2.35739   3.56319  -0.21326 
 6                    -2.00667  -1.12524  -2.88589 
 1                     0.08346  -1.30018  -2.30191 
 6                    -3.18099   0.87549  -2.13267 
 6                    -1.66973   4.48318   0.59005 
 1                     0.17024   5.0254    1.56867 
 1                    -3.39784   3.73297  -0.47291 
 6                    -3.15529  -0.33924  -2.84039 
 1                    -2.01651  -2.06164  -3.4327 
 1                    -4.08404   1.47751  -2.1105 
 1                    -2.18797   5.36856   0.94294 
 1                    -4.04594  -0.66208  -3.36861 
 6                    -0.87086  -0.49022   1.6094 
 6                    -0.30206  -2.26073   0.34999 
 6                    -0.8574    0.69454   2.34173 
 6                    -2.04102  -1.26833   1.4686 
 6                     0.39195  -3.19043  -0.43583 
 6                    -1.67973  -2.4117    0.65244 
 6                    -2.05394   1.0959    2.93358 
 1                     0.0594    1.26159   2.46317 
 6                    -3.21844  -0.85905   2.08873 
 6                    -0.32332  -4.27594  -0.91715 
 1                     1.44915  -3.05835  -0.6422 
 6                    -2.37386  -3.50974   0.15113 
 6                    -3.21776   0.32867   2.81866 
 1                    -2.07392   2.01523   3.51025 
 1                    -4.11921  -1.4609    2.01246 
 6                    -1.69066  -4.4346   -0.6325 
 1                     0.18457  -5.02186  -1.52041 
 1                    -3.43192  -3.64109   0.36004 
 1                    -4.12552   0.65088   3.31852 
 1                    -2.21943  -5.29626  -1.02853 
 7                     0.13856   1.076    -0.80926 
 7                     0.1751   -1.10106   0.92423 
 

 GradGradGradGradGradGradGradGradGradGradGradGradGradGradGradGradGradGrad
 Berny optimization.
 Initialization pass.
 Trust Radius=3.00D-01 FncErr=1.00D-07 GrdErr=1.00D-07 EigMax=2.50D+02 EigMin=1.00D-04
 Number of steps in this run=      2 maximum allowed number of steps=      2.
 GradGradGradGradGradGradGradGradGradGradGradGradGradGradGradGradGradGrad

 Symmetry turned off by external request.
 Stoichiometry    C32H18N4(3)
 Framework group  C1[X(C32H18N4)]
 Deg. of freedom   156
 Full point group                 C1      NOp   1
                          Input orientation:                          
 ---------------------------------------------------------------------
 Center     Atomic      Atomic             Coordinates (Angstroms)
 Number     Number       Type             X           Y           Z
 ---------------------------------------------------------------------
      1          6           0        1.404879    0.488759   -0.485861
      2          6           0        1.422865   -0.495974    0.566688
      3          6           0        2.633852   -0.966626    1.022654
      4          6           0        3.846806   -0.493449    0.501043
      5          6           0        3.816197    0.489446   -0.574975
      6          6           0        2.583255    0.963541   -1.024893
      7          1           0        2.651386   -1.738379    1.786725
      8          1           0        2.558171    1.727004   -1.797106
      9          6           0        4.999749    0.967643   -1.193204
     10          7           0        5.949985    1.371776   -1.728042
     11          6           0        5.069824   -0.980200    1.024907
     12          7           0        6.063683   -1.389572    1.469791
     13          6           0       -0.327607    2.248913   -0.276520
     14          6           0       -0.873754    0.479600   -1.541470
     15          6           0        0.368645    3.165913    0.524856
     16          6           0       -1.685360    2.437580   -0.653199
     17          6           0       -0.831132   -0.722279   -2.244751
     18          6           0       -2.036813    1.282715   -1.472038
     19          6           0       -0.329151    4.287824    0.949877
     20          1           0        1.407226    2.993987    0.785844
     21          6           0       -2.357393    3.563185   -0.213265
     22          6           0       -2.006674   -1.125237   -2.885888
     23          1           0        0.083458   -1.300178   -2.301909
     24          6           0       -3.180994    0.875494   -2.132665
     25          6           0       -1.669730    4.483181    0.590052
     26          1           0        0.170241    5.025402    1.568674
     27          1           0       -3.397838    3.732972   -0.472906
     28          6           0       -3.155294   -0.339242   -2.840392
     29          1           0       -2.016507   -2.061639   -3.432699
     30          1           0       -4.084039    1.477510   -2.110497
     31          1           0       -2.187967    5.368564    0.942937
     32          1           0       -4.045945   -0.662079   -3.368610
     33          6           0       -0.870859   -0.490220    1.609397
     34          6           0       -0.302058   -2.260730    0.349990
     35          6           0       -0.857402    0.694543    2.341730
     36          6           0       -2.041024   -1.268335    1.468598
     37          6           0        0.391953   -3.190427   -0.435835
     38          6           0       -1.679730   -2.411704    0.652443
     39          6           0       -2.053942    1.095901    2.933577
     40          1           0        0.059399    1.261592    2.463174
     41          6           0       -3.218443   -0.859050    2.088734
     42          6           0       -0.323321   -4.275943   -0.917154
     43          1           0        1.449148   -3.058352   -0.642198
     44          6           0       -2.373858   -3.509741    0.151133
     45          6           0       -3.217763    0.328671    2.818664
     46          1           0       -2.073922    2.015230    3.510248
     47          1           0       -4.119211   -1.460902    2.012459
     48          6           0       -1.690664   -4.434599   -0.632501
     49          1           0        0.184566   -5.021860   -1.520414
     50          1           0       -3.431917   -3.641091    0.360035
     51          1           0       -4.125519    0.650883    3.318518
     52          1           0       -2.219435   -5.296257   -1.028530
     53          7           0        0.138564    1.076003   -0.809263
     54          7           0        0.175103   -1.101056    0.924230
 ---------------------------------------------------------------------
 Rotational constants (GHZ):           0.1588276           0.1164065           0.0924891
 Standard basis: 6-31G(d) (6D, 7F)
   576 basis functions,  1080 primitive gaussians,   576 cartesian basis functions
   120 alpha electrons      118 beta electrons
       nuclear repulsion energy      3658.2520139294 Hartrees.
 NAtoms=   54 NActive=   54 NUniq=   54 SFac= 1.00D+00 NAtFMM=   60 NAOKFM=F Big=F
 Integral buffers will be    131072 words long.
 Raffenetti 2 integral format.
 Two-electron integral symmetry is turned off.
 One-electron integrals computed using PRISM.
 NBasis=   576 RedAO= T EigKep=  2.59D-04  NBF=   576
 NBsUse=   576 1.00D-06 EigRej= -1.00D+00 NBFU=   576
 Initial guess from the checkpoint file:  "b.chk"
 B after Tr=    -0.000076   -0.000016    0.000032
         Rot=    1.000000   -0.000035   -0.000005   -0.000006 Ang=  -0.00 deg.
 Initial guess <Sx>= 0.0000 <Sy>= 0.0000 <Sz>= 1.0000 <S**2>= 2.0293 S= 1.0097
 Requested convergence on RMS density matrix=1.00D-08 within  64 cycles.
 Requested convergence on MAX density matrix=1.00D-06.
 Requested convergence on             energy=1.00D-06.
 No special actions if energy rises.
 SCF Done:  E(UM062X) =  -1448.58168623     A.U. after   17 cycles
            NFock= 17  Conv=0.93D-08     -V/T= 2.0086
 <Sx>= 0.0000 <Sy>= 0.0000 <Sz>= 1.0000 <S**2>= 2.0294 S= 1.0098
 <L.S>=  0.00000000000    
 Annihilation of the first spin contaminant:
 S**2 before annihilation     2.0294,   after     2.0006
 QCSCF skips out because SCF is already converged.

 **********************************************************************

            Population analysis using the SCF Density.

 **********************************************************************

 Alpha  occ. eigenvalues --  -14.86488 -14.84856 -14.73025 -14.72947 -10.62453
 Alpha  occ. eigenvalues --  -10.62090 -10.61531 -10.61222 -10.60149 -10.60096
 Alpha  occ. eigenvalues --  -10.59389 -10.59184 -10.59027 -10.59021 -10.58990
 Alpha  occ. eigenvalues --  -10.58896 -10.58801 -10.58489 -10.58356 -10.58290
 Alpha  occ. eigenvalues --  -10.58252 -10.58044 -10.58030 -10.58021 -10.57998
 Alpha  occ. eigenvalues --  -10.57823 -10.57693 -10.57632 -10.57622 -10.57571
 Alpha  occ. eigenvalues --  -10.57430 -10.57388 -10.57338 -10.57241 -10.55571
 Alpha  occ. eigenvalues --  -10.55476  -1.15732  -1.13408  -1.00687  -0.98839
 Alpha  occ. eigenvalues --   -0.98773  -0.98203  -0.97777  -0.97620  -0.95723
 Alpha  occ. eigenvalues --   -0.91823  -0.91012  -0.88545  -0.88177  -0.87653
 Alpha  occ. eigenvalues --   -0.87458  -0.84931  -0.84576  -0.83798  -0.83131
 Alpha  occ. eigenvalues --   -0.77716  -0.76158  -0.73859  -0.73239  -0.72662
 Alpha  occ. eigenvalues --   -0.71591  -0.69599  -0.69303  -0.68957  -0.68239
 Alpha  occ. eigenvalues --   -0.65091  -0.64116  -0.62775  -0.61849  -0.61736
 Alpha  occ. eigenvalues --   -0.60693  -0.59427  -0.58694  -0.56192  -0.55974
 Alpha  occ. eigenvalues --   -0.55096  -0.55048  -0.54312  -0.54015  -0.53392
 Alpha  occ. eigenvalues --   -0.53155  -0.52976  -0.52580  -0.52219  -0.51788
 Alpha  occ. eigenvalues --   -0.51471  -0.51219  -0.50748  -0.49153  -0.47373
 Alpha  occ. eigenvalues --   -0.46613  -0.46431  -0.45934  -0.45713  -0.45187
 Alpha  occ. eigenvalues --   -0.44984  -0.44678  -0.43551  -0.42971  -0.42609
 Alpha  occ. eigenvalues --   -0.42482  -0.41843  -0.41647  -0.40577  -0.40465
 Alpha  occ. eigenvalues --   -0.40426  -0.39546  -0.37442  -0.36605  -0.36502
 Alpha  occ. eigenvalues --   -0.36400  -0.34643  -0.33185  -0.32946  -0.30863
 Alpha  occ. eigenvalues --   -0.30073  -0.29232  -0.28617  -0.27734  -0.15258
 Alpha virt. eigenvalues --   -0.03285  -0.02468  -0.00054   0.00287   0.01339
 Alpha virt. eigenvalues --    0.02770   0.03481   0.04755   0.05542   0.09056
 Alpha virt. eigenvalues --    0.10401   0.11419   0.11533   0.12066   0.12210
 Alpha virt. eigenvalues --    0.12987   0.14061   0.14527   0.15613   0.16017
 Alpha virt. eigenvalues --    0.16485   0.17326   0.17403   0.17701   0.17947
 Alpha virt. eigenvalues --    0.18102   0.18526   0.18616   0.20246   0.21343
 Alpha virt. eigenvalues --    0.21645   0.21999   0.22154   0.22381   0.22707
 Alpha virt. eigenvalues --    0.22992   0.23725   0.24780   0.25573   0.26207
 Alpha virt. eigenvalues --    0.26524   0.26917   0.27457   0.27485   0.27974
 Alpha virt. eigenvalues --    0.28165   0.29688   0.30173   0.30712   0.31176
 Alpha virt. eigenvalues --    0.31852   0.34001   0.34337   0.34941   0.35556
 Alpha virt. eigenvalues --    0.36032   0.36258   0.36789   0.38075   0.39939
 Alpha virt. eigenvalues --    0.40778   0.41039   0.42289   0.43211   0.43548
 Alpha virt. eigenvalues --    0.44431   0.44535   0.45760   0.46186   0.46666
 Alpha virt. eigenvalues --    0.47461   0.48776   0.49727   0.51111   0.51464
 Alpha virt. eigenvalues --    0.53558   0.54162   0.54537   0.55021   0.55423
 Alpha virt. eigenvalues --    0.55489   0.55784   0.56328   0.56503   0.57392
 Alpha virt. eigenvalues --    0.57746   0.58036   0.58419   0.58516   0.59233
 Alpha virt. eigenvalues --    0.59680   0.59831   0.60006   0.60683   0.60811
 Alpha virt. eigenvalues --    0.61256   0.61706   0.61879   0.62143   0.62356
 Alpha virt. eigenvalues --    0.62673   0.62880   0.62995   0.63061   0.63751
 Alpha virt. eigenvalues --    0.63912   0.64159   0.64335   0.65163   0.65347
 Alpha virt. eigenvalues --    0.65515   0.65751   0.65887   0.66168   0.66605
 Alpha virt. eigenvalues --    0.67326   0.67408   0.67863   0.68451   0.68696
 Alpha virt. eigenvalues --    0.70598   0.71620   0.72453   0.72876   0.74151
 Alpha virt. eigenvalues --    0.74227   0.74502   0.75577   0.76012   0.77061
 Alpha virt. eigenvalues --    0.77277   0.78026   0.79887   0.80084   0.80505
 Alpha virt. eigenvalues --    0.81368   0.82059   0.83228   0.83526   0.84208
 Alpha virt. eigenvalues --    0.84514   0.85377   0.86578   0.86762   0.86829
 Alpha virt. eigenvalues --    0.86881   0.87368   0.87809   0.88096   0.88423
 Alpha virt. eigenvalues --    0.88551   0.89125   0.89201   0.89474   0.89856
 Alpha virt. eigenvalues --    0.90296   0.90605   0.90675   0.91361   0.92155
 Alpha virt. eigenvalues --    0.92603   0.92818   0.93230   0.93651   0.93913
 Alpha virt. eigenvalues --    0.94677   0.95181   0.95529   0.96167   0.96743
 Alpha virt. eigenvalues --    0.97172   0.97952   0.98475   0.99840   1.00047
 Alpha virt. eigenvalues --    1.00822   1.01008   1.01652   1.02640   1.02993
 Alpha virt. eigenvalues --    1.03305   1.03748   1.04397   1.05166   1.06828
 Alpha virt. eigenvalues --    1.07131   1.07650   1.07874   1.08515   1.09804
 Alpha virt. eigenvalues --    1.11707   1.13227   1.14203   1.16016   1.17057
 Alpha virt. eigenvalues --    1.17313   1.17742   1.18976   1.19384   1.19587
 Alpha virt. eigenvalues --    1.20053   1.21341   1.21616   1.23109   1.23404
 Alpha virt. eigenvalues --    1.24344   1.24977   1.25975   1.27316   1.28253
 Alpha virt. eigenvalues --    1.28811   1.29295   1.29881   1.30176   1.31129
 Alpha virt. eigenvalues --    1.32588   1.32888   1.33829   1.34324   1.35025
 Alpha virt. eigenvalues --    1.36577   1.37813   1.38266   1.38601   1.40614
 Alpha virt. eigenvalues --    1.41146   1.41482   1.42226   1.43681   1.44287
 Alpha virt. eigenvalues --    1.44816   1.45903   1.46629   1.47134   1.47408
 Alpha virt. eigenvalues --    1.48100   1.48620   1.48920   1.50012   1.50690
 Alpha virt. eigenvalues --    1.50726   1.51248   1.51544   1.51634   1.52033
 Alpha virt. eigenvalues --    1.52669   1.53012   1.54801   1.57040   1.58650
 Alpha virt. eigenvalues --    1.59470   1.60086   1.60304   1.61218   1.61764
 Alpha virt. eigenvalues --    1.62705   1.62790   1.64283   1.66239   1.67837
 Alpha virt. eigenvalues --    1.67976   1.72637   1.73306   1.74274   1.75703
 Alpha virt. eigenvalues --    1.77424   1.77621   1.78655   1.78901   1.79263
 Alpha virt. eigenvalues --    1.80151   1.80790   1.81257   1.82550   1.83679
 Alpha virt. eigenvalues --    1.83958   1.85270   1.85800   1.86423   1.87139
 Alpha virt. eigenvalues --    1.87559   1.88749   1.88859   1.89395   1.91072
 Alpha virt. eigenvalues --    1.91262   1.92251   1.93088   1.94195   1.94796
 Alpha virt. eigenvalues --    1.95603   1.96389   1.96973   1.97880   1.98371
 Alpha virt. eigenvalues --    1.98502   1.99488   2.00003   2.00467   2.01096
 Alpha virt. eigenvalues --    2.01780   2.02084   2.02328   2.04069   2.04456
 Alpha virt. eigenvalues --    2.04934   2.05126   2.06146   2.07092   2.08511
 Alpha virt. eigenvalues --    2.09128   2.09249   2.10488   2.10771   2.11016
 Alpha virt. eigenvalues --    2.11508   2.12441   2.13038   2.13947   2.14619
 Alpha virt. eigenvalues --    2.15010   2.15758   2.16157   2.18217   2.18420
 Alpha virt. eigenvalues --    2.19092   2.20422   2.21027   2.21246   2.21458
 Alpha virt. eigenvalues --    2.21975   2.22441   2.23691   2.24688   2.25526
 Alpha virt. eigenvalues --    2.26299   2.26704   2.27041   2.27731   2.28561
 Alpha virt. eigenvalues --    2.28917   2.29447   2.29916   2.30774   2.31262
 Alpha virt. eigenvalues --    2.32099   2.33627   2.34969   2.35899   2.38246
 Alpha virt. eigenvalues --    2.39151   2.41754   2.42760   2.43374   2.47594
 Alpha virt. eigenvalues --    2.48460   2.49161   2.50214   2.52766   2.53872
 Alpha virt. eigenvalues --    2.54279   2.54824   2.56279   2.56350   2.58088
 Alpha virt. eigenvalues --    2.59265   2.59702   2.61971   2.63476   2.63951
 Alpha virt. eigenvalues --    2.64184   2.66055   2.66119   2.66881   2.68062
 Alpha virt. eigenvalues --    2.68368   2.68670   2.69283   2.69437   2.69876
 Alpha virt. eigenvalues --    2.70201   2.71009   2.72370   2.72436   2.73477
 Alpha virt. eigenvalues --    2.76658   2.77942   2.79445   2.81444   2.81893
 Alpha virt. eigenvalues --    2.82703   2.83316   2.83788   2.84004   2.86391
 Alpha virt. eigenvalues --    2.87453   2.89370   2.90725   2.92018   2.93615
 Alpha virt. eigenvalues --    2.94007   2.96262   2.97993   2.98418   2.98850
 Alpha virt. eigenvalues --    3.03408   3.06898   3.08170   3.22610   3.22833
 Alpha virt. eigenvalues --    3.27283   3.29278   3.30295   3.30763   3.31635
 Alpha virt. eigenvalues --    3.36468   3.38246   3.49541   3.50742   3.54058
 Alpha virt. eigenvalues --    4.05174   4.05893   4.07387   4.09361   4.10227
 Alpha virt. eigenvalues --    4.11148   4.11824   4.13901   4.14787   4.16355
 Alpha virt. eigenvalues --    4.16589   4.17004   4.21058   4.23909   4.25550
 Alpha virt. eigenvalues --    4.26258   4.27799   4.30283   4.32482   4.33278
 Alpha virt. eigenvalues --    4.37472   4.39417   4.42811   4.44907   4.46314
 Alpha virt. eigenvalues --    4.48663   4.49102   4.50235   4.59025   4.64931
 Alpha virt. eigenvalues --    4.70455   4.74734   4.76595   4.84247   4.88990
 Alpha virt. eigenvalues --    4.96781
  Beta  occ. eigenvalues --  -14.86165 -14.84645 -14.72841 -14.72747 -10.62468
  Beta  occ. eigenvalues --  -10.62110 -10.61529 -10.61230 -10.59914 -10.59857
  Beta  occ. eigenvalues --  -10.59337 -10.59112 -10.59014 -10.59007 -10.58951
  Beta  occ. eigenvalues --  -10.58887 -10.58730 -10.58522 -10.58330 -10.58253
  Beta  occ. eigenvalues --  -10.58248 -10.58016 -10.58013 -10.57999 -10.57979
  Beta  occ. eigenvalues --  -10.57823 -10.57716 -10.57699 -10.57590 -10.57576
  Beta  occ. eigenvalues --  -10.57500 -10.57221 -10.57152 -10.57084 -10.55639
  Beta  occ. eigenvalues --  -10.55550  -1.14862  -1.12724  -1.00215  -0.98634
  Beta  occ. eigenvalues --   -0.98320  -0.97861  -0.97661  -0.97047  -0.95228
  Beta  occ. eigenvalues --   -0.91524  -0.90751  -0.88300  -0.87682  -0.87318
  Beta  occ. eigenvalues --   -0.87228  -0.84854  -0.84144  -0.83720  -0.82558
  Beta  occ. eigenvalues --   -0.77213  -0.75895  -0.73458  -0.72910  -0.72338
  Beta  occ. eigenvalues --   -0.71364  -0.69256  -0.69129  -0.68635  -0.68125
  Beta  occ. eigenvalues --   -0.64693  -0.63802  -0.62538  -0.61591  -0.61545
  Beta  occ. eigenvalues --   -0.60480  -0.58318  -0.58264  -0.55994  -0.55768
  Beta  occ. eigenvalues --   -0.54895  -0.54892  -0.53839  -0.53788  -0.52959
  Beta  occ. eigenvalues --   -0.52722  -0.52605  -0.52193  -0.52068  -0.51653
  Beta  occ. eigenvalues --   -0.51329  -0.51116  -0.50640  -0.48692  -0.46301
  Beta  occ. eigenvalues --   -0.46091  -0.45908  -0.45575  -0.45333  -0.44938
  Beta  occ. eigenvalues --   -0.44684  -0.44274  -0.43413  -0.42490  -0.42394
  Beta  occ. eigenvalues --   -0.41832  -0.41297  -0.40867  -0.39951  -0.39792
  Beta  occ. eigenvalues --   -0.38769  -0.37623  -0.36891  -0.36283  -0.36130
  Beta  occ. eigenvalues --   -0.36055  -0.33619  -0.31931  -0.31431  -0.29984
  Beta  occ. eigenvalues --   -0.28859  -0.27031  -0.26218
  Beta virt. eigenvalues --   -0.18264  -0.02789  -0.02097  -0.01313   0.00500
  Beta virt. eigenvalues --    0.00760   0.01626   0.03860   0.04194   0.05297
  Beta virt. eigenvalues --    0.05876   0.10690   0.11237   0.11521   0.12010
  Beta virt. eigenvalues --    0.12202   0.12287   0.13269   0.14463   0.14705
  Beta virt. eigenvalues --    0.15704   0.16654   0.17349   0.17418   0.17655
  Beta virt. eigenvalues --    0.17961   0.18152   0.18206   0.18638   0.18883
  Beta virt. eigenvalues --    0.20314   0.21570   0.21823   0.22169   0.22316
  Beta virt. eigenvalues --    0.22562   0.22892   0.23125   0.24120   0.25138
  Beta virt. eigenvalues --    0.26194   0.26639   0.26991   0.27389   0.27828
  Beta virt. eigenvalues --    0.28075   0.28239   0.28551   0.29940   0.30461
  Beta virt. eigenvalues --    0.31090   0.31341   0.31961   0.34320   0.34633
  Beta virt. eigenvalues --    0.35383   0.35799   0.36328   0.36709   0.37084
  Beta virt. eigenvalues --    0.38207   0.40098   0.41081   0.41205   0.42726
  Beta virt. eigenvalues --    0.43610   0.43871   0.44744   0.45274   0.46200
  Beta virt. eigenvalues --    0.46849   0.47099   0.47756   0.49030   0.49866
  Beta virt. eigenvalues --    0.51307   0.51737   0.53843   0.54391   0.54741
  Beta virt. eigenvalues --    0.55307   0.55765   0.55890   0.56222   0.56583
  Beta virt. eigenvalues --    0.56841   0.57669   0.57990   0.58252   0.58618
  Beta virt. eigenvalues --    0.58708   0.59436   0.59840   0.60109   0.60418
  Beta virt. eigenvalues --    0.60816   0.60950   0.61465   0.61931   0.62132
  Beta virt. eigenvalues --    0.62282   0.62564   0.62837   0.63077   0.63175
  Beta virt. eigenvalues --    0.63262   0.63961   0.64282   0.64431   0.64654
  Beta virt. eigenvalues --    0.65309   0.65616   0.65864   0.65992   0.66106
  Beta virt. eigenvalues --    0.66412   0.66807   0.67639   0.67890   0.68261
  Beta virt. eigenvalues --    0.68593   0.68965   0.70912   0.71997   0.72590
  Beta virt. eigenvalues --    0.73108   0.74241   0.74465   0.74544   0.75624
  Beta virt. eigenvalues --    0.76417   0.77312   0.77527   0.78746   0.80198
  Beta virt. eigenvalues --    0.80458   0.80766   0.81913   0.82339   0.83556
  Beta virt. eigenvalues --    0.83853   0.84527   0.84716   0.85546   0.86702
  Beta virt. eigenvalues --    0.86962   0.87040   0.87412   0.87821   0.87973
  Beta virt. eigenvalues --    0.88250   0.88645   0.88900   0.89347   0.89492
  Beta virt. eigenvalues --    0.89859   0.90144   0.90375   0.91012   0.91129
  Beta virt. eigenvalues --    0.91638   0.92563   0.92960   0.93050   0.93459
  Beta virt. eigenvalues --    0.93854   0.94275   0.95007   0.95444   0.95838
  Beta virt. eigenvalues --    0.96485   0.97067   0.97442   0.98626   0.98896
  Beta virt. eigenvalues --    1.00267   1.00676   1.01062   1.01455   1.01899
  Beta virt. eigenvalues --    1.02889   1.03349   1.03534   1.04138   1.04763
  Beta virt. eigenvalues --    1.05636   1.07130   1.07305   1.07909   1.08307
  Beta virt. eigenvalues --    1.09182   1.10153   1.11938   1.13527   1.14443
  Beta virt. eigenvalues --    1.16262   1.17266   1.17712   1.18112   1.19497
  Beta virt. eigenvalues --    1.19835   1.19990   1.20271   1.21658   1.21781
  Beta virt. eigenvalues --    1.23351   1.23660   1.24857   1.25671   1.26469
  Beta virt. eigenvalues --    1.27554   1.28675   1.29149   1.29682   1.30368
  Beta virt. eigenvalues --    1.30795   1.31644   1.33062   1.33357   1.34296
  Beta virt. eigenvalues --    1.34695   1.35415   1.36874   1.38230   1.38499
  Beta virt. eigenvalues --    1.40155   1.40851   1.41475   1.41688   1.42736
  Beta virt. eigenvalues --    1.44309   1.44972   1.45065   1.46131   1.46878
  Beta virt. eigenvalues --    1.47460   1.47717   1.48739   1.48940   1.49699
  Beta virt. eigenvalues --    1.50492   1.50895   1.51012   1.51513   1.51974
  Beta virt. eigenvalues --    1.52048   1.52292   1.52912   1.53307   1.55088
  Beta virt. eigenvalues --    1.57466   1.58975   1.59667   1.60472   1.60656
  Beta virt. eigenvalues --    1.61378   1.62051   1.63021   1.63160   1.64688
  Beta virt. eigenvalues --    1.66491   1.68115   1.68484   1.73041   1.73874
  Beta virt. eigenvalues --    1.74686   1.76009   1.77725   1.78283   1.78917
  Beta virt. eigenvalues --    1.79210   1.79611   1.80504   1.81180   1.81719
  Beta virt. eigenvalues --    1.83038   1.84014   1.84179   1.85578   1.86072
  Beta virt. eigenvalues --    1.86670   1.87691   1.87861   1.89151   1.89324
  Beta virt. eigenvalues --    1.89900   1.91348   1.91638   1.92844   1.93472
  Beta virt. eigenvalues --    1.94749   1.95211   1.96172   1.96902   1.97253
  Beta virt. eigenvalues --    1.98197   1.98683   1.98825   1.99848   2.00277
  Beta virt. eigenvalues --    2.00760   2.01518   2.02202   2.02497   2.02761
  Beta virt. eigenvalues --    2.04455   2.04872   2.05225   2.05439   2.06418
  Beta virt. eigenvalues --    2.07474   2.08912   2.09396   2.09578   2.10817
  Beta virt. eigenvalues --    2.11214   2.11527   2.12042   2.12721   2.13918
  Beta virt. eigenvalues --    2.14458   2.14833   2.15458   2.16193   2.16466
  Beta virt. eigenvalues --    2.18607   2.18947   2.19386   2.21112   2.21370
  Beta virt. eigenvalues --    2.21859   2.22037   2.22744   2.22949   2.24465
  Beta virt. eigenvalues --    2.25028   2.25883   2.26658   2.27038   2.27395
  Beta virt. eigenvalues --    2.28191   2.29057   2.29391   2.29936   2.30592
  Beta virt. eigenvalues --    2.31334   2.31794   2.32496   2.34172   2.35500
  Beta virt. eigenvalues --    2.36283   2.38599   2.39741   2.42412   2.43343
  Beta virt. eigenvalues --    2.43867   2.48140   2.49059   2.49739   2.50582
  Beta virt. eigenvalues --    2.53868   2.54162   2.54678   2.55183   2.56857
  Beta virt. eigenvalues --    2.57030   2.58573   2.59817   2.60135   2.62436
  Beta virt. eigenvalues --    2.63832   2.64372   2.64659   2.66484   2.66659
  Beta virt. eigenvalues --    2.67468   2.68458   2.68709   2.69155   2.69696
  Beta virt. eigenvalues --    2.69911   2.70456   2.70609   2.71392   2.72917
  Beta virt. eigenvalues --    2.73786   2.74049   2.77397   2.78555   2.79987
  Beta virt. eigenvalues --    2.82139   2.82613   2.83059   2.83804   2.84140
  Beta virt. eigenvalues --    2.84422   2.86765   2.88040   2.89783   2.91298
  Beta virt. eigenvalues --    2.93004   2.94022   2.94478   2.96930   2.98416
  Beta virt. eigenvalues --    2.98941   2.99260   3.04256   3.07409   3.09065
  Beta virt. eigenvalues --    3.23239   3.23589   3.28373   3.29894   3.30975
  Beta virt. eigenvalues --    3.31605   3.32552   3.36869   3.39067   3.49995
  Beta virt. eigenvalues --    3.51059   3.55854   4.05436   4.06992   4.07691
  Beta virt. eigenvalues --    4.09702   4.10516   4.11421   4.12068   4.14234
  Beta virt. eigenvalues --    4.15093   4.16556   4.17292   4.17495   4.21179
  Beta virt. eigenvalues --    4.24232   4.25718   4.26386   4.28767   4.30465
  Beta virt. eigenvalues --    4.32800   4.33701   4.38136   4.39660   4.43100
  Beta virt. eigenvalues --    4.45239   4.46588   4.49028   4.49602   4.50635
  Beta virt. eigenvalues --    4.59335   4.64962   4.71769   4.75008   4.76765
  Beta virt. eigenvalues --    4.84514   4.89231   4.98022
          Condensed to atoms (all electrons):
          Atomic-Atomic Spin Densities.
 Mulliken charges and spin densities:
               1          2
     1  C    0.148469   0.276878
     2  C    0.176170   0.272682
     3  C   -0.206784  -0.119430
     4  C    0.087304   0.334849
     5  C    0.081144   0.304946
     6  C   -0.190668  -0.114569
     7  H    0.198801   0.003175
     8  H    0.199311   0.002836
     9  C    0.192597  -0.069197
    10  N   -0.490591   0.160884
    11  C    0.189243  -0.075842
    12  N   -0.490680   0.174150
    13  C    0.283449  -0.031521
    14  C    0.274118  -0.032353
    15  C   -0.161896   0.108225
    16  C    0.053742   0.074261
    17  C   -0.151473   0.099740
    18  C    0.053431   0.015500
    19  C   -0.177563  -0.049273
    20  H    0.210451  -0.005435
    21  C   -0.190222  -0.028559
    22  C   -0.166984  -0.024198
    23  H    0.197721  -0.004493
    24  C   -0.189937   0.023207
    25  C   -0.168953   0.117225
    26  H    0.187110   0.001524
    27  H    0.182610   0.000886
    28  C   -0.170085   0.069122
    29  H    0.181967   0.000416
    30  H    0.181285  -0.001498
    31  H    0.180795  -0.005879
    32  H    0.177858  -0.003705
    33  C    0.276943  -0.017389
    34  C    0.278964  -0.012618
    35  C   -0.166761   0.056399
    36  C    0.036083   0.001307
    37  C   -0.175042   0.066608
    38  C    0.041989   0.057284
    39  C   -0.169252  -0.006288
    40  H    0.185542  -0.002729
    41  C   -0.182502   0.023254
    42  C   -0.179590  -0.031796
    43  H    0.202271  -0.003453
    44  C   -0.184651  -0.023842
    45  C   -0.176618   0.031639
    46  H    0.173610  -0.000101
    47  H    0.175027  -0.001303
    48  C   -0.175698   0.076865
    49  H    0.180951   0.001028
    50  H    0.175949   0.000952
    51  H    0.171412  -0.001780
    52  H    0.174546  -0.003838
    53  N   -0.664899   0.194149
    54  N   -0.680015   0.121098
 Sum of Mulliken charges =  -0.00000   2.00000
 Mulliken charges and spin densities with hydrogens summed into heavy atoms:
               1          2
     1  C    0.148469   0.276878
     2  C    0.176170   0.272682
     3  C   -0.007983  -0.116255
     4  C    0.087304   0.334849
     5  C    0.081144   0.304946
     6  C    0.008643  -0.111733
     9  C    0.192597  -0.069197
    10  N   -0.490591   0.160884
    11  C    0.189243  -0.075842
    12  N   -0.490680   0.174150
    13  C    0.283449  -0.031521
    14  C    0.274118  -0.032353
    15  C    0.048554   0.102790
    16  C    0.053742   0.074261
    17  C    0.046248   0.095247
    18  C    0.053431   0.015500
    19  C    0.009547  -0.047749
    21  C   -0.007611  -0.027673
    22  C    0.014983  -0.023781
    24  C   -0.008652   0.021708
    25  C    0.011842   0.111347
    28  C    0.007772   0.065417
    33  C    0.276943  -0.017389
    34  C    0.278964  -0.012618
    35  C    0.018781   0.053671
    36  C    0.036083   0.001307
    37  C    0.027230   0.063155
    38  C    0.041989   0.057284
    39  C    0.004358  -0.006389
    41  C   -0.007475   0.021951
    42  C    0.001361  -0.030767
    44  C   -0.008702  -0.022889
    45  C   -0.005206   0.029859
    48  C   -0.001152   0.073027
    53  N   -0.664899   0.194149
    54  N   -0.680015   0.121098
 Electronic spatial extent (au):  <R**2>=          12757.9933
 Charge=             -0.0000 electrons
 Dipole moment (field-independent basis, Debye):
    X=            -16.7492    Y=              0.9302    Z=             -0.2835  Tot=             16.7774
 Quadrupole moment (field-independent basis, Debye-Ang):
   XX=           -270.7654   YY=           -177.7532   ZZ=           -201.9450
   XY=             -0.9010   XZ=              3.8052   YZ=             18.5623
 Traceless Quadrupole moment (field-independent basis, Debye-Ang):
   XX=            -53.9442   YY=             39.0680   ZZ=             14.8762
   XY=             -0.9010   XZ=              3.8052   YZ=             18.5623
 Octapole moment (field-independent basis, Debye-Ang**2):
  XXX=           -705.2307  YYY=             18.5736  ZZZ=             -0.1317  XYY=            -78.5233
  XXY=              6.8126  XXZ=              5.4353  XZZ=            -72.1363  YZZ=             -0.2530
  YYZ=              1.1068  XYZ=             29.9508
 Hexadecapole moment (field-independent basis, Debye-Ang**3):
 XXXX=         -12409.5991 YYYY=          -5372.1890 ZZZZ=          -3019.0718 XXXY=             40.5149
 XXXZ=            113.4499 YYYX=            -14.5196 YYYZ=            216.3213 ZZZX=             76.6774
 ZZZY=             18.2708 XXYY=          -2506.7187 XXZZ=          -2161.3415 YYZZ=          -1442.8923
 XXYZ=            231.2689 YYXZ=             25.1360 ZZXY=             -6.9082
 N-N= 3.658252013929D+03 E-N=-1.067137027839D+04  KE= 1.436277914592D+03
                          Isotropic Fermi Contact Couplings
        Atom                 a.u.       MegaHertz       Gauss      10(-4) cm-1
     1  C(13)              0.04607      25.89647       9.24051       8.63813
     2  C(13)              0.05238      29.44184      10.50558       9.82074
     3  C(13)             -0.03458     -19.43505      -6.93491      -6.48284
     4  C(13)              0.05001      28.10761      10.02949       9.37569
     5  C(13)              0.04477      25.16309       8.97882       8.39350
     6  C(13)             -0.03199     -17.98015      -6.41576      -5.99753
     7  H(1)               0.00110       2.45139       0.87472       0.81769
     8  H(1)               0.00093       2.08590       0.74430       0.69578
     9  C(13)             -0.02662     -14.96026      -5.33819      -4.99021
    10  N(14)              0.03247       5.24591       1.87187       1.74985
    11  C(13)             -0.02893     -16.26304      -5.80306      -5.42477
    12  N(14)              0.03510       5.67050       2.02338       1.89148
    13  C(13)             -0.00050      -0.27973      -0.09981      -0.09331
    14  C(13)             -0.00304      -1.70700      -0.60910      -0.56939
    15  C(13)              0.01914      10.76073       3.83969       3.58939
    16  C(13)              0.01228       6.90216       2.46286       2.30231
    17  C(13)              0.01886      10.60243       3.78321       3.53659
    18  C(13)              0.00009       0.05112       0.01824       0.01705
    19  C(13)             -0.01214      -6.82489      -2.43529      -2.27654
    20  H(1)              -0.00185      -4.12501      -1.47191      -1.37596
    21  C(13)             -0.00783      -4.39896      -1.56966      -1.46733
    22  C(13)             -0.00735      -4.13325      -1.47485      -1.37870
    23  H(1)              -0.00154      -3.45092      -1.23137      -1.15110
    24  C(13)              0.00220       1.23697       0.44138       0.41261
    25  C(13)              0.02016      11.33401       4.04426       3.78062
    26  H(1)               0.00049       1.08882       0.38852       0.36319
    27  H(1)               0.00032       0.70938       0.25312       0.23662
    28  C(13)              0.01091       6.13148       2.18786       2.04524
    29  H(1)               0.00025       0.54848       0.19571       0.18295
    30  H(1)              -0.00046      -1.03607      -0.36969      -0.34560
    31  H(1)              -0.00183      -4.08202      -1.45657      -1.36162
    32  H(1)              -0.00115      -2.56068      -0.91371      -0.85415
    33  C(13)              0.00058       0.32517       0.11603       0.10846
    34  C(13)              0.00518       2.91374       1.03969       0.97192
    35  C(13)              0.01103       6.20110       2.21271       2.06846
    36  C(13)             -0.00164      -0.92233      -0.32911      -0.30766
    37  C(13)              0.01165       6.55026       2.33730       2.18493
    38  C(13)              0.01014       5.69935       2.03367       1.90110
    39  C(13)             -0.00294      -1.65501      -0.59055      -0.55205
    40  H(1)              -0.00075      -1.66974      -0.59581      -0.55697
    41  C(13)              0.00313       1.75989       0.62797       0.58703
    42  C(13)             -0.00788      -4.43167      -1.58133      -1.47825
    43  H(1)              -0.00118      -2.63531      -0.94034      -0.87905
    44  C(13)             -0.00599      -3.36701      -1.20143      -1.12312
    45  C(13)              0.00462       2.59884       0.92733       0.86688
    46  H(1)               0.00008       0.17388       0.06205       0.05800
    47  H(1)              -0.00040      -0.90220      -0.32193      -0.30094
    48  C(13)              0.01322       7.43162       2.65179       2.47892
    49  H(1)               0.00033       0.72760       0.25963       0.24270
    50  H(1)               0.00033       0.74540       0.26598       0.24864
    51  H(1)              -0.00055      -1.22365      -0.43663      -0.40817
    52  H(1)              -0.00118      -2.64744      -0.94467      -0.88309
    53  N(14)              0.04295       6.93904       2.47602       2.31461
    54  N(14)              0.02536       4.09740       1.46205       1.36675
 --------------------------------------------------------
       Center         ----  Spin Dipole Couplings  ----
                      3XX-RR        3YY-RR        3ZZ-RR
 --------------------------------------------------------
     1   Atom       -0.146779      0.055144      0.091635
     2   Atom       -0.145791      0.060082      0.085709
     3   Atom        0.052398     -0.026234     -0.026163
     4   Atom       -0.181001      0.117805      0.063196
     5   Atom       -0.165466      0.109196      0.056270
     6   Atom        0.054425     -0.028143     -0.026283
     7   Atom        0.007584     -0.003884     -0.003700
     8   Atom        0.008033     -0.004007     -0.004026
     9   Atom        0.031291     -0.017611     -0.013680
    10   Atom       -0.147051      0.094737      0.052313
    11   Atom        0.037378     -0.018924     -0.018454
    12   Atom       -0.163294      0.101633      0.061661
    13   Atom        0.007845      0.009728     -0.017573
    14   Atom        0.017768     -0.003609     -0.014159
    15   Atom       -0.033641     -0.011942      0.045583
    16   Atom       -0.029367     -0.010041      0.039408
    17   Atom       -0.042325      0.000634      0.041690
    18   Atom       -0.004285     -0.003795      0.008080
    19   Atom        0.012682      0.006596     -0.019278
    20   Atom        0.004790      0.000391     -0.005181
    21   Atom        0.004780      0.005067     -0.009847
    22   Atom        0.007372     -0.000563     -0.006809
    23   Atom        0.004581     -0.002580     -0.002001
    24   Atom       -0.008907     -0.002990      0.011897
    25   Atom       -0.041015     -0.009212      0.050227
    26   Atom        0.000569      0.001355     -0.001924
    27   Atom        0.000761      0.000526     -0.001287
    28   Atom       -0.019622     -0.013255      0.032878
    29   Atom        0.000494     -0.000438     -0.000056
    30   Atom        0.001841      0.000202     -0.002043
    31   Atom       -0.004036      0.006289     -0.002253
    32   Atom        0.002482     -0.003007      0.000525
    33   Atom        0.015213     -0.004333     -0.010880
    34   Atom        0.004610      0.004619     -0.009229
    35   Atom       -0.026157      0.006461      0.019696
    36   Atom        0.000233     -0.001931      0.001698
    37   Atom       -0.024840     -0.003156      0.027996
    38   Atom       -0.024538     -0.006369      0.030907
    39   Atom        0.001780     -0.002498      0.000719
    40   Atom        0.002317     -0.002737      0.000420
    41   Atom       -0.008570     -0.002493      0.011063
    42   Atom        0.009026      0.004264     -0.013290
    43   Atom        0.002637      0.002245     -0.004883
    44   Atom        0.005664      0.003985     -0.009650
    45   Atom       -0.009577     -0.006263      0.015840
    46   Atom       -0.000235     -0.000282      0.000517
    47   Atom        0.001749     -0.000256     -0.001493
    48   Atom       -0.029642     -0.002610      0.032252
    49   Atom        0.000263      0.001334     -0.001597
    50   Atom        0.000379      0.000745     -0.001123
    51   Atom        0.001514     -0.001700      0.000186
    52   Atom       -0.002618      0.004088     -0.001470
    53   Atom       -0.147248     -0.106421      0.253670
    54   Atom       -0.096576     -0.074338      0.170914
 --------------------------------------------------------
                        XY            XZ            YZ
 --------------------------------------------------------
     1   Atom        0.026425      0.035949      0.228384
     2   Atom       -0.022220     -0.026164      0.218544
     3   Atom       -0.002611     -0.001876     -0.058785
     4   Atom       -0.000993      0.003886      0.274412
     5   Atom        0.020608      0.014624      0.252248
     6   Atom        0.000907     -0.001173     -0.057468
     7   Atom       -0.001141      0.001018     -0.003507
     8   Atom        0.001043     -0.002070     -0.003596
     9   Atom        0.020106     -0.025573     -0.023795
    10   Atom        0.011459      0.030279      0.209065
    11   Atom       -0.023813      0.023178     -0.023458
    12   Atom        0.010173     -0.011636      0.226272
    13   Atom       -0.018552     -0.001522      0.025842
    14   Atom        0.001072      0.021072      0.019686
    15   Atom        0.022322     -0.039874     -0.056900
    16   Atom        0.006401     -0.012168     -0.045130
    17   Atom        0.014149     -0.014740     -0.065793
    18   Atom        0.002831     -0.003352     -0.010556
    19   Atom       -0.009843      0.011472      0.021212
    20   Atom       -0.001447      0.003721      0.000684
    21   Atom       -0.005061      0.007425      0.010584
    22   Atom       -0.001685      0.006893      0.009499
    23   Atom       -0.003015      0.000139      0.003342
    24   Atom        0.006641     -0.009828     -0.015833
    25   Atom        0.020916     -0.038509     -0.064483
    26   Atom       -0.001939     -0.000136      0.001104
    27   Atom       -0.000421      0.001013      0.001157
    28   Atom        0.016618     -0.025798     -0.035578
    29   Atom        0.001342      0.002304      0.001239
    30   Atom       -0.003007      0.000063      0.000236
    31   Atom       -0.006234     -0.004256      0.002598
    32   Atom        0.004130      0.004447      0.001107
    33   Atom       -0.002700     -0.013720      0.011818
    34   Atom        0.014593      0.008408      0.016455
    35   Atom       -0.004897      0.001403     -0.041113
    36   Atom        0.000408     -0.001717     -0.003174
    37   Atom       -0.011626      0.020467     -0.037685
    38   Atom       -0.000280      0.001596     -0.038336
    39   Atom       -0.000746     -0.002354      0.001744
    40   Atom        0.000876     -0.000764      0.002918
    41   Atom       -0.005055      0.007395     -0.015264
    42   Atom        0.005787     -0.005675      0.014786
    43   Atom        0.000547     -0.002082      0.001063
    44   Atom        0.004796     -0.005477      0.010143
    45   Atom       -0.007469      0.010660     -0.017122
    46   Atom       -0.001266     -0.002025      0.001043
    47   Atom        0.002475     -0.000144     -0.000113
    48   Atom       -0.010761      0.020578     -0.044022
    49   Atom        0.001323      0.000231      0.000925
    50   Atom        0.000778     -0.000506      0.000711
    51   Atom       -0.002105     -0.002799      0.000613
    52   Atom        0.004487      0.002879      0.001795
    53   Atom        0.114338     -0.219029     -0.264402
    54   Atom       -0.073946      0.146829     -0.173975
 --------------------------------------------------------


 ---------------------------------------------------------------------------------
              Anisotropic Spin Dipole Couplings in Principal Axis System
 ---------------------------------------------------------------------------------

       Atom             a.u.   MegaHertz   Gauss  10(-4) cm-1        Axes

              Baa    -0.1589   -21.320    -7.607    -7.111 -0.5350 -0.5847  0.6098
     1 C(13)  Bbb    -0.1480   -19.855    -7.085    -6.623  0.8392 -0.4509  0.3039
              Bcc     0.3068    41.174    14.692    13.734  0.0973  0.6744  0.7319
 
              Baa    -0.1494   -20.048    -7.154    -6.687  0.8818 -0.2924  0.3700
     2 C(13)  Bbb    -0.1451   -19.469    -6.947    -6.494  0.4651  0.6685 -0.5803
              Bcc     0.2945    39.517    14.101    13.181 -0.0776  0.6838  0.7255
 
              Baa    -0.0851   -11.414    -4.073    -3.807  0.0231  0.7072  0.7066
     3 C(13)  Bbb     0.0326     4.371     1.560     1.458 -0.0260 -0.7062  0.7076
              Bcc     0.0525     7.043     2.513     2.349  0.9994 -0.0347  0.0021
 
              Baa    -0.1873   -25.130    -8.967    -8.383 -0.4926 -0.5829  0.6462
     4 C(13)  Bbb    -0.1790   -24.020    -8.571    -8.012  0.8702 -0.3329  0.3632
              Bcc     0.3663    49.150    17.538    16.395  0.0034  0.7413  0.6712
 
              Baa    -0.1724   -23.135    -8.255    -7.717  0.4565 -0.6119  0.6458
     5 C(13)  Bbb    -0.1652   -22.171    -7.911    -7.395  0.8883  0.2729 -0.3694
              Bcc     0.3376    45.305    16.166    15.112  0.0498  0.7423  0.6682
 
              Baa    -0.0847   -11.364    -4.055    -3.791  0.0013  0.7128  0.7014
     6 C(13)  Bbb     0.0302     4.049     1.445     1.351  0.0606 -0.7001  0.7114
              Bcc     0.0545     7.315     2.610     2.440  0.9982  0.0416 -0.0441
 
              Baa    -0.0073    -3.895    -1.390    -1.299  0.0073  0.7174  0.6966
     7 H(1)   Bbb    -0.0006    -0.304    -0.108    -0.101 -0.1839 -0.6838  0.7062
              Bcc     0.0079     4.199     1.498     1.401  0.9829 -0.1333  0.1269
 
              Baa    -0.0076    -4.080    -1.456    -1.361  0.0485  0.6948  0.7176
     8 H(1)   Bbb    -0.0010    -0.509    -0.182    -0.170 -0.2357  0.7061 -0.6677
              Bcc     0.0086     4.590     1.638     1.531  0.9706  0.1367 -0.1980
 
              Baa    -0.0397    -5.321    -1.899    -1.775  0.0516  0.7105  0.7018
     9 C(13)  Bbb    -0.0146    -1.956    -0.698    -0.652 -0.5742  0.5960 -0.5613
              Bcc     0.0542     7.277     2.596     2.427  0.8171  0.3740 -0.4388
 
              Baa    -0.1588    -6.124    -2.185    -2.043  0.8308  0.3313 -0.4473
    10 N(14)  Bbb    -0.1268    -4.890    -1.745    -1.631  0.5526 -0.5870  0.5917
              Bcc     0.2856    11.014     3.930     3.674  0.0665  0.7387  0.6707
 
              Baa    -0.0422    -5.657    -2.018    -1.887  0.0110  0.7160  0.6980
    11 C(13)  Bbb    -0.0159    -2.138    -0.763    -0.713 -0.5288 -0.5883  0.6118
              Bcc     0.0581     7.795     2.781     2.600  0.8487 -0.3758  0.3722
 
              Baa    -0.1722    -6.642    -2.370    -2.216  0.8657 -0.3376  0.3696
    12 N(14)  Bbb    -0.1366    -5.267    -1.879    -1.757 -0.5006 -0.5849  0.6382
              Bcc     0.3088    11.910     4.250     3.973 -0.0008  0.7375  0.6753
 
              Baa    -0.0349    -4.689    -1.673    -1.564 -0.2115 -0.5538  0.8054
    13 C(13)  Bbb    -0.0007    -0.097    -0.035    -0.032  0.8232  0.3432  0.4522
              Bcc     0.0357     4.786     1.708     1.597 -0.5268  0.7586  0.3833
 
              Baa    -0.0346    -4.644    -1.657    -1.549 -0.3141 -0.5012  0.8063
    14 C(13)  Bbb     0.0032     0.428     0.153     0.143 -0.5027  0.8083  0.3066
              Bcc     0.0314     4.216     1.504     1.406  0.8054  0.3090  0.5059
 
              Baa    -0.0505    -6.780    -2.419    -2.261  0.8468  0.2226  0.4831
    15 C(13)  Bbb    -0.0461    -6.182    -2.206    -2.062 -0.4165  0.8424  0.3418
              Bcc     0.0966    12.961     4.625     4.323 -0.3309 -0.4907  0.8061
 
              Baa    -0.0369    -4.946    -1.765    -1.650  0.1218  0.8456  0.5198
    16 C(13)  Bbb    -0.0312    -4.189    -1.495    -1.397  0.9827 -0.1763  0.0566
              Bcc     0.0681     9.135     3.260     3.047 -0.1395 -0.5039  0.8524
 
              Baa    -0.0495    -6.636    -2.368    -2.214 -0.5351  0.7237  0.4359
    17 C(13)  Bbb    -0.0437    -5.859    -2.091    -1.954  0.8317  0.3609  0.4218
              Bcc     0.0931    12.495     4.459     4.168 -0.1480 -0.5882  0.7950
 
              Baa    -0.0101    -1.353    -0.483    -0.451 -0.1478  0.8667  0.4765
    18 C(13)  Bbb    -0.0051    -0.689    -0.246    -0.230  0.9650  0.0208  0.2615
              Bcc     0.0152     2.041     0.728     0.681 -0.2167 -0.4984  0.8394
 
              Baa    -0.0357    -4.796    -1.711    -1.600 -0.2936 -0.4819  0.8256
    19 C(13)  Bbb     0.0150     2.008     0.716     0.670  0.7446  0.4263  0.5136
              Bcc     0.0208     2.788     0.995     0.930 -0.5995  0.7655  0.2337
 
              Baa    -0.0066    -3.518    -1.255    -1.174 -0.3249 -0.1586  0.9323
    20 H(1)   Bbb     0.0003     0.179     0.064     0.060  0.1370  0.9675  0.2124
              Bcc     0.0063     3.339     1.191     1.114  0.9358 -0.1967  0.2926
 
              Baa    -0.0187    -2.513    -0.897    -0.838 -0.3553 -0.4419  0.8237
    21 C(13)  Bbb     0.0078     1.047     0.374     0.349  0.8769  0.1476  0.4575
              Bcc     0.0109     1.466     0.523     0.489 -0.3238  0.8848  0.3351
 
              Baa    -0.0156    -2.092    -0.747    -0.698 -0.2786 -0.5352  0.7974
    22 C(13)  Bbb     0.0048     0.649     0.232     0.217 -0.4753  0.7984  0.3698
              Bcc     0.0108     1.443     0.515     0.481  0.8346  0.2760  0.4768
 
              Baa    -0.0062    -3.292    -1.175    -1.098  0.2204  0.7574 -0.6146
    23 H(1)   Bbb     0.0003     0.179     0.064     0.060  0.3490  0.5272  0.7748
              Bcc     0.0058     3.113     1.111     1.038  0.9108 -0.3852 -0.1482
 
              Baa    -0.0133    -1.787    -0.638    -0.596 -0.6135  0.7541  0.2344
    24 C(13)  Bbb    -0.0127    -1.699    -0.606    -0.567  0.7211  0.4141  0.5555
              Bcc     0.0260     3.486     1.244     1.163 -0.3218 -0.5098  0.7978
 
              Baa    -0.0558    -7.493    -2.674    -2.499  0.8347  0.2808  0.4738
    25 C(13)  Bbb    -0.0488    -6.548    -2.336    -2.184 -0.4697  0.8121  0.3462
              Bcc     0.1046    14.041     5.010     4.683 -0.2876 -0.5115  0.8098
 
              Baa    -0.0024    -1.256    -0.448    -0.419 -0.2084 -0.3775  0.9022
    26 H(1)   Bbb    -0.0008    -0.408    -0.146    -0.136  0.7716  0.5034  0.3889
              Bcc     0.0031     1.664     0.594     0.555 -0.6010  0.7772  0.1864
 
              Baa    -0.0022    -1.200    -0.428    -0.400 -0.3420 -0.4053  0.8478
    27 H(1)   Bbb     0.0011     0.563     0.201     0.188 -0.4682  0.8557  0.2203
              Bcc     0.0012     0.638     0.227     0.213  0.8148  0.3216  0.4824
 
              Baa    -0.0340    -4.569    -1.630    -1.524 -0.5291  0.8168  0.2302
    28 C(13)  Bbb    -0.0294    -3.950    -1.410    -1.318  0.7750  0.3545  0.5232
              Bcc     0.0635     8.519     3.040     2.842 -0.3457 -0.4553  0.8205
 
              Baa    -0.0021    -1.122    -0.400    -0.374 -0.6524 -0.0372  0.7570
    29 H(1)   Bbb    -0.0013    -0.696    -0.248    -0.232 -0.3472  0.9025 -0.2549
              Bcc     0.0034     1.818     0.649     0.606  0.6737  0.4291  0.6017
 
              Baa    -0.0023    -1.226    -0.437    -0.409 -0.4449 -0.5982  0.6666
    30 H(1)   Bbb    -0.0018    -0.983    -0.351    -0.328  0.4139  0.5227  0.7453
              Bcc     0.0041     2.209     0.788     0.737  0.7942 -0.6075 -0.0151
 
              Baa    -0.0084    -4.494    -1.603    -1.499  0.8416  0.2745  0.4651
    31 H(1)   Bbb    -0.0022    -1.169    -0.417    -0.390 -0.3018 -0.4750  0.8266
              Bcc     0.0106     5.663     2.021     1.889 -0.4479  0.8360  0.3169
 
              Baa    -0.0055    -2.950    -1.053    -0.984 -0.5531  0.7910  0.2616
    32 H(1)   Bbb    -0.0020    -1.077    -0.384    -0.359 -0.3338 -0.4981  0.8003
              Bcc     0.0075     4.027     1.437     1.343  0.7634  0.3553  0.5395
 
              Baa    -0.0224    -3.010    -1.074    -1.004  0.2649 -0.4991  0.8250
    33 C(13)  Bbb    -0.0007    -0.094    -0.033    -0.031  0.4452  0.8223  0.3545
              Bcc     0.0231     3.104     1.108     1.035  0.8554 -0.2734 -0.4400
 
              Baa    -0.0202    -2.714    -0.968    -0.905  0.0630 -0.5766  0.8146
    34 C(13)  Bbb    -0.0075    -1.011    -0.361    -0.337  0.8065 -0.4514 -0.3818
              Bcc     0.0278     3.725     1.329     1.243  0.5878  0.6811  0.4366
 
              Baa    -0.0305    -4.091    -1.460    -1.365  0.5642  0.6464  0.5137
    35 C(13)  Bbb    -0.0245    -3.281    -1.171    -1.095  0.8240 -0.4013 -0.3999
              Bcc     0.0549     7.373     2.631     2.459  0.0523 -0.6489  0.7590
 
              Baa    -0.0038    -0.516    -0.184    -0.172  0.1366  0.8407  0.5240
    36 C(13)  Bbb    -0.0004    -0.055    -0.020    -0.018  0.9106 -0.3148  0.2677
              Bcc     0.0043     0.571     0.204     0.190 -0.3900 -0.4406  0.8086
 
              Baa    -0.0321    -4.306    -1.536    -1.436  0.8816 -0.2015 -0.4267
    37 C(13)  Bbb    -0.0276    -3.708    -1.323    -1.237  0.3887  0.8229  0.4145
              Bcc     0.0597     8.014     2.859     2.673  0.2676 -0.5313  0.8038
 
              Baa    -0.0304    -4.082    -1.457    -1.362 -0.1034  0.8422  0.5292
    38 C(13)  Bbb    -0.0245    -3.288    -1.173    -1.097  0.9945  0.0976  0.0389
              Bcc     0.0549     7.370     2.630     2.458  0.0189 -0.5302  0.8476
 
              Baa    -0.0033    -0.440    -0.157    -0.147 -0.0688  0.8989 -0.4326
    39 C(13)  Bbb    -0.0008    -0.109    -0.039    -0.036  0.6816  0.3591  0.6376
              Bcc     0.0041     0.550     0.196     0.183  0.7285 -0.2510 -0.6374
 
              Baa    -0.0047    -2.488    -0.888    -0.830 -0.1618  0.8452 -0.5094
    40 H(1)   Bbb     0.0021     1.101     0.393     0.367  0.4162  0.5265  0.7413
              Bcc     0.0026     1.387     0.495     0.463  0.8948 -0.0920 -0.4369
 
              Baa    -0.0124    -1.670    -0.596    -0.557  0.1391  0.8500  0.5081
    41 C(13)  Bbb    -0.0110    -1.482    -0.529    -0.494  0.9530  0.0245 -0.3019
              Bcc     0.0235     3.152     1.125     1.051  0.2691 -0.5263  0.8066
 
              Baa    -0.0236    -3.164    -1.129    -1.055  0.2334 -0.4935  0.8379
    42 C(13)  Bbb     0.0094     1.268     0.452     0.423  0.8071 -0.3822 -0.4500
              Bcc     0.0141     1.896     0.677     0.632  0.5423  0.7813  0.3091
 
              Baa    -0.0056    -2.985    -1.065    -0.996  0.2517 -0.1473  0.9565
    43 H(1)   Bbb     0.0023     1.247     0.445     0.416 -0.2522  0.9442  0.2118
              Bcc     0.0033     1.737     0.620     0.580  0.9344  0.2946 -0.2005
 
              Baa    -0.0173    -2.316    -0.826    -0.772  0.2966 -0.4652  0.8340
    44 C(13)  Bbb     0.0069     0.922     0.329     0.307  0.8067 -0.3453 -0.4795
              Bcc     0.0104     1.394     0.497     0.465  0.5111  0.8151  0.2729
 
              Baa    -0.0164    -2.196    -0.783    -0.732  0.4629  0.8370  0.2918
    45 C(13)  Bbb    -0.0131    -1.757    -0.627    -0.586  0.8286 -0.2917 -0.4779
              Bcc     0.0295     3.953     1.411     1.319  0.3149 -0.4630  0.8286
 
              Baa    -0.0020    -1.069    -0.381    -0.357  0.8022  0.2664  0.5343
    46 H(1)   Bbb    -0.0010    -0.530    -0.189    -0.177  0.0579  0.8560 -0.5137
              Bcc     0.0030     1.599     0.571     0.533 -0.5942  0.4430  0.6713
 
              Baa    -0.0019    -1.027    -0.366    -0.342 -0.5577  0.8295  0.0304
    47 H(1)   Bbb    -0.0015    -0.800    -0.285    -0.267  0.0477 -0.0045  0.9989
              Bcc     0.0034     1.826     0.652     0.609  0.8287  0.5585 -0.0371
 
              Baa    -0.0367    -4.927    -1.758    -1.644  0.8279 -0.3269 -0.4557
    48 C(13)  Bbb    -0.0309    -4.150    -1.481    -1.384  0.5111  0.7743  0.3731
              Bcc     0.0676     9.077     3.239     3.028  0.2309 -0.5418  0.8082
 
              Baa    -0.0019    -1.002    -0.357    -0.334  0.0889 -0.3092  0.9468
    49 H(1)   Bbb    -0.0005    -0.293    -0.105    -0.098  0.8459 -0.4785 -0.2357
              Bcc     0.0024     1.295     0.462     0.432  0.5259  0.8219  0.2190
 
              Baa    -0.0016    -0.877    -0.313    -0.292  0.3576 -0.3716  0.8568
    50 H(1)   Bbb     0.0003     0.135     0.048     0.045  0.7406 -0.4460 -0.5025
              Bcc     0.0014     0.741     0.265     0.247  0.5689  0.8142  0.1157
 
              Baa    -0.0030    -1.604    -0.572    -0.535  0.5654  0.7457  0.3525
    51 H(1)   Bbb    -0.0014    -0.751    -0.268    -0.250  0.3009 -0.5844  0.7536
              Bcc     0.0044     2.355     0.840     0.785  0.7679 -0.3200 -0.5548
 
              Baa    -0.0057    -3.064    -1.093    -1.022  0.8442 -0.3049 -0.4409
    52 H(1)   Bbb    -0.0016    -0.841    -0.300    -0.281  0.2659 -0.4761  0.8382
              Bcc     0.0073     3.905     1.393     1.303  0.4655  0.8248  0.3209
 
              Baa    -0.2467    -9.514    -3.395    -3.174  0.3068  0.7794  0.5462
    53 N(14)  Bbb    -0.2427    -9.361    -3.340    -3.122  0.8803 -0.4506  0.1484
              Bcc     0.4894    18.875     6.735     6.296 -0.3618 -0.4353  0.8244
 
              Baa    -0.1653    -6.374    -2.275    -2.126 -0.3411  0.7658  0.5452
    54 N(14)  Bbb    -0.1599    -6.168    -2.201    -2.057  0.8671  0.4803 -0.1322
              Bcc     0.3252    12.542     4.475     4.184  0.3631 -0.4277  0.8278
 

 ---------------------------------------------------------------------------------

 Calling FoFJK, ICntrl=      2127 FMM=F ISym2X=0 I1Cent= 0 IOpClX= 1 NMat=1 NMatS=1 NMatT=0.
 -------------------------------------------------------------------
 Center     Atomic                   Forces (Hartrees/Bohr)
 Number     Number              X              Y              Z
 -------------------------------------------------------------------
      1        6          -0.006506427    0.009890826   -0.005333790
      2        6          -0.002754810   -0.009153408    0.003131037
      3        6          -0.000123994   -0.004387273   -0.000187648
      4        6           0.001111383   -0.006879754    0.007984192
      5        6           0.002148193    0.007192359   -0.008560770
      6        6          -0.000543914    0.003778356    0.003257681
      7        1           0.000050746   -0.000001743    0.000876964
      8        1          -0.000794110   -0.000146966   -0.000692678
      9        6          -0.002210609   -0.002205053    0.000764026
     10        7           0.001358935    0.000868849   -0.000013376
     11        6          -0.002819013    0.001493670   -0.000395540
     12        7           0.001314183   -0.000775380    0.000234912
     13        6          -0.000787861    0.013071188   -0.000179143
     14        6          -0.004084124   -0.005286179    0.002020071
     15        6          -0.003170634   -0.002430545   -0.002431281
     16        6           0.005256296   -0.003490518   -0.000297938
     17        6          -0.002462315    0.001179069   -0.001386524
     18        6           0.001935069   -0.000003302    0.001801155
     19        6          -0.000917036   -0.000457545   -0.000165538
     20        1           0.000734097   -0.000232755    0.000348280
     21        6           0.000396243    0.004370776    0.003958250
     22        6           0.003654591   -0.000044556    0.000886807
     23        1           0.000595967   -0.000162643   -0.000576410
     24        6          -0.001348739   -0.003819227   -0.003103077
     25        6          -0.002383288   -0.001532405   -0.001476734
     26        1           0.000104314    0.000142283    0.000093478
     27        1           0.000090456    0.000011917   -0.000130919
     28        6          -0.002084212    0.004156121    0.002287024
     29        1           0.000274566   -0.000222793   -0.000325496
     30        1          -0.000089657    0.000071000    0.000051849
     31        1          -0.000169769    0.000262285   -0.000101189
     32        1          -0.000350278   -0.000410398    0.000299265
     33        6          -0.002636953    0.002784005   -0.001963074
     34        6          -0.001364846   -0.008904357    0.000639865
     35        6           0.000307680   -0.000051756    0.000725992
     36        6          -0.001764693    0.001629955    0.001032563
     37        6          -0.001004878    0.001659741    0.001796598
     38        6           0.003235799   -0.001061576   -0.001119373
     39        6           0.000523131    0.000480233    0.000664179
     40        1           0.000208299   -0.000018707    0.000287911
     41        6           0.001340670   -0.001386455   -0.000876939
     42        6          -0.000833560   -0.000615301   -0.000479273
     43        1           0.000462446    0.000075741   -0.000490330
     44        6          -0.000356928    0.000812553    0.000093153
     45        6           0.000815489    0.000513067    0.000074214
     46        1           0.000171449    0.000067085   -0.000215937
     47        1          -0.000223857    0.000262026   -0.000182232
     48        6           0.000855124   -0.000197554   -0.000400360
     49        1          -0.000098309    0.000268385   -0.000066897
     50        1           0.000388071    0.000222719    0.000186588
     51        1           0.000087828    0.000530047   -0.000561196
     52        1           0.000242763    0.000241785    0.000192315
     53        7           0.009310130   -0.007017920   -0.000639033
     54        7           0.004910897    0.004860026   -0.001335676
 -------------------------------------------------------------------
 Cartesian Forces:  Max     0.013071188 RMS     0.002856842

 GradGradGradGradGradGradGradGradGradGradGradGradGradGradGradGradGradGrad
 Berny optimization.
 Search for a local minimum.
 Step number   1 out of a maximum of    2
 All quantities printed in internal units (Hartrees-Bohrs-Radians)
 Second derivative matrix not updated -- first step.
 ITU=  0
     Eigenvalues ---    0.00008   0.00009   0.00022   0.00076   0.00078
     Eigenvalues ---    0.00113   0.00182   0.00266   0.00292   0.00302
     Eigenvalues ---    0.00322   0.00447   0.00716   0.00850   0.00936
     Eigenvalues ---    0.01026   0.01225   0.01234   0.01242   0.01259
     Eigenvalues ---    0.01673   0.02385   0.02427   0.02543   0.02601
     Eigenvalues ---    0.02606   0.02624   0.02719   0.02970   0.03426
     Eigenvalues ---    0.03442   0.03630   0.04609   0.04651   0.04704
     Eigenvalues ---    0.04981   0.06588   0.06744   0.06997   0.07009
     Eigenvalues ---    0.07022   0.07026   0.07051   0.07065   0.07100
     Eigenvalues ---    0.07114   0.07448   0.07898   0.07912   0.07940
     Eigenvalues ---    0.08611   0.08978   0.09469   0.10176   0.10557
     Eigenvalues ---    0.10678   0.10761   0.10780   0.11139   0.12477
     Eigenvalues ---    0.12512   0.12519   0.12627   0.12845   0.13580
     Eigenvalues ---    0.13717   0.13871   0.15072   0.15121   0.15322
     Eigenvalues ---    0.17552   0.18489   0.19537   0.19581   0.21243
     Eigenvalues ---    0.21826   0.23229   0.24519   0.26508   0.27640
     Eigenvalues ---    0.28047   0.28331   0.29687   0.30126   0.30765
     Eigenvalues ---    0.30988   0.31631   0.32960   0.35699   0.35798
     Eigenvalues ---    0.35820   0.36688   0.38057   0.40880   0.42805
     Eigenvalues ---    0.43024   0.43152   0.43353   0.46045   0.47560
     Eigenvalues ---    0.48251   0.49787   0.50254   0.50614   0.50807
     Eigenvalues ---    0.52481   0.53206   0.59322   0.60323   0.62232
     Eigenvalues ---    0.64133   0.71408   0.71426   0.74386   0.77984
     Eigenvalues ---    0.81882   0.82425   0.89677   0.90571   0.94825
     Eigenvalues ---    1.02942   1.06692   1.11012   1.12933   1.14178
     Eigenvalues ---    1.15186   1.15219   1.15416   1.19191   1.20101
     Eigenvalues ---    1.26196   1.29757   1.30781   1.39637   1.40062
     Eigenvalues ---    1.41141   1.43284   1.48731   1.49039   1.49705
     Eigenvalues ---    1.50017   1.50067   1.54542   1.58681   1.64414
     Eigenvalues ---    1.65051   1.66855   1.69697   1.71210   1.74152
     Eigenvalues ---    1.76282   1.76462   2.80470   2.80918  38.68873
     Eigenvalues ---  124.66288
 Eigenvalue     1 is   7.88D-05 Eigenvector:
                          Z51       Z32       Z46       Z45       X49
   1                    0.20603  -0.18479   0.17927   0.16657  -0.16591
                          X46       X29       X26       X52       X31
   1                    0.16474   0.16278  -0.16110  -0.15831  -0.15172
 Eigenvalue     2 is   9.15D-05 Eigenvector:
                          Z26       Z31       Z52       Z29       Z49
   1                    0.21845   0.21587   0.21558  -0.21483   0.21013
                          Z46       Z19       Z48       Z25       Z42
   1                   -0.18560   0.16903   0.16868   0.16776   0.16536
 Quadratic step=5.022D+00 exceeds max=3.000D-01 adjusted using Lamda=-6.972D-03.
 Angle between NR and scaled steps=  50.99 degrees.
 Angle between quadratic step and forces=  74.50 degrees.
 Linear search not attempted -- first point.
 B after Tr=     0.000339   -0.000731    0.000567
         Rot=    1.000000    0.000005    0.000110    0.000028 Ang=   0.01 deg.
 Variable       Old X    -DE/DX   Delta X   Delta X   Delta X     New X
                                 (Linear)    (Quad)   (Total)
    X1        2.65484  -0.00651   0.00000  -0.00169  -0.00110   2.65373
    Y1        0.92362   0.00989   0.00000   0.03441   0.03352   0.95714
    Z1       -0.91814  -0.00533   0.00000   0.01123   0.01237  -0.90578
    X2        2.68883  -0.00275   0.00000  -0.00141  -0.00135   2.68747
    Y2       -0.93726  -0.00915   0.00000  -0.04047  -0.04134  -0.97859
    Z2        1.07088   0.00313   0.00000  -0.02976  -0.02859   1.04229
    X3        4.97726  -0.00012   0.00000  -0.00840  -0.00858   4.96868
    Y3       -1.82666  -0.00439   0.00000  -0.06775  -0.06874  -1.89540
    Z3        1.93254  -0.00019   0.00000  -0.03406  -0.03239   1.90015
    X4        7.26941   0.00111   0.00000  -0.00749  -0.00741   7.26200
    Y4       -0.93248  -0.00688   0.00000  -0.03011  -0.03124  -0.96372
    Z4        0.94683   0.00798   0.00000   0.00040   0.00257   0.94941
    X5        7.21157   0.00215   0.00000  -0.00101  -0.00038   7.21118
    Y5        0.92492   0.00719   0.00000   0.02839   0.02725   0.95217
    Z5       -1.08654  -0.00856   0.00000   0.01533   0.01747  -1.06907
    X6        4.88164  -0.00054   0.00000  -0.00015   0.00071   4.88236
    Y6        1.82083   0.00378   0.00000   0.07044   0.06941   1.89024
    Z6       -1.93677   0.00326   0.00000   0.04759   0.04921  -1.88756
    X7        5.01039   0.00005   0.00000  -0.01308  -0.01366   4.99673
    Y7       -3.28506  -0.00000   0.00000  -0.07582  -0.07680  -3.36186
    Z7        3.37642   0.00088   0.00000  -0.04034  -0.03864   3.33778
    X8        4.83424  -0.00079   0.00000  -0.00661  -0.00535   4.82890
    Y8        3.26356  -0.00015   0.00000   0.08441   0.08338   3.34694
    Z8       -3.39604  -0.00069   0.00000   0.06043   0.06203  -3.33401
    X9        9.44816  -0.00221   0.00000   0.00294   0.00388   9.45203
    Y9        1.82858  -0.00221   0.00000   0.01701   0.01573   1.84431
    Z9       -2.25483   0.00076   0.00000   0.02201   0.02463  -2.23020
   X10       11.24384   0.00136   0.00000   0.01247   0.01367  11.25751
   Y10        2.59228   0.00087   0.00000   0.00888   0.00748   2.59976
   Z10       -3.26553  -0.00001   0.00000   0.03033   0.03334  -3.23218
   X11        9.58058  -0.00282   0.00000  -0.01079  -0.01098   9.56960
   Y11       -1.85231   0.00149   0.00000  -0.02475  -0.02600  -1.87831
   Z11        1.93679  -0.00040   0.00000   0.00281   0.00550   1.94229
   X12       11.45870   0.00131   0.00000  -0.00729  -0.00771  11.45099
   Y12       -2.62591  -0.00078   0.00000  -0.02017  -0.02151  -2.64742
   Z12        2.77750   0.00023   0.00000   0.00226   0.00537   2.78288
   X13       -0.61909  -0.00079   0.00000   0.01006   0.01076  -0.60833
   Y13        4.24983   0.01307   0.00000   0.04617   0.04546   4.29529
   Z13       -0.52255  -0.00018   0.00000  -0.02971  -0.02932  -0.55186
   X14       -1.65116  -0.00408   0.00000  -0.00608  -0.00506  -1.65622
   Y14        0.90631  -0.00529   0.00000  -0.01405  -0.01472   0.89159
   Z14       -2.91296   0.00202   0.00000   0.03326   0.03345  -2.87950
   X15        0.69664  -0.00317   0.00000  -0.00426  -0.00380   0.69284
   Y15        5.98271  -0.00243   0.00000   0.04453   0.04376   6.02647
   Z15        0.99183  -0.00243   0.00000  -0.03257  -0.03191   0.95992
   X16       -3.18487   0.00526   0.00000   0.00407   0.00493  -3.17993
   Y16        4.60636  -0.00349   0.00000   0.00900   0.00843   4.61479
   Z16       -1.23437  -0.00030   0.00000   0.00356   0.00338  -1.23098
   X17       -1.57061  -0.00246   0.00000  -0.00149  -0.00030  -1.57091
   Y17       -1.36491   0.00118   0.00000   0.00049  -0.00020  -1.36511
   Z17       -4.24196  -0.00139   0.00000   0.01196   0.01219  -4.22977
   X18       -3.84902   0.00194   0.00000  -0.00222  -0.00114  -3.85016
   Y18        2.42398  -0.00000   0.00000  -0.01015  -0.01069   2.41329
   Z18       -2.78175   0.00180   0.00000   0.02910   0.02880  -2.75295
   X19       -0.62200  -0.00092   0.00000  -0.01872  -0.01832  -0.64032
   Y19        8.10281  -0.00046   0.00000   0.02911   0.02843   8.13124
   Z19        1.79501  -0.00017   0.00000  -0.01493  -0.01459   1.78042
   X20        2.65927   0.00073   0.00000  -0.00235  -0.00201   2.65726
   Y20        5.65782  -0.00023   0.00000   0.04713   0.04627   5.70408
   Z20        1.48503   0.00035   0.00000  -0.02753  -0.02643   1.45860
   X21       -4.45483   0.00040   0.00000  -0.01133  -0.01052  -4.46535
   Y21        6.73344   0.00437   0.00000   0.00508   0.00460   6.73804
   Z21       -0.40301   0.00396   0.00000   0.01234   0.01186  -0.39116
   X22       -3.79206   0.00365   0.00000   0.00151   0.00292  -3.78914
   Y22       -2.12639  -0.00004   0.00000  -0.00045  -0.00103  -2.12742
   Z22       -5.45354   0.00089   0.00000   0.01741   0.01716  -5.43638
   X23        0.15771   0.00060   0.00000   0.00758   0.00875   0.16646
   Y23       -2.45698  -0.00016   0.00000   0.01455   0.01376  -2.44322
   Z23       -4.34998  -0.00058   0.00000  -0.01801  -0.01739  -4.36736
   X24       -6.01121  -0.00135   0.00000  -0.00790  -0.00659  -6.01780
   Y24        1.65444  -0.00382   0.00000  -0.01661  -0.01705   1.63740
   Z24       -4.03015  -0.00310   0.00000   0.03238   0.03161  -3.99855
   X25       -3.15533  -0.00238   0.00000  -0.02406  -0.02349  -3.17883
   Y25        8.47198  -0.00153   0.00000   0.01496   0.01442   8.48640
   Z25        1.11504  -0.00148   0.00000  -0.00131  -0.00153   1.11351
   X26        0.32171   0.00010   0.00000  -0.02195  -0.02173   0.29998
   Y26        9.49663   0.00014   0.00000   0.02776   0.02704   9.52368
   Z26        2.96436   0.00009   0.00000  -0.00985  -0.00931   2.95505
   X27       -6.42098   0.00009   0.00000  -0.01615  -0.01523  -6.43621
   Y27        7.05429   0.00001   0.00000  -0.01264  -0.01302   7.04128
   Z27       -0.89366  -0.00013   0.00000   0.02138   0.02046  -0.87320
   X28       -5.96264  -0.00208   0.00000  -0.01071  -0.00923  -5.97188
   Y28       -0.64107   0.00416   0.00000  -0.01153  -0.01199  -0.65306
   Z28       -5.36756   0.00229   0.00000   0.03882   0.03808  -5.32948
   X29       -3.81065   0.00027   0.00000   0.00992   0.01146  -3.79918
   Y29       -3.89593  -0.00022   0.00000   0.00781   0.00723  -3.88871
   Z29       -6.48686  -0.00033   0.00000   0.00085   0.00062  -6.48624
   X30       -7.71772  -0.00009   0.00000  -0.00694  -0.00557  -7.72329
   Y30        2.79209   0.00007   0.00000  -0.01440  -0.01473   2.77735
   Z30       -3.98826   0.00005   0.00000   0.02919   0.02803  -3.96023
   X31       -4.13466  -0.00017   0.00000  -0.03217  -0.03166  -4.16632
   Y31       10.14512   0.00026   0.00000   0.00968   0.00920  10.15432
   Z31        1.78189  -0.00010   0.00000   0.00090   0.00045   1.78235
   X32       -7.64573  -0.00035   0.00000  -0.01482  -0.01316  -7.65889
   Y32       -1.25115  -0.00041   0.00000  -0.01914  -0.01950  -1.27065
   Z32       -6.36575   0.00030   0.00000   0.04862   0.04752  -6.31823
   X33       -1.64568  -0.00264   0.00000   0.00393   0.00356  -1.64213
   Y33       -0.92638   0.00278   0.00000   0.00738   0.00678  -0.91961
   Z33        3.04132  -0.00196   0.00000  -0.03742  -0.03720   3.00411
   X34       -0.57081  -0.00136   0.00000   0.00550   0.00545  -0.56536
   Y34       -4.27216  -0.00890   0.00000  -0.04340  -0.04409  -4.31625
   Z34        0.66139   0.00064   0.00000   0.01063   0.01111   0.67250
   X35       -1.62025   0.00031   0.00000   0.02176   0.02120  -1.59905
   Y35        1.31250  -0.00005   0.00000   0.00147   0.00087   1.31337
   Z35        4.42523   0.00073   0.00000  -0.02480  -0.02460   4.40063
   X36       -3.85698  -0.00176   0.00000   0.00468   0.00428  -3.85270
   Y36       -2.39681   0.00163   0.00000   0.00435   0.00387  -2.39294
   Z36        2.77525   0.00103   0.00000  -0.02168  -0.02193   2.75332
   X37        0.74068  -0.00100   0.00000   0.00266   0.00284   0.74352
   Y37       -6.02903   0.00166   0.00000  -0.03989  -0.04067  -6.06970
   Z37       -0.82361   0.00180   0.00000   0.01417   0.01497  -0.80864
   X38       -3.17423   0.00324   0.00000   0.00655   0.00636  -3.16787
   Y38       -4.55746  -0.00106   0.00000  -0.01720  -0.01775  -4.57521
   Z38        1.23294  -0.00112   0.00000  -0.00133  -0.00141   1.23153
   X39       -3.88139   0.00052   0.00000   0.02781   0.02705  -3.85434
   Y39        2.07095   0.00048   0.00000   0.01157   0.01111   2.08207
   Z39        5.54366   0.00066   0.00000  -0.02135  -0.02165   5.52201
   X40        0.11225   0.00021   0.00000   0.02932   0.02877   0.14102
   Y40        2.38406  -0.00002   0.00000  -0.01270  -0.01340   2.37067
   Z40        4.65473   0.00029   0.00000  -0.01364  -0.01307   4.64166
   X41       -6.08198   0.00134   0.00000   0.01046   0.00985  -6.07213
   Y41       -1.62337  -0.00139   0.00000   0.01647   0.01611  -1.60725
   Z41        3.94713  -0.00088   0.00000  -0.02510  -0.02586   3.92128
   X42       -0.61099  -0.00083   0.00000  -0.00507  -0.00480  -0.61579
   Y42       -8.08036  -0.00062   0.00000  -0.02914  -0.02986  -8.11022
   Z42       -1.73317  -0.00048   0.00000   0.00249   0.00300  -1.73017
   X43        2.73849   0.00046   0.00000   0.00163   0.00191   2.74040
   Y43       -5.77945   0.00008   0.00000  -0.03532  -0.03622  -5.81567
   Z43       -1.21358  -0.00049   0.00000   0.00323   0.00445  -1.20912
   X44       -4.48594  -0.00036   0.00000  -0.00011  -0.00021  -4.48615
   Y44       -6.63245   0.00081   0.00000  -0.01176  -0.01223  -6.64468
   Z44        0.28560   0.00009   0.00000   0.00166   0.00131   0.28691
   X45       -6.08069   0.00082   0.00000   0.02121   0.02042  -6.06027
   Y45        0.62110   0.00051   0.00000   0.02311   0.02277   0.64387
   Z45        5.32650   0.00007   0.00000  -0.03133  -0.03210   5.29440
   X46       -3.91914   0.00017   0.00000   0.03486   0.03396  -3.88518
   Y46        3.80823   0.00007   0.00000   0.00990   0.00945   3.81768
   Z46        6.63341  -0.00022   0.00000  -0.01867  -0.01900   6.61441
   X47       -7.78418  -0.00022   0.00000   0.00353   0.00289  -7.78129
   Y47       -2.76070   0.00026   0.00000   0.02554   0.02528  -2.73543
   Z47        3.80300  -0.00018   0.00000  -0.02141  -0.02252   3.78047
   X48       -3.19489   0.00086   0.00000  -0.00459  -0.00446  -3.19935
   Y48       -8.38018  -0.00020   0.00000  -0.01809  -0.01865  -8.39883
   Z48       -1.19525  -0.00040   0.00000   0.00306   0.00301  -1.19224
   X49        0.34878  -0.00010   0.00000  -0.01116  -0.01072   0.33806
   Y49       -9.48994   0.00027   0.00000  -0.02307  -0.02384  -9.51379
   Z49       -2.87317  -0.00007   0.00000  -0.00863  -0.00789  -2.88106
   X50       -6.48538   0.00039   0.00000  -0.00094  -0.00113  -6.48652
   Y50       -6.88067   0.00022   0.00000   0.00097   0.00061  -6.88005
   Z50        0.68037   0.00019   0.00000  -0.00005  -0.00084   0.67953
   X51       -7.79610   0.00009   0.00000   0.02024   0.01928  -7.77682
   Y51        1.22999   0.00053   0.00000   0.03891   0.03867   1.26866
   Z51        6.27109  -0.00056   0.00000  -0.04326  -0.04442   6.22667
   X52       -4.19412   0.00024   0.00000  -0.00981  -0.00961  -4.20373
   Y52      -10.00847   0.00024   0.00000  -0.01236  -0.01287 -10.02135
   Z52       -1.94364   0.00019   0.00000   0.00129   0.00104  -1.94260
   X53        0.26185   0.00931   0.00000   0.00803   0.00882   0.27067
   Y53        2.03335  -0.00702   0.00000   0.01527   0.01451   2.04786
   Z53       -1.52928  -0.00064   0.00000   0.00333   0.00393  -1.52535
   X54        0.33090   0.00491   0.00000   0.00174   0.00158   0.33248
   Y54       -2.08070   0.00486   0.00000  -0.01654  -0.01727  -2.09797
   Z54        1.74654  -0.00134   0.00000  -0.02700  -0.02634   1.72021
         Item               Value     Threshold  Converged?
 Maximum Force            0.013071     0.000450     NO 
 RMS     Force            0.002857     0.000300     NO 
 Maximum Displacement     0.083376     0.001800     NO 
 RMS     Displacement     0.023625     0.001200     NO 
 Predicted change in Energy=-1.777076D-03
 GradGradGradGradGradGradGradGradGradGradGradGradGradGradGradGradGradGrad

 Unable to Open any file for archive entry.
 1\1\GINC-X10P1N1\Force\UM062X\6-31G(d)\C32H18N4(3)\MAYUMIAO\13-Jul-202
 4\0\\# 6-31g(d) m062x g09default scf=(xqc,maxcycle=64) force guess=rea
 d nosymm\\Title Card\\0,3\C,1.40487904,0.48875901,-0.48586122\C,1.4228
 6534,-0.49597408,0.5666876\C,2.63385185,-0.96662602,1.02265423\C,3.846
 80551,-0.49344891,0.50104259\C,3.8161969,0.48944571,-0.57497458\C,2.58
 325469,0.96354083,-1.02489285\H,2.65138607,-1.73837907,1.78672458\H,2.
 55817101,1.72700371,-1.797106\C,4.99974939,0.96764328,-1.19320357\N,5.
 94998466,1.37177618,-1.72804218\C,5.06982432,-0.98019992,1.02490702\N,
 6.06368346,-1.38957174,1.46979093\C,-0.32760747,2.24891273,-0.27651997
 \C,-0.87375431,0.47960044,-1.54147014\C,0.36864489,3.16591347,0.524856
 47\C,-1.68535955,2.43757988,-0.65319935\C,-0.83113152,-0.72227872,-2.2
 4475112\C,-2.03681302,1.28271474,-1.47203849\C,-0.32915075,4.28782443,
 0.94987666\H,1.40722572,2.99398677,0.78584392\C,-2.35739264,3.56318526
 ,-0.21326481\C,-2.00667366,-1.12523671,-2.88588775\H,0.08345841,-1.300
 17764,-2.30190894\C,-3.18099387,0.87549446,-2.13266528\C,-1.66973041,4
 .48318127,0.59005229\H,0.17024104,5.02540203,1.56867429\H,-3.39783841,
 3.73297156,-0.47290585\C,-3.15529366,-0.33924186,-2.84039189\H,-2.0165
 0677,-2.06163874,-3.4326992\H,-4.08403906,1.47750971,-2.11049733\H,-2.
 1879675,5.36856378,0.94293706\H,-4.04594454,-0.6620794,-3.3686102\C,-0
 .87085877,-0.49021977,1.60939679\C,-0.30205812,-2.26073008,0.34999035\
 C,-0.85740155,0.69454346,2.34172954\C,-2.04102402,-1.26833473,1.468598
 38\C,0.39195263,-3.19042659,-0.43583494\C,-1.67973041,-2.41170408,0.65
 244276\C,-2.05394239,1.09590088,2.93357731\H,0.05939856,1.26159233,2.4
 6317447\C,-3.21844263,-0.85905028,2.08873374\C,-0.32332109,-4.27594255
 ,-0.91715378\H,1.44914777,-3.05835181,-0.64219785\C,-2.37385815,-3.509
 74119,0.15113349\C,-3.2177633,0.32867061,2.81866382\H,-2.07392168,2.01
 523025,3.51024803\H,-4.11921125,-1.46090168,2.01245909\C,-1.6906638,-4
 .4345995,-0.63250149\H,0.18456585,-5.02186034,-1.52041402\H,-3.4319173
 2,-3.64109127,0.36003515\H,-4.12551926,0.65088286,3.31851753\H,-2.2194
 3465,-5.29625681,-1.02853014\N,0.13856428,1.07600314,-0.80926254\N,0.1
 7510316,-1.10105643,0.92422953\\Version=ES64L-G16RevC.01\HF=-1448.5816
 862\S2=2.029354\S2-1=0.\S2A=2.000551\RMSD=9.329e-09\RMSF=2.857e-03\Dip
 ole=-6.5896233,0.3659767,-0.1115555\Quadrupole=-40.1061876,29.0460794,
 11.0601082,-0.6698475,2.8291086,13.8005928\PG=C01 [X(C32H18N4)]\\@
 The archive entry for this job was punched.


 COMMON SENSE IS NOT SO COMMON.   -- VOLTAIRE
 Job cpu time:       0 days  0 hours 51 minutes 55.8 seconds.
 Elapsed time:       0 days  0 hours  1 minutes 52.4 seconds.
 File lengths (MBytes):  RWF=    314 Int=      0 D2E=      0 Chk=     25 Scr=      1
 Normal termination of Gaussian 16 at Sat Jul 13 23:33:26 2024.
