 Entering Gaussian System, Link 0=g16
 Input=JOBS/15_A.gjf
 Output=JOBS/15_A.log
 Initial command:
 /data/app/gaussian/C01-avx2//g16/l1.exe "/tmp/Gau-1313772.inp" -scrdir="/tmp/"
 Entering Link 1 = /data/app/gaussian/C01-avx2//g16/l1.exe PID=   1313773.
  
 Copyright (c) 1988-2019, Gaussian, Inc.  All Rights Reserved.
  
 This is part of the Gaussian(R) 16 program.  It is based on
 the Gaussian(R) 09 system (copyright 2009, Gaussian, Inc.),
 the Gaussian(R) 03 system (copyright 2003, Gaussian, Inc.),
 the Gaussian(R) 98 system (copyright 1998, Gaussian, Inc.),
 the Gaussian(R) 94 system (copyright 1995, Gaussian, Inc.),
 the Gaussian 92(TM) system (copyright 1992, Gaussian, Inc.),
 the Gaussian 90(TM) system (copyright 1990, Gaussian, Inc.),
 the Gaussian 88(TM) system (copyright 1988, Gaussian, Inc.),
 the Gaussian 86(TM) system (copyright 1986, Carnegie Mellon
 University), and the Gaussian 82(TM) system (copyright 1983,
 Carnegie Mellon University). Gaussian is a federally registered
 trademark of Gaussian, Inc.
  
 This software contains proprietary and confidential information,
 including trade secrets, belonging to Gaussian, Inc.
  
 This software is provided under written license and may be
 used, copied, transmitted, or stored only in accord with that
 written license.
  
 The following legend is applicable only to US Government
 contracts under FAR:
  
                    RESTRICTED RIGHTS LEGEND
  
 Use, reproduction and disclosure by the US Government is
 subject to restrictions as set forth in subparagraphs (a)
 and (c) of the Commercial Computer Software - Restricted
 Rights clause in FAR 52.227-19.
  
 Gaussian, Inc.
 340 Quinnipiac St., Bldg. 40, Wallingford CT 06492
  
  
 ---------------------------------------------------------------
 Warning -- This program may not be used in any manner that
 competes with the business of Gaussian, Inc. or will provide
 assistance to any competitor of Gaussian, Inc.  The licensee
 of this program is prohibited from giving any competitor of
 Gaussian, Inc. access to this program.  By using this program,
 the user acknowledges that Gaussian, Inc. is engaged in the
 business of creating and licensing software in the field of
 computational chemistry and represents and warrants to the
 licensee that it is not a competitor of Gaussian, Inc. and that
 it will not use this program in any manner prohibited above.
 ---------------------------------------------------------------
  

 Cite this work as:
 Gaussian 16, Revision C.01,
 M. J. Frisch, G. W. Trucks, H. B. Schlegel, G. E. Scuseria, 
 M. A. Robb, J. R. Cheeseman, G. Scalmani, V. Barone, 
 G. A. Petersson, H. Nakatsuji, X. Li, M. Caricato, A. V. Marenich, 
 J. Bloino, B. G. Janesko, R. Gomperts, B. Mennucci, H. P. Hratchian, 
 J. V. Ortiz, A. F. Izmaylov, J. L. Sonnenberg, D. Williams-Young, 
 F. Ding, F. Lipparini, F. Egidi, J. Goings, B. Peng, A. Petrone, 
 T. Henderson, D. Ranasinghe, V. G. Zakrzewski, J. Gao, N. Rega, 
 G. Zheng, W. Liang, M. Hada, M. Ehara, K. Toyota, R. Fukuda, 
 J. Hasegawa, M. Ishida, T. Nakajima, Y. Honda, O. Kitao, H. Nakai, 
 T. Vreven, K. Throssell, J. A. Montgomery, Jr., J. E. Peralta, 
 F. Ogliaro, M. J. Bearpark, J. J. Heyd, E. N. Brothers, K. N. Kudin, 
 V. N. Staroverov, T. A. Keith, R. Kobayashi, J. Normand, 
 K. Raghavachari, A. P. Rendell, J. C. Burant, S. S. Iyengar, 
 J. Tomasi, M. Cossi, J. M. Millam, M. Klene, C. Adamo, R. Cammi, 
 J. W. Ochterski, R. L. Martin, K. Morokuma, O. Farkas, 
 J. B. Foresman, and D. J. Fox, Gaussian, Inc., Wallingford CT, 2019.
 
 ******************************************
 Gaussian 16:  ES64L-G16RevC.01  3-Jul-2019
                13-Jul-2024 
 ******************************************
 %chk=a.chk
 %nprocshared=28
 Will use up to   28 processors via shared memory.
 %mem=48gb
 ----------------------------------------------------------------------
 # 6-31g(d) m062x g09default scf=(xqc,maxcycle=64) force guess=read td 
 nosymm
 ----------------------------------------------------------------------
 1/10=7,30=1,38=1,158=3,167=1/1,3;
 2/12=2,15=1,17=6,18=5,40=1/2;
 3/5=1,6=6,7=1,11=9,25=1,27=10,30=1,71=1,74=-55,75=-4,116=-2,158=3/1,2,3,8;
 4/5=1,60=-1/1;
 5/5=2,7=64,8=3,13=1,38=6,87=10/2,8;
 8/6=1,10=2,87=10/1;
 9/15=2,42=1,70=2,87=10/14;
 10/5=4,31=1,87=10/2;
 6/7=2,8=2,9=2,10=2,18=1,87=10/1;
 7/12=6,13=5,29=1,30=1,87=10/1,2,3,16;
 1/10=7,30=1,158=3,167=1/3;
 99//99;
 Using 2006 physical constants.
 ----------
 Title Card
 ----------
 Symbolic Z-matrix:
 Charge =  0 Multiplicity = 1
 6                     1.40491   0.48996  -0.4855 
 6                     1.42297  -0.49668   0.56562 
 6                     2.63395  -0.96786   1.0226 
 6                     3.8468   -0.49378   0.50156 
 6                     3.81628   0.48965  -0.57587 
 6                     2.58338   0.96506  -1.02395 
 1                     2.65197  -1.73856   1.78757 
 1                     2.55745   1.72772  -1.79726 
 6                     5.00007   0.96714  -1.19421 
 7                     5.95023   1.37222  -1.72871 
 6                     5.06978  -0.98021   1.02568 
 7                     6.06406  -1.3894    1.4698 
 6                    -0.32761   2.24925  -0.27624 
 6                    -0.87447   0.47839  -1.53998 
 6                     0.36826   3.16537   0.52543 
 6                    -1.68527   2.4366   -0.65169 
 6                    -0.83135  -0.72257  -2.24484 
 6                    -2.03694   1.28184  -1.47118 
 6                    -0.32953   4.28709   0.95074 
 1                     1.40792   2.99505   0.78398 
 6                    -2.35746   3.56295  -0.21209 
 6                    -2.00674  -1.12527  -2.88586 
 1                     0.08289  -1.30091  -2.30155 
 6                    -3.18034   0.87558  -2.13344 
 6                    -1.66986   4.48291   0.59054 
 1                     0.17064   5.02491   1.56873 
 1                    -3.39701   3.73408  -0.47372 
 6                    -3.15558  -0.33913  -2.84037 
 1                    -2.01578  -2.06179  -3.4327 
 1                    -4.08308   1.47859  -2.11221 
 1                    -2.18751   5.36922   0.94219 
 1                    -4.04621  -0.66252  -3.36845 
 6                    -0.87156  -0.48932   1.60796 
 6                    -0.30218  -2.26048   0.34965 
 6                    -0.85758   0.69477   2.34175 
 6                    -2.0418   -1.26804   1.46838 
 6                     0.39217  -3.19006  -0.43618 
 6                    -1.67969  -2.41149   0.65167 
 6                    -2.05428   1.09581   2.93426 
 1                     0.05883   1.26189   2.46298 
 6                    -3.2181   -0.85995   2.08941 
 6                    -0.32316  -4.27596  -0.91781 
 1                     1.44968  -3.05969  -0.6413 
 6                    -2.37417  -3.50917   0.15097 
 6                    -3.21784   0.32816   2.8194 
 1                    -2.07447   2.01536   3.51013 
 1                    -4.11962  -1.46127   2.01326 
 6                    -1.69075  -4.43438  -0.63291 
 1                     0.1847   -5.02192  -1.51973 
 1                    -3.43154  -3.641     0.36098 
 1                    -4.12568   0.65101   3.31818 
 1                    -2.21908  -5.29578  -1.02874 
 7                     0.13892   1.07547  -0.80898 
 7                     0.17408  -1.10019   0.92226 
 

 GradGradGradGradGradGradGradGradGradGradGradGradGradGradGradGradGradGrad
 Berny optimization.
 Initialization pass.
 Trust Radius=3.00D-01 FncErr=1.00D-07 GrdErr=1.00D-07 EigMax=2.50D+02 EigMin=1.00D-04
 Number of steps in this run=      2 maximum allowed number of steps=      2.
 GradGradGradGradGradGradGradGradGradGradGradGradGradGradGradGradGradGrad

 Symmetry turned off by external request.
 Stoichiometry    C32H18N4
 Framework group  C1[X(C32H18N4)]
 Deg. of freedom   156
 Full point group                 C1      NOp   1
                          Input orientation:                          
 ---------------------------------------------------------------------
 Center     Atomic      Atomic             Coordinates (Angstroms)
 Number     Number       Type             X           Y           Z
 ---------------------------------------------------------------------
      1          6           0        1.404905    0.489961   -0.485503
      2          6           0        1.422970   -0.496677    0.565617
      3          6           0        2.633948   -0.967856    1.022596
      4          6           0        3.846803   -0.493782    0.501556
      5          6           0        3.816283    0.489654   -0.575871
      6          6           0        2.583383    0.965064   -1.023952
      7          1           0        2.651968   -1.738560    1.787567
      8          1           0        2.557452    1.727719   -1.797258
      9          6           0        5.000068    0.967139   -1.194207
     10          7           0        5.950227    1.372222   -1.728713
     11          6           0        5.069784   -0.980206    1.025680
     12          7           0        6.064058   -1.389401    1.469804
     13          6           0       -0.327613    2.249254   -0.276236
     14          6           0       -0.874475    0.478389   -1.539980
     15          6           0        0.368258    3.165372    0.525426
     16          6           0       -1.685266    2.436605   -0.651687
     17          6           0       -0.831346   -0.722574   -2.244838
     18          6           0       -2.036944    1.281837   -1.471179
     19          6           0       -0.329530    4.287090    0.950744
     20          1           0        1.407925    2.995050    0.783975
     21          6           0       -2.357457    3.562950   -0.212088
     22          6           0       -2.006736   -1.125266   -2.885865
     23          1           0        0.082888   -1.300914   -2.301549
     24          6           0       -3.180344    0.875583   -2.133444
     25          6           0       -1.669856    4.482907    0.590544
     26          1           0        0.170639    5.024912    1.568731
     27          1           0       -3.397011    3.734081   -0.473720
     28          6           0       -3.155582   -0.339125   -2.840373
     29          1           0       -2.015778   -2.061786   -3.432701
     30          1           0       -4.083075    1.478591   -2.112207
     31          1           0       -2.187513    5.369218    0.942192
     32          1           0       -4.046210   -0.662518   -3.368450
     33          6           0       -0.871564   -0.489319    1.607962
     34          6           0       -0.302176   -2.260483    0.349651
     35          6           0       -0.857584    0.694769    2.341754
     36          6           0       -2.041803   -1.268041    1.468383
     37          6           0        0.392172   -3.190060   -0.436181
     38          6           0       -1.679693   -2.411488    0.651669
     39          6           0       -2.054285    1.095812    2.934257
     40          1           0        0.058829    1.261889    2.462985
     41          6           0       -3.218100   -0.859949    2.089409
     42          6           0       -0.323157   -4.275956   -0.917810
     43          1           0        1.449683   -3.059690   -0.641304
     44          6           0       -2.374174   -3.509175    0.150972
     45          6           0       -3.217844    0.328163    2.819399
     46          1           0       -2.074468    2.015362    3.510125
     47          1           0       -4.119618   -1.461269    2.013258
     48          6           0       -1.690751   -4.434379   -0.632905
     49          1           0        0.184700   -5.021917   -1.519733
     50          1           0       -3.431541   -3.640999    0.360975
     51          1           0       -4.125676    0.651012    3.318177
     52          1           0       -2.219077   -5.295782   -1.028744
     53          7           0        0.138917    1.075468   -0.808981
     54          7           0        0.174078   -1.100189    0.922263
 ---------------------------------------------------------------------
 Rotational constants (GHZ):           0.1588402           0.1164001           0.0924894
 Standard basis: 6-31G(d) (6D, 7F)
   576 basis functions,  1080 primitive gaussians,   576 cartesian basis functions
   119 alpha electrons      119 beta electrons
       nuclear repulsion energy      3658.3104113941 Hartrees.
 NAtoms=   54 NActive=   54 NUniq=   54 SFac= 1.00D+00 NAtFMM=   60 NAOKFM=F Big=F
 Integral buffers will be    131072 words long.
 Regular integral format.
 Two-electron integral symmetry is turned off.
 One-electron integrals computed using PRISM.
 NBasis=   576 RedAO= T EigKep=  2.59D-04  NBF=   576
 NBsUse=   576 1.00D-06 EigRej= -1.00D+00 NBFU=   576
 Initial guess from the checkpoint file:  "a.chk"
 B after Tr=    -0.000112   -0.000072    0.000038
         Rot=    1.000000   -0.000043   -0.000011   -0.000008 Ang=  -0.01 deg.
 Requested convergence on RMS density matrix=1.00D-08 within  64 cycles.
 Requested convergence on MAX density matrix=1.00D-06.
 Requested convergence on             energy=1.00D-06.
 No special actions if energy rises.
 SCF Done:  E(RM062X) =  -1448.68865702     A.U. after   10 cycles
            NFock= 10  Conv=0.36D-08     -V/T= 2.0088
 QCSCF skips out because SCF is already converged.
 DoSCS=F DFT=T ScalE2(SS,OS)=  1.000000  1.000000
 ExpMin= 1.61D-01 ExpMax= 4.17D+03 ExpMxC= 6.27D+02 IAcc=3 IRadAn=         5 AccDes= 0.00D+00
 HarFok:  IExCor=  205 AccDes= 0.00D+00 IRadAn=         5 IDoV=-2 UseB2=F ITyADJ=14
 ICtDFT= 12500011 ScaDFX=  1.000000  1.000000  1.000000  1.000000
 GSVD:  LWork=       -1584 too small for GESVD, short by        7020 words or        7020 for optimal perf.
 Range of M.O.s used for correlation:    37   576
 NBasis=   576 NAE=   119 NBE=   119 NFC=    36 NFV=     0
 NROrb=    540 NOA=    83 NOB=    83 NVA=   457 NVB=   457

 **** Warning!!: The largest alpha MO coefficient is  0.10545626D+02

    12 initial guesses have been made.
 Convergence on wavefunction:    0.000001000000000
 Iteration     1 Dimension    12 NMult     0 NNew     12
 CISAX will form    12 AO SS matrices at one time.
 Iteration     2 Dimension    18 NMult    12 NNew      6
 Iteration     3 Dimension    24 NMult    18 NNew      6
 Iteration     4 Dimension    30 NMult    24 NNew      6
 Iteration     5 Dimension    36 NMult    30 NNew      6
 Iteration     6 Dimension    42 NMult    36 NNew      6
 Iteration     7 Dimension    48 NMult    42 NNew      6
 Iteration     8 Dimension    54 NMult    48 NNew      6
 Iteration     9 Dimension    60 NMult    54 NNew      6
 Iteration    10 Dimension    66 NMult    60 NNew      6
 Iteration    11 Dimension    72 NMult    66 NNew      6
 Iteration    12 Dimension    78 NMult    72 NNew      6
 Iteration    13 Dimension    80 NMult    78 NNew      2
 ***********************************************************************
 Excited states from <AA,BB:AA,BB> singles matrix:
 ***********************************************************************
 
 Ground to excited state transition densities written to RWF  633
 Ground to excited state transition electric dipole moments (Au):
       state          X           Y           Z        Dip. S.      Osc.
         1         0.1047     -0.2749      0.2373      0.1429      0.0101
         2        -0.5251     -0.0694      0.0788      0.2868      0.0222
         3         0.0078      0.1343     -0.0689      0.0228      0.0020
 Ground to excited state transition velocity dipole moments (Au):
       state          X           Y           Z        Dip. S.      Osc.
         1        -0.0114      0.0272     -0.0305      0.0018      0.0113
         2         0.0617      0.0078     -0.0105      0.0040      0.0229
         3        -0.0010     -0.0209      0.0125      0.0006      0.0030
 Ground to excited state transition magnetic dipole moments (Au):
       state          X           Y           Z
         1        -0.0414      0.2686      0.2669
         2         0.2419      0.0902      0.0743
         3         0.0123     -0.2253      0.0385
 Ground to excited state transition velocity quadrupole moments (Au):
       state          XX          YY          ZZ          XY          XZ          YZ
         1        -0.0748      0.0359      0.0079      0.0047     -0.0100      0.0098
         2         0.3536     -0.1515     -0.0552      0.0098     -0.0142     -0.0563
         3        -0.0001      0.0058     -0.0050     -0.0489      0.0324     -0.0007
 <0|del|b> * <b|rxdel|0> + <0|del|b> * <b|delr+rdel|0>
 Rotatory Strengths (R) in cgs (10**-40 erg-esu-cm/Gauss)
       state          XX          YY          ZZ    R(velocity)    E-M Angle
         1        -2.4247    -25.4631     25.3025     -0.8617       91.38
         2        -0.2203     32.8407     57.8721     30.1642       28.82
         3        14.0616      2.8977     10.7549      9.2380       21.87
 1/2[<0|r|b>*<b|rxdel|0> + (<0|rxdel|b>*<b|r|0>)*]
 Rotatory Strengths (R) in cgs (10**-40 erg-esu-cm/Gauss)
       state          XX          YY          ZZ     R(length)
         1         3.0639     52.2093    -44.7977      3.4918
         2        89.8206      4.4247     -4.1380     30.0358
         3        -0.0680     21.3929      1.8771      7.7340
  1/2[<0|del|b>*<b|r|0> + (<0|r|b>*<b|del|0>)*] (Au)
       state          X           Y           Z        Dip. S.   Osc.(frdel)
         1        -0.0012     -0.0075     -0.0072      0.0159      0.0106
         2        -0.0324     -0.0005     -0.0008      0.0338      0.0225
         3        -0.0000     -0.0028     -0.0009      0.0037      0.0025

 Excitation energies and oscillator strengths:
 
 Excited state symmetry could not be determined.
 Excited State   1:      Singlet-?Sym    2.8912 eV  428.83 nm  f=0.0101  <S**2>=0.000
     119 ->120         0.68932
 This state for optimization and/or second-order correction.
 Total Energy, E(TD-HF/TD-DFT) =  -1448.58240667    
 Copying the excited state density for this state as the 1-particle RhoCI density.
 
 Excited state symmetry could not be determined.
 Excited State   2:      Singlet-?Sym    3.1578 eV  392.63 nm  f=0.0222  <S**2>=0.000
     118 ->120         0.68806
 
 Excited state symmetry could not be determined.
 Excited State   3:      Singlet-?Sym    3.5947 eV  344.90 nm  f=0.0020  <S**2>=0.000
     117 ->120         0.69537
 SavETr:  write IOETrn=   770 NScale= 10 NData=  16 NLR=1 NState=    3 LETran=      64.
          IDoAtm=11111111111111111111111111111111111111111111111111
          IDoAtm=1111
          Differentiating once with respect to electric field.
                with respect to dipole field.
          Differentiating once with respect to nuclear coordinates.
          There are     1 degrees of freedom in the 1st order CPHF.  IDoFFX=0 NUNeed=     1.
 LinEq1:  Iter=  0 NonCon=     1 RMS=3.98D-03 Max=1.89D-01 NDo=     1
 AX will form     1 AO Fock derivatives at one time.
 LinEq1:  Iter=  1 NonCon=     1 RMS=2.45D-03 Max=1.76D-01 NDo=     1
 LinEq1:  Iter=  2 NonCon=     1 RMS=1.69D-03 Max=9.87D-02 NDo=     1
 LinEq1:  Iter=  3 NonCon=     1 RMS=9.14D-04 Max=5.91D-02 NDo=     1
 LinEq1:  Iter=  4 NonCon=     1 RMS=6.20D-04 Max=4.26D-02 NDo=     1
 LinEq1:  Iter=  5 NonCon=     1 RMS=3.24D-04 Max=1.41D-02 NDo=     1
 LinEq1:  Iter=  6 NonCon=     1 RMS=1.60D-04 Max=1.24D-02 NDo=     1
 LinEq1:  Iter=  7 NonCon=     1 RMS=9.85D-05 Max=5.50D-03 NDo=     1
 LinEq1:  Iter=  8 NonCon=     1 RMS=6.45D-05 Max=3.87D-03 NDo=     1
 LinEq1:  Iter=  9 NonCon=     1 RMS=4.11D-05 Max=1.85D-03 NDo=     1
 LinEq1:  Iter= 10 NonCon=     1 RMS=1.99D-05 Max=7.62D-04 NDo=     1
 LinEq1:  Iter= 11 NonCon=     1 RMS=1.02D-05 Max=5.24D-04 NDo=     1
 LinEq1:  Iter= 12 NonCon=     1 RMS=7.30D-06 Max=3.93D-04 NDo=     1
 LinEq1:  Iter= 13 NonCon=     1 RMS=4.34D-06 Max=2.36D-04 NDo=     1
 LinEq1:  Iter= 14 NonCon=     1 RMS=2.72D-06 Max=1.42D-04 NDo=     1
 LinEq1:  Iter= 15 NonCon=     1 RMS=1.31D-06 Max=5.31D-05 NDo=     1
 LinEq1:  Iter= 16 NonCon=     1 RMS=8.46D-07 Max=3.40D-05 NDo=     1
 LinEq1:  Iter= 17 NonCon=     1 RMS=3.45D-07 Max=1.10D-05 NDo=     1
 LinEq1:  Iter= 18 NonCon=     1 RMS=1.61D-07 Max=6.64D-06 NDo=     1
 LinEq1:  Iter= 19 NonCon=     1 RMS=8.66D-08 Max=3.43D-06 NDo=     1
 LinEq1:  Iter= 20 NonCon=     1 RMS=4.27D-08 Max=1.78D-06 NDo=     1
 LinEq1:  Iter= 21 NonCon=     1 RMS=2.50D-08 Max=1.19D-06 NDo=     1
 LinEq1:  Iter= 22 NonCon=     1 RMS=1.50D-08 Max=8.05D-07 NDo=     1
 LinEq1:  Iter= 23 NonCon=     1 RMS=5.98D-09 Max=3.17D-07 NDo=     1
 LinEq1:  Iter= 24 NonCon=     1 RMS=3.21D-09 Max=1.36D-07 NDo=     1
 LinEq1:  Iter= 25 NonCon=     1 RMS=1.49D-09 Max=7.65D-08 NDo=     1
 LinEq1:  Iter= 26 NonCon=     1 RMS=7.64D-10 Max=2.74D-08 NDo=     1
 LinEq1:  Iter= 27 NonCon=     1 RMS=3.49D-10 Max=1.19D-08 NDo=     1
 LinEq1:  Iter= 28 NonCon=     1 RMS=1.41D-10 Max=7.44D-09 NDo=     1
 LinEq1:  Iter= 29 NonCon=     1 RMS=6.93D-11 Max=3.29D-09 NDo=     1
 LinEq1:  Iter= 30 NonCon=     1 RMS=3.09D-11 Max=1.42D-09 NDo=     1
 LinEq1:  Iter= 31 NonCon=     0 RMS=1.52D-11 Max=5.83D-10 NDo=     1
 Linear equations converged to 1.000D-10 1.000D-09 after    31 iterations.
 End of Minotr F.D. properties file   721 does not exist.
 End of Minotr F.D. properties file   722 does not exist.
 End of Minotr F.D. properties file   788 does not exist.

 **********************************************************************

            Population analysis using the SCF Density.

 **********************************************************************

 Alpha  occ. eigenvalues --  -14.82700 -14.82487 -14.79607 -14.79592 -10.65588
 Alpha  occ. eigenvalues --  -10.65506 -10.65330 -10.65247 -10.62060 -10.61994
 Alpha  occ. eigenvalues --  -10.61604 -10.61588 -10.60036 -10.59953 -10.59702
 Alpha  occ. eigenvalues --  -10.59604 -10.56244 -10.56141 -10.56053 -10.56037
 Alpha  occ. eigenvalues --  -10.56013 -10.55975 -10.55937 -10.55934 -10.55842
 Alpha  occ. eigenvalues --  -10.55820 -10.55792 -10.55674 -10.55664 -10.55649
 Alpha  occ. eigenvalues --  -10.55509 -10.55422 -10.55266 -10.55155 -10.54945
 Alpha  occ. eigenvalues --  -10.54870  -1.13875  -1.11582  -1.05187  -1.03458
 Alpha  occ. eigenvalues --   -1.01762  -0.96829  -0.96269  -0.95870  -0.95554
 Alpha  occ. eigenvalues --   -0.92265  -0.91729  -0.88361  -0.87640  -0.85717
 Alpha  occ. eigenvalues --   -0.85319  -0.83712  -0.82614  -0.81960  -0.81824
 Alpha  occ. eigenvalues --   -0.78802  -0.76921  -0.73325  -0.73010  -0.70020
 Alpha  occ. eigenvalues --   -0.69941  -0.69740  -0.69155  -0.66596  -0.66293
 Alpha  occ. eigenvalues --   -0.66241  -0.63687  -0.62270  -0.61368  -0.60158
 Alpha  occ. eigenvalues --   -0.59736  -0.59011  -0.58453  -0.56308  -0.55895
 Alpha  occ. eigenvalues --   -0.53860  -0.53494  -0.53136  -0.53109  -0.52697
 Alpha  occ. eigenvalues --   -0.52503  -0.51405  -0.51290  -0.50688  -0.50603
 Alpha  occ. eigenvalues --   -0.49330  -0.49226  -0.49185  -0.49134  -0.48655
 Alpha  occ. eigenvalues --   -0.48459  -0.46203  -0.46060  -0.45266  -0.44059
 Alpha  occ. eigenvalues --   -0.43749  -0.43448  -0.43248  -0.43044  -0.42647
 Alpha  occ. eigenvalues --   -0.42247  -0.42192  -0.42095  -0.40712  -0.40609
 Alpha  occ. eigenvalues --   -0.40367  -0.40142  -0.39795  -0.39436  -0.36474
 Alpha  occ. eigenvalues --   -0.34559  -0.34403  -0.33971  -0.31851  -0.30519
 Alpha  occ. eigenvalues --   -0.27385  -0.26661  -0.26405  -0.25116
 Alpha virt. eigenvalues --   -0.08057  -0.03909  -0.00506  -0.00291   0.02747
 Alpha virt. eigenvalues --    0.03541   0.04579   0.05360   0.05707   0.05947
 Alpha virt. eigenvalues --    0.07069   0.07439   0.07722   0.10901   0.11039
 Alpha virt. eigenvalues --    0.13334   0.13588   0.14129   0.14745   0.14906
 Alpha virt. eigenvalues --    0.15819   0.17277   0.18011   0.18279   0.19347
 Alpha virt. eigenvalues --    0.19531   0.19712   0.20000   0.20281   0.21080
 Alpha virt. eigenvalues --    0.21452   0.21890   0.22835   0.22944   0.23259
 Alpha virt. eigenvalues --    0.23606   0.24488   0.24582   0.24721   0.24915
 Alpha virt. eigenvalues --    0.25205   0.26486   0.27597   0.27677   0.28548
 Alpha virt. eigenvalues --    0.29008   0.29608   0.29640   0.31220   0.32040
 Alpha virt. eigenvalues --    0.32632   0.33289   0.33898   0.34158   0.36029
 Alpha virt. eigenvalues --    0.36452   0.36920   0.37329   0.38351   0.39140
 Alpha virt. eigenvalues --    0.40034   0.40216   0.40752   0.41164   0.42450
 Alpha virt. eigenvalues --    0.42828   0.44017   0.45897   0.46333   0.47188
 Alpha virt. eigenvalues --    0.48649   0.48709   0.49259   0.51573   0.51683
 Alpha virt. eigenvalues --    0.52092   0.53074   0.53494   0.54146   0.54902
 Alpha virt. eigenvalues --    0.55003   0.56076   0.56249   0.56648   0.57145
 Alpha virt. eigenvalues --    0.57915   0.58500   0.58570   0.58800   0.59353
 Alpha virt. eigenvalues --    0.59510   0.60047   0.60355   0.60762   0.60873
 Alpha virt. eigenvalues --    0.61516   0.62020   0.62227   0.62463   0.62576
 Alpha virt. eigenvalues --    0.63499   0.64151   0.64237   0.64580   0.64737
 Alpha virt. eigenvalues --    0.64778   0.65210   0.65244   0.65345   0.66041
 Alpha virt. eigenvalues --    0.66340   0.66950   0.67130   0.67379   0.67729
 Alpha virt. eigenvalues --    0.68127   0.68301   0.68696   0.68951   0.69493
 Alpha virt. eigenvalues --    0.69558   0.69704   0.70101   0.70143   0.72169
 Alpha virt. eigenvalues --    0.72240   0.73397   0.74194   0.74802   0.75609
 Alpha virt. eigenvalues --    0.76160   0.76633   0.78072   0.78659   0.79044
 Alpha virt. eigenvalues --    0.82062   0.82456   0.83003   0.83478   0.83569
 Alpha virt. eigenvalues --    0.84702   0.85374   0.85776   0.86336   0.86590
 Alpha virt. eigenvalues --    0.86840   0.87697   0.87853   0.88342   0.89035
 Alpha virt. eigenvalues --    0.89353   0.89616   0.89727   0.90184   0.90277
 Alpha virt. eigenvalues --    0.90787   0.90984   0.91231   0.91738   0.91912
 Alpha virt. eigenvalues --    0.92383   0.92414   0.92634   0.93667   0.93931
 Alpha virt. eigenvalues --    0.94476   0.94710   0.95643   0.96079   0.96483
 Alpha virt. eigenvalues --    0.97308   0.97599   0.98837   0.99854   1.00361
 Alpha virt. eigenvalues --    1.00955   1.01345   1.01455   1.02497   1.03172
 Alpha virt. eigenvalues --    1.03479   1.04014   1.04757   1.05077   1.05663
 Alpha virt. eigenvalues --    1.06605   1.07219   1.08042   1.09485   1.10056
 Alpha virt. eigenvalues --    1.10285   1.13087   1.14126   1.14466   1.15075
 Alpha virt. eigenvalues --    1.16845   1.17764   1.18692   1.19235   1.19622
 Alpha virt. eigenvalues --    1.20619   1.21033   1.21745   1.21857   1.22626
 Alpha virt. eigenvalues --    1.23999   1.24436   1.25408   1.25769   1.26026
 Alpha virt. eigenvalues --    1.28771   1.29969   1.30677   1.30729   1.31694
 Alpha virt. eigenvalues --    1.32824   1.32950   1.33999   1.34485   1.35509
 Alpha virt. eigenvalues --    1.36267   1.37199   1.37895   1.38707   1.39505
 Alpha virt. eigenvalues --    1.40170   1.40816   1.41542   1.42551   1.43170
 Alpha virt. eigenvalues --    1.43577   1.44571   1.46491   1.47166   1.48007
 Alpha virt. eigenvalues --    1.49447   1.49992   1.50684   1.50949   1.52372
 Alpha virt. eigenvalues --    1.52558   1.52874   1.53079   1.53522   1.54036
 Alpha virt. eigenvalues --    1.54208   1.54317   1.54510   1.54691   1.55458
 Alpha virt. eigenvalues --    1.55517   1.55910   1.57001   1.58427   1.59482
 Alpha virt. eigenvalues --    1.60193   1.61709   1.63175   1.64093   1.67337
 Alpha virt. eigenvalues --    1.67623   1.69165   1.71504   1.73113   1.74022
 Alpha virt. eigenvalues --    1.74433   1.75964   1.76852   1.78231   1.78730
 Alpha virt. eigenvalues --    1.80424   1.80638   1.81309   1.81660   1.82248
 Alpha virt. eigenvalues --    1.83048   1.83857   1.84781   1.85182   1.86467
 Alpha virt. eigenvalues --    1.87105   1.87500   1.88379   1.89191   1.89836
 Alpha virt. eigenvalues --    1.91091   1.92123   1.93183   1.93814   1.94700
 Alpha virt. eigenvalues --    1.95056   1.96016   1.96828   1.97174   1.98187
 Alpha virt. eigenvalues --    1.98537   1.98678   1.99832   2.00623   2.01371
 Alpha virt. eigenvalues --    2.01913   2.02159   2.02397   2.03222   2.03395
 Alpha virt. eigenvalues --    2.03684   2.04058   2.04469   2.05750   2.06042
 Alpha virt. eigenvalues --    2.07170   2.07497   2.08693   2.09806   2.11077
 Alpha virt. eigenvalues --    2.11751   2.12581   2.13039   2.14442   2.14603
 Alpha virt. eigenvalues --    2.14948   2.15568   2.16722   2.17178   2.17467
 Alpha virt. eigenvalues --    2.18775   2.19498   2.21191   2.21809   2.22130
 Alpha virt. eigenvalues --    2.23426   2.23511   2.24484   2.24660   2.26716
 Alpha virt. eigenvalues --    2.27424   2.27717   2.28456   2.28856   2.29218
 Alpha virt. eigenvalues --    2.29381   2.30619   2.30787   2.31497   2.32309
 Alpha virt. eigenvalues --    2.33209   2.33523   2.34681   2.35928   2.36575
 Alpha virt. eigenvalues --    2.40400   2.40851   2.42708   2.43248   2.43585
 Alpha virt. eigenvalues --    2.46191   2.48022   2.50042   2.50851   2.51176
 Alpha virt. eigenvalues --    2.53850   2.54840   2.56127   2.56630   2.57321
 Alpha virt. eigenvalues --    2.59578   2.60555   2.60924   2.63142   2.65076
 Alpha virt. eigenvalues --    2.65765   2.66139   2.66274   2.67919   2.68585
 Alpha virt. eigenvalues --    2.69078   2.69840   2.70362   2.70736   2.71490
 Alpha virt. eigenvalues --    2.72010   2.72115   2.72728   2.72877   2.74809
 Alpha virt. eigenvalues --    2.75274   2.75558   2.75847   2.77785   2.79113
 Alpha virt. eigenvalues --    2.81736   2.82544   2.83669   2.85506   2.85643
 Alpha virt. eigenvalues --    2.85945   2.86496   2.87090   2.88598   2.91633
 Alpha virt. eigenvalues --    2.93693   2.94227   2.95905   2.97785   3.00185
 Alpha virt. eigenvalues --    3.00597   3.02984   3.08553   3.08742   3.21351
 Alpha virt. eigenvalues --    3.23086   3.23849   3.25797   3.30597   3.32436
 Alpha virt. eigenvalues --    3.32471   3.38640   3.38844   3.49833   3.52315
 Alpha virt. eigenvalues --    3.52942   3.99671   4.07446   4.09953   4.10555
 Alpha virt. eigenvalues --    4.10959   4.12739   4.12970   4.13896   4.15054
 Alpha virt. eigenvalues --    4.16742   4.17404   4.18861   4.20692   4.23109
 Alpha virt. eigenvalues --    4.23552   4.26720   4.27943   4.30887   4.34188
 Alpha virt. eigenvalues --    4.34959   4.37302   4.41865   4.43437   4.44808
 Alpha virt. eigenvalues --    4.47783   4.48754   4.51185   4.52442   4.53075
 Alpha virt. eigenvalues --    4.65973   4.67494   4.76928   4.78802   4.86889
 Alpha virt. eigenvalues --    4.90166   4.93020
          Condensed to atoms (all electrons):
 Mulliken charges:
               1
     1  C    0.217594
     2  C    0.233623
     3  C   -0.198061
     4  C    0.132038
     5  C    0.125817
     6  C   -0.180847
     7  H    0.234218
     8  H    0.236936
     9  C    0.234346
    10  N   -0.439013
    11  C    0.231753
    12  N   -0.439242
    13  C    0.288609
    14  C    0.277601
    15  C   -0.185446
    16  C    0.042130
    17  C   -0.166872
    18  C    0.048928
    19  C   -0.173304
    20  H    0.159420
    21  C   -0.190461
    22  C   -0.166595
    23  H    0.159235
    24  C   -0.195874
    25  C   -0.186843
    26  H    0.166613
    27  H    0.170355
    28  C   -0.181983
    29  H    0.165738
    30  H    0.166816
    31  H    0.160052
    32  H    0.159499
    33  C    0.282069
    34  C    0.284975
    35  C   -0.166862
    36  C    0.038315
    37  C   -0.185943
    38  C    0.038035
    39  C   -0.167509
    40  H    0.159390
    41  C   -0.185775
    42  C   -0.174899
    43  H    0.160217
    44  C   -0.181736
    45  C   -0.180826
    46  H    0.165783
    47  H    0.166694
    48  C   -0.185962
    49  H    0.166796
    50  H    0.170262
    51  H    0.161304
    52  H    0.161823
    53  N   -0.716475
    54  N   -0.716456
 Sum of Mulliken charges =  -0.00000
 Mulliken charges with hydrogens summed into heavy atoms:
               1
     1  C    0.217594
     2  C    0.233623
     3  C    0.036157
     4  C    0.132038
     5  C    0.125817
     6  C    0.056088
     9  C    0.234346
    10  N   -0.439013
    11  C    0.231753
    12  N   -0.439242
    13  C    0.288609
    14  C    0.277601
    15  C   -0.026026
    16  C    0.042130
    17  C   -0.007636
    18  C    0.048928
    19  C   -0.006691
    21  C   -0.020107
    22  C   -0.000857
    24  C   -0.029059
    25  C   -0.026791
    28  C   -0.022484
    33  C    0.282069
    34  C    0.284975
    35  C   -0.007472
    36  C    0.038315
    37  C   -0.025726
    38  C    0.038035
    39  C   -0.001726
    41  C   -0.019081
    42  C   -0.008103
    44  C   -0.011473
    45  C   -0.019522
    48  C   -0.024139
    53  N   -0.716475
    54  N   -0.716456
 Electronic spatial extent (au):  <R**2>=          12747.4801
 Charge=             -0.0000 electrons
 Dipole moment (field-independent basis, Debye):
    X=             -5.5122    Y=             -0.0285    Z=              0.2179  Tot=              5.5166
 Quadrupole moment (field-independent basis, Debye-Ang):
   XX=           -236.5774   YY=           -193.6401   ZZ=           -206.0952
   XY=              0.1019   XZ=              1.6328   YZ=             13.4823
 Traceless Quadrupole moment (field-independent basis, Debye-Ang):
   XX=            -24.4731   YY=             18.4641   ZZ=              6.0090
   XY=              0.1019   XZ=              1.6328   YZ=             13.4823
 Octapole moment (field-independent basis, Debye-Ang**2):
  XXX=           -449.9960  YYY=              0.0303  ZZZ=              4.6401  XYY=            -44.6596
  XXY=              2.5101  XXZ=              7.4757  XZZ=            -34.8840  YZZ=              0.0149
  YYZ=             -0.6370  XYZ=             17.7965
 Hexadecapole moment (field-independent basis, Debye-Ang**3):
 XXXX=         -11201.6531 YYYY=          -5736.3448 ZZZZ=          -3081.0986 XXXY=             40.4104
 XXXZ=             80.4219 YYYX=              9.5092 YYYZ=            156.9439 ZZZX=             55.8298
 ZZZY=             -8.4378 XXYY=          -2471.2376 XXZZ=          -2098.8298 YYZZ=          -1469.5339
 XXYZ=            151.9920 YYXZ=             22.7259 ZZXY=             -5.0842
 N-N= 3.658310411394D+03 E-N=-1.067195359121D+04  KE= 1.436117430578D+03
 Calling FoFJK, ICntrl=  10005127 FMM=F ISym2X=0 I1Cent= 0 IOpClX= 0 NMat=1 NMatS=1 NMatT=0.
 -------------------------------------------------------------------
 Center     Atomic                   Forces (Hartrees/Bohr)
 Number     Number              X              Y              Z
 -------------------------------------------------------------------
      1        6          -0.000502988    0.001294762   -0.000410471
      2        6          -0.000175206   -0.001410924    0.000060872
      3        6          -0.000047562   -0.000703939   -0.000127672
      4        6          -0.000038034   -0.000781032    0.000928362
      5        6           0.000339550    0.000594628   -0.000807615
      6        6          -0.000113675    0.000860102    0.000341892
      7        1          -0.000000760   -0.000074062    0.000635042
      8        1          -0.000269832   -0.000293134   -0.000485886
      9        6           0.000176576   -0.000165136   -0.000255520
     10        7           0.000014746    0.000198563    0.000594765
     11        6          -0.000482956    0.000168414    0.000130930
     12        7           0.000289320   -0.000331133   -0.000088225
     13        6          -0.000034886    0.001386519   -0.000453679
     14        6          -0.000352768   -0.000924567    0.000397119
     15        6          -0.000277723   -0.000272874   -0.000202257
     16        6           0.000548045   -0.000437817   -0.000155140
     17        6          -0.000414412    0.000253468   -0.000275355
     18        6           0.000353044   -0.000021993    0.000671695
     19        6          -0.000311754   -0.000182372    0.000188395
     20        1          -0.000123885   -0.000074541    0.000114603
     21        6           0.000034179    0.000293289    0.000613360
     22        6           0.000542476    0.000009732   -0.000133668
     23        1           0.000164347    0.000010659   -0.000390980
     24        6          -0.000538538   -0.000548579   -0.000380578
     25        6          -0.000448904   -0.000164013    0.000032006
     26        1          -0.000072269   -0.000042297   -0.000044019
     27        1           0.000063040    0.000006727   -0.000111336
     28        6          -0.000319661    0.000372212    0.000289218
     29        1           0.000150709   -0.000003739   -0.000190235
     30        1          -0.000020451   -0.000223233    0.000277741
     31        1          -0.000116908    0.000141263   -0.000153352
     32        1          -0.000227853   -0.000314914    0.000440533
     33        6          -0.000439555    0.000732208   -0.000191233
     34        6          -0.000237037   -0.001118210    0.000162391
     35        6           0.000032614   -0.000293767    0.000090756
     36        6           0.000097989    0.000117468   -0.000200114
     37        6          -0.000193128   -0.000105742   -0.000023965
     38        6           0.000264681   -0.000151795    0.000052088
     39        6           0.000190656   -0.000008056    0.000254200
     40        1           0.000325254   -0.000086883    0.000320142
     41        6          -0.000217289    0.000045414    0.000058070
     42        6          -0.000395075    0.000564076    0.000168184
     43        1           0.000127676    0.000102347   -0.000297014
     44        6           0.000048558    0.000198052    0.000036863
     45        6           0.000404151    0.000157465   -0.000041856
     46        1           0.000116411    0.000220917    0.000069519
     47        1          -0.000115492    0.000353586   -0.000223844
     48        6           0.000479945    0.000104102   -0.000185427
     49        1           0.000110343   -0.000073532   -0.000324054
     50        1           0.000098859    0.000094294    0.000272543
     51        1          -0.000060262    0.000479747   -0.000446168
     52        1           0.000031697   -0.000059025    0.000132452
     53        7           0.000939140   -0.000656266   -0.000203379
     54        7           0.000604854    0.000763562   -0.000530697
 -------------------------------------------------------------------
 Cartesian Forces:  Max     0.001410924 RMS     0.000394663

 GradGradGradGradGradGradGradGradGradGradGradGradGradGradGradGradGradGrad
 Berny optimization.
 Search for a local minimum.
 Step number   1 out of a maximum of    2
 All quantities printed in internal units (Hartrees-Bohrs-Radians)
 Second derivative matrix not updated -- first step.
 ITU=  0
     Eigenvalues ---    0.00008   0.00009   0.00022   0.00076   0.00078
     Eigenvalues ---    0.00113   0.00182   0.00265   0.00292   0.00302
     Eigenvalues ---    0.00322   0.00447   0.00716   0.00850   0.00936
     Eigenvalues ---    0.01024   0.01226   0.01233   0.01241   0.01256
     Eigenvalues ---    0.01674   0.02384   0.02426   0.02542   0.02600
     Eigenvalues ---    0.02607   0.02621   0.02720   0.02965   0.03425
     Eigenvalues ---    0.03442   0.03628   0.04610   0.04651   0.04703
     Eigenvalues ---    0.04981   0.06586   0.06747   0.06997   0.07010
     Eigenvalues ---    0.07025   0.07027   0.07055   0.07064   0.07104
     Eigenvalues ---    0.07113   0.07449   0.07901   0.07914   0.07944
     Eigenvalues ---    0.08609   0.08981   0.09466   0.10176   0.10558
     Eigenvalues ---    0.10681   0.10764   0.10781   0.11126   0.12473
     Eigenvalues ---    0.12512   0.12522   0.12628   0.12847   0.13586
     Eigenvalues ---    0.13718   0.13873   0.15070   0.15097   0.15306
     Eigenvalues ---    0.17590   0.18455   0.19528   0.19590   0.21238
     Eigenvalues ---    0.21835   0.23352   0.24342   0.26508   0.27639
     Eigenvalues ---    0.28049   0.28299   0.29701   0.30105   0.30776
     Eigenvalues ---    0.30976   0.31631   0.32955   0.35676   0.35805
     Eigenvalues ---    0.35813   0.36639   0.38077   0.40883   0.42822
     Eigenvalues ---    0.43033   0.43144   0.43365   0.46017   0.47585
     Eigenvalues ---    0.48256   0.49794   0.50319   0.50610   0.50806
     Eigenvalues ---    0.52505   0.53226   0.59340   0.60329   0.62247
     Eigenvalues ---    0.64145   0.71401   0.71438   0.74383   0.77984
     Eigenvalues ---    0.81910   0.82440   0.89745   0.90564   0.94807
     Eigenvalues ---    1.02932   1.06668   1.11024   1.12924   1.14209
     Eigenvalues ---    1.15190   1.15223   1.15417   1.19228   1.20105
     Eigenvalues ---    1.26247   1.29803   1.30736   1.39646   1.40015
     Eigenvalues ---    1.41160   1.43330   1.48736   1.49079   1.49749
     Eigenvalues ---    1.49975   1.50027   1.54492   1.58689   1.64468
     Eigenvalues ---    1.65114   1.66853   1.69676   1.71201   1.74206
     Eigenvalues ---    1.76166   1.76475   2.80433   2.80812  37.92067
     Eigenvalues ---  136.07322
 Eigenvalue     1 is   7.90D-05 Eigenvector:
                          Z51       Z46       Z32       Z45       X49
   1                    0.20852   0.18285  -0.18147   0.16854  -0.16670
                          X46       X29       X26       X52       Z39
   1                    0.16533   0.16174  -0.15982  -0.15910   0.15380
 Eigenvalue     2 is   9.18D-05 Eigenvector:
                          Z26       Z29       Z31       Z52       Z49
   1                    0.21956  -0.21755   0.21604   0.21499   0.20822
                          Z46       Z19       Z48       Z25       Z32
   1                   -0.18230   0.16957   0.16825   0.16776  -0.16666
 Quadratic step=4.036D+00 exceeds max=3.000D-01 adjusted using Lamda=-3.072D-03.
 Angle between NR and scaled steps=  38.00 degrees.
 Angle between quadratic step and forces=  71.98 degrees.
 Linear search not attempted -- first point.
 B after Tr=     0.000634   -0.000293    0.000657
         Rot=    1.000000   -0.000042    0.000176    0.000018 Ang=  -0.02 deg.
 Variable       Old X    -DE/DX   Delta X   Delta X   Delta X     New X
                                 (Linear)    (Quad)   (Total)
    X1        2.65489  -0.00050   0.00000   0.00754   0.00853   2.66342
    Y1        0.92589   0.00129   0.00000   0.00381   0.00350   0.92939
    Z1       -0.91747  -0.00041   0.00000  -0.00617  -0.00450  -0.92196
    X2        2.68902  -0.00018   0.00000   0.00551   0.00574   2.69476
    Y2       -0.93858  -0.00141   0.00000  -0.00681  -0.00729  -0.94587
    Z2        1.06886   0.00006   0.00000  -0.01249  -0.01096   1.05790
    X3        4.97744  -0.00005   0.00000   0.00047   0.00036   4.97780
    Y3       -1.82898  -0.00070   0.00000  -0.01398  -0.01461  -1.84360
    Z3        1.93243  -0.00013   0.00000  -0.00741  -0.00516   1.92726
    X4        7.26940  -0.00004   0.00000   0.00187   0.00214   7.27154
    Y4       -0.93311  -0.00078   0.00000  -0.00994  -0.01057  -0.94369
    Z4        0.94780   0.00093   0.00000   0.00093   0.00407   0.95187
    X5        7.21173   0.00034   0.00000   0.00776   0.00880   7.22053
    Y5        0.92531   0.00059   0.00000   0.00455   0.00409   0.92940
    Z5       -1.08824  -0.00081   0.00000   0.00842   0.01169  -1.07655
    X6        4.88189  -0.00011   0.00000   0.00955   0.01093   4.89281
    Y6        1.82371   0.00086   0.00000   0.00873   0.00842   1.83212
    Z6       -1.93499   0.00034   0.00000   0.00238   0.00490  -1.93009
    X7        5.01149  -0.00000   0.00000  -0.00467  -0.00534   5.00616
    Y7       -3.28540  -0.00007   0.00000  -0.01216  -0.01292  -3.29832
    Z7        3.37801   0.00064   0.00000  -0.00353  -0.00139   3.37662
    X8        4.83288  -0.00027   0.00000   0.00972   0.01167   4.84455
    Y8        3.26492  -0.00029   0.00000   0.00531   0.00512   3.27004
    Z8       -3.39633  -0.00049   0.00000  -0.00153   0.00110  -3.39523
    X9        9.44876   0.00018   0.00000   0.01443   0.01591   9.46467
    Y9        1.82763  -0.00017   0.00000   0.01663   0.01617   1.84380
    Z9       -2.25672  -0.00026   0.00000   0.03055   0.03469  -2.22204
   X10       11.24430   0.00001   0.00000   0.02276   0.02461  11.26891
   Y10        2.59312   0.00020   0.00000   0.02513   0.02469   2.61782
   Z10       -3.26679   0.00059   0.00000   0.05215   0.05698  -3.20981
   X11        9.58050  -0.00048   0.00000  -0.00142  -0.00154   9.57897
   Y11       -1.85232   0.00017   0.00000  -0.01912  -0.01992  -1.87224
   Z11        1.93825   0.00013   0.00000  -0.00074   0.00313   1.94138
   X12       11.45941   0.00029   0.00000  -0.00291  -0.00335  11.45606
   Y12       -2.62559  -0.00033   0.00000  -0.02614  -0.02708  -2.65267
   Z12        2.77753  -0.00009   0.00000  -0.00323   0.00123   2.77876
   X13       -0.61910  -0.00003   0.00000  -0.00371  -0.00273  -0.62183
   Y13        4.25047   0.00139   0.00000  -0.00550  -0.00572   4.24475
   Z13       -0.52201  -0.00045   0.00000  -0.00395  -0.00316  -0.52517
   X14       -1.65252  -0.00035   0.00000   0.00442   0.00611  -1.64640
   Y14        0.90402  -0.00092   0.00000  -0.01126  -0.01125   0.89278
   Z14       -2.91014   0.00040   0.00000  -0.00270  -0.00255  -2.91269
   X15        0.69591  -0.00028   0.00000  -0.01322  -0.01272   0.68319
   Y15        5.98169  -0.00027   0.00000  -0.00320  -0.00360   5.97809
   Z15        0.99291  -0.00020   0.00000   0.00033   0.00172   0.99463
   X16       -3.18469   0.00055   0.00000  -0.00866  -0.00743  -3.19212
   Y16        4.60452  -0.00044   0.00000  -0.02132  -0.02139   4.58312
   Z16       -1.23151  -0.00016   0.00000   0.00972   0.00964  -1.22187
   X17       -1.57102  -0.00041   0.00000   0.01333   0.01541  -1.55560
   Y17       -1.36547   0.00025   0.00000   0.00214   0.00226  -1.36321
   Z17       -4.24213  -0.00028   0.00000  -0.02509  -0.02510  -4.26722
   X18       -3.84927   0.00035   0.00000  -0.00678  -0.00509  -3.85435
   Y18        2.42232  -0.00002   0.00000  -0.02896  -0.02888   2.39344
   Z18       -2.78013   0.00067   0.00000   0.02064   0.02014  -2.75999
   X19       -0.62272  -0.00031   0.00000  -0.02322  -0.02292  -0.64564
   Y19        8.10143  -0.00018   0.00000  -0.01129  -0.01171   8.08972
   Z19        1.79664   0.00019   0.00000   0.00682   0.00792   1.80457
   X20        2.66059  -0.00012   0.00000  -0.01241  -0.01209   2.64850
   Y20        5.65982  -0.00007   0.00000   0.00381   0.00329   5.66312
   Z20        1.48150   0.00011   0.00000   0.00115   0.00321   1.48470
   X21       -4.45495   0.00003   0.00000  -0.01744  -0.01643  -4.47138
   Y21        6.73300   0.00029   0.00000  -0.02641  -0.02650   6.70650
   Z21       -0.40079   0.00061   0.00000   0.01224   0.01188  -0.38891
   X22       -3.79218   0.00054   0.00000   0.00857   0.01105  -3.78113
   Y22       -2.12644   0.00001   0.00000  -0.01179  -0.01149  -2.13794
   Z22       -5.45349  -0.00013   0.00000  -0.00681  -0.00766  -5.46115
   X23        0.15664   0.00016   0.00000   0.02443   0.02652   0.18315
   Y23       -2.45837   0.00001   0.00000   0.02230   0.02237  -2.43600
   Z23       -4.34930  -0.00039   0.00000  -0.05809  -0.05757  -4.40687
   X24       -6.00998  -0.00054   0.00000  -0.01610  -0.01400  -6.02398
   Y24        1.65461  -0.00055   0.00000  -0.04700  -0.04674   1.60787
   Z24       -4.03163  -0.00038   0.00000   0.04550   0.04418  -3.98745
   X25       -3.15557  -0.00045   0.00000  -0.02466  -0.02411  -3.17968
   Y25        8.47147  -0.00016   0.00000  -0.01916  -0.01943   8.45204
   Z25        1.11597   0.00003   0.00000   0.00828   0.00852   1.12449
   X26        0.32246  -0.00007   0.00000  -0.02768  -0.02774   0.29472
   Y26        9.49571  -0.00004   0.00000  -0.00890  -0.00945   9.48625
   Z26        2.96447  -0.00004   0.00000   0.00737   0.00892   2.97339
   X27       -6.41942   0.00006   0.00000  -0.01867  -0.01747  -6.43689
   Y27        7.05639   0.00001   0.00000  -0.03429  -0.03428   7.02211
   Z27       -0.89520  -0.00011   0.00000   0.01266   0.01164  -0.88356
   X28       -5.96319  -0.00032   0.00000  -0.01041  -0.00793  -5.97111
   Y28       -0.64085   0.00037   0.00000  -0.04083  -0.04046  -0.68132
   Z28       -5.36753   0.00029   0.00000   0.03706   0.03557  -5.33196
   X29       -3.80927   0.00015   0.00000   0.01827   0.02104  -3.78822
   Y29       -3.89621  -0.00000   0.00000  -0.00230  -0.00192  -3.89813
   Z29       -6.48687  -0.00019   0.00000  -0.02353  -0.02453  -6.51139
   X30       -7.71589  -0.00002   0.00000  -0.02696  -0.02485  -7.74074
   Y30        2.79413  -0.00022   0.00000  -0.06455  -0.06423   2.72990
   Z30       -3.99149   0.00028   0.00000   0.07271   0.07088  -3.92062
   X31       -4.13380  -0.00012   0.00000  -0.02967  -0.02930  -4.16310
   Y31       10.14635   0.00014   0.00000  -0.01971  -0.02000  10.12635
   Z31        1.78049  -0.00015   0.00000   0.00337   0.00341   1.78389
   X32       -7.64623  -0.00023   0.00000  -0.02038  -0.01759  -7.66382
   Y32       -1.25198  -0.00031   0.00000  -0.05869  -0.05818  -1.31016
   Z32       -6.36545   0.00044   0.00000   0.06449   0.06235  -6.30310
   X33       -1.64702  -0.00044   0.00000   0.01156   0.01110  -1.63592
   Y33       -0.92468   0.00073   0.00000   0.01117   0.01068  -0.91399
   Z33        3.03861  -0.00019   0.00000  -0.00764  -0.00763   3.03098
   X34       -0.57103  -0.00024   0.00000  -0.00366  -0.00341  -0.57444
   Y34       -4.27169  -0.00112   0.00000   0.00609   0.00576  -4.26593
   Z34        0.66075   0.00016   0.00000  -0.01144  -0.01134   0.64940
   X35       -1.62060   0.00003   0.00000   0.03063   0.02975  -1.59085
   Y35        1.31292  -0.00029   0.00000   0.00043  -0.00018   1.31275
   Z35        4.42527   0.00009   0.00000   0.00902   0.00923   4.43450
   X36       -3.85845   0.00010   0.00000   0.00257   0.00215  -3.85630
   Y36       -2.39625   0.00012   0.00000   0.02651   0.02613  -2.37012
   Z36        2.77484  -0.00020   0.00000  -0.01635  -0.01724   2.75760
   X37        0.74110  -0.00019   0.00000  -0.01100  -0.01029   0.73081
   Y37       -6.02834  -0.00011   0.00000   0.00941   0.00916  -6.01917
   Z37       -0.82426  -0.00002   0.00000  -0.02119  -0.02078  -0.84504
   X38       -3.17416   0.00026   0.00000  -0.00257  -0.00253  -3.17669
   Y38       -4.55705  -0.00015   0.00000   0.01516   0.01488  -4.54217
   Z38        1.23148   0.00005   0.00000  -0.00555  -0.00638   1.22509
   X39       -3.88204   0.00019   0.00000   0.03222   0.03099  -3.85105
   Y39        2.07079  -0.00001   0.00000   0.02217   0.02155   2.09234
   Z39        5.54494   0.00025   0.00000  -0.00333  -0.00385   5.54109
   X40        0.11117   0.00033   0.00000   0.04321   0.04229   0.15346
   Y40        2.38462  -0.00009   0.00000  -0.02342  -0.02410   2.36052
   Z40        4.65437   0.00032   0.00000   0.02994   0.03085   4.68522
   X41       -6.08133  -0.00022   0.00000   0.00154   0.00075  -6.08058
   Y41       -1.62507   0.00005   0.00000   0.05065   0.05025  -1.57482
   Z41        3.94841   0.00006   0.00000  -0.03256  -0.03417   3.91424
   X42       -0.61068  -0.00040   0.00000  -0.01668  -0.01572  -0.62640
   Y42       -8.08039   0.00056   0.00000   0.01335   0.01323  -8.06716
   Z42       -1.73441   0.00017   0.00000  -0.01842  -0.01865  -1.75306
   X43        2.73950   0.00013   0.00000  -0.01317  -0.01231   2.72719
   Y43       -5.78198   0.00010   0.00000   0.01117   0.01088  -5.77110
   Z43       -1.21189  -0.00030   0.00000  -0.03441  -0.03328  -1.24517
   X44       -4.48654   0.00005   0.00000  -0.00553  -0.00524  -4.49178
   Y44       -6.63138   0.00020   0.00000   0.01300   0.01284  -6.61853
   Z44        0.28530   0.00004   0.00000   0.00497   0.00350   0.28880
   X45       -6.08084   0.00040   0.00000   0.01599   0.01479  -6.06605
   Y45        0.62014   0.00016   0.00000   0.05141   0.05090   0.67104
   Z45        5.32789  -0.00004   0.00000  -0.03259  -0.03400   5.29389
   X46       -3.92018   0.00012   0.00000   0.04390   0.04234  -3.87784
   Y46        3.80848   0.00022   0.00000   0.01872   0.01801   3.82650
   Z46        6.63318   0.00007   0.00000   0.00348   0.00310   6.63627
   X47       -7.78495  -0.00012   0.00000  -0.01166  -0.01245  -7.79740
   Y47       -2.76140   0.00035   0.00000   0.07250   0.07218  -2.68922
   Z47        3.80451  -0.00022   0.00000  -0.04875  -0.05106   3.75345
   X48       -3.19506   0.00048   0.00000  -0.01192  -0.01118  -3.20623
   Y48       -8.37976   0.00010   0.00000   0.01161   0.01154  -8.36823
   Z48       -1.19602  -0.00019   0.00000  -0.00018  -0.00135  -1.19736
   X49        0.34903   0.00011   0.00000  -0.02327  -0.02196   0.32707
   Y49       -9.49005  -0.00007   0.00000   0.01626   0.01619  -9.47385
   Z49       -2.87188  -0.00032   0.00000  -0.02910  -0.02912  -2.90100
   X50       -6.48467   0.00010   0.00000  -0.00265  -0.00251  -6.48718
   Y50       -6.88049   0.00009   0.00000   0.01294   0.01282  -6.86767
   Z50        0.68214   0.00027   0.00000   0.01846   0.01627   0.69841
   X51       -7.79640  -0.00006   0.00000   0.01178   0.01029  -7.78611
   Y51        1.23023   0.00048   0.00000   0.07681   0.07629   1.30652
   Z51        6.27045  -0.00045   0.00000  -0.05651  -0.05848   6.21197
   X52       -4.19345   0.00003   0.00000  -0.01411  -0.01316  -4.20661
   Y52      -10.00758  -0.00006   0.00000   0.00844   0.00846  -9.99912
   Z52       -1.94404   0.00013   0.00000   0.00968   0.00803  -1.93601
   X53        0.26251   0.00094   0.00000   0.00509   0.00634   0.26885
   Y53        2.03234  -0.00066   0.00000  -0.00270  -0.00288   2.02946
   Z53       -1.52875  -0.00020   0.00000  -0.00756  -0.00664  -1.53539
   X54        0.32896   0.00060   0.00000   0.00380   0.00375   0.33271
   Y54       -2.07906   0.00076   0.00000   0.00355   0.00310  -2.07595
   Z54        1.74282  -0.00053   0.00000  -0.01278  -0.01218   1.73064
         Item               Value     Threshold  Converged?
 Maximum Force            0.001411     0.000450     NO 
 RMS     Force            0.000395     0.000300     NO 
 Maximum Displacement     0.076287     0.001800     NO 
 RMS     Displacement     0.023537     0.001200     NO 
 Predicted change in Energy=-3.706501D-04
 GradGradGradGradGradGradGradGradGradGradGradGradGradGradGradGradGradGrad

 Unable to Open any file for archive entry.
 1\1\GINC-X10P1N1\Force\RM062X TD-FC\6-31G(d)\C32H18N4\MAYUMIAO\13-Jul-
 2024\0\\# 6-31g(d) m062x g09default scf=(xqc,maxcycle=64) force guess=
 read td nosymm\\Title Card\\0,1\C,1.40490504,0.48996123,-0.4855025\C,1
 .42296982,-0.49667692,0.56561708\C,2.63394792,-0.967856,1.02259627\C,3
 .84680287,-0.49378228,0.50155609\C,3.81628265,0.48965444,-0.57587093\C
 ,2.58338336,0.96506372,-1.02395213\H,2.6519679,-1.73855959,1.78756687\
 H,2.5574515,1.72771906,-1.7972584\C,5.00006827,0.96713944,-1.19420665\
 N,5.95022738,1.37222245,-1.72871257\C,5.06978354,-0.98020618,1.0256798
 8\N,6.06405799,-1.38940109,1.4698043\C,-0.32761326,2.2492537,-0.276236
 37\C,-0.87447471,0.47838871,-1.53997992\C,0.36825819,3.16537248,0.5254
 26\C,-1.68526626,2.43660484,-0.65168654\C,-0.83134556,-0.72257449,-2.2
 448377\C,-2.03694446,1.2818374,-1.47117939\C,-0.32952999,4.28708983,0.
 95074353\H,1.40792462,2.99504969,0.78397518\C,-2.35745662,3.56294954,-
 0.21208771\C,-2.00673615,-1.12526589,-2.88586462\H,0.08288829,-1.30091
 405,-2.30154944\C,-3.18034443,0.87558311,-2.13344409\C,-1.66985552,4.4
 8290749,0.59054386\H,0.17063929,5.02491211,1.56873105\H,-3.39701099,3.
 73408106,-0.47372013\C,-3.15558198,-0.33912543,-2.84037265\H,-2.015777
 68,-2.06178609,-3.43270123\H,-4.08307508,1.47859086,-2.11220711\H,-2.1
 8751304,5.36921757,0.94219232\H,-4.04621043,-0.66251774,-3.36844977\C,
 -0.87156398,-0.48931907,1.60796185\C,-0.30217601,-2.26048261,0.3496513
 4\C,-0.85758443,0.69476931,2.34175365\C,-2.041803,-1.2680408,1.4683825
 6\C,0.39217152,-3.19005986,-0.43618065\C,-1.67969316,-2.41148846,0.651
 66879\C,-2.05428453,1.09581249,2.9342566\H,0.05882865,1.26188888,2.462
 98455\C,-3.21809965,-0.85994887,2.0894091\C,-0.32315687,-4.27595574,-0
 .91781039\H,1.44968303,-3.05968963,-0.64130445\C,-2.37417433,-3.509174
 69,0.15097184\C,-3.21784388,0.3281626,2.8193993\H,-2.07446839,2.015362
 33,3.51012538\H,-4.11961818,-1.4612692,2.01325759\C,-1.69075121,-4.434
 37949,-0.63290542\H,0.18470038,-5.02191708,-1.51973279\H,-3.43154095,-
 3.64099924,0.36097536\H,-4.12567618,0.65101163,3.31817735\H,-2.2190768
 7,-5.29578156,-1.02874381\N,0.13891671,1.07546815,-0.80898092\N,0.1740
 7792,-1.10018915,0.92226271\\Version=ES64L-G16RevC.01\HF=-1448.688657\
 RMSD=3.571e-09\RMSF=3.947e-04\Dipole=-7.3157375,0.7306296,-0.3552231\P
 G=C01 [X(C32H18N4)]\\@
 The archive entry for this job was punched.


 SOME PHYSICISTS WOULD PREFER TO COME BACK TO THE IDEA OF AN OBJECTIVE
 REAL WORLD WHOSE SMALLEST PARTS EXIST OBJECTIVELY IN THE SAME SENSE AS
 STONES OR TREES EXIST INDEPENDENTLY OF WHETHER WE OBSERVE THEM.
 THIS, HOWEVER, IS IMPOSSIBLE.  -- WERNER HEISENBERG
 Job cpu time:       0 days  4 hours 21 minutes 49.2 seconds.
 Elapsed time:       0 days  0 hours  9 minutes 26.1 seconds.
 File lengths (MBytes):  RWF=   1633 Int=      0 D2E=      0 Chk=     65 Scr=      1
 Normal termination of Gaussian 16 at Sat Jul 13 23:54:24 2024.
