 Entering Gaussian System, Link 0=g16
 Input=JOBS/15_B.gjf
 Output=JOBS/15_B.log
 Initial command:
 /data/app/gaussian/C01-avx2//g16/l1.exe "/tmp/Gau-1313306.inp" -scrdir="/tmp/"
 Entering Link 1 = /data/app/gaussian/C01-avx2//g16/l1.exe PID=   1313307.
  
 Copyright (c) 1988-2019, Gaussian, Inc.  All Rights Reserved.
  
 This is part of the Gaussian(R) 16 program.  It is based on
 the Gaussian(R) 09 system (copyright 2009, Gaussian, Inc.),
 the Gaussian(R) 03 system (copyright 2003, Gaussian, Inc.),
 the Gaussian(R) 98 system (copyright 1998, Gaussian, Inc.),
 the Gaussian(R) 94 system (copyright 1995, Gaussian, Inc.),
 the Gaussian 92(TM) system (copyright 1992, Gaussian, Inc.),
 the Gaussian 90(TM) system (copyright 1990, Gaussian, Inc.),
 the Gaussian 88(TM) system (copyright 1988, Gaussian, Inc.),
 the Gaussian 86(TM) system (copyright 1986, Carnegie Mellon
 University), and the Gaussian 82(TM) system (copyright 1983,
 Carnegie Mellon University). Gaussian is a federally registered
 trademark of Gaussian, Inc.
  
 This software contains proprietary and confidential information,
 including trade secrets, belonging to Gaussian, Inc.
  
 This software is provided under written license and may be
 used, copied, transmitted, or stored only in accord with that
 written license.
  
 The following legend is applicable only to US Government
 contracts under FAR:
  
                    RESTRICTED RIGHTS LEGEND
  
 Use, reproduction and disclosure by the US Government is
 subject to restrictions as set forth in subparagraphs (a)
 and (c) of the Commercial Computer Software - Restricted
 Rights clause in FAR 52.227-19.
  
 Gaussian, Inc.
 340 Quinnipiac St., Bldg. 40, Wallingford CT 06492
  
  
 ---------------------------------------------------------------
 Warning -- This program may not be used in any manner that
 competes with the business of Gaussian, Inc. or will provide
 assistance to any competitor of Gaussian, Inc.  The licensee
 of this program is prohibited from giving any competitor of
 Gaussian, Inc. access to this program.  By using this program,
 the user acknowledges that Gaussian, Inc. is engaged in the
 business of creating and licensing software in the field of
 computational chemistry and represents and warrants to the
 licensee that it is not a competitor of Gaussian, Inc. and that
 it will not use this program in any manner prohibited above.
 ---------------------------------------------------------------
  

 Cite this work as:
 Gaussian 16, Revision C.01,
 M. J. Frisch, G. W. Trucks, H. B. Schlegel, G. E. Scuseria, 
 M. A. Robb, J. R. Cheeseman, G. Scalmani, V. Barone, 
 G. A. Petersson, H. Nakatsuji, X. Li, M. Caricato, A. V. Marenich, 
 J. Bloino, B. G. Janesko, R. Gomperts, B. Mennucci, H. P. Hratchian, 
 J. V. Ortiz, A. F. Izmaylov, J. L. Sonnenberg, D. Williams-Young, 
 F. Ding, F. Lipparini, F. Egidi, J. Goings, B. Peng, A. Petrone, 
 T. Henderson, D. Ranasinghe, V. G. Zakrzewski, J. Gao, N. Rega, 
 G. Zheng, W. Liang, M. Hada, M. Ehara, K. Toyota, R. Fukuda, 
 J. Hasegawa, M. Ishida, T. Nakajima, Y. Honda, O. Kitao, H. Nakai, 
 T. Vreven, K. Throssell, J. A. Montgomery, Jr., J. E. Peralta, 
 F. Ogliaro, M. J. Bearpark, J. J. Heyd, E. N. Brothers, K. N. Kudin, 
 V. N. Staroverov, T. A. Keith, R. Kobayashi, J. Normand, 
 K. Raghavachari, A. P. Rendell, J. C. Burant, S. S. Iyengar, 
 J. Tomasi, M. Cossi, J. M. Millam, M. Klene, C. Adamo, R. Cammi, 
 J. W. Ochterski, R. L. Martin, K. Morokuma, O. Farkas, 
 J. B. Foresman, and D. J. Fox, Gaussian, Inc., Wallingford CT, 2019.
 
 ******************************************
 Gaussian 16:  ES64L-G16RevC.01  3-Jul-2019
                13-Jul-2024 
 ******************************************
 %chk=b.chk
 %nprocshared=28
 Will use up to   28 processors via shared memory.
 %mem=48gb
 ----------------------------------------------------------------------
 # 6-31g(d) m062x g09default scf=(xqc,maxcycle=64) force guess=read nos
 ymm
 ----------------------------------------------------------------------
 1/10=7,30=1,38=1,158=3,167=1/1,3;
 2/12=2,15=1,17=6,18=5,40=1/2;
 3/5=1,6=6,7=1,11=2,25=1,27=10,30=1,71=1,74=-55,75=-4,116=-2,158=3/1,2,3;
 4/5=1,60=-1/1;
 5/5=2,7=64,8=3,13=1,38=6,87=10/2,8;
 6/7=2,8=2,9=2,10=2,28=1,87=10/1;
 7/29=1,30=1,87=10/1,2,3,16;
 1/10=7,30=1,158=3,167=1/3;
 99//99;
 Using 2006 physical constants.
 ----------
 Title Card
 ----------
 Symbolic Z-matrix:
 Charge =  0 Multiplicity = 3
 6                     1.40491   0.48996  -0.4855 
 6                     1.42297  -0.49668   0.56562 
 6                     2.63395  -0.96786   1.0226 
 6                     3.8468   -0.49378   0.50156 
 6                     3.81628   0.48965  -0.57587 
 6                     2.58338   0.96506  -1.02395 
 1                     2.65197  -1.73856   1.78757 
 1                     2.55745   1.72772  -1.79726 
 6                     5.00007   0.96714  -1.19421 
 7                     5.95023   1.37222  -1.72871 
 6                     5.06978  -0.98021   1.02568 
 7                     6.06406  -1.3894    1.4698 
 6                    -0.32761   2.24925  -0.27624 
 6                    -0.87447   0.47839  -1.53998 
 6                     0.36826   3.16537   0.52543 
 6                    -1.68527   2.4366   -0.65169 
 6                    -0.83135  -0.72257  -2.24484 
 6                    -2.03694   1.28184  -1.47118 
 6                    -0.32953   4.28709   0.95074 
 1                     1.40792   2.99505   0.78398 
 6                    -2.35746   3.56295  -0.21209 
 6                    -2.00674  -1.12527  -2.88586 
 1                     0.08289  -1.30091  -2.30155 
 6                    -3.18034   0.87558  -2.13344 
 6                    -1.66986   4.48291   0.59054 
 1                     0.17064   5.02491   1.56873 
 1                    -3.39701   3.73408  -0.47372 
 6                    -3.15558  -0.33913  -2.84037 
 1                    -2.01578  -2.06179  -3.4327 
 1                    -4.08308   1.47859  -2.11221 
 1                    -2.18751   5.36922   0.94219 
 1                    -4.04621  -0.66252  -3.36845 
 6                    -0.87156  -0.48932   1.60796 
 6                    -0.30218  -2.26048   0.34965 
 6                    -0.85758   0.69477   2.34175 
 6                    -2.0418   -1.26804   1.46838 
 6                     0.39217  -3.19006  -0.43618 
 6                    -1.67969  -2.41149   0.65167 
 6                    -2.05428   1.09581   2.93426 
 1                     0.05883   1.26189   2.46298 
 6                    -3.2181   -0.85995   2.08941 
 6                    -0.32316  -4.27596  -0.91781 
 1                     1.44968  -3.05969  -0.6413 
 6                    -2.37417  -3.50917   0.15097 
 6                    -3.21784   0.32816   2.8194 
 1                    -2.07447   2.01536   3.51013 
 1                    -4.11962  -1.46127   2.01326 
 6                    -1.69075  -4.43438  -0.63291 
 1                     0.1847   -5.02192  -1.51973 
 1                    -3.43154  -3.641     0.36098 
 1                    -4.12568   0.65101   3.31818 
 1                    -2.21908  -5.29578  -1.02874 
 7                     0.13892   1.07547  -0.80898 
 7                     0.17408  -1.10019   0.92226 
 

 GradGradGradGradGradGradGradGradGradGradGradGradGradGradGradGradGradGrad
 Berny optimization.
 Initialization pass.
 Trust Radius=3.00D-01 FncErr=1.00D-07 GrdErr=1.00D-07 EigMax=2.50D+02 EigMin=1.00D-04
 Number of steps in this run=      2 maximum allowed number of steps=      2.
 GradGradGradGradGradGradGradGradGradGradGradGradGradGradGradGradGradGrad

 Symmetry turned off by external request.
 Stoichiometry    C32H18N4(3)
 Framework group  C1[X(C32H18N4)]
 Deg. of freedom   156
 Full point group                 C1      NOp   1
                          Input orientation:                          
 ---------------------------------------------------------------------
 Center     Atomic      Atomic             Coordinates (Angstroms)
 Number     Number       Type             X           Y           Z
 ---------------------------------------------------------------------
      1          6           0        1.404905    0.489961   -0.485503
      2          6           0        1.422970   -0.496677    0.565617
      3          6           0        2.633948   -0.967856    1.022596
      4          6           0        3.846803   -0.493782    0.501556
      5          6           0        3.816283    0.489654   -0.575871
      6          6           0        2.583383    0.965064   -1.023952
      7          1           0        2.651968   -1.738560    1.787567
      8          1           0        2.557452    1.727719   -1.797258
      9          6           0        5.000068    0.967139   -1.194207
     10          7           0        5.950227    1.372222   -1.728713
     11          6           0        5.069784   -0.980206    1.025680
     12          7           0        6.064058   -1.389401    1.469804
     13          6           0       -0.327613    2.249254   -0.276236
     14          6           0       -0.874475    0.478389   -1.539980
     15          6           0        0.368258    3.165372    0.525426
     16          6           0       -1.685266    2.436605   -0.651687
     17          6           0       -0.831346   -0.722574   -2.244838
     18          6           0       -2.036944    1.281837   -1.471179
     19          6           0       -0.329530    4.287090    0.950744
     20          1           0        1.407925    2.995050    0.783975
     21          6           0       -2.357457    3.562950   -0.212088
     22          6           0       -2.006736   -1.125266   -2.885865
     23          1           0        0.082888   -1.300914   -2.301549
     24          6           0       -3.180344    0.875583   -2.133444
     25          6           0       -1.669856    4.482907    0.590544
     26          1           0        0.170639    5.024912    1.568731
     27          1           0       -3.397011    3.734081   -0.473720
     28          6           0       -3.155582   -0.339125   -2.840373
     29          1           0       -2.015778   -2.061786   -3.432701
     30          1           0       -4.083075    1.478591   -2.112207
     31          1           0       -2.187513    5.369218    0.942192
     32          1           0       -4.046210   -0.662518   -3.368450
     33          6           0       -0.871564   -0.489319    1.607962
     34          6           0       -0.302176   -2.260483    0.349651
     35          6           0       -0.857584    0.694769    2.341754
     36          6           0       -2.041803   -1.268041    1.468383
     37          6           0        0.392172   -3.190060   -0.436181
     38          6           0       -1.679693   -2.411488    0.651669
     39          6           0       -2.054285    1.095812    2.934257
     40          1           0        0.058829    1.261889    2.462985
     41          6           0       -3.218100   -0.859949    2.089409
     42          6           0       -0.323157   -4.275956   -0.917810
     43          1           0        1.449683   -3.059690   -0.641304
     44          6           0       -2.374174   -3.509175    0.150972
     45          6           0       -3.217844    0.328163    2.819399
     46          1           0       -2.074468    2.015362    3.510125
     47          1           0       -4.119618   -1.461269    2.013258
     48          6           0       -1.690751   -4.434379   -0.632905
     49          1           0        0.184700   -5.021917   -1.519733
     50          1           0       -3.431541   -3.640999    0.360975
     51          1           0       -4.125676    0.651012    3.318177
     52          1           0       -2.219077   -5.295782   -1.028744
     53          7           0        0.138917    1.075468   -0.808981
     54          7           0        0.174078   -1.100189    0.922263
 ---------------------------------------------------------------------
 Rotational constants (GHZ):           0.1588402           0.1164001           0.0924894
 Standard basis: 6-31G(d) (6D, 7F)
   576 basis functions,  1080 primitive gaussians,   576 cartesian basis functions
   120 alpha electrons      118 beta electrons
       nuclear repulsion energy      3658.3104113941 Hartrees.
 NAtoms=   54 NActive=   54 NUniq=   54 SFac= 1.00D+00 NAtFMM=   60 NAOKFM=F Big=F
 Integral buffers will be    131072 words long.
 Raffenetti 2 integral format.
 Two-electron integral symmetry is turned off.
 One-electron integrals computed using PRISM.
 NBasis=   576 RedAO= T EigKep=  2.59D-04  NBF=   576
 NBsUse=   576 1.00D-06 EigRej= -1.00D+00 NBFU=   576
 Initial guess from the checkpoint file:  "b.chk"
 B after Tr=    -0.000112   -0.000072    0.000038
         Rot=    1.000000   -0.000043   -0.000011   -0.000008 Ang=  -0.01 deg.
 Initial guess <Sx>= 0.0000 <Sy>= 0.0000 <Sz>= 1.0000 <S**2>= 2.0294 S= 1.0098
 Requested convergence on RMS density matrix=1.00D-08 within  64 cycles.
 Requested convergence on MAX density matrix=1.00D-06.
 Requested convergence on             energy=1.00D-06.
 No special actions if energy rises.
 SCF Done:  E(UM062X) =  -1448.58184757     A.U. after   19 cycles
            NFock= 19  Conv=0.52D-08     -V/T= 2.0086
 <Sx>= 0.0000 <Sy>= 0.0000 <Sz>= 1.0000 <S**2>= 2.0294 S= 1.0098
 <L.S>=  0.00000000000    
 Annihilation of the first spin contaminant:
 S**2 before annihilation     2.0294,   after     2.0006
 QCSCF skips out because SCF is already converged.

 **********************************************************************

            Population analysis using the SCF Density.

 **********************************************************************

 Alpha  occ. eigenvalues --  -14.86416 -14.84913 -14.73055 -14.72984 -10.62400
 Alpha  occ. eigenvalues --  -10.62053 -10.61555 -10.61252 -10.60182 -10.60126
 Alpha  occ. eigenvalues --  -10.59339 -10.59124 -10.58978 -10.58968 -10.58941
 Alpha  occ. eigenvalues --  -10.58852 -10.58737 -10.58445 -10.58315 -10.58310
 Alpha  occ. eigenvalues --  -10.58213 -10.58075 -10.58048 -10.58045 -10.58019
 Alpha  occ. eigenvalues --  -10.57849 -10.57717 -10.57646 -10.57644 -10.57584
 Alpha  occ. eigenvalues --  -10.57473 -10.57430 -10.57386 -10.57263 -10.55599
 Alpha  occ. eigenvalues --  -10.55510  -1.15693  -1.13431  -1.00688  -0.98827
 Alpha  occ. eigenvalues --   -0.98748  -0.98213  -0.97793  -0.97649  -0.95733
 Alpha  occ. eigenvalues --   -0.91789  -0.91029  -0.88504  -0.88167  -0.87672
 Alpha  occ. eigenvalues --   -0.87478  -0.84887  -0.84574  -0.83825  -0.83129
 Alpha  occ. eigenvalues --   -0.77707  -0.76167  -0.73850  -0.73226  -0.72634
 Alpha  occ. eigenvalues --   -0.71623  -0.69591  -0.69277  -0.68964  -0.68256
 Alpha  occ. eigenvalues --   -0.65084  -0.64132  -0.62727  -0.61824  -0.61767
 Alpha  occ. eigenvalues --   -0.60699  -0.59430  -0.58694  -0.56171  -0.55931
 Alpha  occ. eigenvalues --   -0.55098  -0.55072  -0.54293  -0.53992  -0.53362
 Alpha  occ. eigenvalues --   -0.53164  -0.52990  -0.52596  -0.52179  -0.51788
 Alpha  occ. eigenvalues --   -0.51460  -0.51239  -0.50771  -0.49173  -0.47388
 Alpha  occ. eigenvalues --   -0.46602  -0.46407  -0.45898  -0.45685  -0.45207
 Alpha  occ. eigenvalues --   -0.45008  -0.44678  -0.43510  -0.42950  -0.42588
 Alpha  occ. eigenvalues --   -0.42494  -0.41862  -0.41666  -0.40600  -0.40497
 Alpha  occ. eigenvalues --   -0.40459  -0.39563  -0.37393  -0.36632  -0.36518
 Alpha  occ. eigenvalues --   -0.36425  -0.34615  -0.33203  -0.32956  -0.30884
 Alpha  occ. eigenvalues --   -0.30043  -0.29206  -0.28634  -0.27739  -0.15297
 Alpha virt. eigenvalues --   -0.03242  -0.02479  -0.00015   0.00272   0.01319
 Alpha virt. eigenvalues --    0.02810   0.03462   0.04788   0.05519   0.09040
 Alpha virt. eigenvalues --    0.10375   0.11419   0.11513   0.12087   0.12211
 Alpha virt. eigenvalues --    0.12988   0.14053   0.14550   0.15613   0.15997
 Alpha virt. eigenvalues --    0.16506   0.17355   0.17422   0.17707   0.17938
 Alpha virt. eigenvalues --    0.18098   0.18512   0.18617   0.20257   0.21380
 Alpha virt. eigenvalues --    0.21658   0.21992   0.22177   0.22397   0.22693
 Alpha virt. eigenvalues --    0.22975   0.23726   0.24797   0.25550   0.26221
 Alpha virt. eigenvalues --    0.26531   0.26937   0.27436   0.27462   0.27949
 Alpha virt. eigenvalues --    0.28150   0.29715   0.30179   0.30706   0.31204
 Alpha virt. eigenvalues --    0.31844   0.34006   0.34330   0.34934   0.35565
 Alpha virt. eigenvalues --    0.36036   0.36255   0.36788   0.38082   0.39988
 Alpha virt. eigenvalues --    0.40781   0.41014   0.42288   0.43200   0.43549
 Alpha virt. eigenvalues --    0.44387   0.44511   0.45761   0.46142   0.46671
 Alpha virt. eigenvalues --    0.47460   0.48772   0.49743   0.51121   0.51473
 Alpha virt. eigenvalues --    0.53570   0.54182   0.54546   0.55026   0.55421
 Alpha virt. eigenvalues --    0.55516   0.55768   0.56352   0.56494   0.57415
 Alpha virt. eigenvalues --    0.57761   0.58032   0.58411   0.58557   0.59245
 Alpha virt. eigenvalues --    0.59658   0.59823   0.59994   0.60694   0.60804
 Alpha virt. eigenvalues --    0.61259   0.61721   0.61891   0.62151   0.62360
 Alpha virt. eigenvalues --    0.62693   0.62887   0.63005   0.63045   0.63742
 Alpha virt. eigenvalues --    0.63905   0.64164   0.64320   0.65171   0.65353
 Alpha virt. eigenvalues --    0.65523   0.65758   0.65877   0.66169   0.66604
 Alpha virt. eigenvalues --    0.67333   0.67404   0.67870   0.68462   0.68684
 Alpha virt. eigenvalues --    0.70597   0.71608   0.72470   0.72868   0.74139
 Alpha virt. eigenvalues --    0.74227   0.74480   0.75570   0.76005   0.77071
 Alpha virt. eigenvalues --    0.77271   0.78006   0.79869   0.80056   0.80525
 Alpha virt. eigenvalues --    0.81365   0.82083   0.83246   0.83543   0.84229
 Alpha virt. eigenvalues --    0.84533   0.85379   0.86563   0.86773   0.86834
 Alpha virt. eigenvalues --    0.86902   0.87368   0.87843   0.88105   0.88417
 Alpha virt. eigenvalues --    0.88576   0.89122   0.89206   0.89461   0.89865
 Alpha virt. eigenvalues --    0.90307   0.90629   0.90662   0.91359   0.92163
 Alpha virt. eigenvalues --    0.92614   0.92825   0.93237   0.93652   0.93903
 Alpha virt. eigenvalues --    0.94697   0.95194   0.95534   0.96186   0.96729
 Alpha virt. eigenvalues --    0.97188   0.97928   0.98467   0.99858   1.00058
 Alpha virt. eigenvalues --    1.00858   1.01012   1.01651   1.02636   1.02982
 Alpha virt. eigenvalues --    1.03292   1.03742   1.04394   1.05134   1.06848
 Alpha virt. eigenvalues --    1.07128   1.07690   1.07865   1.08504   1.09818
 Alpha virt. eigenvalues --    1.11713   1.13225   1.14203   1.16061   1.17051
 Alpha virt. eigenvalues --    1.17320   1.17753   1.18956   1.19395   1.19588
 Alpha virt. eigenvalues --    1.20060   1.21325   1.21640   1.23123   1.23404
 Alpha virt. eigenvalues --    1.24332   1.24946   1.25973   1.27336   1.28324
 Alpha virt. eigenvalues --    1.28832   1.29292   1.29913   1.30135   1.31105
 Alpha virt. eigenvalues --    1.32593   1.32956   1.33816   1.34298   1.35067
 Alpha virt. eigenvalues --    1.36582   1.37816   1.38278   1.38593   1.40635
 Alpha virt. eigenvalues --    1.41142   1.41489   1.42216   1.43687   1.44388
 Alpha virt. eigenvalues --    1.44833   1.45899   1.46573   1.47143   1.47385
 Alpha virt. eigenvalues --    1.48103   1.48613   1.48888   1.50071   1.50686
 Alpha virt. eigenvalues --    1.50752   1.51293   1.51573   1.51639   1.52011
 Alpha virt. eigenvalues --    1.52642   1.52992   1.54834   1.57025   1.58658
 Alpha virt. eigenvalues --    1.59440   1.60033   1.60305   1.61232   1.61743
 Alpha virt. eigenvalues --    1.62684   1.62779   1.64254   1.66269   1.67813
 Alpha virt. eigenvalues --    1.67977   1.72667   1.73300   1.74314   1.75707
 Alpha virt. eigenvalues --    1.77439   1.77581   1.78651   1.78865   1.79254
 Alpha virt. eigenvalues --    1.80167   1.80820   1.81242   1.82520   1.83685
 Alpha virt. eigenvalues --    1.83985   1.85267   1.85810   1.86442   1.87113
 Alpha virt. eigenvalues --    1.87556   1.88750   1.88859   1.89342   1.91098
 Alpha virt. eigenvalues --    1.91247   1.92269   1.93068   1.94200   1.94825
 Alpha virt. eigenvalues --    1.95613   1.96375   1.96980   1.97902   1.98381
 Alpha virt. eigenvalues --    1.98504   1.99518   2.00033   2.00481   2.01086
 Alpha virt. eigenvalues --    2.01779   2.02094   2.02327   2.04066   2.04450
 Alpha virt. eigenvalues --    2.04940   2.05111   2.06180   2.07075   2.08513
 Alpha virt. eigenvalues --    2.09172   2.09217   2.10498   2.10747   2.11030
 Alpha virt. eigenvalues --    2.11484   2.12433   2.13032   2.13988   2.14615
 Alpha virt. eigenvalues --    2.14998   2.15785   2.16141   2.18201   2.18408
 Alpha virt. eigenvalues --    2.19088   2.20435   2.21020   2.21230   2.21498
 Alpha virt. eigenvalues --    2.21964   2.22436   2.23680   2.24744   2.25558
 Alpha virt. eigenvalues --    2.26340   2.26714   2.27066   2.27735   2.28559
 Alpha virt. eigenvalues --    2.28926   2.29468   2.29903   2.30764   2.31274
 Alpha virt. eigenvalues --    2.32140   2.33627   2.34947   2.35896   2.38280
 Alpha virt. eigenvalues --    2.39133   2.41754   2.42722   2.43371   2.47599
 Alpha virt. eigenvalues --    2.48441   2.49142   2.50216   2.52716   2.53891
 Alpha virt. eigenvalues --    2.54295   2.54827   2.56250   2.56330   2.58080
 Alpha virt. eigenvalues --    2.59254   2.59692   2.62000   2.63475   2.63961
 Alpha virt. eigenvalues --    2.64196   2.66066   2.66153   2.66882   2.68060
 Alpha virt. eigenvalues --    2.68383   2.68711   2.69272   2.69432   2.69863
 Alpha virt. eigenvalues --    2.70199   2.71010   2.72335   2.72487   2.73438
 Alpha virt. eigenvalues --    2.76692   2.77909   2.79442   2.81457   2.81876
 Alpha virt. eigenvalues --    2.82750   2.83272   2.83794   2.83996   2.86382
 Alpha virt. eigenvalues --    2.87423   2.89386   2.90698   2.91971   2.93640
 Alpha virt. eigenvalues --    2.94000   2.96253   2.98008   2.98362   2.98834
 Alpha virt. eigenvalues --    3.03412   3.06915   3.08173   3.22566   3.22870
 Alpha virt. eigenvalues --    3.27219   3.29291   3.30292   3.30736   3.31603
 Alpha virt. eigenvalues --    3.36489   3.38234   3.49617   3.50725   3.53968
 Alpha virt. eigenvalues --    4.05186   4.05832   4.07409   4.09399   4.10240
 Alpha virt. eigenvalues --    4.11153   4.11816   4.13928   4.14811   4.16340
 Alpha virt. eigenvalues --    4.16573   4.16981   4.21077   4.23926   4.25569
 Alpha virt. eigenvalues --    4.26225   4.27765   4.30293   4.32497   4.33291
 Alpha virt. eigenvalues --    4.37483   4.39432   4.42818   4.44931   4.46294
 Alpha virt. eigenvalues --    4.48656   4.49077   4.50263   4.59011   4.65022
 Alpha virt. eigenvalues --    4.70426   4.74774   4.76582   4.84268   4.89019
 Alpha virt. eigenvalues --    4.96706
  Beta  occ. eigenvalues --  -14.86097 -14.84698 -14.72869 -14.72784 -10.62414
  Beta  occ. eigenvalues --  -10.62072 -10.61553 -10.61261 -10.59946 -10.59887
  Beta  occ. eigenvalues --  -10.59288 -10.59053 -10.58965 -10.58958 -10.58899
  Beta  occ. eigenvalues --  -10.58842 -10.58668 -10.58476 -10.58287 -10.58273
  Beta  occ. eigenvalues --  -10.58211 -10.58035 -10.58033 -10.58030 -10.58002
  Beta  occ. eigenvalues --  -10.57848 -10.57728 -10.57720 -10.57615 -10.57589
  Beta  occ. eigenvalues --  -10.57539 -10.57243 -10.57195 -10.57134 -10.55667
  Beta  occ. eigenvalues --  -10.55583  -1.14830  -1.12739  -1.00214  -0.98600
  Beta  occ. eigenvalues --   -0.98317  -0.97873  -0.97675  -0.97074  -0.95235
  Beta  occ. eigenvalues --   -0.91490  -0.90766  -0.88263  -0.87675  -0.87331
  Beta  occ. eigenvalues --   -0.87248  -0.84811  -0.84147  -0.83746  -0.82553
  Beta  occ. eigenvalues --   -0.77199  -0.75906  -0.73449  -0.72899  -0.72313
  Beta  occ. eigenvalues --   -0.71393  -0.69251  -0.69098  -0.68648  -0.68140
  Beta  occ. eigenvalues --   -0.64687  -0.63818  -0.62491  -0.61578  -0.61565
  Beta  occ. eigenvalues --   -0.60486  -0.58319  -0.58265  -0.55976  -0.55727
  Beta  occ. eigenvalues --   -0.54917  -0.54893  -0.53821  -0.53762  -0.52964
  Beta  occ. eigenvalues --   -0.52724  -0.52596  -0.52200  -0.52030  -0.51665
  Beta  occ. eigenvalues --   -0.51314  -0.51135  -0.50662  -0.48710  -0.46276
  Beta  occ. eigenvalues --   -0.46080  -0.45892  -0.45564  -0.45327  -0.44954
  Beta  occ. eigenvalues --   -0.44701  -0.44272  -0.43373  -0.42475  -0.42406
  Beta  occ. eigenvalues --   -0.41839  -0.41290  -0.40882  -0.39969  -0.39821
  Beta  occ. eigenvalues --   -0.38796  -0.37625  -0.36851  -0.36308  -0.36145
  Beta  occ. eigenvalues --   -0.36075  -0.33610  -0.31930  -0.31452  -0.29950
  Beta  occ. eigenvalues --   -0.28880  -0.27027  -0.26220
  Beta virt. eigenvalues --   -0.18250  -0.02758  -0.02105  -0.01338   0.00532
  Beta virt. eigenvalues --    0.00750   0.01608   0.03879   0.04191   0.05320
  Beta virt. eigenvalues --    0.05857   0.10667   0.11229   0.11546   0.11974
  Beta virt. eigenvalues --    0.12218   0.12283   0.13271   0.14459   0.14721
  Beta virt. eigenvalues --    0.15706   0.16673   0.17343   0.17447   0.17672
  Beta virt. eigenvalues --    0.17946   0.18139   0.18216   0.18637   0.18874
  Beta virt. eigenvalues --    0.20324   0.21600   0.21835   0.22170   0.22331
  Beta virt. eigenvalues --    0.22578   0.22879   0.23110   0.24121   0.25160
  Beta virt. eigenvalues --    0.26217   0.26655   0.26977   0.27379   0.27822
  Beta virt. eigenvalues --    0.28050   0.28210   0.28535   0.29962   0.30468
  Beta virt. eigenvalues --    0.31086   0.31367   0.31953   0.34320   0.34633
  Beta virt. eigenvalues --    0.35375   0.35807   0.36339   0.36701   0.37080
  Beta virt. eigenvalues --    0.38213   0.40144   0.41076   0.41186   0.42727
  Beta virt. eigenvalues --    0.43607   0.43867   0.44732   0.45232   0.46202
  Beta virt. eigenvalues --    0.46799   0.47101   0.47756   0.49026   0.49880
  Beta virt. eigenvalues --    0.51314   0.51745   0.53856   0.54409   0.54750
  Beta virt. eigenvalues --    0.55310   0.55780   0.55901   0.56213   0.56608
  Beta virt. eigenvalues --    0.56831   0.57690   0.58000   0.58241   0.58612
  Beta virt. eigenvalues --    0.58749   0.59447   0.59818   0.60100   0.60409
  Beta virt. eigenvalues --    0.60797   0.60965   0.61469   0.61947   0.62150
  Beta virt. eigenvalues --    0.62290   0.62565   0.62856   0.63083   0.63158
  Beta virt. eigenvalues --    0.63272   0.63953   0.64287   0.64428   0.64636
  Beta virt. eigenvalues --    0.65323   0.65620   0.65867   0.65999   0.66091
  Beta virt. eigenvalues --    0.66412   0.66808   0.67648   0.67888   0.68261
  Beta virt. eigenvalues --    0.68600   0.68960   0.70916   0.71984   0.72606
  Beta virt. eigenvalues --    0.73099   0.74224   0.74459   0.74527   0.75619
  Beta virt. eigenvalues --    0.76412   0.77320   0.77522   0.78726   0.80183
  Beta virt. eigenvalues --    0.80433   0.80784   0.81910   0.82363   0.83579
  Beta virt. eigenvalues --    0.83864   0.84546   0.84732   0.85552   0.86683
  Beta virt. eigenvalues --    0.86976   0.87063   0.87421   0.87816   0.88001
  Beta virt. eigenvalues --    0.88262   0.88671   0.88896   0.89347   0.89498
  Beta virt. eigenvalues --    0.89852   0.90148   0.90388   0.91013   0.91130
  Beta virt. eigenvalues --    0.91637   0.92573   0.92973   0.93056   0.93461
  Beta virt. eigenvalues --    0.93858   0.94264   0.95024   0.95454   0.95844
  Beta virt. eigenvalues --    0.96507   0.97056   0.97454   0.98610   0.98884
  Beta virt. eigenvalues --    1.00285   1.00685   1.01093   1.01461   1.01900
  Beta virt. eigenvalues --    1.02880   1.03328   1.03524   1.04143   1.04759
  Beta virt. eigenvalues --    1.05599   1.07145   1.07310   1.07948   1.08309
  Beta virt. eigenvalues --    1.09163   1.10171   1.11943   1.13523   1.14442
  Beta virt. eigenvalues --    1.16307   1.17262   1.17728   1.18116   1.19497
  Beta virt. eigenvalues --    1.19836   1.19977   1.20283   1.21645   1.21802
  Beta virt. eigenvalues --    1.23365   1.23659   1.24872   1.25615   1.26467
  Beta virt. eigenvalues --    1.27573   1.28738   1.29166   1.29674   1.30368
  Beta virt. eigenvalues --    1.30798   1.31621   1.33061   1.33429   1.34277
  Beta virt. eigenvalues --    1.34674   1.35455   1.36879   1.38238   1.38510
  Beta virt. eigenvalues --    1.40155   1.40871   1.41476   1.41690   1.42725
  Beta virt. eigenvalues --    1.44398   1.44998   1.45083   1.46129   1.46810
  Beta virt. eigenvalues --    1.47470   1.47689   1.48713   1.48942   1.49711
  Beta virt. eigenvalues --    1.50530   1.50898   1.51025   1.51562   1.51985
  Beta virt. eigenvalues --    1.52046   1.52277   1.52889   1.53293   1.55120
  Beta virt. eigenvalues --    1.57452   1.58984   1.59637   1.60420   1.60659
  Beta virt. eigenvalues --    1.61388   1.62033   1.62993   1.63157   1.64662
  Beta virt. eigenvalues --    1.66516   1.68095   1.68488   1.73068   1.73868
  Beta virt. eigenvalues --    1.74727   1.76017   1.77743   1.78237   1.78904
  Beta virt. eigenvalues --    1.79186   1.79597   1.80518   1.81215   1.81702
  Beta virt. eigenvalues --    1.83009   1.84020   1.84205   1.85577   1.86078
  Beta virt. eigenvalues --    1.86689   1.87665   1.87859   1.89150   1.89325
  Beta virt. eigenvalues --    1.89856   1.91370   1.91622   1.92863   1.93449
  Beta virt. eigenvalues --    1.94753   1.95236   1.96189   1.96889   1.97259
  Beta virt. eigenvalues --    1.98218   1.98697   1.98820   1.99873   2.00307
  Beta virt. eigenvalues --    2.00770   2.01510   2.02199   2.02508   2.02760
  Beta virt. eigenvalues --    2.04448   2.04875   2.05228   2.05423   2.06452
  Beta virt. eigenvalues --    2.07456   2.08910   2.09443   2.09546   2.10834
  Beta virt. eigenvalues --    2.11181   2.11551   2.12019   2.12705   2.13928
  Beta virt. eigenvalues --    2.14491   2.14836   2.15443   2.16221   2.16446
  Beta virt. eigenvalues --    2.18605   2.18928   2.19384   2.21121   2.21375
  Beta virt. eigenvalues --    2.21897   2.22047   2.22732   2.22921   2.24446
  Beta virt. eigenvalues --    2.25074   2.25915   2.26696   2.27042   2.27414
  Beta virt. eigenvalues --    2.28196   2.29053   2.29393   2.29970   2.30601
  Beta virt. eigenvalues --    2.31300   2.31805   2.32544   2.34173   2.35478
  Beta virt. eigenvalues --    2.36279   2.38629   2.39719   2.42412   2.43312
  Beta virt. eigenvalues --    2.43861   2.48148   2.49047   2.49712   2.50585
  Beta virt. eigenvalues --    2.53829   2.54175   2.54691   2.55192   2.56844
  Beta virt. eigenvalues --    2.57002   2.58556   2.59809   2.60121   2.62460
  Beta virt. eigenvalues --    2.63836   2.64369   2.64675   2.66504   2.66684
  Beta virt. eigenvalues --    2.67484   2.68447   2.68710   2.69210   2.69689
  Beta virt. eigenvalues --    2.69887   2.70441   2.70609   2.71392   2.72966
  Beta virt. eigenvalues --    2.73751   2.74016   2.77432   2.78518   2.79986
  Beta virt. eigenvalues --    2.82155   2.82593   2.83099   2.83764   2.84137
  Beta virt. eigenvalues --    2.84419   2.86759   2.88011   2.89794   2.91278
  Beta virt. eigenvalues --    2.92954   2.94048   2.94471   2.96918   2.98423
  Beta virt. eigenvalues --    2.98890   2.99247   3.04265   3.07422   3.09074
  Beta virt. eigenvalues --    3.23220   3.23602   3.28324   3.29905   3.30961
  Beta virt. eigenvalues --    3.31583   3.32523   3.36883   3.39056   3.50063
  Beta virt. eigenvalues --    3.51047   3.55769   4.05445   4.06937   4.07709
  Beta virt. eigenvalues --    4.09734   4.10526   4.11427   4.12061   4.14258
  Beta virt. eigenvalues --    4.15116   4.16546   4.17280   4.17468   4.21199
  Beta virt. eigenvalues --    4.24247   4.25738   4.26351   4.28732   4.30472
  Beta virt. eigenvalues --    4.32815   4.33713   4.38154   4.39673   4.43105
  Beta virt. eigenvalues --    4.45260   4.46568   4.49036   4.49571   4.50655
  Beta virt. eigenvalues --    4.59321   4.65052   4.71746   4.75043   4.76751
  Beta virt. eigenvalues --    4.84533   4.89261   4.97951
          Condensed to atoms (all electrons):
          Atomic-Atomic Spin Densities.
 Mulliken charges and spin densities:
               1          2
     1  C    0.150010   0.277929
     2  C    0.176165   0.273741
     3  C   -0.206495  -0.119980
     4  C    0.087029   0.335594
     5  C    0.081512   0.307184
     6  C   -0.190793  -0.115256
     7  H    0.199045   0.003188
     8  H    0.199565   0.002863
     9  C    0.192849  -0.069830
    10  N   -0.490434   0.161970
    11  C    0.189453  -0.076140
    12  N   -0.490431   0.174575
    13  C    0.283326  -0.030924
    14  C    0.273765  -0.031651
    15  C   -0.162677   0.106072
    16  C    0.053191   0.073053
    17  C   -0.151683   0.097924
    18  C    0.053717   0.015437
    19  C   -0.177601  -0.048273
    20  H    0.210013  -0.005322
    21  C   -0.190048  -0.027999
    22  C   -0.167223  -0.023786
    23  H    0.197184  -0.004414
    24  C   -0.190315   0.022613
    25  C   -0.169253   0.114698
    26  H    0.186779   0.001496
    27  H    0.182348   0.000877
    28  C   -0.170223   0.068019
    29  H    0.181606   0.000413
    30  H    0.181004  -0.001466
    31  H    0.180446  -0.005754
    32  H    0.177609  -0.003646
    33  C    0.276504  -0.017798
    34  C    0.279595  -0.013223
    35  C   -0.166212   0.057378
    36  C    0.037257   0.001811
    37  C   -0.175175   0.067563
    38  C    0.041853   0.057709
    39  C   -0.169181  -0.006874
    40  H    0.185748  -0.002768
    41  C   -0.183079   0.022911
    42  C   -0.179335  -0.032211
    43  H    0.202410  -0.003481
    44  C   -0.184540  -0.023996
    45  C   -0.176381   0.032594
    46  H    0.173857  -0.000077
    47  H    0.175173  -0.001293
    48  C   -0.175735   0.077752
    49  H    0.181132   0.001040
    50  H    0.176175   0.000955
    51  H    0.171590  -0.001827
    52  H    0.174680  -0.003881
    53  N   -0.665836   0.191390
    54  N   -0.679939   0.123122
 Sum of Mulliken charges =  -0.00000   2.00000
 Mulliken charges and spin densities with hydrogens summed into heavy atoms:
               1          2
     1  C    0.150010   0.277929
     2  C    0.176165   0.273741
     3  C   -0.007451  -0.116793
     4  C    0.087029   0.335594
     5  C    0.081512   0.307184
     6  C    0.008772  -0.112393
     9  C    0.192849  -0.069830
    10  N   -0.490434   0.161970
    11  C    0.189453  -0.076140
    12  N   -0.490431   0.174575
    13  C    0.283326  -0.030924
    14  C    0.273765  -0.031651
    15  C    0.047336   0.100750
    16  C    0.053191   0.073053
    17  C    0.045501   0.093510
    18  C    0.053717   0.015437
    19  C    0.009178  -0.046777
    21  C   -0.007700  -0.027121
    22  C    0.014383  -0.023373
    24  C   -0.009311   0.021147
    25  C    0.011193   0.108943
    28  C    0.007386   0.064373
    33  C    0.276504  -0.017798
    34  C    0.279595  -0.013223
    35  C    0.019536   0.054610
    36  C    0.037257   0.001811
    37  C    0.027235   0.064082
    38  C    0.041853   0.057709
    39  C    0.004676  -0.006951
    41  C   -0.007905   0.021618
    42  C    0.001797  -0.031172
    44  C   -0.008365  -0.023041
    45  C   -0.004791   0.030767
    48  C   -0.001055   0.073871
    53  N   -0.665836   0.191390
    54  N   -0.679939   0.123122
 Electronic spatial extent (au):  <R**2>=          12757.9601
 Charge=             -0.0000 electrons
 Dipole moment (field-independent basis, Debye):
    X=            -16.6946    Y=              0.8632    Z=             -0.2440  Tot=             16.7187
 Quadrupole moment (field-independent basis, Debye-Ang):
   XX=           -270.6199   YY=           -177.8147   ZZ=           -201.9740
   XY=             -0.8481   XZ=              3.7229   YZ=             18.5174
 Traceless Quadrupole moment (field-independent basis, Debye-Ang):
   XX=            -53.8170   YY=             38.9881   ZZ=             14.8289
   XY=             -0.8481   XZ=              3.7229   YZ=             18.5174
 Octapole moment (field-independent basis, Debye-Ang**2):
  XXX=           -704.0799  YYY=             17.4356  ZZZ=              0.1979  XYY=            -78.3297
  XXY=              6.5299  XXZ=              5.7735  XZZ=            -71.9605  YZZ=             -0.2770
  YYZ=              0.9793  XYZ=             29.9311
 Hexadecapole moment (field-independent basis, Debye-Ang**3):
 XXXX=         -12405.4873 YYYY=          -5372.5190 ZZZZ=          -3019.6774 XXXY=             40.6980
 XXXZ=            112.7848 YYYX=            -13.4211 YYYZ=            215.3120 ZZZX=             76.2444
 ZZZY=             17.6802 XXYY=          -2506.5260 XXZZ=          -2161.2501 YYZZ=          -1442.9512
 XXYZ=            230.7452 YYXZ=             25.3077 ZZXY=             -7.0941
 N-N= 3.658310411394D+03 E-N=-1.067148665693D+04  KE= 1.436275373308D+03
                          Isotropic Fermi Contact Couplings
        Atom                 a.u.       MegaHertz       Gauss      10(-4) cm-1
     1  C(13)              0.04635      26.05107       9.29567       8.68970
     2  C(13)              0.05233      29.41551      10.49618       9.81196
     3  C(13)             -0.03468     -19.49456      -6.95614      -6.50268
     4  C(13)              0.05016      28.19413      10.06036       9.40455
     5  C(13)              0.04517      25.38804       9.05908       8.46854
     6  C(13)             -0.03220     -18.09723      -6.45754      -6.03659
     7  H(1)               0.00110       2.44956       0.87406       0.81708
     8  H(1)               0.00094       2.10301       0.75041       0.70149
     9  C(13)             -0.02682     -15.07635      -5.37962      -5.02893
    10  N(14)              0.03268       5.27916       1.88374       1.76094
    11  C(13)             -0.02901     -16.30809      -5.81913      -5.43979
    12  N(14)              0.03517       5.68195       2.02746       1.89530
    13  C(13)             -0.00026      -0.14396      -0.05137      -0.04802
    14  C(13)             -0.00285      -1.60366      -0.57223      -0.53492
    15  C(13)              0.01877      10.55261       3.76543       3.51997
    16  C(13)              0.01209       6.79694       2.42532       2.26721
    17  C(13)              0.01850      10.39990       3.71094       3.46903
    18  C(13)              0.00011       0.06365       0.02271       0.02123
    19  C(13)             -0.01190      -6.68837      -2.38658      -2.23100
    20  H(1)              -0.00181      -4.04913      -1.44483      -1.35064
    21  C(13)             -0.00766      -4.30783      -1.53714      -1.43694
    22  C(13)             -0.00724      -4.06683      -1.45115      -1.35655
    23  H(1)              -0.00151      -3.38012      -1.20611      -1.12749
    24  C(13)              0.00213       1.19641       0.42691       0.39908
    25  C(13)              0.01973      11.08768       3.95636       3.69845
    26  H(1)               0.00048       1.06907       0.38147       0.35660
    27  H(1)               0.00032       0.70451       0.25139       0.23500
    28  C(13)              0.01074       6.03436       2.15321       2.01285
    29  H(1)               0.00025       0.55130       0.19672       0.18389
    30  H(1)              -0.00045      -1.01230      -0.36121      -0.33767
    31  H(1)              -0.00179      -3.99414      -1.42521      -1.33230
    32  H(1)              -0.00113      -2.51964      -0.89907      -0.84046
    33  C(13)              0.00044       0.24787       0.08845       0.08268
    34  C(13)              0.00500       2.81275       1.00366       0.93823
    35  C(13)              0.01118       6.28146       2.24138       2.09527
    36  C(13)             -0.00157      -0.88016      -0.31406      -0.29359
    37  C(13)              0.01183       6.65066       2.37312       2.21842
    38  C(13)              0.01021       5.73802       2.04747       1.91400
    39  C(13)             -0.00308      -1.72845      -0.61675      -0.57655
    40  H(1)              -0.00077      -1.71230      -0.61099      -0.57116
    41  C(13)              0.00305       1.71409       0.61163       0.57176
    42  C(13)             -0.00798      -4.48704      -1.60109      -1.49672
    43  H(1)              -0.00120      -2.67107      -0.95310      -0.89097
    44  C(13)             -0.00604      -3.39326      -1.21080      -1.13187
    45  C(13)              0.00479       2.69225       0.96066       0.89804
    46  H(1)               0.00009       0.19072       0.06805       0.06362
    47  H(1)              -0.00040      -0.89489      -0.31932      -0.29850
    48  C(13)              0.01337       7.51773       2.68251       2.50765
    49  H(1)               0.00033       0.73533       0.26238       0.24528
    50  H(1)               0.00034       0.74880       0.26719       0.24977
    51  H(1)              -0.00056      -1.25640      -0.44831      -0.41909
    52  H(1)              -0.00120      -2.67704      -0.95523      -0.89296
    53  N(14)              0.04216       6.81142       2.43048       2.27205
    54  N(14)              0.02576       4.16203       1.48512       1.38830
 --------------------------------------------------------
       Center         ----  Spin Dipole Couplings  ----
                      3XX-RR        3YY-RR        3ZZ-RR
 --------------------------------------------------------
     1   Atom       -0.147406      0.055648      0.091758
     2   Atom       -0.146388      0.060117      0.086270
     3   Atom        0.052659     -0.026423     -0.026236
     4   Atom       -0.181474      0.118124      0.063350
     5   Atom       -0.166579      0.109763      0.056816
     6   Atom        0.054561     -0.028206     -0.026355
     7   Atom        0.007623     -0.003900     -0.003723
     8   Atom        0.008018     -0.003985     -0.004033
     9   Atom        0.031503     -0.017723     -0.013780
    10   Atom       -0.148029      0.094627      0.053403
    11   Atom        0.037505     -0.018953     -0.018552
    12   Atom       -0.163705      0.101373      0.062332
    13   Atom        0.007824      0.009661     -0.017486
    14   Atom        0.017645     -0.003719     -0.013926
    15   Atom       -0.033084     -0.011426      0.044510
    16   Atom       -0.029003     -0.009886      0.038889
    17   Atom       -0.041636      0.001047      0.040590
    18   Atom       -0.004153     -0.003822      0.007976
    19   Atom        0.012411      0.006532     -0.018943
    20   Atom        0.004654      0.000529     -0.005183
    21   Atom        0.004641      0.005067     -0.009708
    22   Atom        0.007236     -0.000594     -0.006642
    23   Atom        0.004502     -0.002570     -0.001932
    24   Atom       -0.008570     -0.002928      0.011498
    25   Atom       -0.040055     -0.009150      0.049204
    26   Atom        0.000534      0.001367     -0.001902
    27   Atom        0.000761      0.000525     -0.001286
    28   Atom       -0.019280     -0.013154      0.032434
    29   Atom        0.000481     -0.000441     -0.000040
    30   Atom        0.001817      0.000198     -0.002015
    31   Atom       -0.003961      0.006193     -0.002232
    32   Atom        0.002459     -0.002970      0.000512
    33   Atom        0.015332     -0.004351     -0.010980
    34   Atom        0.004841      0.004755     -0.009596
    35   Atom       -0.026545      0.006593      0.019952
    36   Atom        0.000078     -0.001993      0.001915
    37   Atom       -0.025205     -0.003244      0.028449
    38   Atom       -0.024741     -0.006414      0.031155
    39   Atom        0.001974     -0.002447      0.000473
    40   Atom        0.002362     -0.002738      0.000376
    41   Atom       -0.008434     -0.002425      0.010859
    42   Atom        0.009158      0.004302     -0.013461
    43   Atom        0.002692      0.002227     -0.004919
    44   Atom        0.005673      0.004014     -0.009687
    45   Atom       -0.009901     -0.006428      0.016329
    46   Atom       -0.000198     -0.000295      0.000493
    47   Atom        0.001747     -0.000247     -0.001499
    48   Atom       -0.029971     -0.002670      0.032641
    49   Atom        0.000274      0.001331     -0.001605
    50   Atom        0.000389      0.000741     -0.001130
    51   Atom        0.001550     -0.001732      0.000181
    52   Atom       -0.002651      0.004128     -0.001476
    53   Atom       -0.146063     -0.106137      0.252200
    54   Atom       -0.098491     -0.075951      0.174442
 --------------------------------------------------------
                        XY            XZ            YZ
 --------------------------------------------------------
     1   Atom        0.026006      0.035350      0.228998
     2   Atom       -0.021925     -0.026048      0.219586
     3   Atom       -0.002603     -0.001870     -0.059117
     4   Atom       -0.001427      0.003494      0.275110
     5   Atom        0.021535      0.015401      0.254008
     6   Atom        0.000844     -0.001216     -0.057781
     7   Atom       -0.001133      0.001029     -0.003506
     8   Atom        0.001053     -0.002079     -0.003612
     9   Atom        0.020226     -0.025771     -0.023994
    10   Atom        0.011381      0.030466      0.210503
    11   Atom       -0.023888      0.023238     -0.023563
    12   Atom        0.010194     -0.011649      0.226815
    13   Atom       -0.018545     -0.001648      0.025589
    14   Atom        0.001137      0.020899      0.019331
    15   Atom        0.021831     -0.038982     -0.055880
    16   Atom        0.006065     -0.011670     -0.044496
    17   Atom        0.013895     -0.014250     -0.064799
    18   Atom        0.002844     -0.003449     -0.010468
    19   Atom       -0.009664      0.011236      0.020796
    20   Atom       -0.001426      0.003638      0.000736
    21   Atom       -0.005021      0.007347      0.010317
    22   Atom       -0.001667      0.006833      0.009355
    23   Atom       -0.002919      0.000187      0.003338
    24   Atom        0.006567     -0.009677     -0.015443
    25   Atom        0.020454     -0.037814     -0.062972
    26   Atom       -0.001918     -0.000142      0.001101
    27   Atom       -0.000438      0.000992      0.001129
    28   Atom        0.016322     -0.025388     -0.034951
    29   Atom        0.001334      0.002293      0.001222
    30   Atom       -0.002959      0.000087      0.000224
    31   Atom       -0.006116     -0.004159      0.002538
    32   Atom        0.004067      0.004386      0.001090
    33   Atom       -0.002681     -0.013913      0.012062
    34   Atom        0.014723      0.008259      0.016814
    35   Atom       -0.005108      0.001623     -0.041698
    36   Atom        0.000294     -0.001542     -0.003456
    37   Atom       -0.011723      0.020676     -0.038200
    38   Atom       -0.000245      0.001554     -0.038566
    39   Atom       -0.000658     -0.002506      0.002025
    40   Atom        0.000917     -0.000748      0.002942
    41   Atom       -0.005065      0.007357     -0.015096
    42   Atom        0.005845     -0.005745      0.014964
    43   Atom        0.000557     -0.002114      0.001054
    44   Atom        0.004822     -0.005534      0.010186
    45   Atom       -0.007645      0.010943     -0.017612
    46   Atom       -0.001265     -0.002029      0.001045
    47   Atom        0.002464     -0.000146     -0.000096
    48   Atom       -0.010909      0.020826     -0.044528
    49   Atom        0.001345      0.000234      0.000932
    50   Atom        0.000770     -0.000511      0.000726
    51   Atom       -0.002158     -0.002832      0.000618
    52   Atom        0.004530      0.002913      0.001819
    53   Atom        0.112359     -0.216350     -0.260883
    54   Atom       -0.074769      0.148952     -0.176334
 --------------------------------------------------------


 ---------------------------------------------------------------------------------
              Anisotropic Spin Dipole Couplings in Principal Axis System
 ---------------------------------------------------------------------------------

       Atom             a.u.   MegaHertz   Gauss  10(-4) cm-1        Axes

              Baa    -0.1591   -21.356    -7.620    -7.124 -0.5394 -0.5827  0.6079
     1 C(13)  Bbb    -0.1484   -19.920    -7.108    -6.645  0.8366 -0.4527  0.3084
              Bcc     0.3076    41.276    14.728    13.768  0.0954  0.6749  0.7317
 
              Baa    -0.1501   -20.141    -7.187    -6.718  0.8648 -0.3168  0.3896
     2 C(13)  Bbb    -0.1457   -19.550    -6.976    -6.521  0.4963  0.6576 -0.5668
              Bcc     0.2958    39.691    14.163    13.240 -0.0767  0.6835  0.7259
 
              Baa    -0.0855   -11.476    -4.095    -3.828  0.0229  0.7076  0.7063
     3 C(13)  Bbb     0.0328     4.398     1.569     1.467 -0.0258 -0.7058  0.7079
              Bcc     0.0527     7.078     2.526     2.361  0.9994 -0.0344  0.0021
 
              Baa    -0.1877   -25.193    -8.990    -8.404 -0.4928 -0.5832  0.6458
     4 C(13)  Bbb    -0.1795   -24.083    -8.593    -8.033  0.8701 -0.3323  0.3639
              Bcc     0.3672    49.276    17.583    16.437  0.0023  0.7413  0.6712
 
              Baa    -0.1736   -23.301    -8.315    -7.773  0.4618 -0.6112  0.6428
     5 C(13)  Bbb    -0.1664   -22.329    -7.967    -7.448  0.8855  0.2753 -0.3744
              Bcc     0.3400    45.630    16.282    15.221  0.0519  0.7421  0.6683
 
              Baa    -0.0851   -11.415    -4.073    -3.808  0.0018  0.7127  0.7014
     6 C(13)  Bbb     0.0304     4.082     1.457     1.362  0.0603 -0.7002  0.7114
              Bcc     0.0546     7.333     2.617     2.446  0.9982  0.0410 -0.0443
 
              Baa    -0.0073    -3.905    -1.393    -1.303  0.0064  0.7169  0.6971
     7 H(1)   Bbb    -0.0006    -0.314    -0.112    -0.105 -0.1828 -0.6846  0.7057
              Bcc     0.0079     4.219     1.505     1.407  0.9831 -0.1320  0.1267
 
              Baa    -0.0077    -4.085    -1.458    -1.363  0.0488  0.6933  0.7190
     8 H(1)   Bbb    -0.0009    -0.501    -0.179    -0.167 -0.2377  0.7072 -0.6658
              Bcc     0.0086     4.586     1.636     1.530  0.9701  0.1384 -0.1993
 
              Baa    -0.0400    -5.362    -1.913    -1.789  0.0522  0.7101  0.7022
     9 C(13)  Bbb    -0.0147    -1.966    -0.702    -0.656 -0.5744  0.5965 -0.5605
              Bcc     0.0546     7.329     2.615     2.445  0.8169  0.3740 -0.4390
 
              Baa    -0.1599    -6.165    -2.200    -2.057  0.8306  0.3324 -0.4467
    10 N(14)  Bbb    -0.1276    -4.921    -1.756    -1.641  0.5529 -0.5878  0.5906
              Bcc     0.2874    11.086     3.956     3.698  0.0663  0.7376  0.6720
 
              Baa    -0.0423    -5.679    -2.026    -1.894  0.0107  0.7154  0.6987
    11 C(13)  Bbb    -0.0160    -2.141    -0.764    -0.714 -0.5288 -0.5890  0.6111
              Bcc     0.0583     7.820     2.790     2.608  0.8487 -0.3760  0.3720
 
              Baa    -0.1726    -6.658    -2.376    -2.221  0.8662 -0.3373  0.3686
    12 N(14)  Bbb    -0.1369    -5.279    -1.884    -1.761 -0.4996 -0.5860  0.6380
              Bcc     0.3095    11.937     4.259     3.982 -0.0008  0.7368  0.6761
 
              Baa    -0.0346    -4.648    -1.658    -1.550 -0.2105 -0.5536  0.8058
    13 C(13)  Bbb    -0.0009    -0.121    -0.043    -0.040  0.8217  0.3463  0.4526
              Bcc     0.0355     4.768     1.701     1.591 -0.5296  0.7574  0.3820
 
              Baa    -0.0341    -4.576    -1.633    -1.526 -0.3146 -0.5012  0.8061
    14 C(13)  Bbb     0.0029     0.394     0.141     0.131 -0.5001  0.8093  0.3080
              Bcc     0.0312     4.182     1.492     1.395  0.8068  0.3063  0.5053
 
              Baa    -0.0496    -6.654    -2.374    -2.219  0.8459  0.2245  0.4838
    15 C(13)  Bbb    -0.0451    -6.045    -2.157    -2.017 -0.4190  0.8410  0.3424
              Bcc     0.0946    12.699     4.531     4.236 -0.3300 -0.4923  0.8055
 
              Baa    -0.0363    -4.876    -1.740    -1.626  0.1282  0.8448  0.5196
    16 C(13)  Bbb    -0.0307    -4.120    -1.470    -1.374  0.9825 -0.1797  0.0498
              Bcc     0.0670     8.996     3.210     3.001 -0.1355 -0.5041  0.8530
 
              Baa    -0.0487    -6.529    -2.330    -2.178 -0.5387  0.7203  0.4370
    17 C(13)  Bbb    -0.0428    -5.748    -2.051    -1.917  0.8296  0.3633  0.4239
              Bcc     0.0915    12.277     4.381     4.095 -0.1466 -0.5909  0.7933
 
              Baa    -0.0100    -1.347    -0.481    -0.449 -0.1395  0.8675  0.4774
    18 C(13)  Bbb    -0.0051    -0.680    -0.243    -0.227  0.9647  0.0102  0.2633
              Bcc     0.0151     2.027     0.723     0.676 -0.2236 -0.4973  0.8383
 
              Baa    -0.0351    -4.704    -1.678    -1.569 -0.2935 -0.4813  0.8260
    19 C(13)  Bbb     0.0146     1.964     0.701     0.655  0.7472  0.4234  0.5122
              Bcc     0.0204     2.740     0.978     0.914 -0.5963  0.7675  0.2353
 
              Baa    -0.0066    -3.505    -1.251    -1.169 -0.3228 -0.1616  0.9326
    20 H(1)   Bbb     0.0005     0.259     0.092     0.086  0.1415  0.9660  0.2163
              Bcc     0.0061     3.247     1.158     1.083  0.9358 -0.2018  0.2890
 
              Baa    -0.0184    -2.469    -0.881    -0.824 -0.3584 -0.4389  0.8240
    21 C(13)  Bbb     0.0076     1.025     0.366     0.342  0.8716  0.1589  0.4638
              Bcc     0.0108     1.445     0.515     0.482 -0.3345  0.8844  0.3256
 
              Baa    -0.0154    -2.060    -0.735    -0.687 -0.2804 -0.5363  0.7961
    22 C(13)  Bbb     0.0047     0.635     0.227     0.212 -0.4771  0.7975  0.3692
              Bcc     0.0106     1.425     0.508     0.475  0.8329  0.2763  0.4795
 
              Baa    -0.0061    -3.265    -1.165    -1.089  0.2191  0.7581 -0.6143
    23 H(1)   Bbb     0.0004     0.228     0.082     0.076  0.3437  0.5293  0.7757
              Bcc     0.0057     3.036     1.083     1.013  0.9132 -0.3811 -0.1445
 
              Baa    -0.0130    -1.746    -0.623    -0.582 -0.5824  0.7715  0.2562
    24 C(13)  Bbb    -0.0123    -1.657    -0.591    -0.553  0.7448  0.3801  0.5485
              Bcc     0.0254     3.403     1.214     1.135 -0.3258 -0.5102  0.7960
 
              Baa    -0.0547    -7.334    -2.617    -2.447  0.8341  0.2816  0.4744
    25 C(13)  Bbb    -0.0477    -6.400    -2.284    -2.135 -0.4703  0.8125  0.3445
              Bcc     0.1023    13.734     4.901     4.581 -0.2884 -0.5104  0.8101
 
              Baa    -0.0023    -1.242    -0.443    -0.414 -0.2076 -0.3767  0.9028
    26 H(1)   Bbb    -0.0008    -0.409    -0.146    -0.137  0.7763  0.4981  0.3864
              Bcc     0.0031     1.652     0.589     0.551 -0.5952  0.7810  0.1890
 
              Baa    -0.0022    -1.185    -0.423    -0.395 -0.3415 -0.4034  0.8489
    27 H(1)   Bbb     0.0011     0.564     0.201     0.188 -0.2869  0.9049  0.3145
              Bcc     0.0012     0.622     0.222     0.207  0.8950  0.1361  0.4247
 
              Baa    -0.0335    -4.498    -1.605    -1.500 -0.5257  0.8186  0.2315
    28 C(13)  Bbb    -0.0289    -3.883    -1.386    -1.295  0.7773  0.3516  0.5218
              Bcc     0.0625     8.381     2.991     2.796 -0.3457 -0.4542  0.8211
 
              Baa    -0.0021    -1.114    -0.398    -0.372 -0.6586 -0.0247  0.7521
    29 H(1)   Bbb    -0.0013    -0.691    -0.247    -0.231 -0.3365  0.9037 -0.2649
              Bcc     0.0034     1.806     0.644     0.602  0.6731  0.4275  0.6035
 
              Baa    -0.0023    -1.211    -0.432    -0.404 -0.4432 -0.5924  0.6728
    30 H(1)   Bbb    -0.0018    -0.964    -0.344    -0.321  0.4148  0.5298  0.7398
              Bcc     0.0041     2.175     0.776     0.725  0.7947 -0.6069 -0.0110
 
              Baa    -0.0083    -4.405    -1.572    -1.469  0.8415  0.2744  0.4653
    31 H(1)   Bbb    -0.0022    -1.153    -0.411    -0.385 -0.3031 -0.4732  0.8272
              Bcc     0.0104     5.557     1.983     1.854 -0.4472  0.8371  0.3150
 
              Baa    -0.0054    -2.907    -1.037    -0.970 -0.5523  0.7915  0.2618
    32 H(1)   Bbb    -0.0020    -1.064    -0.380    -0.355 -0.3338 -0.4977  0.8005
              Bcc     0.0074     3.971     1.417     1.325  0.7639  0.3548  0.5391
 
              Baa    -0.0228    -3.058    -1.091    -1.020  0.2655 -0.5005  0.8240
    33 C(13)  Bbb    -0.0006    -0.081    -0.029    -0.027  0.4475  0.8210  0.3544
              Bcc     0.0234     3.139     1.120     1.047  0.8539 -0.2747 -0.4420
 
              Baa    -0.0208    -2.789    -0.995    -0.930  0.0681 -0.5757  0.8148
    34 C(13)  Bbb    -0.0073    -0.978    -0.349    -0.326  0.8066 -0.4489 -0.3846
              Bcc     0.0281     3.768     1.344     1.257  0.5872  0.6834  0.4338
 
              Baa    -0.0309    -4.147    -1.480    -1.383  0.5663  0.6461  0.5117
    35 C(13)  Bbb    -0.0248    -3.334    -1.190    -1.112  0.8223 -0.4014 -0.4034
              Bcc     0.0558     7.482     2.670     2.496  0.0553 -0.6492  0.7586
 
              Baa    -0.0041    -0.547    -0.195    -0.183  0.1334  0.8434  0.5205
    36 C(13)  Bbb    -0.0004    -0.048    -0.017    -0.016  0.9367 -0.2788  0.2117
              Bcc     0.0044     0.595     0.212     0.199 -0.3237 -0.4593  0.8272
 
              Baa    -0.0325    -4.362    -1.556    -1.455  0.8809 -0.2044 -0.4269
    37 C(13)  Bbb    -0.0280    -3.759    -1.341    -1.254  0.3911  0.8224  0.4132
              Bcc     0.0605     8.121     2.898     2.709  0.2666 -0.5309  0.8044
 
              Baa    -0.0306    -4.105    -1.465    -1.369 -0.1051  0.8423  0.5287
    38 C(13)  Bbb    -0.0247    -3.315    -1.183    -1.106  0.9943  0.0987  0.0405
              Bcc     0.0553     7.420     2.648     2.475  0.0181 -0.5299  0.8478
 
              Baa    -0.0036    -0.477    -0.170    -0.159 -0.1291  0.8515 -0.5082
    39 C(13)  Bbb    -0.0007    -0.101    -0.036    -0.034  0.6598  0.4563  0.5970
              Bcc     0.0043     0.578     0.206     0.193  0.7403 -0.2582 -0.6207
 
              Baa    -0.0047    -2.510    -0.896    -0.837 -0.1637  0.8431 -0.5123
    40 H(1)   Bbb     0.0021     1.115     0.398     0.372  0.3282  0.5363  0.7777
              Bcc     0.0026     1.395     0.498     0.465  0.9303 -0.0408 -0.3644
 
              Baa    -0.0123    -1.652    -0.589    -0.551  0.1498  0.8495  0.5059
    41 C(13)  Bbb    -0.0109    -1.465    -0.523    -0.489  0.9507  0.0167 -0.3096
              Bcc     0.0232     3.117     1.112     1.040  0.2714 -0.5274  0.8051
 
              Baa    -0.0239    -3.203    -1.143    -1.068  0.2331 -0.4934  0.8380
    42 C(13)  Bbb     0.0096     1.286     0.459     0.429  0.8060 -0.3841 -0.4504
              Bcc     0.0143     1.917     0.684     0.640  0.5441  0.7804  0.3082
 
              Baa    -0.0056    -3.008    -1.073    -1.003  0.2525 -0.1461  0.9565
    43 H(1)   Bbb     0.0023     1.237     0.441     0.413 -0.2381  0.9488  0.2078
              Bcc     0.0033     1.771     0.632     0.591  0.9379  0.2802 -0.2047
 
              Baa    -0.0173    -2.327    -0.830    -0.776  0.2979 -0.4649  0.8338
    44 C(13)  Bbb     0.0069     0.927     0.331     0.309  0.8074 -0.3433 -0.4799
              Bcc     0.0104     1.400     0.500     0.467  0.5093  0.8161  0.2731
 
              Baa    -0.0168    -2.255    -0.805    -0.752  0.4646  0.8363  0.2911
    45 C(13)  Bbb    -0.0135    -1.811    -0.646    -0.604  0.8281 -0.2939 -0.4774
              Bcc     0.0303     4.066     1.451     1.356  0.3137 -0.4628  0.8291
 
              Baa    -0.0020    -1.062    -0.379    -0.354  0.7985  0.2616  0.5422
    46 H(1)   Bbb    -0.0010    -0.539    -0.192    -0.180  0.0647  0.8582 -0.5093
              Bcc     0.0030     1.601     0.571     0.534 -0.5985  0.4417  0.6683
 
              Baa    -0.0019    -1.018    -0.363    -0.340 -0.5591  0.8291 -0.0053
    47 H(1)   Bbb    -0.0015    -0.803    -0.287    -0.268  0.0266  0.0243  0.9994
              Bcc     0.0034     1.821     0.650     0.608  0.8287  0.5586 -0.0356
 
              Baa    -0.0371    -4.982    -1.778    -1.662  0.8280 -0.3267 -0.4557
    48 C(13)  Bbb    -0.0313    -4.201    -1.499    -1.401  0.5108  0.7746  0.3730
              Bcc     0.0684     9.183     3.277     3.063  0.2311 -0.5416  0.8082
 
              Baa    -0.0019    -1.008    -0.360    -0.336  0.0913 -0.3118  0.9457
    49 H(1)   Bbb    -0.0006    -0.299    -0.107    -0.100  0.8431 -0.4811 -0.2401
              Bcc     0.0024     1.307     0.466     0.436  0.5299  0.8193  0.2190
 
              Baa    -0.0017    -0.884    -0.316    -0.295  0.3545 -0.3734  0.8573
    50 H(1)   Bbb     0.0003     0.145     0.052     0.048  0.7424 -0.4450 -0.5008
              Bcc     0.0014     0.739     0.264     0.247  0.5685  0.8140  0.1195
 
              Baa    -0.0031    -1.637    -0.584    -0.546  0.5637  0.7488  0.3488
    51 H(1)   Bbb    -0.0014    -0.756    -0.270    -0.252  0.3012 -0.5795  0.7573
              Bcc     0.0045     2.394     0.854     0.798  0.7691 -0.3218 -0.5521
 
              Baa    -0.0058    -3.097    -1.105    -1.033  0.8445 -0.3045 -0.4405
    52 H(1)   Bbb    -0.0016    -0.848    -0.303    -0.283  0.2652 -0.4767  0.8381
              Bcc     0.0074     3.944     1.407     1.316  0.4652  0.8246  0.3219
 
              Baa    -0.2439    -9.407    -3.357    -3.138  0.3146  0.7767  0.5457
    53 N(14)  Bbb    -0.2400    -9.255    -3.302    -3.087  0.8779 -0.4567  0.1438
              Bcc     0.4839    18.661     6.659     6.225 -0.3609 -0.4338  0.8256
 
              Baa    -0.1677    -6.469    -2.308    -2.158 -0.3463  0.7639  0.5445
    54 N(14)  Bbb    -0.1626    -6.269    -2.237    -2.091  0.8653  0.4843 -0.1291
              Bcc     0.3303    12.738     4.545     4.249  0.3623 -0.4264  0.8288
 

 ---------------------------------------------------------------------------------

 Calling FoFJK, ICntrl=      2127 FMM=F ISym2X=0 I1Cent= 0 IOpClX= 1 NMat=1 NMatS=1 NMatT=0.
 -------------------------------------------------------------------
 Center     Atomic                   Forces (Hartrees/Bohr)
 Number     Number              X              Y              Z
 -------------------------------------------------------------------
      1        6          -0.006172361    0.009565740   -0.005112002
      2        6          -0.002682200   -0.009172710    0.003325043
      3        6          -0.000333869   -0.004032469   -0.000488246
      4        6           0.000988074   -0.006584073    0.007548156
      5        6           0.002382570    0.006756909   -0.007911268
      6        6          -0.000761226    0.003773937    0.002831133
      7        1          -0.000019496   -0.000093982    0.000859910
      8        1          -0.000726299   -0.000182229   -0.000510756
      9        6          -0.002169538   -0.002068633    0.000755215
     10        7           0.001192754    0.000725417    0.000065698
     11        6          -0.002790935    0.001543168   -0.000486818
     12        7           0.001305938   -0.000773861    0.000272441
     13        6          -0.000730499    0.012201869   -0.000346060
     14        6          -0.003498439   -0.005130974    0.001909280
     15        6          -0.002799863   -0.002114643   -0.002429864
     16        6           0.004784474   -0.003183912   -0.000541603
     17        6          -0.002558626    0.001194074   -0.001187285
     18        6           0.002213484    0.000296188    0.002136175
     19        6          -0.000777361   -0.000334452   -0.000128800
     20        1           0.000560704   -0.000271834    0.000417631
     21        6           0.000599660    0.004043642    0.003653707
     22        6           0.003604946   -0.000138046    0.000829217
     23        1           0.000668134   -0.000159306   -0.000631629
     24        6          -0.001948392   -0.003679637   -0.003030789
     25        6          -0.002396631   -0.001348430   -0.001313161
     26        1           0.000042485    0.000131115    0.000098445
     27        1          -0.000054246   -0.000059504   -0.000086947
     28        6          -0.001906177    0.003905034    0.002109427
     29        1           0.000175488   -0.000156815   -0.000316286
     30        1           0.000051637   -0.000027288    0.000064685
     31        1          -0.000157838    0.000202881   -0.000092820
     32        1          -0.000316623   -0.000315511    0.000311876
     33        6          -0.002738506    0.002893026   -0.001660450
     34        6          -0.001352683   -0.009170722    0.000312317
     35        6          -0.000031255   -0.000252374    0.000582376
     36        6          -0.000887586    0.001337797    0.000560717
     37        6          -0.001293226    0.001262099    0.001802034
     38        6           0.002884864   -0.000878061   -0.000785288
     39        6           0.000612552    0.000196836    0.000407817
     40        1           0.000384091    0.000087984    0.000302264
     41        6           0.000525317   -0.001082565   -0.000620672
     42        6          -0.001240766    0.000007789    0.000119332
     43        1           0.000516724    0.000214468   -0.000530757
     44        6           0.000153840    0.000463660   -0.000181661
     45        6           0.001120275    0.000509310   -0.000085094
     46        1           0.000173015    0.000170110   -0.000095501
     47        1           0.000008165    0.000304558   -0.000172022
     48        6           0.001140852    0.000221239   -0.000259274
     49        1           0.000110204   -0.000051674   -0.000367406
     50        1           0.000118260    0.000217845    0.000179602
     51        1          -0.000051852    0.000496179   -0.000447075
     52        1           0.000047503   -0.000021150    0.000093154
     53        7           0.008680131   -0.006493319   -0.000648119
     54        7           0.005350349    0.005055299   -0.001079999
 -------------------------------------------------------------------
 Cartesian Forces:  Max     0.012201869 RMS     0.002736233

 GradGradGradGradGradGradGradGradGradGradGradGradGradGradGradGradGradGrad
 Berny optimization.
 Search for a local minimum.
 Step number   1 out of a maximum of    2
 All quantities printed in internal units (Hartrees-Bohrs-Radians)
 Second derivative matrix not updated -- first step.
 ITU=  0
     Eigenvalues ---    0.00008   0.00009   0.00022   0.00076   0.00078
     Eigenvalues ---    0.00113   0.00182   0.00265   0.00292   0.00302
     Eigenvalues ---    0.00322   0.00447   0.00716   0.00850   0.00936
     Eigenvalues ---    0.01024   0.01226   0.01233   0.01241   0.01256
     Eigenvalues ---    0.01674   0.02384   0.02426   0.02542   0.02600
     Eigenvalues ---    0.02607   0.02621   0.02720   0.02965   0.03425
     Eigenvalues ---    0.03442   0.03628   0.04610   0.04651   0.04703
     Eigenvalues ---    0.04981   0.06586   0.06747   0.06997   0.07010
     Eigenvalues ---    0.07025   0.07027   0.07055   0.07064   0.07104
     Eigenvalues ---    0.07113   0.07449   0.07901   0.07914   0.07944
     Eigenvalues ---    0.08609   0.08981   0.09466   0.10176   0.10558
     Eigenvalues ---    0.10681   0.10764   0.10781   0.11126   0.12473
     Eigenvalues ---    0.12512   0.12522   0.12628   0.12847   0.13586
     Eigenvalues ---    0.13718   0.13873   0.15070   0.15097   0.15306
     Eigenvalues ---    0.17590   0.18455   0.19528   0.19590   0.21238
     Eigenvalues ---    0.21835   0.23352   0.24342   0.26508   0.27639
     Eigenvalues ---    0.28049   0.28299   0.29701   0.30105   0.30776
     Eigenvalues ---    0.30976   0.31631   0.32955   0.35676   0.35805
     Eigenvalues ---    0.35813   0.36639   0.38077   0.40883   0.42822
     Eigenvalues ---    0.43033   0.43144   0.43365   0.46017   0.47585
     Eigenvalues ---    0.48256   0.49794   0.50319   0.50610   0.50806
     Eigenvalues ---    0.52505   0.53226   0.59340   0.60329   0.62247
     Eigenvalues ---    0.64145   0.71401   0.71438   0.74383   0.77984
     Eigenvalues ---    0.81910   0.82440   0.89745   0.90564   0.94807
     Eigenvalues ---    1.02932   1.06668   1.11024   1.12924   1.14209
     Eigenvalues ---    1.15190   1.15223   1.15417   1.19228   1.20105
     Eigenvalues ---    1.26247   1.29803   1.30736   1.39646   1.40015
     Eigenvalues ---    1.41160   1.43330   1.48736   1.49079   1.49749
     Eigenvalues ---    1.49975   1.50027   1.54492   1.58689   1.64468
     Eigenvalues ---    1.65114   1.66853   1.69676   1.71201   1.74206
     Eigenvalues ---    1.76166   1.76475   2.80433   2.80812  37.92067
     Eigenvalues ---  136.07322
 Eigenvalue     1 is   7.90D-05 Eigenvector:
                          Z51       Z46       Z32       Z45       X49
   1                    0.20852   0.18285  -0.18147   0.16854  -0.16670
                          X46       X29       X26       X52       Z39
   1                    0.16533   0.16174  -0.15982  -0.15910   0.15380
 Eigenvalue     2 is   9.18D-05 Eigenvector:
                          Z26       Z29       Z31       Z52       Z49
   1                    0.21956  -0.21755   0.21604   0.21499   0.20822
                          Z46       Z19       Z48       Z25       Z32
   1                   -0.18230   0.16957   0.16825   0.16776  -0.16666
 Quadratic step=5.003D+00 exceeds max=3.000D-01 adjusted using Lamda=-7.080D-03.
 Angle between NR and scaled steps=  51.25 degrees.
 Angle between quadratic step and forces=  74.59 degrees.
 Linear search not attempted -- first point.
 B after Tr=     0.000394   -0.000705    0.000579
         Rot=    1.000000    0.000025    0.000114    0.000032 Ang=   0.01 deg.
 Variable       Old X    -DE/DX   Delta X   Delta X   Delta X     New X
                                 (Linear)    (Quad)   (Total)
    X1        2.65489  -0.00617   0.00000  -0.00200  -0.00134   2.65355
    Y1        0.92589   0.00957   0.00000   0.03370   0.03279   0.95868
    Z1       -0.91747  -0.00511   0.00000   0.01157   0.01271  -0.90476
    X2        2.68902  -0.00268   0.00000  -0.00153  -0.00144   2.68759
    Y2       -0.93858  -0.00917   0.00000  -0.04011  -0.04093  -0.97951
    Z2        1.06886   0.00333   0.00000  -0.02873  -0.02749   1.04137
    X3        4.97744  -0.00033   0.00000  -0.00877  -0.00893   4.96851
    Y3       -1.82898  -0.00403   0.00000  -0.06727  -0.06820  -1.89718
    Z3        1.93243  -0.00049   0.00000  -0.03487  -0.03306   1.89937
    X4        7.26940   0.00099   0.00000  -0.00801  -0.00789   7.26151
    Y4       -0.93311  -0.00658   0.00000  -0.03011  -0.03123  -0.96434
    Z4        0.94780   0.00755   0.00000  -0.00035   0.00194   0.94974
    X5        7.21173   0.00238   0.00000  -0.00136  -0.00066   7.21106
    Y5        0.92531   0.00676   0.00000   0.02764   0.02643   0.95174
    Z5       -1.08824  -0.00791   0.00000   0.01627   0.01846  -1.06978
    X6        4.88189  -0.00076   0.00000  -0.00052   0.00042   4.88231
    Y6        1.82371   0.00377   0.00000   0.06857   0.06746   1.89117
    Z6       -1.93499   0.00283   0.00000   0.04685   0.04845  -1.88654
    X7        5.01149  -0.00002   0.00000  -0.01398  -0.01456   4.99693
    Y7       -3.28540  -0.00009   0.00000  -0.07665  -0.07751  -3.36291
    Z7        3.37801   0.00086   0.00000  -0.04220  -0.04031   3.33770
    X8        4.83288  -0.00073   0.00000  -0.00601  -0.00464   4.82824
    Y8        3.26492  -0.00018   0.00000   0.08315   0.08197   3.34689
    Z8       -3.39633  -0.00051   0.00000   0.06081   0.06233  -3.33399
    X9        9.44876  -0.00217   0.00000   0.00237   0.00339   9.45215
    Y9        1.82763  -0.00207   0.00000   0.01622   0.01480   1.84243
    Z9       -2.25672   0.00076   0.00000   0.02315   0.02580  -2.23092
   X10       11.24430   0.00119   0.00000   0.01171   0.01300  11.25731
   Y10        2.59312   0.00073   0.00000   0.00793   0.00635   2.59947
   Z10       -3.26679   0.00007   0.00000   0.03136   0.03439  -3.23241
   X11        9.58050  -0.00279   0.00000  -0.01108  -0.01125   9.56926
   Y11       -1.85232   0.00154   0.00000  -0.02420  -0.02542  -1.87774
   Z11        1.93825  -0.00049   0.00000   0.00194   0.00481   1.94306
   X12       11.45941   0.00131   0.00000  -0.00772  -0.00813  11.45128
   Y12       -2.62559  -0.00077   0.00000  -0.01939  -0.02068  -2.64627
   Z12        2.77753   0.00027   0.00000   0.00194   0.00527   2.78280
   X13       -0.61910  -0.00073   0.00000   0.00994   0.01074  -0.60836
   Y13        4.25047   0.01220   0.00000   0.04660   0.04591   4.29638
   Z13       -0.52201  -0.00035   0.00000  -0.03052  -0.03029  -0.55231
   X14       -1.65252  -0.00350   0.00000  -0.00502  -0.00391  -1.65643
   Y14        0.90402  -0.00513   0.00000  -0.01195  -0.01270   0.89133
   Z14       -2.91014   0.00191   0.00000   0.03144   0.03159  -2.87855
   X15        0.69591  -0.00280   0.00000  -0.00399  -0.00343   0.69247
   Y15        5.98169  -0.00211   0.00000   0.04586   0.04516   6.02684
   Z15        0.99291  -0.00243   0.00000  -0.03325  -0.03281   0.96010
   X16       -3.18469   0.00478   0.00000   0.00408   0.00505  -3.17964
   Y16        4.60452  -0.00318   0.00000   0.01092   0.01035   4.61487
   Z16       -1.23151  -0.00054   0.00000   0.00130   0.00092  -1.23058
   X17       -1.57102  -0.00256   0.00000  -0.00123   0.00005  -1.57096
   Y17       -1.36547   0.00119   0.00000   0.00176   0.00095  -1.36452
   Z17       -4.24213  -0.00119   0.00000   0.01141   0.01169  -4.23043
   X18       -3.84927   0.00221   0.00000  -0.00195  -0.00078  -3.85004
   Y18        2.42232   0.00030   0.00000  -0.00854  -0.00914   2.41319
   Z18       -2.78013   0.00214   0.00000   0.02839   0.02797  -2.75216
   X19       -0.62272  -0.00078   0.00000  -0.01853  -0.01802  -0.64075
   Y19        8.10143  -0.00033   0.00000   0.03060   0.03002   8.13145
   Z19        1.79664  -0.00013   0.00000  -0.01563  -0.01560   1.78104
   X20        2.66059   0.00056   0.00000  -0.00340  -0.00298   2.65761
   Y20        5.65982  -0.00027   0.00000   0.04688   0.04607   5.70590
   Z20        1.48150   0.00042   0.00000  -0.02552  -0.02461   1.45689
   X21       -4.45495   0.00060   0.00000  -0.01127  -0.01036  -4.46531
   Y21        6.73300   0.00404   0.00000   0.00597   0.00553   6.73853
   Z21       -0.40079   0.00365   0.00000   0.01073   0.00995  -0.39084
   X22       -3.79218   0.00360   0.00000   0.00160   0.00311  -3.78908
   Y22       -2.12644  -0.00014   0.00000   0.00050  -0.00024  -2.12668
   Z22       -5.45349   0.00083   0.00000   0.01681   0.01663  -5.43686
   X23        0.15664   0.00067   0.00000   0.00816   0.00940   0.16604
   Y23       -2.45837  -0.00016   0.00000   0.01600   0.01507  -2.44330
   Z23       -4.34930  -0.00063   0.00000  -0.01913  -0.01839  -4.36769
   X24       -6.00998  -0.00195   0.00000  -0.00898  -0.00756  -6.01754
   Y24        1.65461  -0.00368   0.00000  -0.01630  -0.01682   1.63779
   Z24       -4.03163  -0.00303   0.00000   0.03342   0.03254  -3.99909
   X25       -3.15557  -0.00240   0.00000  -0.02429  -0.02361  -3.17918
   Y25        8.47147  -0.00135   0.00000   0.01576   0.01532   8.48678
   Z25        1.11597  -0.00131   0.00000  -0.00165  -0.00222   1.11375
   X26        0.32246   0.00004   0.00000  -0.02280  -0.02248   0.29998
   Y26        9.49571   0.00013   0.00000   0.02873   0.02815   9.52386
   Z26        2.96447   0.00010   0.00000  -0.00926  -0.00908   2.95539
   X27       -6.41942  -0.00005   0.00000  -0.01733  -0.01629  -6.43571
   Y27        7.05639  -0.00006   0.00000  -0.01368  -0.01402   7.04237
   Z27       -0.89520  -0.00009   0.00000   0.02192   0.02068  -0.87452
   X28       -5.96319  -0.00191   0.00000  -0.01043  -0.00886  -5.97205
   Y28       -0.64085   0.00391   0.00000  -0.01067  -0.01126  -0.65212
   Z28       -5.36753   0.00211   0.00000   0.03819   0.03744  -5.33009
   X29       -3.80927   0.00018   0.00000   0.00890   0.01054  -3.79873
   Y29       -3.89621  -0.00016   0.00000   0.00910   0.00831  -3.88790
   Z29       -6.48687  -0.00032   0.00000   0.00002  -0.00007  -6.48694
   X30       -7.71589   0.00005   0.00000  -0.00811  -0.00663  -7.72253
   Y30        2.79413  -0.00003   0.00000  -0.01516  -0.01557   2.77856
   Z30       -3.99149   0.00006   0.00000   0.03127   0.02995  -3.96155
   X31       -4.13380  -0.00016   0.00000  -0.03320  -0.03257  -4.16637
   Y31       10.14635   0.00020   0.00000   0.00916   0.00881  10.15516
   Z31        1.78049  -0.00009   0.00000   0.00227   0.00139   1.78188
   X32       -7.64623  -0.00032   0.00000  -0.01429  -0.01252  -7.65875
   Y32       -1.25198  -0.00032   0.00000  -0.01725  -0.01778  -1.26976
   Z32       -6.36545   0.00031   0.00000   0.04729   0.04618  -6.31927
   X33       -1.64702  -0.00274   0.00000   0.00486   0.00451  -1.64251
   Y33       -0.92468   0.00289   0.00000   0.00615   0.00569  -0.91898
   Z33        3.03861  -0.00166   0.00000  -0.03575  -0.03551   3.00310
   X34       -0.57103  -0.00135   0.00000   0.00606   0.00603  -0.56500
   Y34       -4.27169  -0.00917   0.00000  -0.04460  -0.04523  -4.31693
   Z34        0.66075   0.00031   0.00000   0.01196   0.01262   0.67337
   X35       -1.62060  -0.00003   0.00000   0.02181   0.02128  -1.59932
   Y35        1.31292  -0.00025   0.00000   0.00086   0.00048   1.31340
   Z35        4.42527   0.00058   0.00000  -0.02517  -0.02502   4.40026
   X36       -3.85845  -0.00089   0.00000   0.00595   0.00556  -3.85289
   Y36       -2.39625   0.00134   0.00000   0.00332   0.00299  -2.39326
   Z36        2.77484   0.00056   0.00000  -0.02124  -0.02143   2.75342
   X37        0.74110  -0.00129   0.00000   0.00238   0.00258   0.74368
   Y37       -6.02834   0.00126   0.00000  -0.04091  -0.04170  -6.07004
   Z37       -0.82426   0.00180   0.00000   0.01512   0.01617  -0.80809
   X38       -3.17416   0.00288   0.00000   0.00697   0.00679  -3.16737
   Y38       -4.55705  -0.00088   0.00000  -0.01862  -0.01907  -4.57612
   Z38        1.23148  -0.00079   0.00000   0.00042   0.00050   1.23197
   X39       -3.88204   0.00061   0.00000   0.02811   0.02738  -3.85466
   Y39        2.07079   0.00020   0.00000   0.01079   0.01060   2.08139
   Z39        5.54494   0.00041   0.00000  -0.02203  -0.02243   5.52251
   X40        0.11117   0.00038   0.00000   0.02965   0.02914   0.14031
   Y40        2.38462   0.00009   0.00000  -0.01261  -0.01309   2.37153
   Z40        4.65437   0.00030   0.00000  -0.01422  -0.01372   4.64064
   X41       -6.08133   0.00053   0.00000   0.01018   0.00958  -6.07175
   Y41       -1.62507  -0.00108   0.00000   0.01664   0.01651  -1.60855
   Z41        3.94841  -0.00062   0.00000  -0.02561  -0.02634   3.92207
   X42       -0.61068  -0.00124   0.00000  -0.00536  -0.00508  -0.61576
   Y42       -8.08039   0.00001   0.00000  -0.02946  -0.03021  -8.11060
   Z42       -1.73441   0.00012   0.00000   0.00385   0.00469  -1.72972
   X43        2.73950   0.00052   0.00000   0.00098   0.00128   2.74079
   Y43       -5.78198   0.00021   0.00000  -0.03421  -0.03515  -5.81713
   Z43       -1.21189  -0.00053   0.00000   0.00233   0.00383  -1.20806
   X44       -4.48654   0.00015   0.00000   0.00058   0.00049  -4.48605
   Y44       -6.63138   0.00046   0.00000  -0.01315  -0.01356  -6.64494
   Z44        0.28530  -0.00018   0.00000   0.00222   0.00210   0.28739
   X45       -6.08084   0.00112   0.00000   0.02153   0.02076  -6.06009
   Y45        0.62014   0.00051   0.00000   0.02273   0.02267   0.64281
   Z45        5.32789  -0.00009   0.00000  -0.03163  -0.03247   5.29543
   X46       -3.92018   0.00017   0.00000   0.03539   0.03451  -3.88567
   Y46        3.80848   0.00017   0.00000   0.00892   0.00879   3.81727
   Z46        6.63318  -0.00010   0.00000  -0.01820  -0.01870   6.61448
   X47       -7.78495   0.00001   0.00000   0.00438   0.00374  -7.78121
   Y47       -2.76140   0.00030   0.00000   0.02509   0.02506  -2.73634
   Z47        3.80451  -0.00017   0.00000  -0.02168  -0.02274   3.78176
   X48       -3.19506   0.00114   0.00000  -0.00425  -0.00411  -3.19917
   Y48       -8.37976   0.00022   0.00000  -0.01880  -0.01936  -8.39913
   Z48       -1.19602  -0.00026   0.00000   0.00376   0.00402  -1.19200
   X49        0.34903   0.00011   0.00000  -0.01120  -0.01075   0.33828
   Y49       -9.49005  -0.00005   0.00000  -0.02347  -0.02434  -9.51439
   Z49       -2.87188  -0.00037   0.00000  -0.00941  -0.00828  -2.88016
   X50       -6.48467   0.00012   0.00000  -0.00145  -0.00164  -6.48632
   Y50       -6.88049   0.00022   0.00000   0.00031   0.00005  -6.88045
   Z50        0.68214   0.00018   0.00000  -0.00126  -0.00182   0.68032
   X51       -7.79640  -0.00005   0.00000   0.02058   0.01963  -7.77677
   Y51        1.23023   0.00050   0.00000   0.03733   0.03743   1.26766
   Z51        6.27045  -0.00045   0.00000  -0.04179  -0.04305   6.22739
   X52       -4.19345   0.00005   0.00000  -0.01028  -0.01008  -4.20352
   Y52      -10.00758  -0.00002   0.00000  -0.01333  -0.01387 -10.02144
   Z52       -1.94404   0.00009   0.00000   0.00105   0.00117  -1.94288
   X53        0.26251   0.00868   0.00000   0.00778   0.00866   0.27117
   Y53        2.03234  -0.00649   0.00000   0.01638   0.01559   2.04793
   Z53       -1.52875  -0.00065   0.00000   0.00285   0.00339  -1.52536
   X54        0.32896   0.00535   0.00000   0.00306   0.00293   0.33189
   Y54       -2.07906   0.00506   0.00000  -0.01759  -0.01823  -2.09729
   Z54        1.74282  -0.00108   0.00000  -0.02485  -0.02409   1.71874
         Item               Value     Threshold  Converged?
 Maximum Force            0.012202     0.000450     NO 
 RMS     Force            0.002736     0.000300     NO 
 Maximum Displacement     0.081971     0.001800     NO 
 RMS     Displacement     0.023627     0.001200     NO 
 Predicted change in Energy=-1.712852D-03
 GradGradGradGradGradGradGradGradGradGradGradGradGradGradGradGradGradGrad

 Unable to Open any file for archive entry.
 1\1\GINC-X10P1N1\Force\UM062X\6-31G(d)\C32H18N4(3)\MAYUMIAO\13-Jul-202
 4\0\\# 6-31g(d) m062x g09default scf=(xqc,maxcycle=64) force guess=rea
 d nosymm\\Title Card\\0,3\C,1.40490504,0.48996123,-0.4855025\C,1.42296
 982,-0.49667692,0.56561708\C,2.63394792,-0.967856,1.02259627\C,3.84680
 287,-0.49378228,0.50155609\C,3.81628265,0.48965444,-0.57587093\C,2.583
 38336,0.96506372,-1.02395213\H,2.6519679,-1.73855959,1.78756687\H,2.55
 74515,1.72771906,-1.7972584\C,5.00006827,0.96713944,-1.19420665\N,5.95
 022738,1.37222245,-1.72871257\C,5.06978354,-0.98020618,1.02567988\N,6.
 06405799,-1.38940109,1.4698043\C,-0.32761326,2.2492537,-0.27623637\C,-
 0.87447471,0.47838871,-1.53997992\C,0.36825819,3.16537248,0.525426\C,-
 1.68526626,2.43660484,-0.65168654\C,-0.83134556,-0.72257449,-2.2448377
 \C,-2.03694446,1.2818374,-1.47117939\C,-0.32952999,4.28708983,0.950743
 53\H,1.40792462,2.99504969,0.78397518\C,-2.35745662,3.56294954,-0.2120
 8771\C,-2.00673615,-1.12526589,-2.88586462\H,0.08288829,-1.30091405,-2
 .30154944\C,-3.18034443,0.87558311,-2.13344409\C,-1.66985552,4.4829074
 9,0.59054386\H,0.17063929,5.02491211,1.56873105\H,-3.39701099,3.734081
 06,-0.47372013\C,-3.15558198,-0.33912543,-2.84037265\H,-2.01577768,-2.
 06178609,-3.43270123\H,-4.08307508,1.47859086,-2.11220711\H,-2.1875130
 4,5.36921757,0.94219232\H,-4.04621043,-0.66251774,-3.36844977\C,-0.871
 56398,-0.48931907,1.60796185\C,-0.30217601,-2.26048261,0.34965134\C,-0
 .85758443,0.69476931,2.34175365\C,-2.041803,-1.2680408,1.46838256\C,0.
 39217152,-3.19005986,-0.43618065\C,-1.67969316,-2.41148846,0.65166879\
 C,-2.05428453,1.09581249,2.9342566\H,0.05882865,1.26188888,2.46298455\
 C,-3.21809965,-0.85994887,2.0894091\C,-0.32315687,-4.27595574,-0.91781
 039\H,1.44968303,-3.05968963,-0.64130445\C,-2.37417433,-3.50917469,0.1
 5097184\C,-3.21784388,0.3281626,2.8193993\H,-2.07446839,2.01536233,3.5
 1012538\H,-4.11961818,-1.4612692,2.01325759\C,-1.69075121,-4.43437949,
 -0.63290542\H,0.18470038,-5.02191708,-1.51973279\H,-3.43154095,-3.6409
 9924,0.36097536\H,-4.12567618,0.65101163,3.31817735\H,-2.21907687,-5.2
 9578156,-1.02874381\N,0.13891671,1.07546815,-0.80898092\N,0.17407792,-
 1.10018915,0.92226271\\Version=ES64L-G16RevC.01\HF=-1448.5818476\S2=2.
 029423\S2-1=0.\S2A=2.000553\RMSD=5.229e-09\RMSF=2.736e-03\Dipole=-6.56
 81664,0.3396009,-0.0959826\Quadrupole=-40.0116379,28.9867143,11.024923
 6,-0.6305702,2.7678632,13.7672385\PG=C01 [X(C32H18N4)]\\@
 The archive entry for this job was punched.


 CHINESE FORTUNE COOKIE OF JAN 1 1967 SAY....
 ALL THINGS ARE DIFFICULT BEFORE THEY ARE EASY.
 WE LEARN SO LITTLE AND FORGET SO MUCH.
 YOU WILL OVERCOME OBSTACLES TO ACHIEVE SUCCESS.
 AH SO.
 Job cpu time:       0 days  0 hours 56 minutes 17.5 seconds.
 Elapsed time:       0 days  0 hours  2 minutes  1.8 seconds.
 File lengths (MBytes):  RWF=    314 Int=      0 D2E=      0 Chk=     25 Scr=      1
 Normal termination of Gaussian 16 at Sat Jul 13 23:44:56 2024.
