 Entering Gaussian System, Link 0=g16
 Input=JOBS/16_A.gjf
 Output=JOBS/16_A.log
 Initial command:
 /data/app/gaussian/C01-avx2//g16/l1.exe "/tmp/Gau-1314836.inp" -scrdir="/tmp/"
 Entering Link 1 = /data/app/gaussian/C01-avx2//g16/l1.exe PID=   1314837.
  
 Copyright (c) 1988-2019, Gaussian, Inc.  All Rights Reserved.
  
 This is part of the Gaussian(R) 16 program.  It is based on
 the Gaussian(R) 09 system (copyright 2009, Gaussian, Inc.),
 the Gaussian(R) 03 system (copyright 2003, Gaussian, Inc.),
 the Gaussian(R) 98 system (copyright 1998, Gaussian, Inc.),
 the Gaussian(R) 94 system (copyright 1995, Gaussian, Inc.),
 the Gaussian 92(TM) system (copyright 1992, Gaussian, Inc.),
 the Gaussian 90(TM) system (copyright 1990, Gaussian, Inc.),
 the Gaussian 88(TM) system (copyright 1988, Gaussian, Inc.),
 the Gaussian 86(TM) system (copyright 1986, Carnegie Mellon
 University), and the Gaussian 82(TM) system (copyright 1983,
 Carnegie Mellon University). Gaussian is a federally registered
 trademark of Gaussian, Inc.
  
 This software contains proprietary and confidential information,
 including trade secrets, belonging to Gaussian, Inc.
  
 This software is provided under written license and may be
 used, copied, transmitted, or stored only in accord with that
 written license.
  
 The following legend is applicable only to US Government
 contracts under FAR:
  
                    RESTRICTED RIGHTS LEGEND
  
 Use, reproduction and disclosure by the US Government is
 subject to restrictions as set forth in subparagraphs (a)
 and (c) of the Commercial Computer Software - Restricted
 Rights clause in FAR 52.227-19.
  
 Gaussian, Inc.
 340 Quinnipiac St., Bldg. 40, Wallingford CT 06492
  
  
 ---------------------------------------------------------------
 Warning -- This program may not be used in any manner that
 competes with the business of Gaussian, Inc. or will provide
 assistance to any competitor of Gaussian, Inc.  The licensee
 of this program is prohibited from giving any competitor of
 Gaussian, Inc. access to this program.  By using this program,
 the user acknowledges that Gaussian, Inc. is engaged in the
 business of creating and licensing software in the field of
 computational chemistry and represents and warrants to the
 licensee that it is not a competitor of Gaussian, Inc. and that
 it will not use this program in any manner prohibited above.
 ---------------------------------------------------------------
  

 Cite this work as:
 Gaussian 16, Revision C.01,
 M. J. Frisch, G. W. Trucks, H. B. Schlegel, G. E. Scuseria, 
 M. A. Robb, J. R. Cheeseman, G. Scalmani, V. Barone, 
 G. A. Petersson, H. Nakatsuji, X. Li, M. Caricato, A. V. Marenich, 
 J. Bloino, B. G. Janesko, R. Gomperts, B. Mennucci, H. P. Hratchian, 
 J. V. Ortiz, A. F. Izmaylov, J. L. Sonnenberg, D. Williams-Young, 
 F. Ding, F. Lipparini, F. Egidi, J. Goings, B. Peng, A. Petrone, 
 T. Henderson, D. Ranasinghe, V. G. Zakrzewski, J. Gao, N. Rega, 
 G. Zheng, W. Liang, M. Hada, M. Ehara, K. Toyota, R. Fukuda, 
 J. Hasegawa, M. Ishida, T. Nakajima, Y. Honda, O. Kitao, H. Nakai, 
 T. Vreven, K. Throssell, J. A. Montgomery, Jr., J. E. Peralta, 
 F. Ogliaro, M. J. Bearpark, J. J. Heyd, E. N. Brothers, K. N. Kudin, 
 V. N. Staroverov, T. A. Keith, R. Kobayashi, J. Normand, 
 K. Raghavachari, A. P. Rendell, J. C. Burant, S. S. Iyengar, 
 J. Tomasi, M. Cossi, J. M. Millam, M. Klene, C. Adamo, R. Cammi, 
 J. W. Ochterski, R. L. Martin, K. Morokuma, O. Farkas, 
 J. B. Foresman, and D. J. Fox, Gaussian, Inc., Wallingford CT, 2019.
 
 ******************************************
 Gaussian 16:  ES64L-G16RevC.01  3-Jul-2019
                13-Jul-2024 
 ******************************************
 %chk=a.chk
 %nprocshared=28
 Will use up to   28 processors via shared memory.
 %mem=48gb
 ----------------------------------------------------------------------
 # 6-31g(d) m062x g09default scf=(xqc,maxcycle=64) force guess=read td 
 nosymm
 ----------------------------------------------------------------------
 1/10=7,30=1,38=1,158=3,167=1/1,3;
 2/12=2,15=1,17=6,18=5,40=1/2;
 3/5=1,6=6,7=1,11=9,25=1,27=10,30=1,71=1,74=-55,75=-4,116=-2,158=3/1,2,3,8;
 4/5=1,60=-1/1;
 5/5=2,7=64,8=3,13=1,38=6,87=10/2,8;
 8/6=1,10=2,87=10/1;
 9/15=2,42=1,70=2,87=10/14;
 10/5=4,31=1,87=10/2;
 6/7=2,8=2,9=2,10=2,18=1,87=10/1;
 7/12=6,13=5,29=1,30=1,87=10/1,2,3,16;
 1/10=7,30=1,158=3,167=1/3;
 99//99;
 Using 2006 physical constants.
 ----------
 Title Card
 ----------
 Symbolic Z-matrix:
 Charge =  0 Multiplicity = 1
 6                     1.40504   0.49094  -0.48512 
 6                     1.42324  -0.4976    0.56459 
 6                     2.63392  -0.96885   1.02242 
 6                     3.84654  -0.49397   0.50198 
 6                     3.81657   0.48952  -0.57637 
 6                     2.5833    0.96656  -1.02329 
 1                     2.65232  -1.73881   1.78883 
 1                     2.55681   1.72778  -1.79801 
 6                     5.00036   0.96676  -1.19499 
 7                     5.95063   1.37282  -1.72855 
 6                     5.06965  -0.98028   1.02643 
 7                     6.06445  -1.38962   1.46963 
 6                    -0.32746   2.24956  -0.27668 
 6                    -0.87487   0.47716  -1.53884 
 6                     0.368     3.16496   0.52594 
 6                    -1.68518   2.43584  -0.65089 
 6                    -0.83163  -0.72254  -2.2452 
 6                    -2.03683   1.28136  -1.47017 
 6                    -0.33002   4.28653   0.95152 
 1                     1.4081    2.9956    0.78298 
 6                    -2.35758   3.56264  -0.21109 
 6                    -2.0066   -1.12528  -2.88616 
 1                     0.08269  -1.30132  -2.30172 
 6                    -3.18035   0.87556  -2.13397 
 6                    -1.67021   4.48277   0.59099 
 1                     0.17075   5.02452   1.56864 
 1                    -3.3964    3.73475  -0.47432 
 6                    -3.15599  -0.33917  -2.84028 
 1                    -2.01515  -2.06183  -3.43287 
 1                    -4.08254   1.47886  -2.11278 
 1                    -2.18736   5.36969   0.94159 
 1                    -4.04656  -0.66314  -3.36782 
 6                    -0.87222  -0.48828   1.60708 
 6                    -0.30225  -2.26066   0.34962 
 6                    -0.85767   0.69456   2.3419 
 6                    -2.04204  -1.26795   1.46795 
 6                     0.39213  -3.19011  -0.4367 
 6                    -1.67977  -2.41138   0.65139 
 6                    -2.05433   1.0957    2.93492 
 1                     0.05889   1.26194   2.46325 
 6                    -3.21818  -0.86032   2.08998 
 6                    -0.32335  -4.2752   -0.91801 
 1                     1.45009  -3.06038  -0.6411 
 6                    -2.37427  -3.50863   0.15092 
 6                    -3.21752   0.328     2.81976 
 1                    -2.07464   2.01572   3.51015 
 1                    -4.12002  -1.46103   2.01342 
 6                    -1.69039  -4.43416  -0.63328 
 1                     0.18489  -5.02202  -1.51969 
 1                    -3.43121  -3.64086   0.36185 
 1                    -4.12583   0.65166   3.31746 
 1                    -2.21882  -5.29556  -1.0287 
 7                     0.13903   1.07527  -0.80903 
 7                     0.17349  -1.09935   0.92063 
 

 GradGradGradGradGradGradGradGradGradGradGradGradGradGradGradGradGradGrad
 Berny optimization.
 Initialization pass.
 Trust Radius=3.00D-01 FncErr=1.00D-07 GrdErr=1.00D-07 EigMax=2.50D+02 EigMin=1.00D-04
 Number of steps in this run=      2 maximum allowed number of steps=      2.
 GradGradGradGradGradGradGradGradGradGradGradGradGradGradGradGradGradGrad

 Symmetry turned off by external request.
 Stoichiometry    C32H18N4
 Framework group  C1[X(C32H18N4)]
 Deg. of freedom   156
 Full point group                 C1      NOp   1
                          Input orientation:                          
 ---------------------------------------------------------------------
 Center     Atomic      Atomic             Coordinates (Angstroms)
 Number     Number       Type             X           Y           Z
 ---------------------------------------------------------------------
      1          6           0        1.405040    0.490938   -0.485116
      2          6           0        1.423242   -0.497602    0.564595
      3          6           0        2.633921   -0.968853    1.022424
      4          6           0        3.846544   -0.493971    0.501978
      5          6           0        3.816570    0.489521   -0.576366
      6          6           0        2.583300    0.966564   -1.023291
      7          1           0        2.652317   -1.738812    1.788833
      8          1           0        2.556806    1.727781   -1.798014
      9          6           0        5.000359    0.966756   -1.194994
     10          7           0        5.950634    1.372824   -1.728548
     11          6           0        5.069651   -0.980278    1.026434
     12          7           0        6.064453   -1.389620    1.469635
     13          6           0       -0.327461    2.249556   -0.276683
     14          6           0       -0.874874    0.477161   -1.538837
     15          6           0        0.368002    3.164958    0.525939
     16          6           0       -1.685181    2.435836   -0.650892
     17          6           0       -0.831627   -0.722541   -2.245200
     18          6           0       -2.036830    1.281364   -1.470168
     19          6           0       -0.330024    4.286533    0.951518
     20          1           0        1.408104    2.995598    0.782982
     21          6           0       -2.357576    3.562635   -0.211094
     22          6           0       -2.006598   -1.125275   -2.886163
     23          1           0        0.082687   -1.301317   -2.301716
     24          6           0       -3.180348    0.875559   -2.133971
     25          6           0       -1.670206    4.482774    0.590995
     26          1           0        0.170750    5.024517    1.568639
     27          1           0       -3.396403    3.734746   -0.474320
     28          6           0       -3.155986   -0.339175   -2.840285
     29          1           0       -2.015153   -2.061831   -3.432875
     30          1           0       -4.082537    1.478861   -2.112783
     31          1           0       -2.187357    5.369694    0.941589
     32          1           0       -4.046564   -0.663144   -3.367821
     33          6           0       -0.872224   -0.488283    1.607081
     34          6           0       -0.302245   -2.260656    0.349616
     35          6           0       -0.857670    0.694560    2.341903
     36          6           0       -2.042040   -1.267947    1.467951
     37          6           0        0.392125   -3.190107   -0.436701
     38          6           0       -1.679769   -2.411384    0.651394
     39          6           0       -2.054327    1.095700    2.934918
     40          1           0        0.058893    1.261942    2.463254
     41          6           0       -3.218184   -0.860321    2.089979
     42          6           0       -0.323349   -4.275197   -0.918007
     43          1           0        1.450090   -3.060382   -0.641100
     44          6           0       -2.374270   -3.508633    0.150916
     45          6           0       -3.217523    0.327999    2.819757
     46          1           0       -2.074638    2.015719    3.510150
     47          1           0       -4.120015   -1.461026    2.013423
     48          6           0       -1.690386   -4.434162   -0.633283
     49          1           0        0.184893   -5.022016   -1.519687
     50          1           0       -3.431205   -3.640858    0.361850
     51          1           0       -4.125827    0.651658    3.317456
     52          1           0       -2.218817   -5.295564   -1.028703
     53          7           0        0.139032    1.075268   -0.809027
     54          7           0        0.173492   -1.099354    0.920628
 ---------------------------------------------------------------------
 Rotational constants (GHZ):           0.1588514           0.1163941           0.0924897
 Standard basis: 6-31G(d) (6D, 7F)
   576 basis functions,  1080 primitive gaussians,   576 cartesian basis functions
   119 alpha electrons      119 beta electrons
       nuclear repulsion energy      3658.3437334369 Hartrees.
 NAtoms=   54 NActive=   54 NUniq=   54 SFac= 1.00D+00 NAtFMM=   60 NAOKFM=F Big=F
 Integral buffers will be    131072 words long.
 Regular integral format.
 Two-electron integral symmetry is turned off.
 One-electron integrals computed using PRISM.
 NBasis=   576 RedAO= T EigKep=  2.59D-04  NBF=   576
 NBsUse=   576 1.00D-06 EigRej= -1.00D+00 NBFU=   576
 Initial guess from the checkpoint file:  "a.chk"
 B after Tr=    -0.000073   -0.000039    0.000033
         Rot=    1.000000   -0.000035   -0.000006   -0.000005 Ang=  -0.00 deg.
 Requested convergence on RMS density matrix=1.00D-08 within  64 cycles.
 Requested convergence on MAX density matrix=1.00D-06.
 Requested convergence on             energy=1.00D-06.
 No special actions if energy rises.
 SCF Done:  E(RM062X) =  -1448.68875451     A.U. after    9 cycles
            NFock=  9  Conv=0.85D-08     -V/T= 2.0088
 QCSCF skips out because SCF is already converged.
 DoSCS=F DFT=T ScalE2(SS,OS)=  1.000000  1.000000
 ExpMin= 1.61D-01 ExpMax= 4.17D+03 ExpMxC= 6.27D+02 IAcc=3 IRadAn=         5 AccDes= 0.00D+00
 HarFok:  IExCor=  205 AccDes= 0.00D+00 IRadAn=         5 IDoV=-2 UseB2=F ITyADJ=14
 ICtDFT= 12500011 ScaDFX=  1.000000  1.000000  1.000000  1.000000
 GSVD:  LWork=       -1584 too small for GESVD, short by        7020 words or        7020 for optimal perf.
 Range of M.O.s used for correlation:    37   576
 NBasis=   576 NAE=   119 NBE=   119 NFC=    36 NFV=     0
 NROrb=    540 NOA=    83 NOB=    83 NVA=   457 NVB=   457

 **** Warning!!: The largest alpha MO coefficient is  0.10631031D+02

    12 initial guesses have been made.
 Convergence on wavefunction:    0.000001000000000
 Iteration     1 Dimension    12 NMult     0 NNew     12
 CISAX will form    12 AO SS matrices at one time.
 Iteration     2 Dimension    18 NMult    12 NNew      6
 Iteration     3 Dimension    24 NMult    18 NNew      6
 Iteration     4 Dimension    30 NMult    24 NNew      6
 Iteration     5 Dimension    36 NMult    30 NNew      6
 Iteration     6 Dimension    42 NMult    36 NNew      6
 Iteration     7 Dimension    48 NMult    42 NNew      6
 Iteration     8 Dimension    54 NMult    48 NNew      6
 Iteration     9 Dimension    60 NMult    54 NNew      6
 Iteration    10 Dimension    66 NMult    60 NNew      6
 Iteration    11 Dimension    72 NMult    66 NNew      6
 Iteration    12 Dimension    78 NMult    72 NNew      6
 Iteration    13 Dimension    80 NMult    78 NNew      2
 ***********************************************************************
 Excited states from <AA,BB:AA,BB> singles matrix:
 ***********************************************************************
 
 Ground to excited state transition densities written to RWF  633
 Ground to excited state transition electric dipole moments (Au):
       state          X           Y           Z        Dip. S.      Osc.
         1         0.1013     -0.2785      0.2403      0.1455      0.0103
         2        -0.5324     -0.0668      0.0764      0.2937      0.0227
         3         0.0088      0.1350     -0.0692      0.0231      0.0020
 Ground to excited state transition velocity dipole moments (Au):
       state          X           Y           Z        Dip. S.      Osc.
         1        -0.0110      0.0276     -0.0309      0.0018      0.0115
         2         0.0626      0.0075     -0.0102      0.0041      0.0234
         3        -0.0011     -0.0210      0.0126      0.0006      0.0030
 Ground to excited state transition magnetic dipole moments (Au):
       state          X           Y           Z
         1        -0.0395      0.2712      0.2706
         2         0.2419      0.0874      0.0714
         3         0.0105     -0.2264      0.0399
 Ground to excited state transition velocity quadrupole moments (Au):
       state          XX          YY          ZZ          XY          XZ          YZ
         1        -0.0727      0.0347      0.0076      0.0050     -0.0103      0.0094
         2         0.3595     -0.1538     -0.0558      0.0097     -0.0141     -0.0571
         3        -0.0008      0.0054     -0.0048     -0.0492      0.0323     -0.0007
 <0|del|b> * <b|rxdel|0> + <0|del|b> * <b|delr+rdel|0>
 Rotatory Strengths (R) in cgs (10**-40 erg-esu-cm/Gauss)
       state          XX          YY          ZZ    R(velocity)    E-M Angle
         1        -2.5192    -26.1832     25.7042     -0.9994       91.57
         2        -0.1908     33.3122     58.6875     30.6030       27.85
         3        14.2207      2.9642     10.8693      9.3514       21.55
 1/2[<0|r|b>*<b|rxdel|0> + (<0|rxdel|b>*<b|r|0>)*]
 Rotatory Strengths (R) in cgs (10**-40 erg-esu-cm/Gauss)
       state          XX          YY          ZZ     R(length)
         1         2.8336     53.4059    -45.9860      3.4178
         2        91.0722      4.1322     -3.8589     30.4485
         3        -0.0656     21.6034      1.9525      7.8301
  1/2[<0|del|b>*<b|r|0> + (<0|r|b>*<b|del|0>)*] (Au)
       state          X           Y           Z        Dip. S.   Osc.(frdel)
         1        -0.0011     -0.0077     -0.0074      0.0162      0.0108
         2        -0.0333     -0.0005     -0.0008      0.0346      0.0231
         3        -0.0000     -0.0028     -0.0009      0.0037      0.0025

 Excitation energies and oscillator strengths:
 
 Excited state symmetry could not be determined.
 Excited State   1:      Singlet-?Sym    2.8931 eV  428.55 nm  f=0.0103  <S**2>=0.000
     119 ->120         0.68939
 This state for optimization and/or second-order correction.
 Total Energy, E(TD-HF/TD-DFT) =  -1448.58243361    
 Copying the excited state density for this state as the 1-particle RhoCI density.
 
 Excited state symmetry could not be determined.
 Excited State   2:      Singlet-?Sym    3.1592 eV  392.45 nm  f=0.0227  <S**2>=0.000
     118 ->120         0.68797
 
 Excited state symmetry could not be determined.
 Excited State   3:      Singlet-?Sym    3.5957 eV  344.82 nm  f=0.0020  <S**2>=0.000
     117 ->120         0.69519
 SavETr:  write IOETrn=   770 NScale= 10 NData=  16 NLR=1 NState=    3 LETran=      64.
          IDoAtm=11111111111111111111111111111111111111111111111111
          IDoAtm=1111
          Differentiating once with respect to electric field.
                with respect to dipole field.
          Differentiating once with respect to nuclear coordinates.
          There are     1 degrees of freedom in the 1st order CPHF.  IDoFFX=0 NUNeed=     1.
 LinEq1:  Iter=  0 NonCon=     1 RMS=3.98D-03 Max=1.92D-01 NDo=     1
 AX will form     1 AO Fock derivatives at one time.
 LinEq1:  Iter=  1 NonCon=     1 RMS=2.45D-03 Max=1.77D-01 NDo=     1
 LinEq1:  Iter=  2 NonCon=     1 RMS=1.69D-03 Max=9.86D-02 NDo=     1
 LinEq1:  Iter=  3 NonCon=     1 RMS=9.10D-04 Max=5.88D-02 NDo=     1
 LinEq1:  Iter=  4 NonCon=     1 RMS=6.17D-04 Max=4.25D-02 NDo=     1
 LinEq1:  Iter=  5 NonCon=     1 RMS=3.23D-04 Max=1.41D-02 NDo=     1
 LinEq1:  Iter=  6 NonCon=     1 RMS=1.60D-04 Max=1.25D-02 NDo=     1
 LinEq1:  Iter=  7 NonCon=     1 RMS=9.88D-05 Max=5.61D-03 NDo=     1
 LinEq1:  Iter=  8 NonCon=     1 RMS=6.49D-05 Max=3.91D-03 NDo=     1
 LinEq1:  Iter=  9 NonCon=     1 RMS=4.11D-05 Max=1.85D-03 NDo=     1
 LinEq1:  Iter= 10 NonCon=     1 RMS=1.99D-05 Max=7.42D-04 NDo=     1
 LinEq1:  Iter= 11 NonCon=     1 RMS=1.01D-05 Max=5.27D-04 NDo=     1
 LinEq1:  Iter= 12 NonCon=     1 RMS=7.14D-06 Max=3.86D-04 NDo=     1
 LinEq1:  Iter= 13 NonCon=     1 RMS=4.29D-06 Max=2.37D-04 NDo=     1
 LinEq1:  Iter= 14 NonCon=     1 RMS=2.69D-06 Max=1.42D-04 NDo=     1
 LinEq1:  Iter= 15 NonCon=     1 RMS=1.30D-06 Max=5.23D-05 NDo=     1
 LinEq1:  Iter= 16 NonCon=     1 RMS=8.34D-07 Max=3.33D-05 NDo=     1
 LinEq1:  Iter= 17 NonCon=     1 RMS=3.43D-07 Max=1.11D-05 NDo=     1
 LinEq1:  Iter= 18 NonCon=     1 RMS=1.60D-07 Max=6.69D-06 NDo=     1
 LinEq1:  Iter= 19 NonCon=     1 RMS=8.58D-08 Max=3.43D-06 NDo=     1
 LinEq1:  Iter= 20 NonCon=     1 RMS=4.21D-08 Max=1.78D-06 NDo=     1
 LinEq1:  Iter= 21 NonCon=     1 RMS=2.45D-08 Max=1.18D-06 NDo=     1
 LinEq1:  Iter= 22 NonCon=     1 RMS=1.49D-08 Max=7.96D-07 NDo=     1
 LinEq1:  Iter= 23 NonCon=     1 RMS=5.94D-09 Max=3.11D-07 NDo=     1
 LinEq1:  Iter= 24 NonCon=     1 RMS=3.16D-09 Max=1.33D-07 NDo=     1
 LinEq1:  Iter= 25 NonCon=     1 RMS=1.47D-09 Max=7.47D-08 NDo=     1
 LinEq1:  Iter= 26 NonCon=     1 RMS=7.56D-10 Max=2.74D-08 NDo=     1
 LinEq1:  Iter= 27 NonCon=     1 RMS=3.46D-10 Max=1.21D-08 NDo=     1
 LinEq1:  Iter= 28 NonCon=     1 RMS=1.39D-10 Max=7.42D-09 NDo=     1
 LinEq1:  Iter= 29 NonCon=     1 RMS=6.85D-11 Max=3.30D-09 NDo=     1
 LinEq1:  Iter= 30 NonCon=     1 RMS=3.02D-11 Max=1.39D-09 NDo=     1
 LinEq1:  Iter= 31 NonCon=     0 RMS=1.49D-11 Max=5.65D-10 NDo=     1
 Linear equations converged to 1.000D-10 1.000D-09 after    31 iterations.
 End of Minotr F.D. properties file   721 does not exist.
 End of Minotr F.D. properties file   722 does not exist.
 End of Minotr F.D. properties file   788 does not exist.

 **********************************************************************

            Population analysis using the SCF Density.

 **********************************************************************

 Alpha  occ. eigenvalues --  -14.82696 -14.82485 -14.79604 -14.79587 -10.65585
 Alpha  occ. eigenvalues --  -10.65498 -10.65332 -10.65252 -10.62062 -10.61993
 Alpha  occ. eigenvalues --  -10.61603 -10.61585 -10.60037 -10.59950 -10.59706
 Alpha  occ. eigenvalues --  -10.59604 -10.56240 -10.56143 -10.56052 -10.56031
 Alpha  occ. eigenvalues --  -10.56015 -10.55973 -10.55939 -10.55936 -10.55848
 Alpha  occ. eigenvalues --  -10.55824 -10.55794 -10.55678 -10.55663 -10.55652
 Alpha  occ. eigenvalues --  -10.55511 -10.55424 -10.55264 -10.55156 -10.54946
 Alpha  occ. eigenvalues --  -10.54874  -1.13870  -1.11572  -1.05173  -1.03450
 Alpha  occ. eigenvalues --   -1.01751  -0.96826  -0.96271  -0.95876  -0.95559
 Alpha  occ. eigenvalues --   -0.92260  -0.91722  -0.88365  -0.87640  -0.85717
 Alpha  occ. eigenvalues --   -0.85321  -0.83713  -0.82616  -0.81958  -0.81828
 Alpha  occ. eigenvalues --   -0.78799  -0.76914  -0.73326  -0.73006  -0.70017
 Alpha  occ. eigenvalues --   -0.69934  -0.69739  -0.69158  -0.66598  -0.66291
 Alpha  occ. eigenvalues --   -0.66239  -0.63686  -0.62261  -0.61363  -0.60157
 Alpha  occ. eigenvalues --   -0.59732  -0.59012  -0.58452  -0.56307  -0.55894
 Alpha  occ. eigenvalues --   -0.53858  -0.53490  -0.53140  -0.53108  -0.52697
 Alpha  occ. eigenvalues --   -0.52501  -0.51406  -0.51289  -0.50684  -0.50602
 Alpha  occ. eigenvalues --   -0.49325  -0.49226  -0.49188  -0.49139  -0.48657
 Alpha  occ. eigenvalues --   -0.48457  -0.46197  -0.46055  -0.45260  -0.44054
 Alpha  occ. eigenvalues --   -0.43752  -0.43449  -0.43249  -0.43043  -0.42645
 Alpha  occ. eigenvalues --   -0.42251  -0.42189  -0.42087  -0.40710  -0.40612
 Alpha  occ. eigenvalues --   -0.40366  -0.40144  -0.39804  -0.39436  -0.36469
 Alpha  occ. eigenvalues --   -0.34559  -0.34406  -0.33959  -0.31852  -0.30522
 Alpha  occ. eigenvalues --   -0.27386  -0.26661  -0.26408  -0.25120
 Alpha virt. eigenvalues --   -0.08055  -0.03903  -0.00506  -0.00298   0.02747
 Alpha virt. eigenvalues --    0.03540   0.04584   0.05365   0.05704   0.05940
 Alpha virt. eigenvalues --    0.07080   0.07440   0.07721   0.10901   0.11042
 Alpha virt. eigenvalues --    0.13333   0.13586   0.14127   0.14742   0.14896
 Alpha virt. eigenvalues --    0.15824   0.17272   0.18018   0.18280   0.19347
 Alpha virt. eigenvalues --    0.19533   0.19703   0.19999   0.20283   0.21085
 Alpha virt. eigenvalues --    0.21454   0.21877   0.22828   0.22934   0.23257
 Alpha virt. eigenvalues --    0.23605   0.24495   0.24578   0.24721   0.24916
 Alpha virt. eigenvalues --    0.25209   0.26479   0.27606   0.27678   0.28545
 Alpha virt. eigenvalues --    0.29008   0.29609   0.29643   0.31205   0.32047
 Alpha virt. eigenvalues --    0.32635   0.33285   0.33891   0.34155   0.36023
 Alpha virt. eigenvalues --    0.36466   0.36930   0.37323   0.38353   0.39134
 Alpha virt. eigenvalues --    0.40043   0.40185   0.40752   0.41168   0.42451
 Alpha virt. eigenvalues --    0.42825   0.44020   0.45901   0.46331   0.47189
 Alpha virt. eigenvalues --    0.48637   0.48708   0.49249   0.51583   0.51690
 Alpha virt. eigenvalues --    0.52104   0.53077   0.53492   0.54147   0.54906
 Alpha virt. eigenvalues --    0.55006   0.56082   0.56238   0.56646   0.57137
 Alpha virt. eigenvalues --    0.57921   0.58497   0.58571   0.58800   0.59348
 Alpha virt. eigenvalues --    0.59518   0.60052   0.60351   0.60768   0.60868
 Alpha virt. eigenvalues --    0.61517   0.62028   0.62218   0.62467   0.62579
 Alpha virt. eigenvalues --    0.63500   0.64157   0.64236   0.64579   0.64736
 Alpha virt. eigenvalues --    0.64777   0.65211   0.65243   0.65340   0.66036
 Alpha virt. eigenvalues --    0.66336   0.66954   0.67132   0.67373   0.67729
 Alpha virt. eigenvalues --    0.68132   0.68303   0.68697   0.68941   0.69495
 Alpha virt. eigenvalues --    0.69565   0.69705   0.70104   0.70154   0.72166
 Alpha virt. eigenvalues --    0.72238   0.73402   0.74194   0.74802   0.75611
 Alpha virt. eigenvalues --    0.76165   0.76633   0.78068   0.78656   0.79035
 Alpha virt. eigenvalues --    0.82060   0.82466   0.83010   0.83479   0.83577
 Alpha virt. eigenvalues --    0.84709   0.85368   0.85788   0.86335   0.86598
 Alpha virt. eigenvalues --    0.86826   0.87696   0.87859   0.88340   0.89049
 Alpha virt. eigenvalues --    0.89356   0.89612   0.89737   0.90175   0.90280
 Alpha virt. eigenvalues --    0.90786   0.90979   0.91237   0.91749   0.91916
 Alpha virt. eigenvalues --    0.92380   0.92411   0.92632   0.93666   0.93929
 Alpha virt. eigenvalues --    0.94473   0.94713   0.95637   0.96069   0.96485
 Alpha virt. eigenvalues --    0.97315   0.97598   0.98833   0.99848   1.00350
 Alpha virt. eigenvalues --    1.00962   1.01348   1.01438   1.02497   1.03172
 Alpha virt. eigenvalues --    1.03485   1.04011   1.04776   1.05063   1.05632
 Alpha virt. eigenvalues --    1.06604   1.07247   1.08054   1.09476   1.10049
 Alpha virt. eigenvalues --    1.10276   1.13091   1.14142   1.14476   1.15077
 Alpha virt. eigenvalues --    1.16839   1.17768   1.18718   1.19243   1.19638
 Alpha virt. eigenvalues --    1.20556   1.20996   1.21747   1.21841   1.22639
 Alpha virt. eigenvalues --    1.24009   1.24460   1.25411   1.25787   1.26076
 Alpha virt. eigenvalues --    1.28792   1.29951   1.30677   1.30726   1.31694
 Alpha virt. eigenvalues --    1.32834   1.32949   1.33995   1.34499   1.35471
 Alpha virt. eigenvalues --    1.36280   1.37208   1.37899   1.38712   1.39522
 Alpha virt. eigenvalues --    1.40153   1.40817   1.41548   1.42534   1.43185
 Alpha virt. eigenvalues --    1.43600   1.44584   1.46497   1.47234   1.47985
 Alpha virt. eigenvalues --    1.49391   1.49993   1.50656   1.50898   1.52394
 Alpha virt. eigenvalues --    1.52579   1.52861   1.53073   1.53528   1.54044
 Alpha virt. eigenvalues --    1.54217   1.54306   1.54509   1.54681   1.55468
 Alpha virt. eigenvalues --    1.55523   1.55922   1.57007   1.58429   1.59437
 Alpha virt. eigenvalues --    1.60185   1.61702   1.63186   1.64097   1.67365
 Alpha virt. eigenvalues --    1.67634   1.69125   1.71513   1.73125   1.74016
 Alpha virt. eigenvalues --    1.74421   1.75994   1.76852   1.78217   1.78736
 Alpha virt. eigenvalues --    1.80438   1.80648   1.81355   1.81654   1.82244
 Alpha virt. eigenvalues --    1.83046   1.83855   1.84781   1.85169   1.86484
 Alpha virt. eigenvalues --    1.87107   1.87502   1.88375   1.89186   1.89831
 Alpha virt. eigenvalues --    1.91087   1.92128   1.93211   1.93824   1.94694
 Alpha virt. eigenvalues --    1.95058   1.96019   1.96838   1.97156   1.98180
 Alpha virt. eigenvalues --    1.98535   1.98660   1.99819   2.00619   2.01371
 Alpha virt. eigenvalues --    2.01919   2.02174   2.02389   2.03215   2.03397
 Alpha virt. eigenvalues --    2.03678   2.04062   2.04466   2.05769   2.06026
 Alpha virt. eigenvalues --    2.07166   2.07493   2.08708   2.09807   2.11082
 Alpha virt. eigenvalues --    2.11730   2.12572   2.13013   2.14445   2.14600
 Alpha virt. eigenvalues --    2.14940   2.15557   2.16715   2.17188   2.17471
 Alpha virt. eigenvalues --    2.18767   2.19487   2.21213   2.21788   2.22140
 Alpha virt. eigenvalues --    2.23449   2.23521   2.24490   2.24664   2.26755
 Alpha virt. eigenvalues --    2.27482   2.27745   2.28450   2.28849   2.29215
 Alpha virt. eigenvalues --    2.29381   2.30615   2.30768   2.31502   2.32373
 Alpha virt. eigenvalues --    2.33224   2.33558   2.34659   2.35933   2.36589
 Alpha virt. eigenvalues --    2.40423   2.40833   2.42697   2.43229   2.43566
 Alpha virt. eigenvalues --    2.46190   2.48016   2.49995   2.50867   2.51164
 Alpha virt. eigenvalues --    2.53831   2.54827   2.56112   2.56641   2.57307
 Alpha virt. eigenvalues --    2.59580   2.60556   2.60915   2.63154   2.65083
 Alpha virt. eigenvalues --    2.65756   2.66142   2.66268   2.67928   2.68573
 Alpha virt. eigenvalues --    2.69087   2.69845   2.70354   2.70735   2.71485
 Alpha virt. eigenvalues --    2.72025   2.72097   2.72731   2.72875   2.74816
 Alpha virt. eigenvalues --    2.75264   2.75566   2.75842   2.77799   2.79105
 Alpha virt. eigenvalues --    2.81750   2.82549   2.83643   2.85508   2.85642
 Alpha virt. eigenvalues --    2.85939   2.86502   2.87064   2.88617   2.91624
 Alpha virt. eigenvalues --    2.93715   2.94210   2.95906   2.97778   3.00194
 Alpha virt. eigenvalues --    3.00599   3.02982   3.08560   3.08747   3.21314
 Alpha virt. eigenvalues --    3.23061   3.23830   3.25784   3.30588   3.32448
 Alpha virt. eigenvalues --    3.32490   3.38649   3.38854   3.49795   3.52321
 Alpha virt. eigenvalues --    3.52942   3.99648   4.07439   4.09957   4.10546
 Alpha virt. eigenvalues --    4.10960   4.12743   4.12968   4.13907   4.15050
 Alpha virt. eigenvalues --    4.16740   4.17396   4.18856   4.20684   4.23114
 Alpha virt. eigenvalues --    4.23557   4.26724   4.27957   4.30876   4.34187
 Alpha virt. eigenvalues --    4.34959   4.37307   4.41852   4.43432   4.44815
 Alpha virt. eigenvalues --    4.47789   4.48725   4.51183   4.52456   4.53079
 Alpha virt. eigenvalues --    4.65967   4.67540   4.76947   4.78776   4.86892
 Alpha virt. eigenvalues --    4.90149   4.93021
          Condensed to atoms (all electrons):
 Mulliken charges:
               1
     1  C    0.218125
     2  C    0.233778
     3  C   -0.197929
     4  C    0.131537
     5  C    0.125651
     6  C   -0.181041
     7  H    0.234378
     8  H    0.236940
     9  C    0.234497
    10  N   -0.439077
    11  C    0.231892
    12  N   -0.439380
    13  C    0.288470
    14  C    0.277822
    15  C   -0.185464
    16  C    0.041997
    17  C   -0.166672
    18  C    0.048391
    19  C   -0.173410
    20  H    0.159545
    21  C   -0.190226
    22  C   -0.166721
    23  H    0.159240
    24  C   -0.195579
    25  C   -0.186711
    26  H    0.166602
    27  H    0.170327
    28  C   -0.181962
    29  H    0.165766
    30  H    0.166792
    31  H    0.160126
    32  H    0.159550
    33  C    0.282144
    34  C    0.284911
    35  C   -0.167028
    36  C    0.038364
    37  C   -0.185812
    38  C    0.038201
    39  C   -0.167458
    40  H    0.159446
    41  C   -0.185786
    42  C   -0.174877
    43  H    0.160345
    44  C   -0.181987
    45  C   -0.180809
    46  H    0.165853
    47  H    0.166741
    48  C   -0.185983
    49  H    0.166718
    50  H    0.170254
    51  H    0.161255
    52  H    0.161826
    53  N   -0.716694
    54  N   -0.716877
 Sum of Mulliken charges =  -0.00000
 Mulliken charges with hydrogens summed into heavy atoms:
               1
     1  C    0.218125
     2  C    0.233778
     3  C    0.036449
     4  C    0.131537
     5  C    0.125651
     6  C    0.055898
     9  C    0.234497
    10  N   -0.439077
    11  C    0.231892
    12  N   -0.439380
    13  C    0.288470
    14  C    0.277822
    15  C   -0.025919
    16  C    0.041997
    17  C   -0.007432
    18  C    0.048391
    19  C   -0.006808
    21  C   -0.019899
    22  C   -0.000954
    24  C   -0.028787
    25  C   -0.026586
    28  C   -0.022411
    33  C    0.282144
    34  C    0.284911
    35  C   -0.007582
    36  C    0.038364
    37  C   -0.025467
    38  C    0.038201
    39  C   -0.001605
    41  C   -0.019046
    42  C   -0.008159
    44  C   -0.011733
    45  C   -0.019555
    48  C   -0.024157
    53  N   -0.716694
    54  N   -0.716877
 Electronic spatial extent (au):  <R**2>=          12747.4920
 Charge=             -0.0000 electrons
 Dipole moment (field-independent basis, Debye):
    X=             -5.5212    Y=             -0.0256    Z=              0.2179  Tot=              5.5256
 Quadrupole moment (field-independent basis, Debye-Ang):
   XX=           -236.6204   YY=           -193.6116   ZZ=           -206.0945
   XY=              0.0917   XZ=              1.6392   YZ=             13.4667
 Traceless Quadrupole moment (field-independent basis, Debye-Ang):
   XX=            -24.5115   YY=             18.4972   ZZ=              6.0144
   XY=              0.0917   XZ=              1.6392   YZ=             13.4667
 Octapole moment (field-independent basis, Debye-Ang**2):
  XXX=           -450.2871  YYY=              0.2296  ZZZ=              4.5869  XYY=            -44.7283
  XXY=              2.4820  XXZ=              7.4568  XZZ=            -34.8305  YZZ=              0.0134
  YYZ=             -0.6268  XYZ=             17.8076
 Hexadecapole moment (field-independent basis, Debye-Ang**3):
 XXXX=         -11204.1723 YYYY=          -5734.7511 ZZZZ=          -3081.3659 XXXY=             40.3428
 XXXZ=             80.5845 YYYX=              9.2285 YYYZ=            156.3010 ZZZX=             56.1161
 ZZZY=             -8.7882 XXYY=          -2471.3564 XXZZ=          -2098.9900 YYZZ=          -1469.4659
 XXYZ=            151.9232 YYXZ=             22.8318 ZZXY=             -5.1212
 N-N= 3.658343733437D+03 E-N=-1.067201926787D+04  KE= 1.436113852921D+03
 Calling FoFJK, ICntrl=  10005127 FMM=F ISym2X=0 I1Cent= 0 IOpClX= 0 NMat=1 NMatS=1 NMatT=0.
 -------------------------------------------------------------------
 Center     Atomic                   Forces (Hartrees/Bohr)
 Number     Number              X              Y              Z
 -------------------------------------------------------------------
      1        6          -0.000244992    0.001040976   -0.000282485
      2        6          -0.000267087   -0.000996541   -0.000058040
      3        6           0.000015027   -0.000789989    0.000102886
      4        6           0.000121736   -0.000618407    0.000643576
      5        6           0.000144938    0.000583295   -0.000598146
      6        6           0.000074127    0.000413556    0.000287091
      7        1          -0.000042530    0.000114306    0.000333725
      8        1          -0.000220843   -0.000200833   -0.000374157
      9        6           0.000040481   -0.000190097   -0.000041911
     10        7           0.000059553    0.000169090    0.000511254
     11        6          -0.000207086    0.000064084    0.000153688
     12        7          -0.000073520   -0.000176780   -0.000194208
     13        6           0.000038074    0.000964884   -0.000272380
     14        6          -0.000284895   -0.000280556    0.000393357
     15        6          -0.000357081   -0.000017231   -0.000314485
     16        6           0.000266435    0.000005436   -0.000144636
     17        6          -0.000089376   -0.000143836   -0.000179051
     18        6          -0.000044801   -0.000385627    0.000323250
     19        6          -0.000141246   -0.000273194    0.000103331
     20        1          -0.000082524   -0.000109771    0.000196028
     21        6           0.000213344    0.000114459    0.000371589
     22        6           0.000223648    0.000126490   -0.000110219
     23        1           0.000037660    0.000146488   -0.000433069
     24        6          -0.000118469   -0.000582922   -0.000028736
     25        6          -0.000395489   -0.000222819    0.000048637
     26        1          -0.000076503    0.000015044    0.000042707
     27        1          -0.000080530   -0.000052625   -0.000070284
     28        6          -0.000021104    0.000267469    0.000263633
     29        1           0.000095098   -0.000018285   -0.000235732
     30        1          -0.000196884   -0.000114079    0.000254314
     31        1          -0.000161648    0.000170965   -0.000116046
     32        1          -0.000306763   -0.000293621    0.000369648
     33        6          -0.000197645    0.000034646   -0.000460150
     34        6          -0.000076771   -0.000728002    0.000038978
     35        6           0.000192674    0.000243592    0.000247288
     36        6          -0.000145879    0.000397603    0.000065562
     37        6           0.000176028    0.000419611    0.000317893
     38        6           0.000221366   -0.000130192    0.000132959
     39        6           0.000274844   -0.000000527    0.000155112
     40        1           0.000172449   -0.000207981    0.000270844
     41        6           0.000080491   -0.000043646   -0.000263732
     42        6          -0.000056352   -0.000364776   -0.000399848
     43        1          -0.000061440    0.000122773   -0.000301480
     44        6           0.000287108   -0.000216733   -0.000175682
     45        6           0.000162966    0.000320667    0.000090356
     46        1           0.000124571    0.000140029    0.000072893
     47        1          -0.000118637    0.000313581   -0.000191139
     48        6          -0.000100484    0.000457021    0.000180440
     49        1          -0.000094285    0.000236462   -0.000119975
     50        1          -0.000030584    0.000078850    0.000229109
     51        1           0.000024301    0.000409584   -0.000437472
     52        1           0.000036244   -0.000115034    0.000089438
     53        7           0.000815475   -0.000572184   -0.000136149
     54        7           0.000396807    0.000475329   -0.000350373
 -------------------------------------------------------------------
 Cartesian Forces:  Max     0.001040976 RMS     0.000298923

 GradGradGradGradGradGradGradGradGradGradGradGradGradGradGradGradGradGrad
 Berny optimization.
 Search for a local minimum.
 Step number   1 out of a maximum of    2
 All quantities printed in internal units (Hartrees-Bohrs-Radians)
 Second derivative matrix not updated -- first step.
 ITU=  0
     Eigenvalues ---    0.00008   0.00009   0.00022   0.00075   0.00078
     Eigenvalues ---    0.00113   0.00182   0.00265   0.00292   0.00302
     Eigenvalues ---    0.00322   0.00447   0.00716   0.00850   0.00936
     Eigenvalues ---    0.01022   0.01226   0.01233   0.01241   0.01253
     Eigenvalues ---    0.01674   0.02385   0.02427   0.02541   0.02599
     Eigenvalues ---    0.02607   0.02623   0.02721   0.02961   0.03426
     Eigenvalues ---    0.03442   0.03626   0.04610   0.04651   0.04703
     Eigenvalues ---    0.04982   0.06582   0.06749   0.07000   0.07010
     Eigenvalues ---    0.07024   0.07028   0.07053   0.07064   0.07101
     Eigenvalues ---    0.07113   0.07450   0.07903   0.07915   0.07946
     Eigenvalues ---    0.08607   0.08983   0.09464   0.10178   0.10557
     Eigenvalues ---    0.10683   0.10769   0.10781   0.11112   0.12475
     Eigenvalues ---    0.12514   0.12521   0.12629   0.12851   0.13591
     Eigenvalues ---    0.13718   0.13875   0.15058   0.15080   0.15298
     Eigenvalues ---    0.17633   0.18412   0.19514   0.19609   0.21226
     Eigenvalues ---    0.21838   0.23519   0.24130   0.26507   0.27644
     Eigenvalues ---    0.28050   0.28262   0.29715   0.30084   0.30783
     Eigenvalues ---    0.30982   0.31628   0.32943   0.35698   0.35807
     Eigenvalues ---    0.35812   0.36571   0.38106   0.40889   0.42830
     Eigenvalues ---    0.43038   0.43151   0.43361   0.45994   0.47613
     Eigenvalues ---    0.48257   0.49793   0.50376   0.50619   0.50798
     Eigenvalues ---    0.52516   0.53235   0.59334   0.60326   0.62249
     Eigenvalues ---    0.64136   0.71413   0.71425   0.74361   0.77982
     Eigenvalues ---    0.81914   0.82457   0.89742   0.90540   0.94780
     Eigenvalues ---    1.02917   1.06647   1.11028   1.12916   1.14217
     Eigenvalues ---    1.15207   1.15212   1.15421   1.19231   1.20090
     Eigenvalues ---    1.26288   1.29854   1.30723   1.39668   1.39998
     Eigenvalues ---    1.41223   1.43326   1.48764   1.49097   1.49722
     Eigenvalues ---    1.49981   1.50057   1.54499   1.58704   1.64499
     Eigenvalues ---    1.65107   1.66851   1.69684   1.71179   1.74212
     Eigenvalues ---    1.76126   1.76479   2.80269   2.80758  38.90333
     Eigenvalues ---  149.49530
 Eigenvalue     1 is   7.91D-05 Eigenvector:
                          Z51       Z46       Z32       Z45       X49
   1                    0.20876   0.18319  -0.18115   0.16870  -0.16678
                          X46       X29       X26       X52       Z39
   1                    0.16543   0.16168  -0.15970  -0.15918   0.15403
 Eigenvalue     2 is   9.20D-05 Eigenvector:
                          Z26       Z29       Z31       Z52       Z49
   1                    0.21964  -0.21775   0.21615   0.21496   0.20802
                          Z46       Z19       Z48       Z25       Z32
   1                   -0.18206   0.16958   0.16820   0.16779  -0.16688
 Quadratic step=4.060D+00 exceeds max=3.000D-01 adjusted using Lamda=-3.105D-03.
 Angle between NR and scaled steps=  38.31 degrees.
 Angle between quadratic step and forces=  67.35 degrees.
 Linear search not attempted -- first point.
 B after Tr=     0.000680   -0.000309    0.000681
         Rot=    1.000000   -0.000029    0.000183    0.000023 Ang=  -0.02 deg.
 Variable       Old X    -DE/DX   Delta X   Delta X   Delta X     New X
                                 (Linear)    (Quad)   (Total)
    X1        2.65514  -0.00024   0.00000   0.00771   0.00877   2.66391
    Y1        0.92774   0.00104   0.00000   0.00307   0.00270   0.93044
    Z1       -0.91674  -0.00028   0.00000  -0.00606  -0.00435  -0.92109
    X2        2.68954  -0.00027   0.00000   0.00535   0.00560   2.69514
    Y2       -0.94033  -0.00100   0.00000  -0.00612  -0.00661  -0.94694
    Z2        1.06693  -0.00006   0.00000  -0.01196  -0.01035   1.05658
    X3        4.97739   0.00002   0.00000   0.00063   0.00052   4.97791
    Y3       -1.83087  -0.00079   0.00000  -0.01350  -0.01415  -1.84501
    Z3        1.93210   0.00010   0.00000  -0.00782  -0.00543   1.92667
    X4        7.26891   0.00012   0.00000   0.00216   0.00245   7.27136
    Y4       -0.93347  -0.00062   0.00000  -0.01004  -0.01074  -0.94421
    Z4        0.94860   0.00064   0.00000   0.00038   0.00367   0.95227
    X5        7.21227   0.00014   0.00000   0.00777   0.00889   7.22116
    Y5        0.92506   0.00058   0.00000   0.00428   0.00370   0.92876
    Z5       -1.08917  -0.00060   0.00000   0.00947   0.01284  -1.07633
    X6        4.88173   0.00007   0.00000   0.01005   0.01152   4.89325
    Y6        1.82654   0.00041   0.00000   0.00684   0.00642   1.83297
    Z6       -1.93374   0.00029   0.00000   0.00244   0.00502  -1.92872
    X7        5.01215  -0.00004   0.00000  -0.00492  -0.00562   5.00653
    Y7       -3.28588   0.00011   0.00000  -0.01252  -0.01325  -3.29913
    Z7        3.38041   0.00033   0.00000  -0.00614  -0.00382   3.37658
    X8        4.83166  -0.00022   0.00000   0.01112   0.01319   4.84486
    Y8        3.26503  -0.00020   0.00000   0.00538   0.00505   3.27008
    Z8       -3.39775  -0.00037   0.00000   0.00048   0.00312  -3.39464
    X9        9.44931   0.00004   0.00000   0.01442   0.01599   9.46530
    Y9        1.82690  -0.00019   0.00000   0.01637   0.01576   1.84266
    Z9       -2.25821  -0.00004   0.00000   0.03232   0.03657  -2.22164
   X10       11.24507   0.00006   0.00000   0.02254   0.02451  11.26958
   Y10        2.59426   0.00017   0.00000   0.02511   0.02448   2.61874
   Z10       -3.26648   0.00051   0.00000   0.05368   0.05863  -3.20785
   X11        9.58025  -0.00021   0.00000  -0.00129  -0.00141   9.57885
   Y11       -1.85246   0.00006   0.00000  -0.01919  -0.02004  -1.87250
   Z11        1.93968   0.00015   0.00000  -0.00166   0.00242   1.94210
   X12       11.46016  -0.00007   0.00000  -0.00342  -0.00387  11.45628
   Y12       -2.62600  -0.00018   0.00000  -0.02653  -0.02752  -2.65352
   Z12        2.77721  -0.00019   0.00000  -0.00386   0.00085   2.77806
   X13       -0.61881   0.00004   0.00000  -0.00400  -0.00294  -0.62175
   Y13        4.25104   0.00096   0.00000  -0.00560  -0.00585   4.24520
   Z13       -0.52286  -0.00027   0.00000  -0.00333  -0.00263  -0.52548
   X14       -1.65327  -0.00028   0.00000   0.00482   0.00661  -1.64666
   Y14        0.90170  -0.00028   0.00000  -0.00944  -0.00951   0.89219
   Z14       -2.90798   0.00039   0.00000  -0.00376  -0.00363  -2.91161
   X15        0.69542  -0.00036   0.00000  -0.01336  -0.01277   0.68265
   Y15        5.98090  -0.00002   0.00000  -0.00237  -0.00277   5.97813
   Z15        0.99388  -0.00031   0.00000   0.00013   0.00141   0.99529
   X16       -3.18453   0.00027   0.00000  -0.00892  -0.00759  -3.19212
   Y16        4.60306   0.00001   0.00000  -0.02028  -0.02037   4.58269
   Z16       -1.23001  -0.00014   0.00000   0.00863   0.00841  -1.22160
   X17       -1.57155  -0.00009   0.00000   0.01359   0.01577  -1.55578
   Y17       -1.36540  -0.00014   0.00000   0.00275   0.00276  -1.36264
   Z17       -4.24281  -0.00018   0.00000  -0.02520  -0.02516  -4.26798
   X18       -3.84905  -0.00004   0.00000  -0.00724  -0.00544  -3.85450
   Y18        2.42143  -0.00039   0.00000  -0.02858  -0.02855   2.39287
   Z18       -2.77822   0.00032   0.00000   0.02014   0.01955  -2.75867
   X19       -0.62366  -0.00014   0.00000  -0.02319  -0.02281  -0.64646
   Y19        8.10037  -0.00027   0.00000  -0.01048  -0.01087   8.08951
   Z19        1.79811   0.00010   0.00000   0.00615   0.00707   1.80517
   X20        2.66093  -0.00008   0.00000  -0.01290  -0.01251   2.64842
   Y20        5.66086  -0.00011   0.00000   0.00395   0.00344   5.66430
   Z20        1.47962   0.00020   0.00000   0.00269   0.00467   1.48429
   X21       -4.45517   0.00021   0.00000  -0.01764  -0.01651  -4.47169
   Y21        6.73241   0.00011   0.00000  -0.02593  -0.02602   6.70639
   Z21       -0.39891   0.00037   0.00000   0.01085   0.01029  -0.38862
   X22       -3.79192   0.00022   0.00000   0.00817   0.01075  -3.78117
   Y22       -2.12646   0.00013   0.00000  -0.01103  -0.01085  -2.13731
   Z22       -5.45406  -0.00011   0.00000  -0.00678  -0.00760  -5.46166
   X23        0.15626   0.00004   0.00000   0.02460   0.02678   0.18304
   Y23       -2.45913   0.00015   0.00000   0.02378   0.02372  -2.43542
   Z23       -4.34961  -0.00043   0.00000  -0.05911  -0.05850  -4.40812
   X24       -6.00999  -0.00012   0.00000  -0.01650  -0.01429  -6.02428
   Y24        1.65457  -0.00058   0.00000  -0.04721  -0.04701   1.60755
   Z24       -4.03262  -0.00003   0.00000   0.04693   0.04551  -3.98712
   X25       -3.15623  -0.00040   0.00000  -0.02489  -0.02424  -3.18047
   Y25        8.47121  -0.00022   0.00000  -0.01900  -0.01923   8.45198
   Z25        1.11682   0.00005   0.00000   0.00762   0.00763   1.12445
   X26        0.32267  -0.00008   0.00000  -0.02854  -0.02852   0.29415
   Y26        9.49496   0.00002   0.00000  -0.00825  -0.00874   9.48622
   Z26        2.96430   0.00004   0.00000   0.00804   0.00938   2.97367
   X27       -6.41827  -0.00008   0.00000  -0.01993  -0.01860  -6.43687
   Y27        7.05765  -0.00005   0.00000  -0.03538  -0.03534   7.02230
   Z27       -0.89633  -0.00007   0.00000   0.01305   0.01179  -0.88455
   X28       -5.96395  -0.00002   0.00000  -0.01022  -0.00763  -5.97157
   Y28       -0.64095   0.00027   0.00000  -0.04012  -0.03984  -0.68079
   Z28       -5.36736   0.00026   0.00000   0.03702   0.03548  -5.33188
   X29       -3.80809   0.00010   0.00000   0.01709   0.01998  -3.78811
   Y29       -3.89630  -0.00002   0.00000  -0.00112  -0.00088  -3.89717
   Z29       -6.48719  -0.00024   0.00000  -0.02441  -0.02534  -6.51253
   X30       -7.71488  -0.00020   0.00000  -0.02813  -0.02589  -7.74077
   Y30        2.79464  -0.00011   0.00000  -0.06484  -0.06457   2.73007
   Z30       -3.99258   0.00025   0.00000   0.07440   0.07241  -3.92017
   X31       -4.13351  -0.00016   0.00000  -0.03072  -0.03024  -4.16374
   Y31       10.14725   0.00017   0.00000  -0.02037  -0.02060  10.12666
   Z31        1.77934  -0.00012   0.00000   0.00408   0.00383   1.78317
   X32       -7.64690  -0.00031   0.00000  -0.02014  -0.01721  -7.66411
   Y32       -1.25316  -0.00029   0.00000  -0.05688  -0.05647  -1.30963
   Z32       -6.36426   0.00037   0.00000   0.06316   0.06096  -6.30330
   X33       -1.64827  -0.00020   0.00000   0.01222   0.01176  -1.63651
   Y33       -0.92272   0.00003   0.00000   0.00987   0.00946  -0.91326
   Z33        3.03694  -0.00046   0.00000  -0.00738  -0.00735   3.02960
   X34       -0.57116  -0.00008   0.00000  -0.00358  -0.00333  -0.57450
   Y34       -4.27202  -0.00073   0.00000   0.00639   0.00607  -4.26595
   Z34        0.66068   0.00004   0.00000  -0.01159  -0.01136   0.64932
   X35       -1.62076   0.00019   0.00000   0.03094   0.03005  -1.59071
   Y35        1.31253   0.00024   0.00000   0.00118   0.00068   1.31321
   Z35        4.42556   0.00025   0.00000   0.00733   0.00750   4.43306
   X36       -3.85890  -0.00015   0.00000   0.00275   0.00231  -3.85658
   Y36       -2.39607   0.00040   0.00000   0.02618   0.02589  -2.37018
   Z36        2.77403   0.00007   0.00000  -0.01585  -0.01671   2.75731
   X37        0.74101   0.00018   0.00000  -0.01093  -0.01021   0.73080
   Y37       -6.02843   0.00042   0.00000   0.00985   0.00956  -6.01887
   Z37       -0.82524   0.00032   0.00000  -0.02118  -0.02058  -0.84583
   X38       -3.17430   0.00022   0.00000  -0.00249  -0.00246  -3.17676
   Y38       -4.55686  -0.00013   0.00000   0.01430   0.01406  -4.54279
   Z38        1.23096   0.00013   0.00000  -0.00467  -0.00541   1.22554
   X39       -3.88212   0.00027   0.00000   0.03259   0.03134  -3.85078
   Y39        2.07057  -0.00000   0.00000   0.02254   0.02208   2.09266
   Z39        5.54619   0.00016   0.00000  -0.00474  -0.00534   5.54085
   X40        0.11129   0.00017   0.00000   0.04301   0.04208   0.15337
   Y40        2.38472  -0.00021   0.00000  -0.02263  -0.02322   2.36151
   Z40        4.65488   0.00027   0.00000   0.02695   0.02783   4.68270
   X41       -6.08149   0.00008   0.00000   0.00205   0.00123  -6.08026
   Y41       -1.62577  -0.00004   0.00000   0.05076   0.05050  -1.57527
   Z41        3.94949  -0.00026   0.00000  -0.03313  -0.03476   3.91473
   X42       -0.61104  -0.00006   0.00000  -0.01642  -0.01546  -0.62650
   Y42       -8.07895  -0.00036   0.00000   0.01187   0.01169  -8.06726
   Z42       -1.73478  -0.00040   0.00000  -0.01816  -0.01817  -1.75295
   X43        2.74027  -0.00006   0.00000  -0.01403  -0.01315   2.72712
   Y43       -5.78328   0.00012   0.00000   0.01296   0.01260  -5.77068
   Z43       -1.21150  -0.00030   0.00000  -0.03566  -0.03432  -1.24582
   X44       -4.48672   0.00029   0.00000  -0.00538  -0.00511  -4.49183
   Y44       -6.63035  -0.00022   0.00000   0.01146   0.01134  -6.61902
   Z44        0.28519  -0.00018   0.00000   0.00594   0.00460   0.28979
   X45       -6.08024   0.00016   0.00000   0.01624   0.01501  -6.06523
   Y45        0.61983   0.00032   0.00000   0.05147   0.05113   0.67096
   Z45        5.32857   0.00009   0.00000  -0.03263  -0.03413   5.29444
   X46       -3.92050   0.00012   0.00000   0.04457   0.04300  -3.87750
   Y46        3.80916   0.00014   0.00000   0.01850   0.01798   3.82714
   Z46        6.63322   0.00007   0.00000   0.00270   0.00218   6.63540
   X47       -7.78570  -0.00012   0.00000  -0.01077  -0.01159  -7.79729
   Y47       -2.76094   0.00031   0.00000   0.07182   0.07165  -2.68929
   Z47        3.80482  -0.00019   0.00000  -0.04836  -0.05068   3.75414
   X48       -3.19437  -0.00010   0.00000  -0.01238  -0.01164  -3.20601
   Y48       -8.37935   0.00046   0.00000   0.01054   0.01044  -8.36891
   Z48       -1.19673   0.00018   0.00000   0.00106   0.00009  -1.19664
   X49        0.34940  -0.00009   0.00000  -0.02380  -0.02249   0.32691
   Y49       -9.49024   0.00024   0.00000   0.01614   0.01599  -9.47425
   Z49       -2.87179  -0.00012   0.00000  -0.02908  -0.02883  -2.90062
   X50       -6.48404  -0.00003   0.00000  -0.00308  -0.00297  -6.48701
   Y50       -6.88022   0.00008   0.00000   0.01161   0.01155  -6.86867
   Z50        0.68380   0.00023   0.00000   0.01827   0.01619   0.69998
   X51       -7.79668   0.00002   0.00000   0.01290   0.01137  -7.78531
   Y51        1.23146   0.00041   0.00000   0.07545   0.07513   1.30659
   Z51        6.26908  -0.00044   0.00000  -0.05466  -0.05675   6.21233
   X52       -4.19296   0.00004   0.00000  -0.01460  -0.01367  -4.20662
   Y52      -10.00717  -0.00012   0.00000   0.00737   0.00737  -9.99980
   Z52       -1.94397   0.00009   0.00000   0.01053   0.00910  -1.93487
   X53        0.26273   0.00082   0.00000   0.00520   0.00653   0.26927
   Y53        2.03196  -0.00057   0.00000  -0.00225  -0.00249   2.02948
   Z53       -1.52884  -0.00014   0.00000  -0.00733  -0.00643  -1.53527
   X54        0.32785   0.00040   0.00000   0.00417   0.00413   0.33198
   Y54       -2.07748   0.00048   0.00000   0.00270   0.00228  -2.07520
   Z54        1.73973  -0.00035   0.00000  -0.01198  -0.01130   1.72843
         Item               Value     Threshold  Converged?
 Maximum Force            0.001041     0.000450     NO 
 RMS     Force            0.000299     0.000300     YES
 Maximum Displacement     0.075132     0.001800     NO 
 RMS     Displacement     0.023535     0.001200     NO 
 Predicted change in Energy=-3.588292D-04
 GradGradGradGradGradGradGradGradGradGradGradGradGradGradGradGradGradGrad

 Unable to Open any file for archive entry.
 1\1\GINC-X10P1N1\Force\RM062X TD-FC\6-31G(d)\C32H18N4\MAYUMIAO\14-Jul-
 2024\0\\# 6-31g(d) m062x g09default scf=(xqc,maxcycle=64) force guess=
 read td nosymm\\Title Card\\0,1\C,1.40504029,0.4909375,-0.48511635\C,1
 .4232418,-0.49760164,0.5645948\C,2.63392113,-0.96885258,1.02242385\C,3
 .84654395,-0.49397103,0.50197841\C,3.81656976,0.48952093,-0.57636596\C
 ,2.58330035,0.96656393,-1.02329061\H,2.65231745,-1.73881246,1.78883341
 \H,2.55680559,1.72778142,-1.7980141\C,5.00035946,0.9667559,-1.19499447
 \N,5.95063352,1.37282418,-1.72854821\C,5.06965105,-0.98027845,1.026434
 11\N,6.06445329,-1.38961963,1.46963479\C,-0.32746122,2.24955601,-0.276
 68297\C,-0.87487435,0.47716083,-1.53883739\C,0.36800151,3.16495845,0.5
 2593895\C,-1.68518114,2.43583567,-0.65089236\C,-0.83162723,-0.72254114
 ,-2.24519989\C,-2.03682992,1.28136354,-1.47016847\C,-0.33002437,4.2865
 3253,0.95151845\H,1.40810365,2.99559821,0.78298235\C,-2.35757631,3.562
 63549,-0.21109393\C,-2.00659845,-1.12527542,-2.88616288\H,0.08268707,-
 1.30131724,-2.30171647\C,-3.18034797,0.87555883,-2.1339714\C,-1.670205
 79,4.48277364,0.59099474\H,0.17074955,5.02451653,1.56863896\H,-3.39640
 265,3.73474557,-0.47431958\C,-3.15598551,-0.33917484,-2.84028478\H,-2.
 01515323,-2.06183061,-3.43287471\H,-4.08253724,1.47886143,-2.11278324\
 H,-2.18735721,5.3696938,0.94158873\H,-4.0465644,-0.66314399,-3.3678211
 3\C,-0.87222442,-0.48828269,1.60708149\C,-0.30224532,-2.26065613,0.349
 61581\C,-0.85766969,0.69455981,2.34190318\C,-2.04203967,-1.26794652,1.
 46795141\C,0.39212507,-3.19010701,-0.43670068\C,-1.67976882,-2.4113840
 8,0.65139386\C,-2.05432707,1.0957002,2.9349179\H,0.05889295,1.26194201
 ,2.46325407\C,-3.21818438,-0.86032094,2.08997933\C,-0.32334917,-4.2751
 9736,-0.91800742\H,1.45009034,-3.06038178,-0.64109954\C,-2.37426999,-3
 .50863275,0.15091617\C,-3.217523,0.32799923,2.81975658\H,-2.07463761,2
 .01571922,3.51014983\H,-4.12001546,-1.46102582,2.01342257\C,-1.6903863
 7,-4.43416239,-0.6332826\H,0.18489321,-5.02201612,-1.51968706\H,-3.431
 20541,-3.64085773,0.3618504\H,-4.12582655,0.65165836,3.31745631\H,-2.2
 1881668,-5.29556375,-1.02870282\N,0.13903239,1.07526752,-0.80902692\N,
 0.17349222,-1.09935374,0.92062758\\Version=ES64L-G16RevC.01\HF=-1448.6
 887545\RMSD=8.492e-09\RMSF=2.989e-04\Dipole=-7.3170376,0.6958357,-0.33
 27922\PG=C01 [X(C32H18N4)]\\@
 The archive entry for this job was punched.


 ORIGINALITY CONSISTS NOT IN SAYING WHAT NO ONE HAS EVER SAID BEFORE, 
 BUT IN SAYING WHAT YOU THINK YOUR SELF.

                                    -- JAMES F. STEPHEN
 Job cpu time:       0 days  4 hours 21 minutes 42.7 seconds.
 Elapsed time:       0 days  0 hours  9 minutes 25.9 seconds.
 File lengths (MBytes):  RWF=   1633 Int=      0 D2E=      0 Chk=     65 Scr=      1
 Normal termination of Gaussian 16 at Sun Jul 14 00:05:56 2024.
