 Entering Gaussian System, Link 0=g16
 Input=JOBS/16_B.gjf
 Output=JOBS/16_B.log
 Initial command:
 /data/app/gaussian/C01-avx2//g16/l1.exe "/tmp/Gau-1314369.inp" -scrdir="/tmp/"
 Entering Link 1 = /data/app/gaussian/C01-avx2//g16/l1.exe PID=   1314370.
  
 Copyright (c) 1988-2019, Gaussian, Inc.  All Rights Reserved.
  
 This is part of the Gaussian(R) 16 program.  It is based on
 the Gaussian(R) 09 system (copyright 2009, Gaussian, Inc.),
 the Gaussian(R) 03 system (copyright 2003, Gaussian, Inc.),
 the Gaussian(R) 98 system (copyright 1998, Gaussian, Inc.),
 the Gaussian(R) 94 system (copyright 1995, Gaussian, Inc.),
 the Gaussian 92(TM) system (copyright 1992, Gaussian, Inc.),
 the Gaussian 90(TM) system (copyright 1990, Gaussian, Inc.),
 the Gaussian 88(TM) system (copyright 1988, Gaussian, Inc.),
 the Gaussian 86(TM) system (copyright 1986, Carnegie Mellon
 University), and the Gaussian 82(TM) system (copyright 1983,
 Carnegie Mellon University). Gaussian is a federally registered
 trademark of Gaussian, Inc.
  
 This software contains proprietary and confidential information,
 including trade secrets, belonging to Gaussian, Inc.
  
 This software is provided under written license and may be
 used, copied, transmitted, or stored only in accord with that
 written license.
  
 The following legend is applicable only to US Government
 contracts under FAR:
  
                    RESTRICTED RIGHTS LEGEND
  
 Use, reproduction and disclosure by the US Government is
 subject to restrictions as set forth in subparagraphs (a)
 and (c) of the Commercial Computer Software - Restricted
 Rights clause in FAR 52.227-19.
  
 Gaussian, Inc.
 340 Quinnipiac St., Bldg. 40, Wallingford CT 06492
  
  
 ---------------------------------------------------------------
 Warning -- This program may not be used in any manner that
 competes with the business of Gaussian, Inc. or will provide
 assistance to any competitor of Gaussian, Inc.  The licensee
 of this program is prohibited from giving any competitor of
 Gaussian, Inc. access to this program.  By using this program,
 the user acknowledges that Gaussian, Inc. is engaged in the
 business of creating and licensing software in the field of
 computational chemistry and represents and warrants to the
 licensee that it is not a competitor of Gaussian, Inc. and that
 it will not use this program in any manner prohibited above.
 ---------------------------------------------------------------
  

 Cite this work as:
 Gaussian 16, Revision C.01,
 M. J. Frisch, G. W. Trucks, H. B. Schlegel, G. E. Scuseria, 
 M. A. Robb, J. R. Cheeseman, G. Scalmani, V. Barone, 
 G. A. Petersson, H. Nakatsuji, X. Li, M. Caricato, A. V. Marenich, 
 J. Bloino, B. G. Janesko, R. Gomperts, B. Mennucci, H. P. Hratchian, 
 J. V. Ortiz, A. F. Izmaylov, J. L. Sonnenberg, D. Williams-Young, 
 F. Ding, F. Lipparini, F. Egidi, J. Goings, B. Peng, A. Petrone, 
 T. Henderson, D. Ranasinghe, V. G. Zakrzewski, J. Gao, N. Rega, 
 G. Zheng, W. Liang, M. Hada, M. Ehara, K. Toyota, R. Fukuda, 
 J. Hasegawa, M. Ishida, T. Nakajima, Y. Honda, O. Kitao, H. Nakai, 
 T. Vreven, K. Throssell, J. A. Montgomery, Jr., J. E. Peralta, 
 F. Ogliaro, M. J. Bearpark, J. J. Heyd, E. N. Brothers, K. N. Kudin, 
 V. N. Staroverov, T. A. Keith, R. Kobayashi, J. Normand, 
 K. Raghavachari, A. P. Rendell, J. C. Burant, S. S. Iyengar, 
 J. Tomasi, M. Cossi, J. M. Millam, M. Klene, C. Adamo, R. Cammi, 
 J. W. Ochterski, R. L. Martin, K. Morokuma, O. Farkas, 
 J. B. Foresman, and D. J. Fox, Gaussian, Inc., Wallingford CT, 2019.
 
 ******************************************
 Gaussian 16:  ES64L-G16RevC.01  3-Jul-2019
                13-Jul-2024 
 ******************************************
 %chk=b.chk
 %nprocshared=28
 Will use up to   28 processors via shared memory.
 %mem=48gb
 ----------------------------------------------------------------------
 # 6-31g(d) m062x g09default scf=(xqc,maxcycle=64) force guess=read nos
 ymm
 ----------------------------------------------------------------------
 1/10=7,30=1,38=1,158=3,167=1/1,3;
 2/12=2,15=1,17=6,18=5,40=1/2;
 3/5=1,6=6,7=1,11=2,25=1,27=10,30=1,71=1,74=-55,75=-4,116=-2,158=3/1,2,3;
 4/5=1,60=-1/1;
 5/5=2,7=64,8=3,13=1,38=6,87=10/2,8;
 6/7=2,8=2,9=2,10=2,28=1,87=10/1;
 7/29=1,30=1,87=10/1,2,3,16;
 1/10=7,30=1,158=3,167=1/3;
 99//99;
 Using 2006 physical constants.
 ----------
 Title Card
 ----------
 Symbolic Z-matrix:
 Charge =  0 Multiplicity = 3
 6                     1.40504   0.49094  -0.48512 
 6                     1.42324  -0.4976    0.56459 
 6                     2.63392  -0.96885   1.02242 
 6                     3.84654  -0.49397   0.50198 
 6                     3.81657   0.48952  -0.57637 
 6                     2.5833    0.96656  -1.02329 
 1                     2.65232  -1.73881   1.78883 
 1                     2.55681   1.72778  -1.79801 
 6                     5.00036   0.96676  -1.19499 
 7                     5.95063   1.37282  -1.72855 
 6                     5.06965  -0.98028   1.02643 
 7                     6.06445  -1.38962   1.46963 
 6                    -0.32746   2.24956  -0.27668 
 6                    -0.87487   0.47716  -1.53884 
 6                     0.368     3.16496   0.52594 
 6                    -1.68518   2.43584  -0.65089 
 6                    -0.83163  -0.72254  -2.2452 
 6                    -2.03683   1.28136  -1.47017 
 6                    -0.33002   4.28653   0.95152 
 1                     1.4081    2.9956    0.78298 
 6                    -2.35758   3.56264  -0.21109 
 6                    -2.0066   -1.12528  -2.88616 
 1                     0.08269  -1.30132  -2.30172 
 6                    -3.18035   0.87556  -2.13397 
 6                    -1.67021   4.48277   0.59099 
 1                     0.17075   5.02452   1.56864 
 1                    -3.3964    3.73475  -0.47432 
 6                    -3.15599  -0.33917  -2.84028 
 1                    -2.01515  -2.06183  -3.43287 
 1                    -4.08254   1.47886  -2.11278 
 1                    -2.18736   5.36969   0.94159 
 1                    -4.04656  -0.66314  -3.36782 
 6                    -0.87222  -0.48828   1.60708 
 6                    -0.30225  -2.26066   0.34962 
 6                    -0.85767   0.69456   2.3419 
 6                    -2.04204  -1.26795   1.46795 
 6                     0.39213  -3.19011  -0.4367 
 6                    -1.67977  -2.41138   0.65139 
 6                    -2.05433   1.0957    2.93492 
 1                     0.05889   1.26194   2.46325 
 6                    -3.21818  -0.86032   2.08998 
 6                    -0.32335  -4.2752   -0.91801 
 1                     1.45009  -3.06038  -0.6411 
 6                    -2.37427  -3.50863   0.15092 
 6                    -3.21752   0.328     2.81976 
 1                    -2.07464   2.01572   3.51015 
 1                    -4.12002  -1.46103   2.01342 
 6                    -1.69039  -4.43416  -0.63328 
 1                     0.18489  -5.02202  -1.51969 
 1                    -3.43121  -3.64086   0.36185 
 1                    -4.12583   0.65166   3.31746 
 1                    -2.21882  -5.29556  -1.0287 
 7                     0.13903   1.07527  -0.80903 
 7                     0.17349  -1.09935   0.92063 
 

 GradGradGradGradGradGradGradGradGradGradGradGradGradGradGradGradGradGrad
 Berny optimization.
 Initialization pass.
 Trust Radius=3.00D-01 FncErr=1.00D-07 GrdErr=1.00D-07 EigMax=2.50D+02 EigMin=1.00D-04
 Number of steps in this run=      2 maximum allowed number of steps=      2.
 GradGradGradGradGradGradGradGradGradGradGradGradGradGradGradGradGradGrad

 Symmetry turned off by external request.
 Stoichiometry    C32H18N4(3)
 Framework group  C1[X(C32H18N4)]
 Deg. of freedom   156
 Full point group                 C1      NOp   1
                          Input orientation:                          
 ---------------------------------------------------------------------
 Center     Atomic      Atomic             Coordinates (Angstroms)
 Number     Number       Type             X           Y           Z
 ---------------------------------------------------------------------
      1          6           0        1.405040    0.490938   -0.485116
      2          6           0        1.423242   -0.497602    0.564595
      3          6           0        2.633921   -0.968853    1.022424
      4          6           0        3.846544   -0.493971    0.501978
      5          6           0        3.816570    0.489521   -0.576366
      6          6           0        2.583300    0.966564   -1.023291
      7          1           0        2.652317   -1.738812    1.788833
      8          1           0        2.556806    1.727781   -1.798014
      9          6           0        5.000359    0.966756   -1.194994
     10          7           0        5.950634    1.372824   -1.728548
     11          6           0        5.069651   -0.980278    1.026434
     12          7           0        6.064453   -1.389620    1.469635
     13          6           0       -0.327461    2.249556   -0.276683
     14          6           0       -0.874874    0.477161   -1.538837
     15          6           0        0.368002    3.164958    0.525939
     16          6           0       -1.685181    2.435836   -0.650892
     17          6           0       -0.831627   -0.722541   -2.245200
     18          6           0       -2.036830    1.281364   -1.470168
     19          6           0       -0.330024    4.286533    0.951518
     20          1           0        1.408104    2.995598    0.782982
     21          6           0       -2.357576    3.562635   -0.211094
     22          6           0       -2.006598   -1.125275   -2.886163
     23          1           0        0.082687   -1.301317   -2.301716
     24          6           0       -3.180348    0.875559   -2.133971
     25          6           0       -1.670206    4.482774    0.590995
     26          1           0        0.170750    5.024517    1.568639
     27          1           0       -3.396403    3.734746   -0.474320
     28          6           0       -3.155986   -0.339175   -2.840285
     29          1           0       -2.015153   -2.061831   -3.432875
     30          1           0       -4.082537    1.478861   -2.112783
     31          1           0       -2.187357    5.369694    0.941589
     32          1           0       -4.046564   -0.663144   -3.367821
     33          6           0       -0.872224   -0.488283    1.607081
     34          6           0       -0.302245   -2.260656    0.349616
     35          6           0       -0.857670    0.694560    2.341903
     36          6           0       -2.042040   -1.267947    1.467951
     37          6           0        0.392125   -3.190107   -0.436701
     38          6           0       -1.679769   -2.411384    0.651394
     39          6           0       -2.054327    1.095700    2.934918
     40          1           0        0.058893    1.261942    2.463254
     41          6           0       -3.218184   -0.860321    2.089979
     42          6           0       -0.323349   -4.275197   -0.918007
     43          1           0        1.450090   -3.060382   -0.641100
     44          6           0       -2.374270   -3.508633    0.150916
     45          6           0       -3.217523    0.327999    2.819757
     46          1           0       -2.074638    2.015719    3.510150
     47          1           0       -4.120015   -1.461026    2.013423
     48          6           0       -1.690386   -4.434162   -0.633283
     49          1           0        0.184893   -5.022016   -1.519687
     50          1           0       -3.431205   -3.640858    0.361850
     51          1           0       -4.125827    0.651658    3.317456
     52          1           0       -2.218817   -5.295564   -1.028703
     53          7           0        0.139032    1.075268   -0.809027
     54          7           0        0.173492   -1.099354    0.920628
 ---------------------------------------------------------------------
 Rotational constants (GHZ):           0.1588514           0.1163941           0.0924897
 Standard basis: 6-31G(d) (6D, 7F)
   576 basis functions,  1080 primitive gaussians,   576 cartesian basis functions
   120 alpha electrons      118 beta electrons
       nuclear repulsion energy      3658.3437334369 Hartrees.
 NAtoms=   54 NActive=   54 NUniq=   54 SFac= 1.00D+00 NAtFMM=   60 NAOKFM=F Big=F
 Integral buffers will be    131072 words long.
 Raffenetti 2 integral format.
 Two-electron integral symmetry is turned off.
 One-electron integrals computed using PRISM.
 NBasis=   576 RedAO= T EigKep=  2.59D-04  NBF=   576
 NBsUse=   576 1.00D-06 EigRej= -1.00D+00 NBFU=   576
 Initial guess from the checkpoint file:  "b.chk"
 B after Tr=    -0.000073   -0.000039    0.000033
         Rot=    1.000000   -0.000035   -0.000006   -0.000005 Ang=  -0.00 deg.
 Initial guess <Sx>= 0.0000 <Sy>= 0.0000 <Sz>= 1.0000 <S**2>= 2.0294 S= 1.0098
 Requested convergence on RMS density matrix=1.00D-08 within  64 cycles.
 Requested convergence on MAX density matrix=1.00D-06.
 Requested convergence on             energy=1.00D-06.
 No special actions if energy rises.
 SCF Done:  E(UM062X) =  -1448.58198002     A.U. after   19 cycles
            NFock= 19  Conv=0.72D-08     -V/T= 2.0086
 <Sx>= 0.0000 <Sy>= 0.0000 <Sz>= 1.0000 <S**2>= 2.0295 S= 1.0098
 <L.S>=  0.00000000000    
 Annihilation of the first spin contaminant:
 S**2 before annihilation     2.0295,   after     2.0006
 QCSCF skips out because SCF is already converged.

 **********************************************************************

            Population analysis using the SCF Density.

 **********************************************************************

 Alpha  occ. eigenvalues --  -14.86361 -14.84956 -14.73073 -14.73018 -10.62359
 Alpha  occ. eigenvalues --  -10.62020 -10.61578 -10.61273 -10.60210 -10.60153
 Alpha  occ. eigenvalues --  -10.59295 -10.59080 -10.58940 -10.58924 -10.58903
 Alpha  occ. eigenvalues --  -10.58817 -10.58688 -10.58410 -10.58333 -10.58273
 Alpha  occ. eigenvalues --  -10.58181 -10.58096 -10.58066 -10.58063 -10.58038
 Alpha  occ. eigenvalues --  -10.57874 -10.57733 -10.57663 -10.57658 -10.57596
 Alpha  occ. eigenvalues --  -10.57510 -10.57464 -10.57424 -10.57280 -10.55617
 Alpha  occ. eigenvalues --  -10.55541  -1.15666  -1.13439  -1.00688  -0.98819
 Alpha  occ. eigenvalues --   -0.98717  -0.98224  -0.97816  -0.97670  -0.95742
 Alpha  occ. eigenvalues --   -0.91764  -0.91051  -0.88471  -0.88157  -0.87689
 Alpha  occ. eigenvalues --   -0.87493  -0.84848  -0.84573  -0.83848  -0.83131
 Alpha  occ. eigenvalues --   -0.77697  -0.76173  -0.73847  -0.73221  -0.72611
 Alpha  occ. eigenvalues --   -0.71641  -0.69583  -0.69256  -0.68968  -0.68269
 Alpha  occ. eigenvalues --   -0.65077  -0.64143  -0.62694  -0.61808  -0.61780
 Alpha  occ. eigenvalues --   -0.60703  -0.59431  -0.58696  -0.56155  -0.55898
 Alpha  occ. eigenvalues --   -0.55107  -0.55085  -0.54278  -0.53973  -0.53340
 Alpha  occ. eigenvalues --   -0.53167  -0.53000  -0.52604  -0.52143  -0.51793
 Alpha  occ. eigenvalues --   -0.51447  -0.51263  -0.50785  -0.49186  -0.47402
 Alpha  occ. eigenvalues --   -0.46596  -0.46386  -0.45873  -0.45664  -0.45221
 Alpha  occ. eigenvalues --   -0.45017  -0.44681  -0.43473  -0.42936  -0.42583
 Alpha  occ. eigenvalues --   -0.42493  -0.41876  -0.41685  -0.40616  -0.40519
 Alpha  occ. eigenvalues --   -0.40485  -0.39577  -0.37355  -0.36652  -0.36539
 Alpha  occ. eigenvalues --   -0.36446  -0.34593  -0.33220  -0.32964  -0.30903
 Alpha  occ. eigenvalues --   -0.30013  -0.29184  -0.28649  -0.27745  -0.15326
 Alpha virt. eigenvalues --   -0.03214  -0.02491   0.00013   0.00262   0.01304
 Alpha virt. eigenvalues --    0.02846   0.03447   0.04815   0.05510   0.09031
 Alpha virt. eigenvalues --    0.10354   0.11405   0.11515   0.12105   0.12203
 Alpha virt. eigenvalues --    0.12981   0.14039   0.14565   0.15609   0.15977
 Alpha virt. eigenvalues --    0.16521   0.17376   0.17437   0.17708   0.17927
 Alpha virt. eigenvalues --    0.18090   0.18496   0.18619   0.20262   0.21406
 Alpha virt. eigenvalues --    0.21667   0.21979   0.22204   0.22407   0.22686
 Alpha virt. eigenvalues --    0.22963   0.23723   0.24802   0.25528   0.26238
 Alpha virt. eigenvalues --    0.26540   0.26950   0.27423   0.27443   0.27927
 Alpha virt. eigenvalues --    0.28141   0.29733   0.30177   0.30705   0.31222
 Alpha virt. eigenvalues --    0.31833   0.34002   0.34325   0.34930   0.35572
 Alpha virt. eigenvalues --    0.36036   0.36254   0.36792   0.38080   0.40017
 Alpha virt. eigenvalues --    0.40780   0.40995   0.42286   0.43197   0.43563
 Alpha virt. eigenvalues --    0.44357   0.44501   0.45764   0.46109   0.46674
 Alpha virt. eigenvalues --    0.47460   0.48765   0.49756   0.51131   0.51485
 Alpha virt. eigenvalues --    0.53580   0.54198   0.54549   0.55029   0.55424
 Alpha virt. eigenvalues --    0.55535   0.55756   0.56362   0.56488   0.57432
 Alpha virt. eigenvalues --    0.57768   0.58030   0.58410   0.58590   0.59249
 Alpha virt. eigenvalues --    0.59645   0.59820   0.59982   0.60691   0.60801
 Alpha virt. eigenvalues --    0.61258   0.61737   0.61900   0.62159   0.62363
 Alpha virt. eigenvalues --    0.62705   0.62891   0.63004   0.63043   0.63737
 Alpha virt. eigenvalues --    0.63896   0.64165   0.64306   0.65176   0.65357
 Alpha virt. eigenvalues --    0.65530   0.65762   0.65870   0.66170   0.66601
 Alpha virt. eigenvalues --    0.67342   0.67402   0.67879   0.68470   0.68673
 Alpha virt. eigenvalues --    0.70593   0.71601   0.72484   0.72863   0.74130
 Alpha virt. eigenvalues --    0.74228   0.74464   0.75562   0.76000   0.77076
 Alpha virt. eigenvalues --    0.77262   0.77991   0.79854   0.80032   0.80538
 Alpha virt. eigenvalues --    0.81362   0.82103   0.83265   0.83553   0.84252
 Alpha virt. eigenvalues --    0.84554   0.85381   0.86547   0.86780   0.86836
 Alpha virt. eigenvalues --    0.86921   0.87369   0.87864   0.88105   0.88407
 Alpha virt. eigenvalues --    0.88602   0.89119   0.89198   0.89443   0.89870
 Alpha virt. eigenvalues --    0.90305   0.90636   0.90646   0.91347   0.92164
 Alpha virt. eigenvalues --    0.92621   0.92831   0.93226   0.93647   0.93896
 Alpha virt. eigenvalues --    0.94724   0.95188   0.95533   0.96191   0.96714
 Alpha virt. eigenvalues --    0.97195   0.97908   0.98455   0.99867   1.00065
 Alpha virt. eigenvalues --    1.00880   1.01010   1.01654   1.02630   1.02977
 Alpha virt. eigenvalues --    1.03275   1.03742   1.04390   1.05102   1.06862
 Alpha virt. eigenvalues --    1.07122   1.07729   1.07850   1.08490   1.09823
 Alpha virt. eigenvalues --    1.11723   1.13229   1.14199   1.16102   1.17057
 Alpha virt. eigenvalues --    1.17318   1.17762   1.18934   1.19394   1.19582
 Alpha virt. eigenvalues --    1.20063   1.21310   1.21658   1.23129   1.23400
 Alpha virt. eigenvalues --    1.24317   1.24921   1.25968   1.27352   1.28380
 Alpha virt. eigenvalues --    1.28834   1.29287   1.29954   1.30103   1.31079
 Alpha virt. eigenvalues --    1.32585   1.33012   1.33789   1.34274   1.35112
 Alpha virt. eigenvalues --    1.36582   1.37818   1.38288   1.38588   1.40664
 Alpha virt. eigenvalues --    1.41132   1.41506   1.42202   1.43698   1.44469
 Alpha virt. eigenvalues --    1.44829   1.45895   1.46511   1.47141   1.47373
 Alpha virt. eigenvalues --    1.48098   1.48602   1.48859   1.50108   1.50680
 Alpha virt. eigenvalues --    1.50774   1.51318   1.51598   1.51648   1.52000
 Alpha virt. eigenvalues --    1.52624   1.52990   1.54856   1.57016   1.58647
 Alpha virt. eigenvalues --    1.59418   1.59982   1.60305   1.61253   1.61728
 Alpha virt. eigenvalues --    1.62660   1.62772   1.64226   1.66303   1.67788
 Alpha virt. eigenvalues --    1.67970   1.72692   1.73291   1.74342   1.75707
 Alpha virt. eigenvalues --    1.77462   1.77567   1.78654   1.78841   1.79252
 Alpha virt. eigenvalues --    1.80189   1.80846   1.81237   1.82491   1.83681
 Alpha virt. eigenvalues --    1.84010   1.85277   1.85823   1.86457   1.87088
 Alpha virt. eigenvalues --    1.87541   1.88738   1.88859   1.89288   1.91123
 Alpha virt. eigenvalues --    1.91239   1.92281   1.93064   1.94204   1.94840
 Alpha virt. eigenvalues --    1.95608   1.96352   1.96979   1.97919   1.98374
 Alpha virt. eigenvalues --    1.98499   1.99542   2.00032   2.00489   2.01087
 Alpha virt. eigenvalues --    2.01781   2.02097   2.02323   2.04065   2.04448
 Alpha virt. eigenvalues --    2.04927   2.05084   2.06204   2.07058   2.08509
 Alpha virt. eigenvalues --    2.09170   2.09212   2.10494   2.10730   2.11024
 Alpha virt. eigenvalues --    2.11455   2.12418   2.13020   2.14016   2.14622
 Alpha virt. eigenvalues --    2.14974   2.15806   2.16133   2.18181   2.18395
 Alpha virt. eigenvalues --    2.19081   2.20442   2.21017   2.21227   2.21526
 Alpha virt. eigenvalues --    2.21962   2.22456   2.23672   2.24793   2.25587
 Alpha virt. eigenvalues --    2.26374   2.26725   2.27078   2.27733   2.28570
 Alpha virt. eigenvalues --    2.28921   2.29498   2.29903   2.30757   2.31308
 Alpha virt. eigenvalues --    2.32209   2.33620   2.34943   2.35889   2.38316
 Alpha virt. eigenvalues --    2.39119   2.41759   2.42686   2.43370   2.47600
 Alpha virt. eigenvalues --    2.48424   2.49127   2.50202   2.52680   2.53895
 Alpha virt. eigenvalues --    2.54302   2.54822   2.56226   2.56324   2.58071
 Alpha virt. eigenvalues --    2.59250   2.59691   2.62026   2.63487   2.63969
 Alpha virt. eigenvalues --    2.64199   2.66078   2.66171   2.66883   2.68060
 Alpha virt. eigenvalues --    2.68396   2.68731   2.69250   2.69428   2.69864
 Alpha virt. eigenvalues --    2.70211   2.71002   2.72302   2.72516   2.73412
 Alpha virt. eigenvalues --    2.76712   2.77895   2.79452   2.81465   2.81860
 Alpha virt. eigenvalues --    2.82779   2.83233   2.83815   2.84007   2.86392
 Alpha virt. eigenvalues --    2.87392   2.89398   2.90673   2.91929   2.93654
 Alpha virt. eigenvalues --    2.93993   2.96243   2.98027   2.98312   2.98832
 Alpha virt. eigenvalues --    3.03397   3.06929   3.08176   3.22529   3.22876
 Alpha virt. eigenvalues --    3.27149   3.29306   3.30282   3.30722   3.31595
 Alpha virt. eigenvalues --    3.36511   3.38232   3.49651   3.50722   3.53894
 Alpha virt. eigenvalues --    4.05193   4.05777   4.07428   4.09429   4.10247
 Alpha virt. eigenvalues --    4.11169   4.11822   4.13939   4.14819   4.16322
 Alpha virt. eigenvalues --    4.16551   4.16961   4.21089   4.23940   4.25579
 Alpha virt. eigenvalues --    4.26196   4.27744   4.30290   4.32508   4.33298
 Alpha virt. eigenvalues --    4.37482   4.39436   4.42826   4.44947   4.46274
 Alpha virt. eigenvalues --    4.48651   4.49052   4.50275   4.58985   4.65073
 Alpha virt. eigenvalues --    4.70395   4.74807   4.76556   4.84288   4.89035
 Alpha virt. eigenvalues --    4.96648
  Beta  occ. eigenvalues --  -14.86045 -14.84738 -14.72887 -14.72818 -10.62373
  Beta  occ. eigenvalues --  -10.62039 -10.61577 -10.61282 -10.59975 -10.59913
  Beta  occ. eigenvalues --  -10.59245 -10.59010 -10.58927 -10.58920 -10.58856
  Beta  occ. eigenvalues --  -10.58807 -10.58620 -10.58440 -10.58291 -10.58253
  Beta  occ. eigenvalues --  -10.58177 -10.58054 -10.58051 -10.58050 -10.58020
  Beta  occ. eigenvalues --  -10.57872 -10.57742 -10.57734 -10.57635 -10.57602
  Beta  occ. eigenvalues --  -10.57572 -10.57259 -10.57231 -10.57174 -10.55685
  Beta  occ. eigenvalues --  -10.55615  -1.14810  -1.12741  -1.00213  -0.98566
  Beta  occ. eigenvalues --   -0.98311  -0.97885  -0.97698  -0.97092  -0.95241
  Beta  occ. eigenvalues --   -0.91465  -0.90788  -0.88234  -0.87668  -0.87342
  Beta  occ. eigenvalues --   -0.87264  -0.84771  -0.84152  -0.83766  -0.82551
  Beta  occ. eigenvalues --   -0.77187  -0.75913  -0.73446  -0.72895  -0.72292
  Beta  occ. eigenvalues --   -0.71409  -0.69245  -0.69072  -0.68658  -0.68151
  Beta  occ. eigenvalues --   -0.64681  -0.63828  -0.62459  -0.61592  -0.61548
  Beta  occ. eigenvalues --   -0.60491  -0.58321  -0.58265  -0.55962  -0.55697
  Beta  occ. eigenvalues --   -0.54933  -0.54895  -0.53805  -0.53742  -0.52967
  Beta  occ. eigenvalues --   -0.52725  -0.52591  -0.52203  -0.51996  -0.51675
  Beta  occ. eigenvalues --   -0.51300  -0.51158  -0.50676  -0.48722  -0.46261
  Beta  occ. eigenvalues --   -0.46073  -0.45879  -0.45557  -0.45321  -0.44964
  Beta  occ. eigenvalues --   -0.44709  -0.44273  -0.43337  -0.42479  -0.42403
  Beta  occ. eigenvalues --   -0.41849  -0.41286  -0.40895  -0.39982  -0.39844
  Beta  occ. eigenvalues --   -0.38813  -0.37627  -0.36820  -0.36326  -0.36163
  Beta  occ. eigenvalues --   -0.36095  -0.33604  -0.31931  -0.31470  -0.29916
  Beta  occ. eigenvalues --   -0.28897  -0.27024  -0.26225
  Beta virt. eigenvalues --   -0.18244  -0.02739  -0.02114  -0.01354   0.00556
  Beta virt. eigenvalues --    0.00743   0.01594   0.03897   0.04191   0.05339
  Beta virt. eigenvalues --    0.05851   0.10650   0.11224   0.11566   0.11945
  Beta virt. eigenvalues --    0.12228   0.12273   0.13267   0.14450   0.14731
  Beta virt. eigenvalues --    0.15702   0.16687   0.17336   0.17469   0.17682
  Beta virt. eigenvalues --    0.17925   0.18122   0.18225   0.18631   0.18869
  Beta virt. eigenvalues --    0.20328   0.21621   0.21844   0.22165   0.22351
  Beta virt. eigenvalues --    0.22588   0.22874   0.23100   0.24118   0.25170
  Beta virt. eigenvalues --    0.26245   0.26669   0.26969   0.27369   0.27814
  Beta virt. eigenvalues --    0.28032   0.28187   0.28522   0.29977   0.30468
  Beta virt. eigenvalues --    0.31085   0.31383   0.31943   0.34314   0.34636
  Beta virt. eigenvalues --    0.35367   0.35812   0.36346   0.36695   0.37083
  Beta virt. eigenvalues --    0.38211   0.40172   0.41067   0.41177   0.42724
  Beta virt. eigenvalues --    0.43613   0.43874   0.44728   0.45203   0.46207
  Beta virt. eigenvalues --    0.46765   0.47101   0.47758   0.49021   0.49891
  Beta virt. eigenvalues --    0.51322   0.51758   0.53867   0.54424   0.54753
  Beta virt. eigenvalues --    0.55310   0.55793   0.55907   0.56209   0.56622
  Beta virt. eigenvalues --    0.56823   0.57706   0.58006   0.58235   0.58611
  Beta virt. eigenvalues --    0.58782   0.59449   0.59810   0.60094   0.60396
  Beta virt. eigenvalues --    0.60780   0.60971   0.61471   0.61962   0.62164
  Beta virt. eigenvalues --    0.62299   0.62562   0.62868   0.63085   0.63146
  Beta virt. eigenvalues --    0.63281   0.63951   0.64286   0.64423   0.64618
  Beta virt. eigenvalues --    0.65332   0.65623   0.65869   0.66004   0.66079
  Beta virt. eigenvalues --    0.66411   0.66805   0.67656   0.67890   0.68262
  Beta virt. eigenvalues --    0.68607   0.68952   0.70917   0.71978   0.72618
  Beta virt. eigenvalues --    0.73093   0.74213   0.74453   0.74517   0.75613
  Beta virt. eigenvalues --    0.76408   0.77323   0.77516   0.78713   0.80169
  Beta virt. eigenvalues --    0.80411   0.80796   0.81907   0.82382   0.83602
  Beta virt. eigenvalues --    0.83870   0.84568   0.84750   0.85557   0.86664
  Beta virt. eigenvalues --    0.86990   0.87078   0.87429   0.87811   0.88015
  Beta virt. eigenvalues --    0.88268   0.88697   0.88887   0.89333   0.89505
  Beta virt. eigenvalues --    0.89837   0.90148   0.90387   0.91003   0.91124
  Beta virt. eigenvalues --    0.91629   0.92579   0.92984   0.93059   0.93447
  Beta virt. eigenvalues --    0.93858   0.94255   0.95045   0.95448   0.95845
  Beta virt. eigenvalues --    0.96516   0.97046   0.97459   0.98593   0.98870
  Beta virt. eigenvalues --    1.00292   1.00692   1.01112   1.01460   1.01905
  Beta virt. eigenvalues --    1.02873   1.03311   1.03508   1.04150   1.04754
  Beta virt. eigenvalues --    1.05564   1.07153   1.07310   1.07987   1.08303
  Beta virt. eigenvalues --    1.09143   1.10179   1.11954   1.13525   1.14438
  Beta virt. eigenvalues --    1.16346   1.17269   1.17730   1.18119   1.19490
  Beta virt. eigenvalues --    1.19827   1.19962   1.20290   1.21629   1.21818
  Beta virt. eigenvalues --    1.23370   1.23653   1.24882   1.25567   1.26461
  Beta virt. eigenvalues --    1.27588   1.28788   1.29165   1.29665   1.30377
  Beta virt. eigenvalues --    1.30804   1.31601   1.33050   1.33488   1.34244
  Beta virt. eigenvalues --    1.34654   1.35498   1.36878   1.38244   1.38519
  Beta virt. eigenvalues --    1.40159   1.40898   1.41470   1.41703   1.42711
  Beta virt. eigenvalues --    1.44470   1.45008   1.45103   1.46124   1.46737
  Beta virt. eigenvalues --    1.47469   1.47671   1.48681   1.48941   1.49717
  Beta virt. eigenvalues --    1.50550   1.50897   1.51036   1.51592   1.51993
  Beta virt. eigenvalues --    1.52054   1.52269   1.52875   1.53292   1.55141
  Beta virt. eigenvalues --    1.57442   1.58973   1.59616   1.60369   1.60661
  Beta virt. eigenvalues --    1.61407   1.62020   1.62967   1.63150   1.64636
  Beta virt. eigenvalues --    1.66546   1.68071   1.68486   1.73088   1.73861
  Beta virt. eigenvalues --    1.74754   1.76022   1.77778   1.78209   1.78900
  Beta virt. eigenvalues --    1.79173   1.79589   1.80538   1.81248   1.81689
  Beta virt. eigenvalues --    1.82982   1.84016   1.84228   1.85588   1.86089
  Beta virt. eigenvalues --    1.86703   1.87641   1.87845   1.89135   1.89326
  Beta virt. eigenvalues --    1.89812   1.91396   1.91610   1.92882   1.93437
  Beta virt. eigenvalues --    1.94758   1.95241   1.96186   1.96868   1.97257
  Beta virt. eigenvalues --    1.98235   1.98694   1.98808   1.99892   2.00307
  Beta virt. eigenvalues --    2.00775   2.01511   2.02198   2.02513   2.02759
  Beta virt. eigenvalues --    2.04442   2.04881   2.05214   2.05395   2.06477
  Beta virt. eigenvalues --    2.07440   2.08904   2.09465   2.09521   2.10839
  Beta virt. eigenvalues --    2.11148   2.11552   2.11995   2.12685   2.13930
  Beta virt. eigenvalues --    2.14511   2.14845   2.15420   2.16240   2.16438
  Beta virt. eigenvalues --    2.18589   2.18912   2.19383   2.21128   2.21396
  Beta virt. eigenvalues --    2.21922   2.22057   2.22729   2.22917   2.24430
  Beta virt. eigenvalues --    2.25118   2.25940   2.26731   2.27047   2.27422
  Beta virt. eigenvalues --    2.28194   2.29065   2.29381   2.30011   2.30618
  Beta virt. eigenvalues --    2.31282   2.31831   2.32618   2.34167   2.35475
  Beta virt. eigenvalues --    2.36271   2.38662   2.39701   2.42416   2.43279
  Beta virt. eigenvalues --    2.43858   2.48148   2.49034   2.49692   2.50571
  Beta virt. eigenvalues --    2.53803   2.54174   2.54694   2.55193   2.56825
  Beta virt. eigenvalues --    2.56996   2.58539   2.59804   2.60119   2.62482
  Beta virt. eigenvalues --    2.63850   2.64372   2.64676   2.66527   2.66692
  Beta virt. eigenvalues --    2.67494   2.68443   2.68713   2.69241   2.69665
  Beta virt. eigenvalues --    2.69880   2.70433   2.70621   2.71384   2.72987
  Beta virt. eigenvalues --    2.73727   2.73990   2.77453   2.78504   2.79994
  Beta virt. eigenvalues --    2.82170   2.82571   2.83123   2.83729   2.84157
  Beta virt. eigenvalues --    2.84428   2.86770   2.87982   2.89802   2.91258
  Beta virt. eigenvalues --    2.92909   2.94061   2.94465   2.96906   2.98440
  Beta virt. eigenvalues --    2.98845   2.99243   3.04253   3.07430   3.09084
  Beta virt. eigenvalues --    3.23195   3.23594   3.28272   3.29926   3.30944
  Beta virt. eigenvalues --    3.31562   3.32516   3.36900   3.39055   3.50090
  Beta virt. eigenvalues --    3.51046   3.55700   4.05450   4.06888   4.07724
  Beta virt. eigenvalues --    4.09759   4.10531   4.11443   4.12068   4.14266
  Beta virt. eigenvalues --    4.15123   4.16533   4.17260   4.17444   4.21211
  Beta virt. eigenvalues --    4.24261   4.25747   4.26319   4.28712   4.30466
  Beta virt. eigenvalues --    4.32826   4.33719   4.38157   4.39676   4.43110
  Beta virt. eigenvalues --    4.45275   4.46547   4.49050   4.49533   4.50661
  Beta virt. eigenvalues --    4.59297   4.65103   4.71721   4.75071   4.76725
  Beta virt. eigenvalues --    4.84550   4.89277   4.97895
          Condensed to atoms (all electrons):
          Atomic-Atomic Spin Densities.
 Mulliken charges and spin densities:
               1          2
     1  C    0.151280   0.278347
     2  C    0.176443   0.274683
     3  C   -0.206326  -0.120318
     4  C    0.086783   0.335925
     5  C    0.081487   0.309671
     6  C   -0.190871  -0.115911
     7  H    0.199319   0.003194
     8  H    0.199829   0.002892
     9  C    0.193045  -0.070446
    10  N   -0.490302   0.163155
    11  C    0.189809  -0.076339
    12  N   -0.490309   0.174840
    13  C    0.283191  -0.030458
    14  C    0.273905  -0.031108
    15  C   -0.163158   0.104513
    16  C    0.052804   0.072167
    17  C   -0.151975   0.096243
    18  C    0.053070   0.015286
    19  C   -0.177672  -0.047539
    20  H    0.209632  -0.005236
    21  C   -0.189884  -0.027603
    22  C   -0.167376  -0.023310
    23  H    0.196712  -0.004348
    24  C   -0.190130   0.022286
    25  C   -0.169437   0.112824
    26  H    0.186508   0.001476
    27  H    0.182113   0.000872
    28  C   -0.170426   0.066937
    29  H    0.181341   0.000405
    30  H    0.180765  -0.001445
    31  H    0.180206  -0.005661
    32  H    0.177380  -0.003589
    33  C    0.276532  -0.018071
    34  C    0.279612  -0.013667
    35  C   -0.166010   0.057964
    36  C    0.037464   0.002077
    37  C   -0.174805   0.068285
    38  C    0.042197   0.058059
    39  C   -0.169061  -0.007159
    40  H    0.185945  -0.002793
    41  C   -0.183009   0.022781
    42  C   -0.179306  -0.032500
    43  H    0.202572  -0.003502
    44  C   -0.184718  -0.024173
    45  C   -0.176233   0.033091
    46  H    0.174094  -0.000065
    47  H    0.175306  -0.001290
    48  C   -0.175572   0.078541
    49  H    0.181177   0.001048
    50  H    0.176323   0.000960
    51  H    0.171679  -0.001853
    52  H    0.174845  -0.003919
    53  N   -0.666664   0.188966
    54  N   -0.680124   0.124815
 Sum of Mulliken charges =  -0.00000   2.00000
 Mulliken charges and spin densities with hydrogens summed into heavy atoms:
               1          2
     1  C    0.151280   0.278347
     2  C    0.176443   0.274683
     3  C   -0.007007  -0.117124
     4  C    0.086783   0.335925
     5  C    0.081487   0.309671
     6  C    0.008958  -0.113019
     9  C    0.193045  -0.070446
    10  N   -0.490302   0.163155
    11  C    0.189809  -0.076339
    12  N   -0.490309   0.174840
    13  C    0.283191  -0.030458
    14  C    0.273905  -0.031108
    15  C    0.046474   0.099277
    16  C    0.052804   0.072167
    17  C    0.044737   0.091895
    18  C    0.053070   0.015286
    19  C    0.008836  -0.046063
    21  C   -0.007771  -0.026731
    22  C    0.013965  -0.022905
    24  C   -0.009366   0.020841
    25  C    0.010769   0.107163
    28  C    0.006954   0.063348
    33  C    0.276532  -0.018071
    34  C    0.279612  -0.013667
    35  C    0.019934   0.055172
    36  C    0.037464   0.002077
    37  C    0.027767   0.064784
    38  C    0.042197   0.058059
    39  C    0.005033  -0.007224
    41  C   -0.007703   0.021491
    42  C    0.001871  -0.031452
    44  C   -0.008394  -0.023212
    45  C   -0.004554   0.031238
    48  C   -0.000727   0.074622
    53  N   -0.666664   0.188966
    54  N   -0.680124   0.124815
 Electronic spatial extent (au):  <R**2>=          12757.9455
 Charge=             -0.0000 electrons
 Dipole moment (field-independent basis, Debye):
    X=            -16.6526    Y=              0.8088    Z=             -0.2103  Tot=             16.6736
 Quadrupole moment (field-independent basis, Debye-Ang):
   XX=           -270.5219   YY=           -177.8685   ZZ=           -201.9965
   XY=             -0.8047   XZ=              3.6546   YZ=             18.4827
 Traceless Quadrupole moment (field-independent basis, Debye-Ang):
   XX=            -53.7262   YY=             38.9271   ZZ=             14.7991
   XY=             -0.8047   XZ=              3.6546   YZ=             18.4827
 Octapole moment (field-independent basis, Debye-Ang**2):
  XXX=           -703.2911  YYY=             16.5588  ZZZ=              0.4657  XYY=            -78.2494
  XXY=              6.2681  XXZ=              6.0482  XZZ=            -71.7450  YZZ=             -0.2898
  YYZ=              0.9072  XYZ=             29.8957
 Hexadecapole moment (field-independent basis, Debye-Ang**3):
 XXXX=         -12403.0559 YYYY=          -5372.7750 ZZZZ=          -3020.2607 XXXY=             40.8032
 XXXZ=            112.2520 YYYX=            -12.3731 YYYZ=            214.4330 ZZZX=             75.7533
 ZZZY=             17.2327 XXYY=          -2506.5362 XXZZ=          -2161.2006 YYZZ=          -1443.0111
 XXYZ=            230.3872 YYXZ=             25.3985 ZZXY=             -7.1639
 N-N= 3.658343733437D+03 E-N=-1.067155140824D+04  KE= 1.436271769597D+03
                          Isotropic Fermi Contact Couplings
        Atom                 a.u.       MegaHertz       Gauss      10(-4) cm-1
     1  C(13)              0.04652      26.14994       9.33095       8.72268
     2  C(13)              0.05221      29.34838      10.47223       9.78956
     3  C(13)             -0.03474     -19.52574      -6.96727      -6.51309
     4  C(13)              0.05022      28.22671      10.07199       9.41542
     5  C(13)              0.04561      25.63518       9.14727       8.55098
     6  C(13)             -0.03239     -18.20628      -6.49645      -6.07296
     7  H(1)               0.00109       2.44469       0.87233       0.81546
     8  H(1)               0.00095       2.12092       0.75680       0.70746
     9  C(13)             -0.02703     -15.19593      -5.42228      -5.06882
    10  N(14)              0.03291       5.31591       1.89685       1.77320
    11  C(13)             -0.02907     -16.33741      -5.82959      -5.44957
    12  N(14)              0.03521       5.68887       2.02993       1.89760
    13  C(13)             -0.00011      -0.06227      -0.02222      -0.02077
    14  C(13)             -0.00274      -1.53843      -0.54895      -0.51317
    15  C(13)              0.01851      10.40462       3.71263       3.47061
    16  C(13)              0.01195       6.71808       2.39718       2.24091
    17  C(13)              0.01817      10.21286       3.64420       3.40664
    18  C(13)              0.00011       0.06438       0.02297       0.02148
    19  C(13)             -0.01172      -6.58742      -2.35056      -2.19733
    20  H(1)              -0.00179      -3.99294      -1.42478      -1.33190
    21  C(13)             -0.00755      -4.24249      -1.51383      -1.41514
    22  C(13)             -0.00711      -3.99554      -1.42571      -1.33277
    23  H(1)              -0.00148      -3.31758      -1.18380      -1.10663
    24  C(13)              0.00210       1.18087       0.42136       0.39390
    25  C(13)              0.01940      10.90447       3.89099       3.63734
    26  H(1)               0.00047       1.05447       0.37626       0.35173
    27  H(1)               0.00031       0.70200       0.25049       0.23416
    28  C(13)              0.01056       5.93574       2.11802       1.97995
    29  H(1)               0.00025       0.55015       0.19631       0.18351
    30  H(1)              -0.00045      -0.99754      -0.35595      -0.33274
    31  H(1)              -0.00176      -3.92806      -1.40163      -1.31026
    32  H(1)              -0.00111      -2.47984      -0.88487      -0.82718
    33  C(13)              0.00036       0.20106       0.07174       0.06707
    34  C(13)              0.00488       2.74246       0.97858       0.91479
    35  C(13)              0.01125       6.32565       2.25715       2.11001
    36  C(13)             -0.00153      -0.85976      -0.30678      -0.28679
    37  C(13)              0.01196       6.72532       2.39976       2.24333
    38  C(13)              0.01026       5.76596       2.05744       1.92332
    39  C(13)             -0.00314      -1.76649      -0.63033      -0.58924
    40  H(1)              -0.00078      -1.74267      -0.62183      -0.58129
    41  C(13)              0.00302       1.69593       0.60515       0.56570
    42  C(13)             -0.00806      -4.52774      -1.61561      -1.51029
    43  H(1)              -0.00121      -2.69920      -0.96314      -0.90036
    44  C(13)             -0.00609      -3.42085      -1.22064      -1.14107
    45  C(13)              0.00488       2.74041       0.97784       0.91410
    46  H(1)               0.00009       0.20010       0.07140       0.06675
    47  H(1)              -0.00040      -0.89277      -0.31856      -0.29779
    48  C(13)              0.01351       7.59408       2.70976       2.53311
    49  H(1)               0.00033       0.74204       0.26478       0.24752
    50  H(1)               0.00034       0.75447       0.26921       0.25166
    51  H(1)              -0.00057      -1.27452      -0.45478      -0.42513
    52  H(1)              -0.00121      -2.70379      -0.96478      -0.90189
    53  N(14)              0.04148       6.70181       2.39137       2.23548
    54  N(14)              0.02607       4.21142       1.50274       1.40478
 --------------------------------------------------------
       Center         ----  Spin Dipole Couplings  ----
                      3XX-RR        3YY-RR        3ZZ-RR
 --------------------------------------------------------
     1   Atom       -0.147693      0.055955      0.091738
     2   Atom       -0.146938      0.060183      0.086755
     3   Atom        0.052855     -0.026603     -0.026252
     4   Atom       -0.181743      0.118339      0.063404
     5   Atom       -0.167783      0.110451      0.057333
     6   Atom        0.054651     -0.028299     -0.026351
     7   Atom        0.007636     -0.003900     -0.003737
     8   Atom        0.008009     -0.003968     -0.004041
     9   Atom        0.031716     -0.017824     -0.013892
    10   Atom       -0.149149      0.094568      0.054581
    11   Atom        0.037582     -0.018951     -0.018631
    12   Atom       -0.163961      0.100952      0.063009
    13   Atom        0.007807      0.009579     -0.017385
    14   Atom        0.017541     -0.003769     -0.013772
    15   Atom       -0.032638     -0.011011      0.043649
    16   Atom       -0.028762     -0.009771      0.038532
    17   Atom       -0.040989      0.001429      0.039560
    18   Atom       -0.004030     -0.003837      0.007867
    19   Atom        0.012214      0.006487     -0.018701
    20   Atom        0.004557      0.000627     -0.005184
    21   Atom        0.004543      0.005068     -0.009610
    22   Atom        0.007082     -0.000641     -0.006441
    23   Atom        0.004429     -0.002562     -0.001867
    24   Atom       -0.008363     -0.002886      0.011249
    25   Atom       -0.039343     -0.009113      0.048456
    26   Atom        0.000509      0.001376     -0.001885
    27   Atom        0.000760      0.000525     -0.001285
    28   Atom       -0.018975     -0.013031      0.032006
    29   Atom        0.000463     -0.000437     -0.000026
    30   Atom        0.001804      0.000191     -0.001995
    31   Atom       -0.003906      0.006122     -0.002216
    32   Atom        0.002433     -0.002931      0.000498
    33   Atom        0.015429     -0.004369     -0.011060
    34   Atom        0.005018      0.004863     -0.009881
    35   Atom       -0.026779      0.006733      0.020045
    36   Atom        0.000011     -0.002039      0.002028
    37   Atom       -0.025449     -0.003283      0.028732
    38   Atom       -0.024902     -0.006462      0.031364
    39   Atom        0.002061     -0.002425      0.000364
    40   Atom        0.002389     -0.002733      0.000344
    41   Atom       -0.008372     -0.002380      0.010751
    42   Atom        0.009256      0.004323     -0.013579
    43   Atom        0.002728      0.002220     -0.004948
    44   Atom        0.005701      0.004037     -0.009738
    45   Atom       -0.010086     -0.006524      0.016610
    46   Atom       -0.000180     -0.000297      0.000477
    47   Atom        0.001750     -0.000243     -0.001507
    48   Atom       -0.030263     -0.002731      0.032995
    49   Atom        0.000282      0.001326     -0.001608
    50   Atom        0.000396      0.000738     -0.001134
    51   Atom        0.001572     -0.001745      0.000174
    52   Atom       -0.002673      0.004158     -0.001486
    53   Atom       -0.144848     -0.105986      0.250834
    54   Atom       -0.100057     -0.077399      0.177455
 --------------------------------------------------------
                        XY            XZ            YZ
 --------------------------------------------------------
     1   Atom        0.025600      0.034794      0.229126
     2   Atom       -0.021583     -0.025885      0.220570
     3   Atom       -0.002604     -0.001878     -0.059333
     4   Atom       -0.001855      0.003097      0.275481
     5   Atom        0.022393      0.016130      0.255899
     6   Atom        0.000781     -0.001265     -0.058070
     7   Atom       -0.001120      0.001035     -0.003511
     8   Atom        0.001051     -0.002079     -0.003619
     9   Atom        0.020376     -0.025959     -0.024176
    10   Atom        0.011162      0.030523      0.212099
    11   Atom       -0.023944      0.023264     -0.023634
    12   Atom        0.010327     -0.011546      0.227143
    13   Atom       -0.018502     -0.001734      0.025350
    14   Atom        0.001196      0.020726      0.019056
    15   Atom        0.021514     -0.038362     -0.055149
    16   Atom        0.005796     -0.011259     -0.044046
    17   Atom        0.013657     -0.013797     -0.063878
    18   Atom        0.002839     -0.003487     -0.010351
    19   Atom       -0.009532      0.011061      0.020487
    20   Atom       -0.001418      0.003579      0.000767
    21   Atom       -0.004996      0.007296      0.010131
    22   Atom       -0.001626      0.006737      0.009179
    23   Atom       -0.002828      0.000233      0.003331
    24   Atom        0.006531     -0.009592     -0.015222
    25   Atom        0.020107     -0.037294     -0.061851
    26   Atom       -0.001904     -0.000147      0.001099
    27   Atom       -0.000449      0.000975      0.001109
    28   Atom        0.016027     -0.024968     -0.034358
    29   Atom        0.001327      0.002283      0.001210
    30   Atom       -0.002925      0.000101      0.000212
    31   Atom       -0.006029     -0.004086      0.002493
    32   Atom        0.004011      0.004328      0.001076
    33   Atom       -0.002698     -0.014067      0.012248
    34   Atom        0.014838      0.008157      0.017087
    35   Atom       -0.005248      0.001755     -0.042060
    36   Atom        0.000221     -0.001433     -0.003600
    37   Atom       -0.011830      0.020856     -0.038594
    38   Atom       -0.000200      0.001488     -0.038751
    39   Atom       -0.000613     -0.002585      0.002163
    40   Atom        0.000940     -0.000741      0.002960
    41   Atom       -0.005097      0.007364     -0.015043
    42   Atom        0.005899     -0.005788      0.015083
    43   Atom        0.000572     -0.002140      0.001053
    44   Atom        0.004853     -0.005591      0.010253
    45   Atom       -0.007724      0.011074     -0.017866
    46   Atom       -0.001267     -0.002031      0.001050
    47   Atom        0.002460     -0.000145     -0.000086
    48   Atom       -0.011050      0.021058     -0.044976
    49   Atom        0.001356      0.000233      0.000940
    50   Atom        0.000763     -0.000513      0.000739
    51   Atom       -0.002189     -0.002846      0.000623
    52   Atom        0.004570      0.002941      0.001835
    53   Atom        0.110641     -0.214127     -0.257582
    54   Atom       -0.075466      0.150785     -0.178262
 --------------------------------------------------------


 ---------------------------------------------------------------------------------
              Anisotropic Spin Dipole Couplings in Principal Axis System
 ---------------------------------------------------------------------------------

       Atom             a.u.   MegaHertz   Gauss  10(-4) cm-1        Axes

              Baa    -0.1591   -21.352    -7.619    -7.122 -0.5440 -0.5806  0.6058
     1 C(13)  Bbb    -0.1486   -19.941    -7.115    -6.652  0.8338 -0.4548  0.3129
              Bcc     0.3077    41.293    14.734    13.774  0.0939  0.6753  0.7315
 
              Baa    -0.1508   -20.229    -7.218    -6.748  0.8462 -0.3413  0.4092
     2 C(13)  Bbb    -0.1462   -19.624    -7.002    -6.546  0.5275  0.6454 -0.5524
              Bcc     0.2970    39.853    14.221    13.294 -0.0756  0.6833  0.7262
 
              Baa    -0.0858   -11.518    -4.110    -3.842  0.0229  0.7080  0.7058
     3 C(13)  Bbb     0.0329     4.414     1.575     1.472 -0.0254 -0.7054  0.7084
              Bcc     0.0529     7.104     2.535     2.370  0.9994 -0.0341  0.0018
 
              Baa    -0.1880   -25.226    -9.001    -8.414 -0.4935 -0.5832  0.6452
     4 C(13)  Bbb    -0.1797   -24.119    -8.606    -8.045  0.8697 -0.3320  0.3651
              Bcc     0.3677    49.344    17.607    16.460  0.0013  0.7413  0.6711
 
              Baa    -0.1750   -23.479    -8.378    -7.832  0.4657 -0.6107  0.6404
     5 C(13)  Bbb    -0.1677   -22.500    -8.028    -7.505  0.8833  0.2769 -0.3782
              Bcc     0.3426    45.979    16.406    15.337  0.0537  0.7418  0.6684
 
              Baa    -0.0854   -11.460    -4.089    -3.823  0.0024  0.7130  0.7012
     6 C(13)  Bbb     0.0307     4.115     1.468     1.373  0.0603 -0.7000  0.7116
              Bcc     0.0547     7.345     2.621     2.450  0.9982  0.0406 -0.0447
 
              Baa    -0.0073    -3.911    -1.396    -1.305  0.0053  0.7161  0.6980
     7 H(1)   Bbb    -0.0006    -0.314    -0.112    -0.105 -0.1821 -0.6856  0.7048
              Bcc     0.0079     4.225     1.508     1.409  0.9833 -0.1309  0.1268
 
              Baa    -0.0077    -4.087    -1.458    -1.363  0.0491  0.6920  0.7202
     8 H(1)   Bbb    -0.0009    -0.494    -0.176    -0.165 -0.2379  0.7085 -0.6645
              Bcc     0.0086     4.582     1.635     1.528  0.9701  0.1387 -0.1994
 
              Baa    -0.0403    -5.401    -1.927    -1.802  0.0525  0.7097  0.7026
     9 C(13)  Bbb    -0.0148    -1.980    -0.707    -0.660 -0.5745  0.5969 -0.5600
              Bcc     0.0550     7.381     2.634     2.462  0.8168  0.3743 -0.4391
 
              Baa    -0.1610    -6.211    -2.216    -2.072  0.8307  0.3335 -0.4457
    10 N(14)  Bbb    -0.1285    -4.955    -1.768    -1.653  0.5528 -0.5886  0.5899
              Bcc     0.2895    11.166     3.984     3.724  0.0656  0.7364  0.6734
 
              Baa    -0.0424    -5.694    -2.032    -1.899  0.0105  0.7147  0.6994
    11 C(13)  Bbb    -0.0160    -2.142    -0.764    -0.714 -0.5289 -0.5896  0.6105
              Bcc     0.0584     7.836     2.796     2.614  0.8486 -0.3763  0.3718
 
              Baa    -0.1729    -6.667    -2.379    -2.224  0.8668 -0.3374  0.3673
    12 N(14)  Bbb    -0.1370    -5.285    -1.886    -1.763 -0.4987 -0.5870  0.6377
              Bcc     0.3099    11.953     4.265     3.987 -0.0005  0.7359  0.6771
 
              Baa    -0.0343    -4.609    -1.645    -1.537 -0.2098 -0.5535  0.8060
    13 C(13)  Bbb    -0.0010    -0.136    -0.049    -0.045  0.8204  0.3487  0.4531
              Bcc     0.0354     4.745     1.693     1.583 -0.5318  0.7563  0.3810
 
              Baa    -0.0337    -4.521    -1.613    -1.508 -0.3145 -0.5009  0.8063
    14 C(13)  Bbb     0.0028     0.370     0.132     0.124 -0.4985  0.8100  0.3088
              Bcc     0.0309     4.151     1.481     1.385  0.8078  0.3048  0.5045
 
              Baa    -0.0489    -6.562    -2.341    -2.189  0.8447  0.2263  0.4850
    15 C(13)  Bbb    -0.0443    -5.946    -2.122    -1.984 -0.4216  0.8396  0.3426
              Bcc     0.0932    12.508     4.463     4.172 -0.3297 -0.4938  0.8046
 
              Baa    -0.0360    -4.824    -1.721    -1.609  0.1326  0.8443  0.5193
    16 C(13)  Bbb    -0.0303    -4.072    -1.453    -1.358  0.9824 -0.1816  0.0445
              Bcc     0.0663     8.896     3.174     2.967 -0.1318 -0.5042  0.8534
 
              Baa    -0.0479    -6.430    -2.294    -2.145 -0.5410  0.7176  0.4387
    17 C(13)  Bbb    -0.0421    -5.644    -2.014    -1.883  0.8284  0.3646  0.4253
              Bcc     0.0900    12.074     4.308     4.028 -0.1453 -0.5935  0.7916
 
              Baa    -0.0100    -1.338    -0.477    -0.446 -0.1348  0.8682  0.4775
    18 C(13)  Bbb    -0.0050    -0.668    -0.238    -0.223  0.9643  0.0039  0.2649
              Bcc     0.0149     2.006     0.716     0.669 -0.2281 -0.4961  0.8377
 
              Baa    -0.0345    -4.636    -1.654    -1.546 -0.2935 -0.4807  0.8263
    19 C(13)  Bbb     0.0144     1.932     0.689     0.644  0.7489  0.4217  0.5113
              Bcc     0.0201     2.704     0.965     0.902 -0.5942  0.7688  0.2363
 
              Baa    -0.0066    -3.495    -1.247    -1.166 -0.3213 -0.1631  0.9328
    20 H(1)   Bbb     0.0006     0.312     0.111     0.104  0.1468  0.9646  0.2192
              Bcc     0.0060     3.183     1.136     1.062  0.9355 -0.2074  0.2860
 
              Baa    -0.0182    -2.439    -0.870    -0.813 -0.3607 -0.4368  0.8241
    21 C(13)  Bbb     0.0075     1.009     0.360     0.337  0.8677  0.1669  0.4683
              Bcc     0.0107     1.430     0.510     0.477 -0.3420  0.8840  0.3188
 
              Baa    -0.0150    -2.019    -0.720    -0.673 -0.2815 -0.5381  0.7945
    22 C(13)  Bbb     0.0046     0.617     0.220     0.206 -0.4798  0.7960  0.3691
              Bcc     0.0104     1.402     0.500     0.468  0.8310  0.2773  0.4822
 
              Baa    -0.0061    -3.238    -1.155    -1.080  0.2180  0.7588 -0.6137
    23 H(1)   Bbb     0.0005     0.274     0.098     0.091  0.3375  0.5314  0.7770
              Bcc     0.0056     2.965     1.058     0.989  0.9157 -0.3765 -0.1402
 
              Baa    -0.0128    -1.723    -0.615    -0.575 -0.5590  0.7832  0.2723
    24 C(13)  Bbb    -0.0122    -1.631    -0.582    -0.544  0.7614  0.3547  0.5427
              Bcc     0.0250     3.354     1.197     1.119 -0.3284 -0.5107  0.7946
 
              Baa    -0.0538    -7.217    -2.575    -2.407  0.8335  0.2824  0.4749
    25 C(13)  Bbb    -0.0469    -6.290    -2.244    -2.098 -0.4708  0.8128  0.3431
              Bcc     0.1007    13.507     4.819     4.505 -0.2891 -0.5096  0.8104
 
              Baa    -0.0023    -1.232    -0.440    -0.411 -0.2070 -0.3762  0.9031
    26 H(1)   Bbb    -0.0008    -0.411    -0.147    -0.137  0.7795  0.4945  0.3846
              Bcc     0.0031     1.643     0.586     0.548 -0.5912  0.7836  0.1909
 
              Baa    -0.0022    -1.174    -0.419    -0.392 -0.3408 -0.4020  0.8498
    27 H(1)   Bbb     0.0011     0.560     0.200     0.187 -0.1108  0.9149  0.3883
              Bcc     0.0012     0.614     0.219     0.205  0.9336 -0.0382  0.3564
 
              Baa    -0.0330    -4.428    -1.580    -1.477 -0.5234  0.8198  0.2323
    28 C(13)  Bbb    -0.0285    -3.819    -1.363    -1.274  0.7790  0.3498  0.5204
              Bcc     0.0615     8.247     2.943     2.751 -0.3454 -0.4533  0.8217
 
              Baa    -0.0021    -1.108    -0.396    -0.370 -0.6644 -0.0136  0.7473
    29 H(1)   Bbb    -0.0013    -0.686    -0.245    -0.229 -0.3275  0.9040 -0.2748
              Bcc     0.0034     1.794     0.640     0.599  0.6718  0.4273  0.6050
 
              Baa    -0.0022    -1.199    -0.428    -0.400 -0.4431 -0.5902  0.6748
    30 H(1)   Bbb    -0.0018    -0.952    -0.340    -0.318  0.4137  0.5331  0.7380
              Bcc     0.0040     2.151     0.768     0.718  0.7953 -0.6062 -0.0080
 
              Baa    -0.0081    -4.339    -1.548    -1.447  0.8414  0.2745  0.4655
    31 H(1)   Bbb    -0.0021    -1.140    -0.407    -0.380 -0.3040 -0.4718  0.8277
              Bcc     0.0103     5.479     1.955     1.828 -0.4468  0.8379  0.3135
 
              Baa    -0.0054    -2.866    -1.023    -0.956 -0.5521  0.7915  0.2620
    32 H(1)   Bbb    -0.0020    -1.053    -0.376    -0.351 -0.3335 -0.4977  0.8007
              Bcc     0.0073     3.919     1.399     1.307  0.7642  0.3547  0.5387
 
              Baa    -0.0231    -3.094    -1.104    -1.032  0.2658 -0.5013  0.8234
    33 C(13)  Bbb    -0.0006    -0.075    -0.027    -0.025  0.4498  0.8200  0.3540
              Bcc     0.0236     3.169     1.131     1.057  0.8527 -0.2763 -0.4434
 
              Baa    -0.0212    -2.847    -1.016    -0.950  0.0717 -0.5749  0.8151
    34 C(13)  Bbb    -0.0071    -0.956    -0.341    -0.319  0.8065 -0.4474 -0.3865
              Bcc     0.0283     3.803     1.357     1.268  0.5869  0.6851  0.4316
 
              Baa    -0.0312    -4.182    -1.492    -1.395  0.5681  0.6454  0.5106
    35 C(13)  Bbb    -0.0251    -3.366    -1.201    -1.123  0.8210 -0.4014 -0.4061
              Bcc     0.0562     7.547     2.693     2.518  0.0571 -0.6499  0.7579
 
              Baa    -0.0042    -0.565    -0.202    -0.188  0.1316  0.8452  0.5180
    36 C(13)  Bbb    -0.0003    -0.044    -0.016    -0.015  0.9486 -0.2590  0.1817
              Bcc     0.0045     0.608     0.217     0.203 -0.2877 -0.4675  0.8359
 
              Baa    -0.0328    -4.403    -1.571    -1.469  0.8800 -0.2065 -0.4277
    37 C(13)  Bbb    -0.0283    -3.798    -1.355    -1.267  0.3932  0.8218  0.4123
              Bcc     0.0611     8.201     2.926     2.736  0.2664 -0.5310  0.8044
 
              Baa    -0.0307    -4.124    -1.472    -1.376 -0.1059  0.8425  0.5282
    38 C(13)  Bbb    -0.0249    -3.336    -1.190    -1.113  0.9942  0.0988  0.0418
              Bcc     0.0556     7.460     2.662     2.488  0.0170 -0.5296  0.8481
 
              Baa    -0.0037    -0.498    -0.178    -0.166 -0.1524  0.8298 -0.5369
    39 C(13)  Bbb    -0.0007    -0.094    -0.033    -0.031  0.6504  0.4932  0.5777
              Bcc     0.0044     0.592     0.211     0.197  0.7442 -0.2612 -0.6148
 
              Baa    -0.0047    -2.523    -0.900    -0.842 -0.1647  0.8413 -0.5149
    40 H(1)   Bbb     0.0021     1.120     0.400     0.374  0.2773  0.5405  0.7943
              Bcc     0.0026     1.403     0.501     0.468  0.9465 -0.0119 -0.3224
 
              Baa    -0.0123    -1.646    -0.587    -0.549  0.1566  0.8489  0.5048
    41 C(13)  Bbb    -0.0109    -1.460    -0.521    -0.487  0.9491  0.0120 -0.3148
              Bcc     0.0231     3.106     1.108     1.036  0.2733 -0.5284  0.8038
 
              Baa    -0.0241    -3.230    -1.153    -1.077  0.2329 -0.4935  0.8380
    42 C(13)  Bbb     0.0097     1.297     0.463     0.433  0.8037 -0.3874 -0.4516
              Bcc     0.0144     1.933     0.690     0.645  0.5475  0.7787  0.3064
 
              Baa    -0.0057    -3.028    -1.081    -1.010  0.2534 -0.1459  0.9563
    43 H(1)   Bbb     0.0023     1.231     0.439     0.411 -0.2363  0.9493  0.2075
              Bcc     0.0034     1.797     0.641     0.599  0.9381  0.2785 -0.2061
 
              Baa    -0.0175    -2.343    -0.836    -0.782  0.2986 -0.4649  0.8335
    44 C(13)  Bbb     0.0070     0.935     0.334     0.312  0.8078 -0.3419 -0.4802
              Bcc     0.0105     1.408     0.502     0.470  0.5082  0.8167  0.2735
 
              Baa    -0.0170    -2.286    -0.816    -0.763  0.4660  0.8358  0.2904
    45 C(13)  Bbb    -0.0137    -1.839    -0.656    -0.613  0.8278 -0.2958 -0.4768
              Bcc     0.0307     4.125     1.472     1.376  0.3125 -0.4625  0.8297
 
              Baa    -0.0020    -1.059    -0.378    -0.353  0.7964  0.2577  0.5471
    46 H(1)   Bbb    -0.0010    -0.545    -0.194    -0.182  0.0703  0.8591 -0.5070
              Bcc     0.0030     1.604     0.572     0.535 -0.6006  0.4423  0.6661
 
              Baa    -0.0019    -1.014    -0.362    -0.338 -0.5593  0.8286 -0.0244
    47 H(1)   Bbb    -0.0015    -0.807    -0.288    -0.269  0.0148  0.0394  0.9991
              Bcc     0.0034     1.821     0.650     0.608  0.8289  0.5584 -0.0343
 
              Baa    -0.0375    -5.031    -1.795    -1.678  0.8284 -0.3260 -0.4555
    48 C(13)  Bbb    -0.0317    -4.247    -1.516    -1.417  0.5101  0.7750  0.3731
              Bcc     0.0691     9.279     3.311     3.095  0.2314 -0.5414  0.8083
 
              Baa    -0.0019    -1.013    -0.361    -0.338  0.0951 -0.3151  0.9443
    49 H(1)   Bbb    -0.0006    -0.300    -0.107    -0.100  0.8413 -0.4817 -0.2455
              Bcc     0.0025     1.313     0.468     0.438  0.5322  0.8177  0.2193
 
              Baa    -0.0017    -0.890    -0.318    -0.297  0.3519 -0.3751  0.8576
    50 H(1)   Bbb     0.0003     0.153     0.055     0.051  0.7453 -0.4419 -0.4992
              Bcc     0.0014     0.737     0.263     0.246  0.5662  0.8149  0.1240
 
              Baa    -0.0031    -1.654    -0.590    -0.552  0.5629  0.7503  0.3467
    51 H(1)   Bbb    -0.0014    -0.760    -0.271    -0.254  0.3005 -0.5765  0.7598
              Bcc     0.0045     2.414     0.861     0.805  0.7700 -0.3235 -0.5500
 
              Baa    -0.0059    -3.124    -1.115    -1.042  0.8445 -0.3047 -0.4405
    52 H(1)   Bbb    -0.0016    -0.854    -0.305    -0.285  0.2649 -0.4772  0.8379
              Bcc     0.0075     3.978     1.420     1.327  0.4655  0.8243  0.3223
 
              Baa    -0.2414    -9.309    -3.322    -3.105  0.3239  0.7730  0.5454
    53 N(14)  Bbb    -0.2375    -9.160    -3.269    -3.056  0.8747 -0.4644  0.1386
              Bcc     0.4789    18.470     6.590     6.161 -0.3604 -0.4322  0.8266
 
              Baa    -0.1698    -6.549    -2.337    -2.184 -0.3479  0.7641  0.5433
    54 N(14)  Bbb    -0.1648    -6.355    -2.268    -2.120  0.8650  0.4851 -0.1284
              Bcc     0.3346    12.903     4.604     4.304  0.3617 -0.4253  0.8297
 

 ---------------------------------------------------------------------------------

 Calling FoFJK, ICntrl=      2127 FMM=F ISym2X=0 I1Cent= 0 IOpClX= 1 NMat=1 NMatS=1 NMatT=0.
 -------------------------------------------------------------------
 Center     Atomic                   Forces (Hartrees/Bohr)
 Number     Number              X              Y              Z
 -------------------------------------------------------------------
      1        6          -0.006020010    0.009511289   -0.005089409
      2        6          -0.002941820   -0.008954690    0.003377298
      3        6          -0.000303150   -0.004152107   -0.000308474
      4        6           0.001214197   -0.006531531    0.007396775
      5        6           0.002186033    0.006837506   -0.007822967
      6        6          -0.000575593    0.003373754    0.002744143
      7        1          -0.000072942    0.000098914    0.000550460
      8        1          -0.000673400   -0.000100541   -0.000397557
      9        6          -0.002352254   -0.002118427    0.000983356
     10        7           0.001252261    0.000703467   -0.000021481
     11        6          -0.002575996    0.001485072   -0.000484229
     12        7           0.000970736   -0.000630733    0.000172624
     13        6          -0.000694209    0.011875646   -0.000135089
     14        6          -0.003439987   -0.004490070    0.001906665
     15        6          -0.002876157   -0.001880747   -0.002579267
     16        6           0.004534745   -0.002717083   -0.000516097
     17        6          -0.002219868    0.000794089   -0.001110485
     18        6           0.001800099   -0.000072012    0.001768300
     19        6          -0.000629256   -0.000408230   -0.000218903
     20        1           0.000594094   -0.000299896    0.000502354
     21        6           0.000781145    0.003834852    0.003397203
     22        6           0.003289081   -0.000026881    0.000844698
     23        1           0.000523539   -0.000034029   -0.000663857
     24        6          -0.001511714   -0.003684339   -0.002657210
     25        6          -0.002313333   -0.001400078   -0.001275130
     26        1           0.000036882    0.000186444    0.000183370
     27        1          -0.000195236   -0.000119494   -0.000047235
     28        6          -0.001588882    0.003783203    0.002078271
     29        1           0.000122142   -0.000166817   -0.000356534
     30        1          -0.000122001    0.000079474    0.000045294
     31        1          -0.000201487    0.000229286   -0.000055018
     32        1          -0.000393502   -0.000293985    0.000242820
     33        6          -0.002535994    0.002271204   -0.001953285
     34        6          -0.001237118   -0.009028701    0.000138911
     35        6           0.000065420    0.000264697    0.000772961
     36        6          -0.001070045    0.001584737    0.000784514
     37        6          -0.000975911    0.001850612    0.002213483
     38        6           0.002955859   -0.000782292   -0.000684719
     39        6           0.000799125    0.000205197    0.000286598
     40        1           0.000233091   -0.000025722    0.000252138
     41        6           0.000774507   -0.001073879   -0.000862772
     42        6          -0.000940644   -0.000927636   -0.000443216
     43        1           0.000335272    0.000231189   -0.000540557
     44        6           0.000411653   -0.000039602   -0.000467367
     45        6           0.000827204    0.000567725   -0.000012577
     46        1           0.000182045    0.000092808   -0.000087537
     47        1           0.000006481    0.000259973   -0.000135017
     48        6           0.000526248    0.000597317    0.000123535
     49        1          -0.000092011    0.000253224   -0.000166102
     50        1          -0.000014399    0.000202098    0.000138198
     51        1           0.000030005    0.000426402   -0.000436815
     52        1           0.000051621   -0.000078781    0.000049638
     53        7           0.008690888   -0.006475847   -0.000574956
     54        7           0.005372543    0.004913973   -0.000849746
 -------------------------------------------------------------------
 Cartesian Forces:  Max     0.011875646 RMS     0.002675015

 GradGradGradGradGradGradGradGradGradGradGradGradGradGradGradGradGradGrad
 Berny optimization.
 Search for a local minimum.
 Step number   1 out of a maximum of    2
 All quantities printed in internal units (Hartrees-Bohrs-Radians)
 Second derivative matrix not updated -- first step.
 ITU=  0
     Eigenvalues ---    0.00008   0.00009   0.00022   0.00075   0.00078
     Eigenvalues ---    0.00113   0.00182   0.00265   0.00292   0.00302
     Eigenvalues ---    0.00322   0.00447   0.00716   0.00850   0.00936
     Eigenvalues ---    0.01022   0.01226   0.01233   0.01241   0.01253
     Eigenvalues ---    0.01674   0.02385   0.02427   0.02541   0.02599
     Eigenvalues ---    0.02607   0.02623   0.02721   0.02961   0.03426
     Eigenvalues ---    0.03442   0.03626   0.04610   0.04651   0.04703
     Eigenvalues ---    0.04982   0.06582   0.06749   0.07000   0.07010
     Eigenvalues ---    0.07024   0.07028   0.07053   0.07064   0.07101
     Eigenvalues ---    0.07113   0.07450   0.07903   0.07915   0.07946
     Eigenvalues ---    0.08607   0.08983   0.09464   0.10178   0.10557
     Eigenvalues ---    0.10683   0.10769   0.10781   0.11112   0.12475
     Eigenvalues ---    0.12514   0.12521   0.12629   0.12851   0.13591
     Eigenvalues ---    0.13718   0.13875   0.15058   0.15080   0.15298
     Eigenvalues ---    0.17633   0.18412   0.19514   0.19609   0.21226
     Eigenvalues ---    0.21838   0.23519   0.24130   0.26507   0.27644
     Eigenvalues ---    0.28050   0.28262   0.29715   0.30084   0.30783
     Eigenvalues ---    0.30982   0.31628   0.32943   0.35698   0.35807
     Eigenvalues ---    0.35812   0.36571   0.38106   0.40889   0.42830
     Eigenvalues ---    0.43038   0.43151   0.43361   0.45994   0.47613
     Eigenvalues ---    0.48257   0.49793   0.50376   0.50619   0.50798
     Eigenvalues ---    0.52516   0.53235   0.59334   0.60326   0.62249
     Eigenvalues ---    0.64136   0.71413   0.71425   0.74361   0.77982
     Eigenvalues ---    0.81914   0.82457   0.89742   0.90540   0.94780
     Eigenvalues ---    1.02917   1.06647   1.11028   1.12916   1.14217
     Eigenvalues ---    1.15207   1.15212   1.15421   1.19231   1.20090
     Eigenvalues ---    1.26288   1.29854   1.30723   1.39668   1.39998
     Eigenvalues ---    1.41223   1.43326   1.48764   1.49097   1.49722
     Eigenvalues ---    1.49981   1.50057   1.54499   1.58704   1.64499
     Eigenvalues ---    1.65107   1.66851   1.69684   1.71179   1.74212
     Eigenvalues ---    1.76126   1.76479   2.80269   2.80758  38.90333
     Eigenvalues ---  149.49530
 Eigenvalue     1 is   7.91D-05 Eigenvector:
                          Z51       Z46       Z32       Z45       X49
   1                    0.20876   0.18319  -0.18115   0.16870  -0.16678
                          X46       X29       X26       X52       Z39
   1                    0.16543   0.16168  -0.15970  -0.15918   0.15403
 Eigenvalue     2 is   9.20D-05 Eigenvector:
                          Z26       Z29       Z31       Z52       Z49
   1                    0.21964  -0.21775   0.21615   0.21496   0.20802
                          Z46       Z19       Z48       Z25       Z32
   1                   -0.18206   0.16958   0.16820   0.16779  -0.16688
 Quadratic step=5.020D+00 exceeds max=3.000D-01 adjusted using Lamda=-7.205D-03.
 Angle between NR and scaled steps=  51.42 degrees.
 Angle between quadratic step and forces=  74.83 degrees.
 Linear search not attempted -- first point.
 B after Tr=     0.000441   -0.000695    0.000586
         Rot=    1.000000    0.000041    0.000117    0.000034 Ang=   0.01 deg.
 Variable       Old X    -DE/DX   Delta X   Delta X   Delta X     New X
                                 (Linear)    (Quad)   (Total)
    X1        2.65514  -0.00602   0.00000  -0.00213  -0.00141   2.65373
    Y1        0.92774   0.00951   0.00000   0.03321   0.03226   0.96000
    Z1       -0.91674  -0.00509   0.00000   0.01181   0.01294  -0.90380
    X2        2.68954  -0.00294   0.00000  -0.00195  -0.00182   2.68772
    Y2       -0.94033  -0.00895   0.00000  -0.03943  -0.04022  -0.98055
    Z2        1.06693   0.00338   0.00000  -0.02772  -0.02643   1.04050
    X3        4.97739  -0.00030   0.00000  -0.00879  -0.00892   4.96847
    Y3       -1.83087  -0.00415   0.00000  -0.06686  -0.06773  -1.89860
    Z3        1.93210  -0.00031   0.00000  -0.03520  -0.03330   1.89880
    X4        7.26891   0.00121   0.00000  -0.00794  -0.00778   7.26113
    Y4       -0.93347  -0.00653   0.00000  -0.03014  -0.03124  -0.96471
    Z4        0.94860   0.00740   0.00000  -0.00087   0.00149   0.95009
    X5        7.21227   0.00219   0.00000  -0.00183  -0.00107   7.21120
    Y5        0.92506   0.00684   0.00000   0.02731   0.02604   0.95110
    Z5       -1.08917  -0.00782   0.00000   0.01660   0.01879  -1.07038
    X6        4.88173  -0.00058   0.00000  -0.00048   0.00053   4.88226
    Y6        1.82654   0.00337   0.00000   0.06661   0.06543   1.89197
    Z6       -1.93374   0.00274   0.00000   0.04638   0.04795  -1.88579
    X7        5.01215  -0.00007   0.00000  -0.01435  -0.01491   4.99724
    Y7       -3.28588   0.00010   0.00000  -0.07682  -0.07758  -3.36346
    Z7        3.38041   0.00055   0.00000  -0.04448  -0.04245   3.33796
    X8        4.83166  -0.00067   0.00000  -0.00522  -0.00377   4.82789
    Y8        3.26503  -0.00010   0.00000   0.08259   0.08130   3.34633
    Z8       -3.39775  -0.00040   0.00000   0.06171   0.06315  -3.33460
    X9        9.44931  -0.00235   0.00000   0.00172   0.00281   9.45212
    Y9        1.82690  -0.00212   0.00000   0.01560   0.01408   1.84099
    Z9       -2.25821   0.00098   0.00000   0.02383   0.02647  -2.23175
   X10       11.24507   0.00125   0.00000   0.01084   0.01221  11.25728
   Y10        2.59426   0.00070   0.00000   0.00727   0.00556   2.59982
   Z10       -3.26648  -0.00002   0.00000   0.03148   0.03448  -3.23200
   X11        9.58025  -0.00258   0.00000  -0.01107  -0.01121   9.56904
   Y11       -1.85246   0.00149   0.00000  -0.02356  -0.02474  -1.87720
   Z11        1.93968  -0.00048   0.00000   0.00118   0.00415   1.94383
   X12       11.46016   0.00097   0.00000  -0.00817  -0.00856  11.45160
   Y12       -2.62600  -0.00063   0.00000  -0.01846  -0.01969  -2.64569
   Z12        2.77721   0.00017   0.00000   0.00169   0.00517   2.78237
   X13       -0.61881  -0.00069   0.00000   0.00980   0.01066  -0.60816
   Y13        4.25104   0.01188   0.00000   0.04670   0.04600   4.29705
   Z13       -0.52286  -0.00014   0.00000  -0.03003  -0.02994  -0.55279
   X14       -1.65327  -0.00344   0.00000  -0.00442  -0.00325  -1.65652
   Y14        0.90170  -0.00449   0.00000  -0.01009  -0.01091   0.89079
   Z14       -2.90798   0.00191   0.00000   0.03028   0.03040  -2.87758
   X15        0.69542  -0.00288   0.00000  -0.00388  -0.00326   0.69216
   Y15        5.98090  -0.00188   0.00000   0.04663   0.04597   6.02687
   Z15        0.99388  -0.00258   0.00000  -0.03351  -0.03326   0.96062
   X16       -3.18453   0.00453   0.00000   0.00412   0.00515  -3.17938
   Y16        4.60306  -0.00272   0.00000   0.01217   0.01159   4.61465
   Z16       -1.23001  -0.00052   0.00000   0.00002  -0.00051  -1.23052
   X17       -1.57155  -0.00222   0.00000  -0.00075   0.00059  -1.57096
   Y17       -1.36540   0.00079   0.00000   0.00219   0.00125  -1.36415
   Z17       -4.24281  -0.00111   0.00000   0.01148   0.01181  -4.23100
   X18       -3.84905   0.00180   0.00000  -0.00208  -0.00083  -3.84988
   Y18        2.42143  -0.00007   0.00000  -0.00791  -0.00857   2.41285
   Z18       -2.77822   0.00177   0.00000   0.02751   0.02700  -2.75122
   X19       -0.62366  -0.00063   0.00000  -0.01817  -0.01760  -0.64126
   Y19        8.10037  -0.00041   0.00000   0.03129   0.03078   8.13116
   Z19        1.79811  -0.00022   0.00000  -0.01611  -0.01634   1.78177
   X20        2.66093   0.00059   0.00000  -0.00370  -0.00321   2.65772
   Y20        5.66086  -0.00030   0.00000   0.04681   0.04605   5.70691
   Z20        1.47962   0.00050   0.00000  -0.02400  -0.02327   1.45636
   X21       -4.45517   0.00078   0.00000  -0.01111  -0.01013  -4.46530
   Y21        6.73241   0.00383   0.00000   0.00658   0.00616   6.73856
   Z21       -0.39891   0.00340   0.00000   0.00932   0.00831  -0.39060
   X22       -3.79192   0.00329   0.00000   0.00154   0.00311  -3.78881
   Y22       -2.12646  -0.00003   0.00000   0.00108   0.00020  -2.12626
   Z22       -5.45406   0.00084   0.00000   0.01687   0.01675  -5.43731
   X23        0.15626   0.00052   0.00000   0.00827   0.00957   0.16582
   Y23       -2.45913  -0.00003   0.00000   0.01683   0.01576  -2.44337
   Z23       -4.34961  -0.00066   0.00000  -0.01934  -0.01851  -4.36812
   X24       -6.00999  -0.00151   0.00000  -0.00889  -0.00740  -6.01739
   Y24        1.65457  -0.00368   0.00000  -0.01627  -0.01688   1.63768
   Z24       -4.03262  -0.00266   0.00000   0.03431   0.03336  -3.99926
   X25       -3.15623  -0.00231   0.00000  -0.02413  -0.02338  -3.17961
   Y25        8.47121  -0.00140   0.00000   0.01589   0.01550   8.48672
   Z25        1.11682  -0.00128   0.00000  -0.00207  -0.00292   1.11390
   X26        0.32267   0.00004   0.00000  -0.02326  -0.02286   0.29981
   Y26        9.49496   0.00019   0.00000   0.02909   0.02862   9.52358
   Z26        2.96430   0.00018   0.00000  -0.00828  -0.00840   2.95590
   X27       -6.41827  -0.00020   0.00000  -0.01818  -0.01706  -6.43533
   Y27        7.05765  -0.00012   0.00000  -0.01444  -0.01478   7.04287
   Z27       -0.89633  -0.00005   0.00000   0.02215   0.02066  -0.87567
   X28       -5.96395  -0.00159   0.00000  -0.00979  -0.00815  -5.97210
   Y28       -0.64095   0.00378   0.00000  -0.00994  -0.01067  -0.65162
   Z28       -5.36736   0.00208   0.00000   0.03787   0.03711  -5.33025
   X29       -3.80809   0.00012   0.00000   0.00805   0.00974  -3.79835
   Y29       -3.89630  -0.00017   0.00000   0.00990   0.00893  -3.88736
   Z29       -6.48719  -0.00036   0.00000  -0.00047  -0.00045  -6.48764
   X30       -7.71488  -0.00012   0.00000  -0.00873  -0.00718  -7.72206
   Y30        2.79464   0.00008   0.00000  -0.01518  -0.01568   2.77896
   Z30       -3.99258   0.00005   0.00000   0.03225   0.03080  -3.96178
   X31       -4.13351  -0.00020   0.00000  -0.03380  -0.03309  -4.16659
   Y31       10.14725   0.00023   0.00000   0.00847   0.00820  10.15545
   Z31        1.77934  -0.00006   0.00000   0.00329   0.00207   1.78142
   X32       -7.64690  -0.00039   0.00000  -0.01361  -0.01179  -7.65868
   Y32       -1.25316  -0.00029   0.00000  -0.01554  -0.01624  -1.26940
   Z32       -6.36426   0.00024   0.00000   0.04579   0.04469  -6.31957
   X33       -1.64827  -0.00254   0.00000   0.00546   0.00514  -1.64312
   Y33       -0.92272   0.00227   0.00000   0.00491   0.00457  -0.91815
   Z33        3.03694  -0.00195   0.00000  -0.03506  -0.03478   3.00216
   X34       -0.57116  -0.00124   0.00000   0.00645   0.00644  -0.56472
   Y34       -4.27202  -0.00903   0.00000  -0.04471  -0.04531  -4.31733
   Z34        0.66068   0.00014   0.00000   0.01262   0.01343   0.67411
   X35       -1.62076   0.00007   0.00000   0.02180   0.02131  -1.59945
   Y35        1.31253   0.00026   0.00000   0.00131   0.00108   1.31361
   Z35        4.42556   0.00077   0.00000  -0.02586  -0.02576   4.39980
   X36       -3.85890  -0.00107   0.00000   0.00621   0.00585  -3.85305
   Y36       -2.39607   0.00158   0.00000   0.00294   0.00273  -2.39335
   Z36        2.77403   0.00078   0.00000  -0.02064  -0.02075   2.75327
   X37        0.74101  -0.00098   0.00000   0.00257   0.00279   0.74380
   Y37       -6.02843   0.00185   0.00000  -0.04072  -0.04153  -6.06996
   Z37       -0.82524   0.00221   0.00000   0.01590   0.01715  -0.80809
   X38       -3.17430   0.00296   0.00000   0.00734   0.00719  -3.16711
   Y38       -4.55686  -0.00078   0.00000  -0.01944  -0.01982  -4.57667
   Z38        1.23096  -0.00068   0.00000   0.00138   0.00160   1.23256
   X39       -3.88212   0.00080   0.00000   0.02809   0.02738  -3.85473
   Y39        2.07057   0.00021   0.00000   0.01067   0.01069   2.08126
   Z39        5.54619   0.00029   0.00000  -0.02276  -0.02325   5.52295
   X40        0.11129   0.00023   0.00000   0.02908   0.02860   0.13989
   Y40        2.38472  -0.00003   0.00000  -0.01215  -0.01248   2.37225
   Z40        4.65488   0.00025   0.00000  -0.01560  -0.01518   4.63970
   X41       -6.08149   0.00077   0.00000   0.01050   0.00991  -6.07157
   Y41       -1.62577  -0.00107   0.00000   0.01658   0.01662  -1.60915
   Z41        3.94949  -0.00086   0.00000  -0.02619  -0.02689   3.92260
   X42       -0.61104  -0.00094   0.00000  -0.00519  -0.00489  -0.61593
   Y42       -8.07895  -0.00093   0.00000  -0.03074  -0.03153  -8.11049
   Z42       -1.73478  -0.00044   0.00000   0.00406   0.00517  -1.72962
   X43        2.74027   0.00034   0.00000   0.00035   0.00069   2.74096
   Y43       -5.78328   0.00023   0.00000  -0.03294  -0.03391  -5.81720
   Z43       -1.21150  -0.00054   0.00000   0.00207   0.00377  -1.20773
   X44       -4.48672   0.00041   0.00000   0.00078   0.00070  -4.48602
   Y44       -6.63035  -0.00004   0.00000  -0.01436  -0.01473  -6.64508
   Z44        0.28519  -0.00047   0.00000   0.00259   0.00268   0.28787
   X45       -6.08024   0.00083   0.00000   0.02127   0.02052  -6.05972
   Y45        0.61983   0.00057   0.00000   0.02239   0.02254   0.64237
   Z45        5.32857  -0.00001   0.00000  -0.03168  -0.03256   5.29601
   X46       -3.92050   0.00018   0.00000   0.03549   0.03465  -3.88585
   Y46        3.80916   0.00009   0.00000   0.00807   0.00818   3.81734
   Z46        6.63322  -0.00009   0.00000  -0.01806  -0.01870   6.61453
   X47       -7.78570   0.00001   0.00000   0.00513   0.00451  -7.78119
   Y47       -2.76094   0.00026   0.00000   0.02416   0.02430  -2.73664
   Z47        3.80482  -0.00014   0.00000  -0.02151  -0.02252   3.78230
   X48       -3.19437   0.00053   0.00000  -0.00490  -0.00475  -3.19912
   Y48       -8.37935   0.00060   0.00000  -0.01944  -0.02001  -8.39937
   Z48       -1.19673   0.00012   0.00000   0.00434   0.00486  -1.19187
   X49        0.34940  -0.00009   0.00000  -0.01179  -0.01131   0.33808
   Y49       -9.49024   0.00025   0.00000  -0.02326  -0.02421  -9.51445
   Z49       -2.87179  -0.00017   0.00000  -0.00959  -0.00814  -2.87993
   X50       -6.48404  -0.00001   0.00000  -0.00195  -0.00213  -6.48617
   Y50       -6.88022   0.00020   0.00000  -0.00038  -0.00058  -6.88081
   Z50        0.68380   0.00014   0.00000  -0.00227  -0.00263   0.68117
   X51       -7.79668   0.00003   0.00000   0.02096   0.02003  -7.77665
   Y51        1.23146   0.00043   0.00000   0.03556   0.03590   1.26736
   Z51        6.26908  -0.00044   0.00000  -0.04029  -0.04162   6.22746
   X52       -4.19296   0.00005   0.00000  -0.01108  -0.01086  -4.20381
   Y52      -10.00717  -0.00008   0.00000  -0.01368  -0.01425 -10.02142
   Z52       -1.94397   0.00005   0.00000   0.00079   0.00122  -1.94275
   X53        0.26273   0.00869   0.00000   0.00798   0.00892   0.27165
   Y53        2.03196  -0.00648   0.00000   0.01692   0.01608   2.04805
   Z53       -1.52884  -0.00057   0.00000   0.00305   0.00353  -1.52531
   X54        0.32785   0.00537   0.00000   0.00370   0.00360   0.33145
   Y54       -2.07748   0.00491   0.00000  -0.01850  -0.01908  -2.09655
   Z54        1.73973  -0.00085   0.00000  -0.02327  -0.02243   1.71730
         Item               Value     Threshold  Converged?
 Maximum Force            0.011876     0.000450     NO 
 RMS     Force            0.002675     0.000300     NO 
 Maximum Displacement     0.081300     0.001800     NO 
 RMS     Displacement     0.023550     0.001200     NO 
 Predicted change in Energy=-1.660554D-03
 GradGradGradGradGradGradGradGradGradGradGradGradGradGradGradGradGradGrad

 Unable to Open any file for archive entry.
 1\1\GINC-X10P1N1\Force\UM062X\6-31G(d)\C32H18N4(3)\MAYUMIAO\13-Jul-202
 4\0\\# 6-31g(d) m062x g09default scf=(xqc,maxcycle=64) force guess=rea
 d nosymm\\Title Card\\0,3\C,1.40504029,0.4909375,-0.48511635\C,1.42324
 18,-0.49760164,0.5645948\C,2.63392113,-0.96885258,1.02242385\C,3.84654
 395,-0.49397103,0.50197841\C,3.81656976,0.48952093,-0.57636596\C,2.583
 30035,0.96656393,-1.02329061\H,2.65231745,-1.73881246,1.78883341\H,2.5
 5680559,1.72778142,-1.7980141\C,5.00035946,0.9667559,-1.19499447\N,5.9
 5063352,1.37282418,-1.72854821\C,5.06965105,-0.98027845,1.02643411\N,6
 .06445329,-1.38961963,1.46963479\C,-0.32746122,2.24955601,-0.27668297\
 C,-0.87487435,0.47716083,-1.53883739\C,0.36800151,3.16495845,0.5259389
 5\C,-1.68518114,2.43583567,-0.65089236\C,-0.83162723,-0.72254114,-2.24
 519989\C,-2.03682992,1.28136354,-1.47016847\C,-0.33002437,4.28653253,0
 .95151845\H,1.40810365,2.99559821,0.78298235\C,-2.35757631,3.56263549,
 -0.21109393\C,-2.00659845,-1.12527542,-2.88616288\H,0.08268707,-1.3013
 1724,-2.30171647\C,-3.18034797,0.87555883,-2.1339714\C,-1.67020579,4.4
 8277364,0.59099474\H,0.17074955,5.02451653,1.56863896\H,-3.39640265,3.
 73474557,-0.47431958\C,-3.15598551,-0.33917484,-2.84028478\H,-2.015153
 23,-2.06183061,-3.43287471\H,-4.08253724,1.47886143,-2.11278324\H,-2.1
 8735721,5.3696938,0.94158873\H,-4.0465644,-0.66314399,-3.36782113\C,-0
 .87222442,-0.48828269,1.60708149\C,-0.30224532,-2.26065613,0.34961581\
 C,-0.85766969,0.69455981,2.34190318\C,-2.04203967,-1.26794652,1.467951
 41\C,0.39212507,-3.19010701,-0.43670068\C,-1.67976882,-2.41138408,0.65
 139386\C,-2.05432707,1.0957002,2.9349179\H,0.05889295,1.26194201,2.463
 25407\C,-3.21818438,-0.86032094,2.08997933\C,-0.32334917,-4.27519736,-
 0.91800742\H,1.45009034,-3.06038178,-0.64109954\C,-2.37426999,-3.50863
 275,0.15091617\C,-3.217523,0.32799923,2.81975658\H,-2.07463761,2.01571
 922,3.51014983\H,-4.12001546,-1.46102582,2.01342257\C,-1.69038637,-4.4
 3416239,-0.6332826\H,0.18489321,-5.02201612,-1.51968706\H,-3.43120541,
 -3.64085773,0.3618504\H,-4.12582655,0.65165836,3.31745631\H,-2.2188166
 8,-5.29556375,-1.02870282\N,0.13903239,1.07526752,-0.80902692\N,0.1734
 9222,-1.09935374,0.92062758\\Version=ES64L-G16RevC.01\HF=-1448.58198\S
 2=2.029479\S2-1=0.\S2A=2.000554\RMSD=7.208e-09\RMSF=2.675e-03\Dipole=-
 6.551653,0.3181999,-0.0827335\Quadrupole=-39.9441517,28.9413635,11.002
 7883,-0.598276,2.7171014,13.7414462\PG=C01 [X(C32H18N4)]\\@
 The archive entry for this job was punched.


 THE MEEK SHALL INHERIT THE EARTH.
 (THE REST OF US WILL ESCAPE TO THE STARS)
 Job cpu time:       0 days  0 hours 56 minutes 41.0 seconds.
 Elapsed time:       0 days  0 hours  2 minutes  2.6 seconds.
 File lengths (MBytes):  RWF=    314 Int=      0 D2E=      0 Chk=     25 Scr=      1
 Normal termination of Gaussian 16 at Sat Jul 13 23:56:29 2024.
