 Entering Gaussian System, Link 0=g16
 Input=JOBS/19_B.gjf
 Output=JOBS/19_B.log
 Initial command:
 /data/app/gaussian/C01-avx2//g16/l1.exe "/tmp/Gau-1317594.inp" -scrdir="/tmp/"
 Entering Link 1 = /data/app/gaussian/C01-avx2//g16/l1.exe PID=   1317595.
  
 Copyright (c) 1988-2019, Gaussian, Inc.  All Rights Reserved.
  
 This is part of the Gaussian(R) 16 program.  It is based on
 the Gaussian(R) 09 system (copyright 2009, Gaussian, Inc.),
 the Gaussian(R) 03 system (copyright 2003, Gaussian, Inc.),
 the Gaussian(R) 98 system (copyright 1998, Gaussian, Inc.),
 the Gaussian(R) 94 system (copyright 1995, Gaussian, Inc.),
 the Gaussian 92(TM) system (copyright 1992, Gaussian, Inc.),
 the Gaussian 90(TM) system (copyright 1990, Gaussian, Inc.),
 the Gaussian 88(TM) system (copyright 1988, Gaussian, Inc.),
 the Gaussian 86(TM) system (copyright 1986, Carnegie Mellon
 University), and the Gaussian 82(TM) system (copyright 1983,
 Carnegie Mellon University). Gaussian is a federally registered
 trademark of Gaussian, Inc.
  
 This software contains proprietary and confidential information,
 including trade secrets, belonging to Gaussian, Inc.
  
 This software is provided under written license and may be
 used, copied, transmitted, or stored only in accord with that
 written license.
  
 The following legend is applicable only to US Government
 contracts under FAR:
  
                    RESTRICTED RIGHTS LEGEND
  
 Use, reproduction and disclosure by the US Government is
 subject to restrictions as set forth in subparagraphs (a)
 and (c) of the Commercial Computer Software - Restricted
 Rights clause in FAR 52.227-19.
  
 Gaussian, Inc.
 340 Quinnipiac St., Bldg. 40, Wallingford CT 06492
  
  
 ---------------------------------------------------------------
 Warning -- This program may not be used in any manner that
 competes with the business of Gaussian, Inc. or will provide
 assistance to any competitor of Gaussian, Inc.  The licensee
 of this program is prohibited from giving any competitor of
 Gaussian, Inc. access to this program.  By using this program,
 the user acknowledges that Gaussian, Inc. is engaged in the
 business of creating and licensing software in the field of
 computational chemistry and represents and warrants to the
 licensee that it is not a competitor of Gaussian, Inc. and that
 it will not use this program in any manner prohibited above.
 ---------------------------------------------------------------
  

 Cite this work as:
 Gaussian 16, Revision C.01,
 M. J. Frisch, G. W. Trucks, H. B. Schlegel, G. E. Scuseria, 
 M. A. Robb, J. R. Cheeseman, G. Scalmani, V. Barone, 
 G. A. Petersson, H. Nakatsuji, X. Li, M. Caricato, A. V. Marenich, 
 J. Bloino, B. G. Janesko, R. Gomperts, B. Mennucci, H. P. Hratchian, 
 J. V. Ortiz, A. F. Izmaylov, J. L. Sonnenberg, D. Williams-Young, 
 F. Ding, F. Lipparini, F. Egidi, J. Goings, B. Peng, A. Petrone, 
 T. Henderson, D. Ranasinghe, V. G. Zakrzewski, J. Gao, N. Rega, 
 G. Zheng, W. Liang, M. Hada, M. Ehara, K. Toyota, R. Fukuda, 
 J. Hasegawa, M. Ishida, T. Nakajima, Y. Honda, O. Kitao, H. Nakai, 
 T. Vreven, K. Throssell, J. A. Montgomery, Jr., J. E. Peralta, 
 F. Ogliaro, M. J. Bearpark, J. J. Heyd, E. N. Brothers, K. N. Kudin, 
 V. N. Staroverov, T. A. Keith, R. Kobayashi, J. Normand, 
 K. Raghavachari, A. P. Rendell, J. C. Burant, S. S. Iyengar, 
 J. Tomasi, M. Cossi, J. M. Millam, M. Klene, C. Adamo, R. Cammi, 
 J. W. Ochterski, R. L. Martin, K. Morokuma, O. Farkas, 
 J. B. Foresman, and D. J. Fox, Gaussian, Inc., Wallingford CT, 2019.
 
 ******************************************
 Gaussian 16:  ES64L-G16RevC.01  3-Jul-2019
                14-Jul-2024 
 ******************************************
 %chk=b.chk
 %nprocshared=28
 Will use up to   28 processors via shared memory.
 %mem=48gb
 ----------------------------------------------------------------------
 # 6-31g(d) m062x g09default scf=(xqc,maxcycle=64) force guess=read nos
 ymm
 ----------------------------------------------------------------------
 1/10=7,30=1,38=1,158=3,167=1/1,3;
 2/12=2,15=1,17=6,18=5,40=1/2;
 3/5=1,6=6,7=1,11=2,25=1,27=10,30=1,71=1,74=-55,75=-4,116=-2,158=3/1,2,3;
 4/5=1,60=-1/1;
 5/5=2,7=64,8=3,13=1,38=6,87=10/2,8;
 6/7=2,8=2,9=2,10=2,28=1,87=10/1;
 7/29=1,30=1,87=10/1,2,3,16;
 1/10=7,30=1,158=3,167=1/3;
 99//99;
 Using 2006 physical constants.
 ----------
 Title Card
 ----------
 Symbolic Z-matrix:
 Charge =  0 Multiplicity = 3
 6                     1.40554   0.49339  -0.48433 
 6                     1.42358  -0.49975   0.56225 
 6                     2.63389  -0.97159   1.02243 
 6                     3.84626  -0.49471   0.50315 
 6                     3.81713   0.48961  -0.5775 
 6                     2.5835    0.96912  -1.02206 
 1                     2.65287  -1.7388    1.79157 
 1                     2.55531   1.72733  -1.80015 
 6                     5.0009    0.96576  -1.19608 
 7                     5.95174   1.37441  -1.72719 
 6                     5.06932  -0.98052   1.02805 
 7                     6.06488  -1.39041   1.46889 
 6                    -0.32709   2.25033  -0.2776 
 6                    -0.87565   0.47516  -1.53656 
 6                     0.36706   3.1643    0.52653 
 6                    -1.68503   2.43465  -0.64963 
 6                    -0.83189  -0.72285  -2.24609 
 6                    -2.03715   1.2796   -1.46825 
 6                    -0.33119   4.28512   0.95314 
 1                     1.40816   2.9964    0.78165 
 6                    -2.35772   3.56192  -0.20919 
 6                    -2.0064   -1.12508  -2.88704 
 1                     0.0823   -1.30163  -2.303 
 6                    -3.1802    0.8747   -2.13426 
 6                    -1.67122   4.48217   0.59207 
 1                     0.17071   5.02375   1.56858 
 1                    -3.39549   3.73574  -0.47549 
 6                    -3.15662  -0.3394   -2.83988 
 1                    -2.01379  -2.0618   -3.43375 
 1                    -4.08212   1.47895  -2.11304 
 1                    -2.18746   5.37079   0.94024 
 1                    -4.04788  -0.66499  -3.36575 
 6                    -0.87314  -0.4868    1.60472 
 6                    -0.30234  -2.26101   0.34934 
 6                    -0.85726   0.69475   2.34267 
 6                    -2.04284  -1.26713   1.46747 
 6                     0.39247  -3.18935  -0.43734 
 6                    -1.67966  -2.4113    0.65117 
 6                    -2.05374   1.09569   2.93647 
 1                     0.05938   1.26141   2.4644 
 6                    -3.21799  -0.86067   2.09049 
 6                    -0.32331  -4.27467  -0.91936 
 1                     1.45059  -3.06137  -0.64142 
 6                    -2.37411  -3.50801   0.15085 
 6                    -3.21689   0.32825   2.82047 
 1                    -2.07458   2.01649   3.51031 
 1                    -4.1211   -1.45974   2.01319 
 6                    -1.69027  -4.43323  -0.63368 
 1                     0.18491  -5.02148  -1.51986 
 1                    -3.4306   -3.64048   0.3639 
 1                    -4.12602   0.65388   3.3151 
 1                    -2.21813  -5.29522  -1.02832 
 7                     0.13981   1.07465  -0.80924 
 7                     0.17225  -1.09763   0.91719 
 

 GradGradGradGradGradGradGradGradGradGradGradGradGradGradGradGradGradGrad
 Berny optimization.
 Initialization pass.
 Trust Radius=3.00D-01 FncErr=1.00D-07 GrdErr=1.00D-07 EigMax=2.50D+02 EigMin=1.00D-04
 Number of steps in this run=      2 maximum allowed number of steps=      2.
 GradGradGradGradGradGradGradGradGradGradGradGradGradGradGradGradGradGrad

 Symmetry turned off by external request.
 Stoichiometry    C32H18N4(3)
 Framework group  C1[X(C32H18N4)]
 Deg. of freedom   156
 Full point group                 C1      NOp   1
                          Input orientation:                          
 ---------------------------------------------------------------------
 Center     Atomic      Atomic             Coordinates (Angstroms)
 Number     Number       Type             X           Y           Z
 ---------------------------------------------------------------------
      1          6           0        1.405537    0.493393   -0.484335
      2          6           0        1.423578   -0.499750    0.562255
      3          6           0        2.633889   -0.971591    1.022430
      4          6           0        3.846260   -0.494712    0.503150
      5          6           0        3.817135    0.489608   -0.577504
      6          6           0        2.583500    0.969116   -1.022064
      7          1           0        2.652870   -1.738800    1.791574
      8          1           0        2.555308    1.727334   -1.800145
      9          6           0        5.000904    0.965761   -1.196081
     10          7           0        5.951743    1.374410   -1.727194
     11          6           0        5.069319   -0.980519    1.028047
     12          7           0        6.064880   -1.390412    1.468890
     13          6           0       -0.327089    2.250325   -0.277604
     14          6           0       -0.875646    0.475158   -1.536564
     15          6           0        0.367061    3.164301    0.526534
     16          6           0       -1.685032    2.434652   -0.649632
     17          6           0       -0.831886   -0.722848   -2.246091
     18          6           0       -2.037155    1.279598   -1.468253
     19          6           0       -0.331186    4.285116    0.953138
     20          1           0        1.408157    2.996402    0.781653
     21          6           0       -2.357716    3.561923   -0.209186
     22          6           0       -2.006398   -1.125083   -2.887039
     23          1           0        0.082295   -1.301626   -2.303002
     24          6           0       -3.180198    0.874703   -2.134265
     25          6           0       -1.671215    4.482171    0.592068
     26          1           0        0.170710    5.023750    1.568584
     27          1           0       -3.395492    3.735744   -0.475488
     28          6           0       -3.156621   -0.339396   -2.839884
     29          1           0       -2.013794   -2.061803   -3.433754
     30          1           0       -4.082118    1.478954   -2.113039
     31          1           0       -2.187457    5.370793    0.940244
     32          1           0       -4.047876   -0.664995   -3.365748
     33          6           0       -0.873142   -0.486802    1.604725
     34          6           0       -0.302335   -2.261005    0.349340
     35          6           0       -0.857260    0.694753    2.342667
     36          6           0       -2.042837   -1.267129    1.467470
     37          6           0        0.392467   -3.189354   -0.437345
     38          6           0       -1.679663   -2.411304    0.651167
     39          6           0       -2.053740    1.095688    2.936467
     40          1           0        0.059375    1.261408    2.464401
     41          6           0       -3.217993   -0.860673    2.090490
     42          6           0       -0.323309   -4.274668   -0.919364
     43          1           0        1.450591   -3.061369   -0.641421
     44          6           0       -2.374107   -3.508006    0.150847
     45          6           0       -3.216894    0.328254    2.820472
     46          1           0       -2.074578    2.016494    3.510308
     47          1           0       -4.121100   -1.459739    2.013186
     48          6           0       -1.690274   -4.433231   -0.633676
     49          1           0        0.184910   -5.021483   -1.519858
     50          1           0       -3.430605   -3.640482    0.363899
     51          1           0       -4.126015    0.653882    3.315102
     52          1           0       -2.218125   -5.295221   -1.028324
     53          7           0        0.139807    1.074648   -0.809245
     54          7           0        0.172250   -1.097627    0.917188
 ---------------------------------------------------------------------
 Rotational constants (GHZ):           0.1588779           0.1163853           0.0924909
 Standard basis: 6-31G(d) (6D, 7F)
   576 basis functions,  1080 primitive gaussians,   576 cartesian basis functions
   120 alpha electrons      118 beta electrons
       nuclear repulsion energy      3658.4083364562 Hartrees.
 NAtoms=   54 NActive=   54 NUniq=   54 SFac= 1.00D+00 NAtFMM=   60 NAOKFM=F Big=F
 Integral buffers will be    131072 words long.
 Raffenetti 2 integral format.
 Two-electron integral symmetry is turned off.
 One-electron integrals computed using PRISM.
 NBasis=   576 RedAO= T EigKep=  2.60D-04  NBF=   576
 NBsUse=   576 1.00D-06 EigRej= -1.00D+00 NBFU=   576
 Initial guess from the checkpoint file:  "b.chk"
 B after Tr=     0.000014   -0.000018    0.000015
         Rot=    1.000000   -0.000009    0.000002   -0.000000 Ang=  -0.00 deg.
 Initial guess <Sx>= 0.0000 <Sy>= 0.0000 <Sz>= 1.0000 <S**2>= 2.0296 S= 1.0098
 Requested convergence on RMS density matrix=1.00D-08 within  64 cycles.
 Requested convergence on MAX density matrix=1.00D-06.
 Requested convergence on             energy=1.00D-06.
 No special actions if energy rises.
 SCF Done:  E(UM062X) =  -1448.58226646     A.U. after   17 cycles
            NFock= 17  Conv=0.43D-08     -V/T= 2.0086
 <Sx>= 0.0000 <Sy>= 0.0000 <Sz>= 1.0000 <S**2>= 2.0297 S= 1.0099
 <L.S>=  0.00000000000    
 Annihilation of the first spin contaminant:
 S**2 before annihilation     2.0297,   after     2.0006
 QCSCF skips out because SCF is already converged.

 **********************************************************************

            Population analysis using the SCF Density.

 **********************************************************************

 Alpha  occ. eigenvalues --  -14.86245 -14.85041 -14.73132 -14.73093 -10.62271
 Alpha  occ. eigenvalues --  -10.61958 -10.61608 -10.61323 -10.60286 -10.60221
 Alpha  occ. eigenvalues --  -10.59204 -10.58979 -10.58855 -10.58833 -10.58817
 Alpha  occ. eigenvalues --  -10.58742 -10.58581 -10.58365 -10.58333 -10.58193
 Alpha  occ. eigenvalues --  -10.58135 -10.58110 -10.58103 -10.58096 -10.58062
 Alpha  occ. eigenvalues --  -10.57918 -10.57762 -10.57692 -10.57691 -10.57615
 Alpha  occ. eigenvalues --  -10.57602 -10.57545 -10.57516 -10.57317 -10.55668
 Alpha  occ. eigenvalues --  -10.55608  -1.15611  -1.13462  -1.00694  -0.98824
 Alpha  occ. eigenvalues --   -0.98651  -0.98238  -0.97843  -0.97730  -0.95762
 Alpha  occ. eigenvalues --   -0.91707  -0.91083  -0.88402  -0.88143  -0.87723
 Alpha  occ. eigenvalues --   -0.87520  -0.84771  -0.84569  -0.83886  -0.83130
 Alpha  occ. eigenvalues --   -0.77685  -0.76184  -0.73837  -0.73215  -0.72556
 Alpha  occ. eigenvalues --   -0.71677  -0.69577  -0.69215  -0.68963  -0.68295
 Alpha  occ. eigenvalues --   -0.65070  -0.64168  -0.62616  -0.61828  -0.61759
 Alpha  occ. eigenvalues --   -0.60703  -0.59438  -0.58698  -0.56123  -0.55823
 Alpha  occ. eigenvalues --   -0.55125  -0.55100  -0.54250  -0.53930  -0.53291
 Alpha  occ. eigenvalues --   -0.53168  -0.53022  -0.52620  -0.52068  -0.51818
 Alpha  occ. eigenvalues --   -0.51412  -0.51298  -0.50818  -0.49222  -0.47440
 Alpha  occ. eigenvalues --   -0.46589  -0.46340  -0.45816  -0.45613  -0.45241
 Alpha  occ. eigenvalues --   -0.45050  -0.44672  -0.43397  -0.42901  -0.42600
 Alpha  occ. eigenvalues --   -0.42452  -0.41904  -0.41719  -0.40660  -0.40586
 Alpha  occ. eigenvalues --   -0.40551  -0.39614  -0.37272  -0.36706  -0.36566
 Alpha  occ. eigenvalues --   -0.36494  -0.34546  -0.33263  -0.32975  -0.30948
 Alpha  occ. eigenvalues --   -0.29955  -0.29139  -0.28668  -0.27749  -0.15406
 Alpha virt. eigenvalues --   -0.03140  -0.02507   0.00060   0.00248   0.01283
 Alpha virt. eigenvalues --    0.02917   0.03419   0.04875   0.05481   0.09001
 Alpha virt. eigenvalues --    0.10302   0.11330   0.11539   0.12137   0.12199
 Alpha virt. eigenvalues --    0.12980   0.14017   0.14592   0.15612   0.15933
 Alpha virt. eigenvalues --    0.16547   0.17411   0.17478   0.17703   0.17913
 Alpha virt. eigenvalues --    0.18086   0.18472   0.18626   0.20277   0.21463
 Alpha virt. eigenvalues --    0.21691   0.21964   0.22247   0.22437   0.22675
 Alpha virt. eigenvalues --    0.22935   0.23727   0.24827   0.25468   0.26272
 Alpha virt. eigenvalues --    0.26557   0.26978   0.27396   0.27399   0.27877
 Alpha virt. eigenvalues --    0.28126   0.29770   0.30180   0.30699   0.31269
 Alpha virt. eigenvalues --    0.31825   0.34000   0.34302   0.34924   0.35590
 Alpha virt. eigenvalues --    0.36044   0.36248   0.36803   0.38086   0.40089
 Alpha virt. eigenvalues --    0.40784   0.40967   0.42278   0.43177   0.43572
 Alpha virt. eigenvalues --    0.44260   0.44478   0.45762   0.46035   0.46677
 Alpha virt. eigenvalues --    0.47457   0.48765   0.49784   0.51143   0.51512
 Alpha virt. eigenvalues --    0.53599   0.54233   0.54561   0.55035   0.55420
 Alpha virt. eigenvalues --    0.55579   0.55735   0.56378   0.56479   0.57472
 Alpha virt. eigenvalues --    0.57778   0.58026   0.58400   0.58667   0.59265
 Alpha virt. eigenvalues --    0.59614   0.59809   0.59961   0.60691   0.60795
 Alpha virt. eigenvalues --    0.61258   0.61772   0.61918   0.62178   0.62371
 Alpha virt. eigenvalues --    0.62726   0.62912   0.62981   0.63059   0.63726
 Alpha virt. eigenvalues --    0.63876   0.64165   0.64288   0.65191   0.65358
 Alpha virt. eigenvalues --    0.65541   0.65772   0.65860   0.66172   0.66598
 Alpha virt. eigenvalues --    0.67354   0.67410   0.67900   0.68493   0.68660
 Alpha virt. eigenvalues --    0.70579   0.71581   0.72509   0.72861   0.74103
 Alpha virt. eigenvalues --    0.74232   0.74421   0.75544   0.75985   0.77086
 Alpha virt. eigenvalues --    0.77246   0.77960   0.79819   0.79977   0.80571
 Alpha virt. eigenvalues --    0.81354   0.82141   0.83296   0.83563   0.84289
 Alpha virt. eigenvalues --    0.84584   0.85382   0.86505   0.86776   0.86854
 Alpha virt. eigenvalues --    0.86960   0.87373   0.87903   0.88113   0.88385
 Alpha virt. eigenvalues --    0.88644   0.89095   0.89185   0.89412   0.89892
 Alpha virt. eigenvalues --    0.90310   0.90606   0.90683   0.91335   0.92172
 Alpha virt. eigenvalues --    0.92634   0.92833   0.93230   0.93638   0.93875
 Alpha virt. eigenvalues --    0.94770   0.95199   0.95538   0.96213   0.96681
 Alpha virt. eigenvalues --    0.97221   0.97860   0.98448   0.99888   1.00076
 Alpha virt. eigenvalues --    1.00932   1.01007   1.01650   1.02621   1.02944
 Alpha virt. eigenvalues --    1.03242   1.03752   1.04382   1.05042   1.06895
 Alpha virt. eigenvalues --    1.07118   1.07799   1.07829   1.08470   1.09824
 Alpha virt. eigenvalues --    1.11738   1.13237   1.14200   1.16192   1.17062
 Alpha virt. eigenvalues --    1.17301   1.17789   1.18908   1.19405   1.19569
 Alpha virt. eigenvalues --    1.20073   1.21252   1.21695   1.23140   1.23396
 Alpha virt. eigenvalues --    1.24287   1.24867   1.25950   1.27381   1.28493
 Alpha virt. eigenvalues --    1.28836   1.29281   1.30009   1.30053   1.31013
 Alpha virt. eigenvalues --    1.32560   1.33117   1.33732   1.34233   1.35219
 Alpha virt. eigenvalues --    1.36585   1.37827   1.38326   1.38568   1.40719
 Alpha virt. eigenvalues --    1.41107   1.41552   1.42164   1.43698   1.44589
 Alpha virt. eigenvalues --    1.44828   1.45888   1.46405   1.47147   1.47403
 Alpha virt. eigenvalues --    1.48086   1.48596   1.48817   1.50194   1.50660
 Alpha virt. eigenvalues --    1.50823   1.51373   1.51633   1.51688   1.51988
 Alpha virt. eigenvalues --    1.52579   1.52967   1.54885   1.56993   1.58636
 Alpha virt. eigenvalues --    1.59356   1.59877   1.60315   1.61282   1.61689
 Alpha virt. eigenvalues --    1.62590   1.62766   1.64161   1.66371   1.67738
 Alpha virt. eigenvalues --    1.67959   1.72719   1.73268   1.74406   1.75700
 Alpha virt. eigenvalues --    1.77429   1.77553   1.78622   1.78814   1.79247
 Alpha virt. eigenvalues --    1.80233   1.80891   1.81239   1.82419   1.83684
 Alpha virt. eigenvalues --    1.84058   1.85282   1.85843   1.86472   1.87042
 Alpha virt. eigenvalues --    1.87522   1.88718   1.88872   1.89179   1.91138
 Alpha virt. eigenvalues --    1.91253   1.92296   1.93039   1.94218   1.94877
 Alpha virt. eigenvalues --    1.95612   1.96311   1.96971   1.97955   1.98361
 Alpha virt. eigenvalues --    1.98490   1.99590   2.00049   2.00510   2.01082
 Alpha virt. eigenvalues --    2.01777   2.02108   2.02325   2.04047   2.04455
 Alpha virt. eigenvalues --    2.04892   2.05046   2.06265   2.07016   2.08516
 Alpha virt. eigenvalues --    2.09105   2.09279   2.10467   2.10717   2.11047
 Alpha virt. eigenvalues --    2.11391   2.12413   2.13012   2.14077   2.14650
 Alpha virt. eigenvalues --    2.14928   2.15849   2.16113   2.18127   2.18371
 Alpha virt. eigenvalues --    2.19059   2.20471   2.20975   2.21213   2.21597
 Alpha virt. eigenvalues --    2.21957   2.22473   2.23653   2.24906   2.25652
 Alpha virt. eigenvalues --    2.26439   2.26745   2.27089   2.27750   2.28586
 Alpha virt. eigenvalues --    2.28914   2.29567   2.29894   2.30747   2.31358
 Alpha virt. eigenvalues --    2.32356   2.33611   2.34908   2.35880   2.38376
 Alpha virt. eigenvalues --    2.39077   2.41770   2.42596   2.43379   2.47596
 Alpha virt. eigenvalues --    2.48372   2.49111   2.50179   2.52590   2.53908
 Alpha virt. eigenvalues --    2.54313   2.54826   2.56168   2.56282   2.58065
 Alpha virt. eigenvalues --    2.59240   2.59678   2.62075   2.63490   2.63999
 Alpha virt. eigenvalues --    2.64220   2.66080   2.66208   2.66884   2.68060
 Alpha virt. eigenvalues --    2.68426   2.68788   2.69230   2.69431   2.69851
 Alpha virt. eigenvalues --    2.70223   2.71009   2.72218   2.72600   2.73370
 Alpha virt. eigenvalues --    2.76751   2.77851   2.79448   2.81474   2.81844
 Alpha virt. eigenvalues --    2.82834   2.83160   2.83811   2.84020   2.86393
 Alpha virt. eigenvalues --    2.87329   2.89411   2.90635   2.91854   2.93673
 Alpha virt. eigenvalues --    2.93963   2.96212   2.98051   2.98219   2.98803
 Alpha virt. eigenvalues --    3.03379   3.06951   3.08189   3.22455   3.22924
 Alpha virt. eigenvalues --    3.27020   3.29328   3.30277   3.30689   3.31564
 Alpha virt. eigenvalues --    3.36543   3.38221   3.49746   3.50709   3.53730
 Alpha virt. eigenvalues --    4.05211   4.05673   4.07469   4.09493   4.10271
 Alpha virt. eigenvalues --    4.11200   4.11822   4.13970   4.14842   4.16282
 Alpha virt. eigenvalues --    4.16521   4.16921   4.21124   4.23964   4.25596
 Alpha virt. eigenvalues --    4.26133   4.27693   4.30276   4.32545   4.33313
 Alpha virt. eigenvalues --    4.37485   4.39456   4.42836   4.44991   4.46230
 Alpha virt. eigenvalues --    4.48614   4.49012   4.50295   4.58959   4.65199
 Alpha virt. eigenvalues --    4.70331   4.74870   4.76519   4.84318   4.89075
 Alpha virt. eigenvalues --    4.96523
  Beta  occ. eigenvalues --  -14.85937 -14.84818 -14.72942 -14.72892 -10.62284
  Beta  occ. eigenvalues --  -10.61976 -10.61607 -10.61333 -10.60049 -10.59980
  Beta  occ. eigenvalues --  -10.59156 -10.58912 -10.58843 -10.58834 -10.58767
  Beta  occ. eigenvalues --  -10.58732 -10.58517 -10.58361 -10.58322 -10.58179
  Beta  occ. eigenvalues --  -10.58100 -10.58088 -10.58083 -10.58077 -10.58058
  Beta  occ. eigenvalues --  -10.57916 -10.57775 -10.57762 -10.57664 -10.57649
  Beta  occ. eigenvalues --  -10.57621 -10.57321 -10.57295 -10.57270 -10.55738
  Beta  occ. eigenvalues --  -10.55682  -1.14768  -1.12751  -1.00215  -0.98500
  Beta  occ. eigenvalues --   -0.98314  -0.97904  -0.97724  -0.97147  -0.95257
  Beta  occ. eigenvalues --   -0.91407  -0.90817  -0.88172  -0.87660  -0.87360
  Beta  occ. eigenvalues --   -0.87299  -0.84690  -0.84161  -0.83802  -0.82544
  Beta  occ. eigenvalues --   -0.77166  -0.75926  -0.73439  -0.72892  -0.72240
  Beta  occ. eigenvalues --   -0.71441  -0.69243  -0.69013  -0.68673  -0.68174
  Beta  occ. eigenvalues --   -0.64676  -0.63853  -0.62383  -0.61630  -0.61508
  Beta  occ. eigenvalues --   -0.60492  -0.58328  -0.58265  -0.55935  -0.55625
  Beta  occ. eigenvalues --   -0.54961  -0.54896  -0.53772  -0.53701  -0.52969
  Beta  occ. eigenvalues --   -0.52734  -0.52568  -0.52211  -0.51926  -0.51712
  Beta  occ. eigenvalues --   -0.51265  -0.51188  -0.50708  -0.48755  -0.46231
  Beta  occ. eigenvalues --   -0.46061  -0.45851  -0.45533  -0.45306  -0.44983
  Beta  occ. eigenvalues --   -0.44733  -0.44263  -0.43260  -0.42502  -0.42362
  Beta  occ. eigenvalues --   -0.41867  -0.41280  -0.40921  -0.40019  -0.39902
  Beta  occ. eigenvalues --   -0.38866  -0.37634  -0.36754  -0.36376  -0.36195
  Beta  occ. eigenvalues --   -0.36128  -0.33589  -0.31933  -0.31515  -0.29853
  Beta  occ. eigenvalues --   -0.28922  -0.27016  -0.26232
  Beta virt. eigenvalues --   -0.18225  -0.02687  -0.02124  -0.01404   0.00595
  Beta virt. eigenvalues --    0.00735   0.01574   0.03928   0.04192   0.05382
  Beta virt. eigenvalues --    0.05827   0.10605   0.11206   0.11603   0.11868
  Beta virt. eigenvalues --    0.12247   0.12268   0.13269   0.14435   0.14749
  Beta virt. eigenvalues --    0.15706   0.16711   0.17324   0.17515   0.17708
  Beta virt. eigenvalues --    0.17878   0.18096   0.18251   0.18627   0.18861
  Beta virt. eigenvalues --    0.20342   0.21668   0.21865   0.22162   0.22387
  Beta virt. eigenvalues --    0.22616   0.22865   0.23077   0.24121   0.25202
  Beta virt. eigenvalues --    0.26294   0.26700   0.26944   0.27351   0.27795
  Beta virt. eigenvalues --    0.27986   0.28136   0.28500   0.30006   0.30474
  Beta virt. eigenvalues --    0.31083   0.31428   0.31935   0.34305   0.34630
  Beta virt. eigenvalues --    0.35354   0.35829   0.36363   0.36681   0.37088
  Beta virt. eigenvalues --    0.38218   0.40241   0.41058   0.41160   0.42718
  Beta virt. eigenvalues --    0.43607   0.43876   0.44714   0.45122   0.46206
  Beta virt. eigenvalues --    0.46682   0.47098   0.47757   0.49022   0.49916
  Beta virt. eigenvalues --    0.51329   0.51784   0.53887   0.54456   0.54764
  Beta virt. eigenvalues --    0.55311   0.55815   0.55935   0.56192   0.56654
  Beta virt. eigenvalues --    0.56800   0.57743   0.58011   0.58219   0.58601
  Beta virt. eigenvalues --    0.58859   0.59464   0.59786   0.60074   0.60380
  Beta virt. eigenvalues --    0.60743   0.60988   0.61473   0.61998   0.62195
  Beta virt. eigenvalues --    0.62317   0.62562   0.62890   0.63096   0.63126
  Beta virt. eigenvalues --    0.63299   0.63947   0.64278   0.64421   0.64583
  Beta virt. eigenvalues --    0.65350   0.65632   0.65858   0.66016   0.66062
  Beta virt. eigenvalues --    0.66412   0.66806   0.67676   0.67900   0.68263
  Beta virt. eigenvalues --    0.68624   0.68946   0.70912   0.71957   0.72640
  Beta virt. eigenvalues --    0.73090   0.74181   0.74428   0.74499   0.75600
  Beta virt. eigenvalues --    0.76395   0.77327   0.77504   0.78686   0.80137
  Beta virt. eigenvalues --    0.80362   0.80826   0.81899   0.82420   0.83641
  Beta virt. eigenvalues --    0.83874   0.84600   0.84775   0.85562   0.86618
  Beta virt. eigenvalues --    0.87016   0.87113   0.87436   0.87810   0.88044
  Beta virt. eigenvalues --    0.88285   0.88733   0.88873   0.89312   0.89502
  Beta virt. eigenvalues --    0.89813   0.90156   0.90399   0.90990   0.91126
  Beta virt. eigenvalues --    0.91623   0.92594   0.92994   0.93068   0.93439
  Beta virt. eigenvalues --    0.93858   0.94231   0.95082   0.95454   0.95855
  Beta virt. eigenvalues --    0.96544   0.97020   0.97476   0.98562   0.98851
  Beta virt. eigenvalues --    1.00310   1.00700   1.01158   1.01458   1.01907
  Beta virt. eigenvalues --    1.02861   1.03259   1.03479   1.04175   1.04745
  Beta virt. eigenvalues --    1.05494   1.07173   1.07322   1.08057   1.08297
  Beta virt. eigenvalues --    1.09114   1.10187   1.11968   1.13528   1.14440
  Beta virt. eigenvalues --    1.16435   1.17278   1.17730   1.18135   1.19490
  Beta virt. eigenvalues --    1.19817   1.19939   1.20308   1.21576   1.21851
  Beta virt. eigenvalues --    1.23378   1.23646   1.24896   1.25471   1.26441
  Beta virt. eigenvalues --    1.27615   1.28888   1.29160   1.29648   1.30374
  Beta virt. eigenvalues --    1.30820   1.31546   1.33025   1.33594   1.34175
  Beta virt. eigenvalues --    1.34621   1.35599   1.36878   1.38262   1.38553
  Beta virt. eigenvalues --    1.40161   1.40947   1.41447   1.41749   1.42670
  Beta virt. eigenvalues --    1.44588   1.45009   1.45132   1.46116   1.46608
  Beta virt. eigenvalues --    1.47473   1.47690   1.48653   1.48949   1.49719
  Beta virt. eigenvalues --    1.50598   1.50875   1.51075   1.51658   1.51992
  Beta virt. eigenvalues --    1.52076   1.52270   1.52839   1.53277   1.55170
  Beta virt. eigenvalues --    1.57419   1.58963   1.59555   1.60266   1.60676
  Beta virt. eigenvalues --    1.61433   1.61987   1.62896   1.63144   1.64579
  Beta virt. eigenvalues --    1.66606   1.68026   1.68483   1.73108   1.73841
  Beta virt. eigenvalues --    1.74817   1.76027   1.77806   1.78131   1.78861
  Beta virt. eigenvalues --    1.79162   1.79573   1.80576   1.81319   1.81672
  Beta virt. eigenvalues --    1.82910   1.84018   1.84274   1.85596   1.86105
  Beta virt. eigenvalues --    1.86717   1.87595   1.87827   1.89113   1.89332
  Beta virt. eigenvalues --    1.89722   1.91441   1.91587   1.92907   1.93403
  Beta virt. eigenvalues --    1.94772   1.95269   1.96194   1.96830   1.97246
  Beta virt. eigenvalues --    1.98267   1.98689   1.98786   1.99929   2.00324
  Beta virt. eigenvalues --    2.00790   2.01513   2.02184   2.02533   2.02757
  Beta virt. eigenvalues --    2.04414   2.04904   2.05178   2.05352   2.06539
  Beta virt. eigenvalues --    2.07399   2.08906   2.09434   2.09561   2.10843
  Beta virt. eigenvalues --    2.11097   2.11580   2.11945   2.12672   2.13942
  Beta virt. eigenvalues --    2.14562   2.14884   2.15370   2.16282   2.16415
  Beta virt. eigenvalues --    2.18564   2.18866   2.19374   2.21145   2.21422
  Beta virt. eigenvalues --    2.21981   2.22072   2.22683   2.22911   2.24394
  Beta virt. eigenvalues --    2.25220   2.26000   2.26796   2.27057   2.27425
  Beta virt. eigenvalues --    2.28214   2.29076   2.29366   2.30092   2.30648
  Beta virt. eigenvalues --    2.31248   2.31858   2.32780   2.34156   2.35441
  Beta virt. eigenvalues --    2.36260   2.38713   2.39655   2.42427   2.43194
  Beta virt. eigenvalues --    2.43864   2.48149   2.48991   2.49664   2.50549
  Beta virt. eigenvalues --    2.53731   2.54179   2.54697   2.55210   2.56784
  Beta virt. eigenvalues --    2.56949   2.58517   2.59792   2.60106   2.62523
  Beta virt. eigenvalues --    2.63861   2.64380   2.64700   2.66558   2.66707
  Beta virt. eigenvalues --    2.67513   2.68427   2.68732   2.69327   2.69636
  Beta virt. eigenvalues --    2.69860   2.70399   2.70639   2.71391   2.73051
  Beta virt. eigenvalues --    2.73687   2.73926   2.77497   2.78455   2.79990
  Beta virt. eigenvalues --    2.82192   2.82543   2.83171   2.83655   2.84152
  Beta virt. eigenvalues --    2.84437   2.86774   2.87923   2.89808   2.91229
  Beta virt. eigenvalues --    2.92829   2.94082   2.94436   2.96867   2.98456
  Beta virt. eigenvalues --    2.98758   2.99214   3.04245   3.07445   3.09109
  Beta virt. eigenvalues --    3.23158   3.23606   3.28170   3.29953   3.30912
  Beta virt. eigenvalues --    3.31540   3.32488   3.36921   3.39046   3.50171
  Beta virt. eigenvalues --    3.51038   3.55548   4.05465   4.06799   4.07759
  Beta virt. eigenvalues --    4.09813   4.10549   4.11472   4.12070   4.14292
  Beta virt. eigenvalues --    4.15142   4.16508   4.17230   4.17395   4.21247
  Beta virt. eigenvalues --    4.24280   4.25763   4.26255   4.28660   4.30448
  Beta virt. eigenvalues --    4.32863   4.33731   4.38170   4.39692   4.43114
  Beta virt. eigenvalues --    4.45317   4.46502   4.49055   4.49460   4.50671
  Beta virt. eigenvalues --    4.59270   4.65230   4.71669   4.75124   4.76687
  Beta virt. eigenvalues --    4.84577   4.89318   4.97778
          Condensed to atoms (all electrons):
          Atomic-Atomic Spin Densities.
 Mulliken charges and spin densities:
               1          2
     1  C    0.154287   0.279594
     2  C    0.176719   0.277264
     3  C   -0.205573  -0.121441
     4  C    0.086346   0.337363
     5  C    0.082163   0.314941
     6  C   -0.191017  -0.117319
     7  H    0.199929   0.003219
     8  H    0.200391   0.002947
     9  C    0.193252  -0.071988
    10  N   -0.490035   0.166074
    11  C    0.190278  -0.076918
    12  N   -0.489736   0.175610
    13  C    0.282822  -0.029442
    14  C    0.273457  -0.029953
    15  C   -0.164275   0.100970
    16  C    0.052094   0.070060
    17  C   -0.152390   0.092973
    18  C    0.052743   0.015207
    19  C   -0.177817  -0.045884
    20  H    0.208722  -0.005046
    21  C   -0.189778  -0.026609
    22  C   -0.167642  -0.022560
    23  H    0.195686  -0.004208
    24  C   -0.190188   0.021224
    25  C   -0.169864   0.108687
    26  H    0.185926   0.001430
    27  H    0.181588   0.000856
    28  C   -0.170801   0.064933
    29  H    0.180757   0.000400
    30  H    0.180292  -0.001386
    31  H    0.179676  -0.005456
    32  H    0.176895  -0.003483
    33  C    0.275843  -0.018648
    34  C    0.280031  -0.014644
    35  C   -0.164969   0.059469
    36  C    0.038879   0.003121
    37  C   -0.174935   0.069447
    38  C    0.042233   0.058328
    39  C   -0.168830  -0.008228
    40  H    0.186213  -0.002850
    41  C   -0.183429   0.022013
    42  C   -0.179081  -0.032962
    43  H    0.202715  -0.003528
    44  C   -0.184577  -0.024131
    45  C   -0.175973   0.034796
    46  H    0.174513  -0.000017
    47  H    0.175611  -0.001264
    48  C   -0.175494   0.079257
    49  H    0.181393   0.001061
    50  H    0.176556   0.000958
    51  H    0.171906  -0.001937
    52  H    0.174996  -0.003955
    53  N   -0.668277   0.183736
    54  N   -0.680233   0.127916
 Sum of Mulliken charges =  -0.00000   2.00000
 Mulliken charges and spin densities with hydrogens summed into heavy atoms:
               1          2
     1  C    0.154287   0.279594
     2  C    0.176719   0.277264
     3  C   -0.005644  -0.118222
     4  C    0.086346   0.337363
     5  C    0.082163   0.314941
     6  C    0.009373  -0.114372
     9  C    0.193252  -0.071988
    10  N   -0.490035   0.166074
    11  C    0.190278  -0.076918
    12  N   -0.489736   0.175610
    13  C    0.282822  -0.029442
    14  C    0.273457  -0.029953
    15  C    0.044447   0.095924
    16  C    0.052094   0.070060
    17  C    0.043296   0.088764
    18  C    0.052743   0.015207
    19  C    0.008108  -0.044454
    21  C   -0.008189  -0.025753
    22  C    0.013115  -0.022160
    24  C   -0.009896   0.019839
    25  C    0.009812   0.103231
    28  C    0.006094   0.061450
    33  C    0.275843  -0.018648
    34  C    0.280031  -0.014644
    35  C    0.021245   0.056620
    36  C    0.038879   0.003121
    37  C    0.027780   0.065920
    38  C    0.042233   0.058328
    39  C    0.005684  -0.008245
    41  C   -0.007819   0.020748
    42  C    0.002311  -0.031901
    44  C   -0.008021  -0.023172
    45  C   -0.004067   0.032859
    48  C   -0.000498   0.075302
    53  N   -0.668277   0.183736
    54  N   -0.680233   0.127916
 Electronic spatial extent (au):  <R**2>=          12757.6703
 Charge=             -0.0000 electrons
 Dipole moment (field-independent basis, Debye):
    X=            -16.5415    Y=              0.7007    Z=             -0.1433  Tot=             16.5570
 Quadrupole moment (field-independent basis, Debye-Ang):
   XX=           -270.2371   YY=           -178.0463   ZZ=           -202.0338
   XY=             -0.7379   XZ=              3.5037   YZ=             18.4067
 Traceless Quadrupole moment (field-independent basis, Debye-Ang):
   XX=            -53.4647   YY=             38.7261   ZZ=             14.7386
   XY=             -0.7379   XZ=              3.5037   YZ=             18.4067
 Octapole moment (field-independent basis, Debye-Ang**2):
  XXX=           -701.1871  YYY=             14.8301  ZZZ=              0.9864  XYY=            -77.9507
  XXY=              5.7562  XXZ=              6.6214  XZZ=            -71.1469  YZZ=             -0.3293
  YYZ=              0.7267  XYZ=             29.8067
 Hexadecapole moment (field-independent basis, Debye-Ang**3):
 XXXX=         -12394.9177 YYYY=          -5374.3670 ZZZZ=          -3021.3772 XXXY=             40.8132
 XXXZ=            110.8202 YYYX=            -10.5896 YYYZ=            212.5592 ZZZX=             74.5043
 ZZZY=             16.1292 XXYY=          -2506.9044 XXZZ=          -2160.5894 YYZZ=          -1443.0948
 XXYZ=            229.4513 YYXZ=             25.4335 ZZXY=             -7.2838
 N-N= 3.658408336456D+03 E-N=-1.067167737729D+04  KE= 1.436264686514D+03
                          Isotropic Fermi Contact Couplings
        Atom                 a.u.       MegaHertz       Gauss      10(-4) cm-1
     1  C(13)              0.04684      26.32667       9.39401       8.78163
     2  C(13)              0.05209      29.28087      10.44814       9.76705
     3  C(13)             -0.03494     -19.63910      -7.00772      -6.55090
     4  C(13)              0.05049      28.37855      10.12617       9.46607
     5  C(13)              0.04654      26.15867       9.33406       8.72559
     6  C(13)             -0.03280     -18.43675      -6.57869      -6.14984
     7  H(1)               0.00109       2.43935       0.87042       0.81368
     8  H(1)               0.00096       2.15306       0.76826       0.71818
     9  C(13)             -0.02753     -15.47214      -5.52084      -5.16095
    10  N(14)              0.03347       5.40667       1.92924       1.80347
    11  C(13)             -0.02922     -16.42201      -5.85978      -5.47779
    12  N(14)              0.03534       5.70851       2.03694       1.90416
    13  C(13)              0.00024       0.13402       0.04782       0.04471
    14  C(13)             -0.00246      -1.38498      -0.49419      -0.46198
    15  C(13)              0.01792      10.07187       3.59389       3.35961
    16  C(13)              0.01160       6.52060       2.32671       2.17504
    17  C(13)              0.01753       9.85153       3.51527       3.28612
    18  C(13)              0.00017       0.09437       0.03367       0.03148
    19  C(13)             -0.01131      -6.35952      -2.26924      -2.12131
    20  H(1)              -0.00173      -3.86886      -1.38050      -1.29051
    21  C(13)             -0.00727      -4.08685      -1.45829      -1.36323
    22  C(13)             -0.00689      -3.87268      -1.38187      -1.29179
    23  H(1)              -0.00143      -3.19663      -1.14064      -1.06628
    24  C(13)              0.00197       1.10856       0.39556       0.36977
    25  C(13)              0.01869      10.50405       3.74811       3.50378
    26  H(1)               0.00046       1.02231       0.36479       0.34101
    27  H(1)               0.00031       0.69381       0.24757       0.23143
    28  C(13)              0.01025       5.76046       2.05547       1.92148
    29  H(1)               0.00025       0.55393       0.19765       0.18477
    30  H(1)              -0.00043      -0.95495      -0.34075      -0.31854
    31  H(1)              -0.00169      -3.78349      -1.35004      -1.26204
    32  H(1)              -0.00108      -2.40554      -0.85836      -0.80240
    33  C(13)              0.00018       0.10264       0.03662       0.03424
    34  C(13)              0.00464       2.60898       0.93095       0.87026
    35  C(13)              0.01147       6.44718       2.30052       2.15055
    36  C(13)             -0.00136      -0.76321      -0.27233      -0.25458
    37  C(13)              0.01220       6.85563       2.44626       2.28679
    38  C(13)              0.01027       5.77377       2.06022       1.92592
    39  C(13)             -0.00337      -1.89687      -0.67685      -0.63273
    40  H(1)              -0.00081      -1.81016      -0.64591      -0.60380
    41  C(13)              0.00285       1.60055       0.57111       0.53388
    42  C(13)             -0.00816      -4.58633      -1.63652      -1.52984
    43  H(1)              -0.00123      -2.74212      -0.97846      -0.91467
    44  C(13)             -0.00609      -3.42543      -1.22228      -1.14260
    45  C(13)              0.00518       2.91140       1.03886       0.97114
    46  H(1)               0.00011       0.23489       0.08381       0.07835
    47  H(1)              -0.00039      -0.87368      -0.31175      -0.29143
    48  C(13)              0.01364       7.66608       2.73545       2.55713
    49  H(1)               0.00034       0.75166       0.26821       0.25073
    50  H(1)               0.00034       0.75683       0.27005       0.25245
    51  H(1)              -0.00060      -1.33254      -0.47548      -0.44449
    52  H(1)              -0.00122      -2.72943      -0.97393      -0.91044
    53  N(14)              0.03997       6.45776       2.30429       2.15408
    54  N(14)              0.02657       4.29290       1.53181       1.43196
 --------------------------------------------------------
       Center         ----  Spin Dipole Couplings  ----
                      3XX-RR        3YY-RR        3ZZ-RR
 --------------------------------------------------------
     1   Atom       -0.148520      0.056893      0.091627
     2   Atom       -0.148405      0.060611      0.087794
     3   Atom        0.053373     -0.027063     -0.026310
     4   Atom       -0.182678      0.118963      0.063714
     5   Atom       -0.170392      0.112039      0.058353
     6   Atom        0.054899     -0.028572     -0.026327
     7   Atom        0.007695     -0.003913     -0.003782
     8   Atom        0.007986     -0.003938     -0.004047
     9   Atom        0.032275     -0.018083     -0.014192
    10   Atom       -0.151921      0.094566      0.057355
    11   Atom        0.037818     -0.018988     -0.018830
    12   Atom       -0.164704      0.100010      0.064694
    13   Atom        0.007780      0.009409     -0.017189
    14   Atom        0.017337     -0.003934     -0.013404
    15   Atom       -0.031533     -0.010114      0.041646
    16   Atom       -0.028151     -0.009508      0.037659
    17   Atom       -0.039722      0.002192      0.037530
    18   Atom       -0.003851     -0.003912      0.007763
    19   Atom        0.011773      0.006368     -0.018142
    20   Atom        0.004317      0.000861     -0.005178
    21   Atom        0.004294      0.005037     -0.009331
    22   Atom        0.006840     -0.000701     -0.006139
    23   Atom        0.004285     -0.002559     -0.001726
    24   Atom       -0.007821     -0.002745      0.010565
    25   Atom       -0.037786     -0.008975      0.046761
    26   Atom        0.000456      0.001392     -0.001847
    27   Atom        0.000765      0.000517     -0.001282
    28   Atom       -0.018448     -0.012755      0.031204
    29   Atom        0.000442     -0.000443      0.000000
    30   Atom        0.001765      0.000178     -0.001942
    31   Atom       -0.003781      0.005963     -0.002183
    32   Atom        0.002393     -0.002856      0.000463
    33   Atom        0.015635     -0.004458     -0.011177
    34   Atom        0.005421      0.005176     -0.010597
    35   Atom       -0.027376      0.007053      0.020322
    36   Atom       -0.000309     -0.002181      0.002489
    37   Atom       -0.025808     -0.003316      0.029124
    38   Atom       -0.025047     -0.006511      0.031558
    39   Atom        0.002414     -0.002326     -0.000088
    40   Atom        0.002461     -0.002737      0.000275
    41   Atom       -0.008090     -0.002233      0.010323
    42   Atom        0.009403      0.004354     -0.013757
    43   Atom        0.002771      0.002230     -0.005001
    44   Atom        0.005621      0.004060     -0.009681
    45   Atom       -0.010704     -0.006796      0.017500
    46   Atom       -0.000114     -0.000322      0.000435
    47   Atom        0.001742     -0.000228     -0.001515
    48   Atom       -0.030508     -0.002799      0.033307
    49   Atom        0.000287      0.001326     -0.001613
    50   Atom        0.000424      0.000723     -0.001146
    51   Atom        0.001639     -0.001797      0.000158
    52   Atom       -0.002705      0.004199     -0.001493
    53   Atom       -0.142285     -0.105589      0.247874
    54   Atom       -0.103095     -0.080383      0.183479
 --------------------------------------------------------
                        XY            XZ            YZ
 --------------------------------------------------------
     1   Atom        0.024767      0.033631      0.229755
     2   Atom       -0.020858     -0.025492      0.223064
     3   Atom       -0.002610     -0.001881     -0.060006
     4   Atom       -0.002871      0.002161      0.276837
     5   Atom        0.024156      0.017605      0.259961
     6   Atom        0.000649     -0.001364     -0.058700
     7   Atom       -0.001101      0.001052     -0.003518
     8   Atom        0.001057     -0.002090     -0.003645
     9   Atom        0.020759     -0.026400     -0.024636
    10   Atom        0.010470      0.030519      0.215983
    11   Atom       -0.024107      0.023361     -0.023841
    12   Atom        0.010754     -0.011195      0.228141
    13   Atom       -0.018474     -0.001920      0.024894
    14   Atom        0.001302      0.020405      0.018477
    15   Atom        0.020829     -0.037041     -0.053441
    16   Atom        0.005176     -0.010316     -0.042932
    17   Atom        0.013197     -0.012913     -0.062040
    18   Atom        0.002845     -0.003635     -0.010217
    19   Atom       -0.009235      0.010651      0.019804
    20   Atom       -0.001410      0.003453      0.000846
    21   Atom       -0.004913      0.007132      0.009670
    22   Atom       -0.001587      0.006615      0.008917
    23   Atom       -0.002648      0.000316      0.003319
    24   Atom        0.006371     -0.009263     -0.014560
    25   Atom        0.019347     -0.036121     -0.059410
    26   Atom       -0.001870     -0.000158      0.001094
    27   Atom       -0.000474      0.000940      0.001062
    28   Atom        0.015463     -0.024114     -0.033297
    29   Atom        0.001310      0.002261      0.001182
    30   Atom       -0.002835      0.000139      0.000196
    31   Atom       -0.005835     -0.003924      0.002393
    32   Atom        0.003901      0.004214      0.001041
    33   Atom       -0.002690     -0.014414      0.012632
    34   Atom        0.015161      0.007847      0.017717
    35   Atom       -0.005568      0.002077     -0.042962
    36   Atom        0.000006     -0.001063     -0.004165
    37   Atom       -0.011997      0.021193     -0.039190
    38   Atom       -0.000040      0.001280     -0.038845
    39   Atom       -0.000446     -0.002873      0.002679
    40   Atom        0.000996     -0.000715      0.002998
    41   Atom       -0.005075      0.007227     -0.014668
    42   Atom        0.005974     -0.005866      0.015292
    43   Atom        0.000605     -0.002193      0.001058
    44   Atom        0.004859     -0.005626      0.010185
    45   Atom       -0.008010      0.011520     -0.018763
    46   Atom       -0.001261     -0.002035      0.001049
    47   Atom        0.002433     -0.000150     -0.000056
    48   Atom       -0.011196      0.021312     -0.045373
    49   Atom        0.001388      0.000242      0.000954
    50   Atom        0.000757     -0.000516      0.000755
    51   Atom       -0.002284     -0.002900      0.000627
    52   Atom        0.004600      0.002964      0.001860
    53   Atom        0.106970     -0.209284     -0.250553
    54   Atom       -0.076638      0.154274     -0.181683
 --------------------------------------------------------


 ---------------------------------------------------------------------------------
              Anisotropic Spin Dipole Couplings in Principal Axis System
 ---------------------------------------------------------------------------------

       Atom             a.u.   MegaHertz   Gauss  10(-4) cm-1        Axes

              Baa    -0.1593   -21.375    -7.627    -7.130 -0.5541 -0.5756  0.6013
     1 C(13)  Bbb    -0.1492   -20.015    -7.142    -6.676  0.8275 -0.4594  0.3228
              Bcc     0.3084    41.390    14.769    13.806  0.0905  0.6765  0.7309
 
              Baa    -0.1524   -20.456    -7.299    -6.824  0.8104 -0.3840  0.4425
     2 C(13)  Bbb    -0.1476   -19.813    -7.070    -6.609  0.5813  0.6212 -0.5256
              Bcc     0.3001    40.269    14.369    13.432 -0.0731  0.6832  0.7266
 
              Baa    -0.0868   -11.643    -4.155    -3.884  0.0227  0.7092  0.7046
     3 C(13)  Bbb     0.0333     4.470     1.595     1.491 -0.0251 -0.7042  0.7096
              Bcc     0.0535     7.174     2.560     2.393  0.9994 -0.0337  0.0018
 
              Baa    -0.1889   -25.346    -9.044    -8.455 -0.4945 -0.5837  0.6440
     4 C(13)  Bbb    -0.1807   -24.244    -8.651    -8.087  0.8692 -0.3311  0.3674
              Bcc     0.3696    49.590    17.695    16.542 -0.0012  0.7414  0.6711
 
              Baa    -0.1778   -23.863    -8.515    -7.960  0.4753 -0.6091  0.6349
     5 C(13)  Bbb    -0.1704   -22.868    -8.160    -7.628  0.8780  0.2814 -0.3873
              Bcc     0.3482    46.731    16.675    15.588  0.0572  0.7415  0.6685
 
              Baa    -0.0862   -11.562    -4.126    -3.857  0.0035  0.7138  0.7003
     6 C(13)  Bbb     0.0312     4.183     1.493     1.395  0.0601 -0.6992  0.7124
              Bcc     0.0550     7.379     2.633     2.461  0.9982  0.0396 -0.0453
 
              Baa    -0.0074    -3.930    -1.402    -1.311  0.0033  0.7141  0.7000
     7 H(1)   Bbb    -0.0006    -0.324    -0.116    -0.108 -0.1803 -0.6881  0.7029
              Bcc     0.0080     4.254     1.518     1.419  0.9836 -0.1285  0.1265
 
              Baa    -0.0077    -4.095    -1.461    -1.366  0.0498  0.6901  0.7220
     8 H(1)   Bbb    -0.0009    -0.479    -0.171    -0.160 -0.2402  0.7099 -0.6620
              Bcc     0.0086     4.574     1.632     1.526  0.9694  0.1405 -0.2011
 
              Baa    -0.0410    -5.501    -1.963    -1.835  0.0526  0.7088  0.7034
     9 C(13)  Bbb    -0.0150    -2.012    -0.718    -0.671 -0.5747  0.5976 -0.5591
              Bcc     0.0560     7.513     2.681     2.506  0.8167  0.3748 -0.4388
 
              Baa    -0.1639    -6.323    -2.256    -2.109  0.8311  0.3364 -0.4429
    10 N(14)  Bbb    -0.1306    -5.037    -1.797    -1.680 -0.5525  0.5902 -0.5885
              Bcc     0.2945    11.360     4.054     3.789  0.0634  0.7338  0.6764
 
              Baa    -0.0428    -5.737    -2.047    -1.914  0.0102  0.7133  0.7008
    11 C(13)  Bbb    -0.0160    -2.147    -0.766    -0.716 -0.5291 -0.5908  0.6091
              Bcc     0.0588     7.884     2.813     2.630  0.8485 -0.3770  0.3713
 
              Baa    -0.1736    -6.695    -2.389    -2.233  0.8679 -0.3378  0.3642
    12 N(14)  Bbb    -0.1376    -5.306    -1.893    -1.770 -0.4968 -0.5893  0.6371
              Bcc     0.3112    12.001     4.282     4.003  0.0006  0.7339  0.6793
 
              Baa    -0.0338    -4.535    -1.618    -1.513 -0.2088 -0.5538  0.8061
    13 C(13)  Bbb    -0.0013    -0.172    -0.061    -0.057  0.8174  0.3536  0.4547
              Bcc     0.0351     4.707     1.679     1.570 -0.5369  0.7538  0.3788
 
              Baa    -0.0329    -4.408    -1.573    -1.470 -0.3148 -0.5010  0.8062
    14 C(13)  Bbb     0.0024     0.316     0.113     0.106 -0.4945  0.8116  0.3112
              Bcc     0.0305     4.092     1.460     1.365  0.8102  0.3007  0.5032
 
              Baa    -0.0473    -6.353    -2.267    -2.119  0.8408  0.2318  0.4892
    15 C(13)  Bbb    -0.0426    -5.721    -2.041    -1.908 -0.4293  0.8361  0.3415
              Bcc     0.0900    12.074     4.308     4.027 -0.3299 -0.4971  0.8025
 
              Baa    -0.0350    -4.700    -1.677    -1.568  0.1430  0.8431  0.5183
    16 C(13)  Bbb    -0.0295    -3.954    -1.411    -1.319  0.9820 -0.1861  0.0319
              Bcc     0.0645     8.654     3.088     2.887 -0.1233 -0.5044  0.8546
 
              Baa    -0.0465    -6.234    -2.224    -2.079 -0.5478  0.7110  0.4410
    17 C(13)  Bbb    -0.0405    -5.441    -1.941    -1.815  0.8244  0.3688  0.4294
              Bcc     0.0870    11.675     4.166     3.894 -0.1427 -0.5987  0.7881
 
              Baa    -0.0099    -1.331    -0.475    -0.444 -0.1217  0.8700  0.4777
    18 C(13)  Bbb    -0.0049    -0.657    -0.234    -0.219  0.9636 -0.0119  0.2671
              Bcc     0.0148     1.988     0.709     0.663 -0.2381 -0.4928  0.8369
 
              Baa    -0.0334    -4.483    -1.600    -1.495 -0.2930 -0.4798  0.8270
    19 C(13)  Bbb     0.0139     1.859     0.663     0.620  0.7530  0.4172  0.5089
              Bcc     0.0196     2.624     0.936     0.875 -0.5892  0.7719  0.2391
 
              Baa    -0.0065    -3.475    -1.240    -1.159 -0.3193 -0.1680  0.9326
    20 H(1)   Bbb     0.0008     0.440     0.157     0.147  0.1617  0.9601  0.2283
              Bcc     0.0057     3.035     1.083     1.012  0.9338 -0.2237  0.2794
 
              Baa    -0.0176    -2.357    -0.841    -0.786 -0.3660 -0.4321  0.8242
    21 C(13)  Bbb     0.0072     0.968     0.345     0.323  0.8591  0.1836  0.4777
              Bcc     0.0104     1.390     0.496     0.464 -0.3578  0.8829  0.3040
 
              Baa    -0.0146    -1.959    -0.699    -0.654 -0.2843 -0.5405  0.7919
    22 C(13)  Bbb     0.0044     0.591     0.211     0.197 -0.4832  0.7941  0.3686
              Bcc     0.0102     1.368     0.488     0.456  0.8280  0.2779  0.4870
 
              Baa    -0.0060    -3.186    -1.137    -1.063  0.2154  0.7616 -0.6112
    23 H(1)   Bbb     0.0007     0.362     0.129     0.121  0.3242  0.5346  0.7804
              Bcc     0.0053     2.824     1.008     0.942  0.9211 -0.3663 -0.1317
 
              Baa    -0.0123    -1.652    -0.590    -0.551 -0.5139  0.8027  0.3027
    24 C(13)  Bbb    -0.0116    -1.555    -0.555    -0.519  0.7902  0.3055  0.5313
              Bcc     0.0239     3.207     1.144     1.070 -0.3339 -0.5122  0.7913
 
              Baa    -0.0518    -6.957    -2.482    -2.321  0.8322  0.2842  0.4761
    25 C(13)  Bbb    -0.0451    -6.048    -2.158    -2.018 -0.4724  0.8131  0.3402
              Bcc     0.0969    13.005     4.641     4.338 -0.2904 -0.5080  0.8109
 
              Baa    -0.0023    -1.209    -0.431    -0.403 -0.2054 -0.3753  0.9038
    26 H(1)   Bbb    -0.0008    -0.414    -0.148    -0.138  0.7866  0.4862  0.3807
              Bcc     0.0030     1.623     0.579     0.542 -0.5823  0.7891  0.1954
 
              Baa    -0.0022    -1.149    -0.410    -0.383 -0.3393 -0.3989  0.8519
    27 H(1)   Bbb     0.0010     0.534     0.191     0.178  0.2093  0.8509  0.4818
              Bcc     0.0012     0.615     0.219     0.205  0.9171 -0.3418  0.2052
 
              Baa    -0.0320    -4.298    -1.534    -1.434 -0.5183  0.8222  0.2353
    28 C(13)  Bbb    -0.0276    -3.697    -1.319    -1.233  0.7830  0.3456  0.5172
              Bcc     0.0596     7.996     2.853     2.667 -0.3439 -0.4523  0.8229
 
              Baa    -0.0021    -1.094    -0.390    -0.365 -0.6731  0.0044  0.7395
    29 H(1)   Bbb    -0.0013    -0.678    -0.242    -0.226 -0.3113  0.9054 -0.2887
              Bcc     0.0033     1.772     0.632     0.591  0.6709  0.4245  0.6081
 
              Baa    -0.0022    -1.173    -0.418    -0.391 -0.4398 -0.5812  0.6847
    30 H(1)   Bbb    -0.0017    -0.916    -0.327    -0.306  0.4146  0.5449  0.7288
              Bcc     0.0039     2.089     0.745     0.697  0.7967 -0.6044 -0.0013
 
              Baa    -0.0079    -4.193    -1.496    -1.399  0.8412  0.2745  0.4659
    31 H(1)   Bbb    -0.0021    -1.113    -0.397    -0.371 -0.3062 -0.4684  0.8288
              Bcc     0.0099     5.305     1.893     1.770 -0.4457  0.8398  0.3100
 
              Baa    -0.0052    -2.788    -0.995    -0.930 -0.5511  0.7918  0.2634
    32 H(1)   Bbb    -0.0019    -1.029    -0.367    -0.343 -0.3321 -0.4977  0.8013
              Bcc     0.0072     3.817     1.362     1.273  0.7655  0.3541  0.5372
 
              Baa    -0.0236    -3.169    -1.131    -1.057  0.2671 -0.5041  0.8213
    33 C(13)  Bbb    -0.0005    -0.064    -0.023    -0.021  0.4536  0.8177  0.3544
              Bcc     0.0241     3.233     1.154     1.078  0.8503 -0.2779 -0.4470
 
              Baa    -0.0222    -2.985    -1.065    -0.996  0.0825 -0.5727  0.8156
    34 C(13)  Bbb    -0.0067    -0.903    -0.322    -0.301  0.8062 -0.4428 -0.3924
              Bcc     0.0290     3.887     1.387     1.297  0.5859  0.6899  0.4251
 
              Baa    -0.0318    -4.266    -1.522    -1.423  0.5726  0.6437  0.5078
    35 C(13)  Bbb    -0.0257    -3.447    -1.230    -1.150  0.8176 -0.4020 -0.4123
              Bcc     0.0575     7.713     2.752     2.573  0.0613 -0.6512  0.7564
 
              Baa    -0.0047    -0.629    -0.224    -0.210  0.1231  0.8503  0.5118
    36 C(13)  Bbb    -0.0004    -0.054    -0.019    -0.018  0.9779 -0.1918  0.0834
              Bcc     0.0051     0.683     0.244     0.228 -0.1690 -0.4902  0.8551
 
              Baa    -0.0333    -4.471    -1.595    -1.491  0.8773 -0.2118 -0.4307
    37 C(13)  Bbb    -0.0287    -3.854    -1.375    -1.286  0.3991  0.8203  0.4096
              Bcc     0.0620     8.325     2.970     2.777  0.2666 -0.5312  0.8042
 
              Baa    -0.0308    -4.134    -1.475    -1.379 -0.1114  0.8425  0.5271
    38 C(13)  Bbb    -0.0250    -3.353    -1.197    -1.119  0.9937  0.1017  0.0474
              Bcc     0.0558     7.487     2.672     2.498  0.0137 -0.5290  0.8485
 
              Baa    -0.0044    -0.587    -0.209    -0.196 -0.2106  0.7593 -0.6157
    39 C(13)  Bbb    -0.0004    -0.059    -0.021    -0.020  0.6159  0.5922  0.5196
              Bcc     0.0048     0.646     0.230     0.215  0.7592 -0.2697 -0.5924
 
              Baa    -0.0048    -2.557    -0.912    -0.853 -0.1663  0.8382 -0.5194
    40 H(1)   Bbb     0.0021     1.127     0.402     0.376  0.1479  0.5420  0.8273
              Bcc     0.0027     1.430     0.510     0.477  0.9749  0.0608 -0.2141
 
              Baa    -0.0120    -1.604    -0.572    -0.535  0.1763  0.8474  0.5008
    41 C(13)  Bbb    -0.0106    -1.421    -0.507    -0.474  0.9446 -0.0025 -0.3282
              Bcc     0.0225     3.025     1.079     1.009  0.2769 -0.5309  0.8009
 
              Baa    -0.0244    -3.274    -1.168    -1.092  0.2327 -0.4939  0.8378
    42 C(13)  Bbb     0.0098     1.316     0.470     0.439  0.8023 -0.3895 -0.4524
              Bcc     0.0146     1.958     0.699     0.653  0.5497  0.7774  0.3056
 
              Baa    -0.0058    -3.068    -1.095    -1.023  0.2563 -0.1461  0.9555
    43 H(1)   Bbb     0.0023     1.232     0.440     0.411 -0.2429  0.9470  0.2100
              Bcc     0.0034     1.836     0.655     0.612  0.9356  0.2860 -0.2072
 
              Baa    -0.0174    -2.334    -0.833    -0.778  0.3016 -0.4639  0.8330
    44 C(13)  Bbb     0.0069     0.931     0.332     0.310  0.8085 -0.3386 -0.4813
              Bcc     0.0105     1.403     0.501     0.468  0.5053  0.8186  0.2729
 
              Baa    -0.0178    -2.392    -0.854    -0.798  0.4689  0.8342  0.2902
    45 C(13)  Bbb    -0.0144    -1.934    -0.690    -0.645  0.8274 -0.2998 -0.4749
              Bcc     0.0322     4.326     1.544     1.443  0.3092 -0.4628  0.8308
 
              Baa    -0.0020    -1.045    -0.373    -0.349  0.7891  0.2475  0.5622
    46 H(1)   Bbb    -0.0010    -0.558    -0.199    -0.186  0.0832  0.8637 -0.4970
              Bcc     0.0030     1.604     0.572     0.535 -0.6086  0.4390  0.6610
 
              Baa    -0.0019    -0.998    -0.356    -0.333 -0.5583  0.8228 -0.1059
    47 H(1)   Bbb    -0.0015    -0.809    -0.289    -0.270 -0.0329  0.1055  0.9939
              Bcc     0.0034     1.807     0.645     0.603  0.8290  0.5584 -0.0318
 
              Baa    -0.0378    -5.077    -1.812    -1.694  0.8284 -0.3256 -0.4558
    48 C(13)  Bbb    -0.0320    -4.289    -1.530    -1.431  0.5098  0.7754  0.3726
              Bcc     0.0698     9.366     3.342     3.124  0.2321 -0.5410  0.8083
 
              Baa    -0.0019    -1.020    -0.364    -0.340  0.0982 -0.3198  0.9424
    49 H(1)   Bbb    -0.0006    -0.313    -0.112    -0.104  0.8386 -0.4833 -0.2514
              Bcc     0.0025     1.332     0.475     0.444  0.5358  0.8150  0.2207
 
              Baa    -0.0017    -0.900    -0.321    -0.300  0.3457 -0.3779  0.8589
    50 H(1)   Bbb     0.0003     0.165     0.059     0.055  0.7417 -0.4507 -0.4968
              Bcc     0.0014     0.734     0.262     0.245  0.5748  0.8088  0.1245
 
              Baa    -0.0032    -1.712    -0.611    -0.571  0.5601  0.7546  0.3419
    51 H(1)   Bbb    -0.0014    -0.769    -0.274    -0.256  0.2992 -0.5691  0.7659
              Bcc     0.0046     2.481     0.885     0.827  0.7725 -0.3267 -0.5445
 
              Baa    -0.0059    -3.149    -1.124    -1.050  0.8451 -0.3039 -0.4399
    52 H(1)   Bbb    -0.0016    -0.863    -0.308    -0.288  0.2646 -0.4773  0.8380
              Bcc     0.0075     4.012     1.431     1.338  0.4646  0.8246  0.3229
 
              Baa    -0.2360    -9.101    -3.247    -3.036  0.3417  0.7660  0.5445
    53 N(14)  Bbb    -0.2323    -8.958    -3.197    -2.988  0.8684 -0.4789  0.1286
              Bcc     0.4682    18.059     6.444     6.024 -0.3593 -0.4289  0.8288
 
              Baa    -0.1737    -6.698    -2.390    -2.234 -0.3566  0.7614  0.5414
    54 N(14)  Bbb    -0.1690    -6.517    -2.325    -2.174  0.8619  0.4917 -0.1238
              Bcc     0.3426    13.215     4.715     4.408  0.3605 -0.4225  0.8316
 

 ---------------------------------------------------------------------------------

 Calling FoFJK, ICntrl=      2127 FMM=F ISym2X=0 I1Cent= 0 IOpClX= 1 NMat=1 NMatS=1 NMatT=0.
 -------------------------------------------------------------------
 Center     Atomic                   Forces (Hartrees/Bohr)
 Number     Number              X              Y              Z
 -------------------------------------------------------------------
      1        6          -0.005719687    0.008861186   -0.004753972
      2        6          -0.002918012   -0.008516865    0.003609663
      3        6          -0.000425912   -0.003525211   -0.000757515
      4        6           0.001093576   -0.006164148    0.006846406
      5        6           0.001977837    0.006307092   -0.007028117
      6        6          -0.000548854    0.003111593    0.002172202
      7        1          -0.000171966   -0.000022249    0.000369310
      8        1          -0.000507650   -0.000066826   -0.000021920
      9        6          -0.002022852   -0.001819747    0.001017492
     10        7           0.000929107    0.000428622    0.000054304
     11        6          -0.002623641    0.001555751   -0.000729559
     12        7           0.001055203   -0.000634912    0.000320758
     13        6          -0.000852131    0.010946706   -0.000098556
     14        6          -0.003008772   -0.004301174    0.001534683
     15        6          -0.002341448   -0.001613211   -0.002585980
     16        6           0.004195478   -0.002481256   -0.000633350
     17        6          -0.002180732    0.000907147   -0.000786525
     18        6           0.001957873    0.000151534    0.001817262
     19        6          -0.000610226   -0.000108801   -0.000287767
     20        1           0.000390135   -0.000288422    0.000546994
     21        6           0.000650994    0.003503838    0.002801994
     22        6           0.003134546   -0.000165876    0.000876014
     23        1           0.000599815   -0.000057573   -0.000721630
     24        6          -0.001852477   -0.003328819   -0.002245045
     25        6          -0.002028944   -0.001142709   -0.001049452
     26        1          -0.000022814    0.000165459    0.000279634
     27        1          -0.000263627   -0.000258316    0.000078106
     28        6          -0.001511343    0.003284998    0.001798915
     29        1          -0.000015828   -0.000063042   -0.000381493
     30        1           0.000031509   -0.000043909    0.000018024
     31        1          -0.000178130    0.000064828   -0.000020390
     32        1          -0.000250028   -0.000131890    0.000232416
     33        6          -0.002365405    0.002666800   -0.001456658
     34        6          -0.001277308   -0.008720506    0.000050770
     35        6          -0.000134502   -0.000149594    0.000384065
     36        6          -0.000387419    0.001157008    0.000352783
     37        6          -0.001282819    0.001181159    0.002028302
     38        6           0.002855320   -0.000561132   -0.000522242
     39        6           0.000829085    0.000117301    0.000039831
     40        1           0.000375466    0.000096932    0.000220300
     41        6           0.000270401   -0.000481678   -0.000606228
     42        6          -0.001191738   -0.000276541    0.000227380
     43        1           0.000363705    0.000415596   -0.000531632
     44        6           0.000260586   -0.000120895   -0.000307913
     45        6           0.000818602    0.000388856   -0.000314101
     46        1           0.000224407    0.000054878    0.000017983
     47        1           0.000214607    0.000235806   -0.000093104
     48        6           0.000818227    0.000314537   -0.000105161
     49        1           0.000064396   -0.000041769   -0.000457773
     50        1          -0.000019804    0.000156504   -0.000002712
     51        1          -0.000016604    0.000348487   -0.000271983
     52        1          -0.000052439   -0.000099876    0.000013582
     53        7           0.008098911   -0.005807720   -0.000467970
     54        7           0.005573329    0.004572051   -0.000470421
 -------------------------------------------------------------------
 Cartesian Forces:  Max     0.010946706 RMS     0.002488542

 GradGradGradGradGradGradGradGradGradGradGradGradGradGradGradGradGradGrad
 Berny optimization.
 Search for a local minimum.
 Step number   1 out of a maximum of    2
 All quantities printed in internal units (Hartrees-Bohrs-Radians)
 Second derivative matrix not updated -- first step.
 ITU=  0
     Eigenvalues ---    0.00008   0.00009   0.00022   0.00075   0.00078
     Eigenvalues ---    0.00113   0.00182   0.00264   0.00292   0.00301
     Eigenvalues ---    0.00322   0.00447   0.00716   0.00850   0.00935
     Eigenvalues ---    0.01017   0.01228   0.01232   0.01241   0.01251
     Eigenvalues ---    0.01675   0.02384   0.02427   0.02541   0.02600
     Eigenvalues ---    0.02609   0.02621   0.02722   0.02947   0.03425
     Eigenvalues ---    0.03441   0.03630   0.04610   0.04651   0.04701
     Eigenvalues ---    0.04982   0.06575   0.06753   0.07000   0.07010
     Eigenvalues ---    0.07024   0.07028   0.07055   0.07063   0.07103
     Eigenvalues ---    0.07112   0.07451   0.07908   0.07918   0.07952
     Eigenvalues ---    0.08599   0.08987   0.09464   0.10176   0.10556
     Eigenvalues ---    0.10686   0.10774   0.10781   0.11074   0.12470
     Eigenvalues ---    0.12515   0.12521   0.12630   0.12847   0.13608
     Eigenvalues ---    0.13718   0.13879   0.15004   0.15079   0.15281
     Eigenvalues ---    0.17695   0.18306   0.19513   0.19660   0.21198
     Eigenvalues ---    0.21853   0.23561   0.24058   0.26505   0.27651
     Eigenvalues ---    0.28054   0.28178   0.29752   0.30092   0.30800
     Eigenvalues ---    0.30974   0.31625   0.32915   0.35675   0.35804
     Eigenvalues ---    0.35818   0.36408   0.38209   0.40899   0.42842
     Eigenvalues ---    0.43043   0.43142   0.43365   0.45937   0.47647
     Eigenvalues ---    0.48255   0.49793   0.50442   0.50616   0.50785
     Eigenvalues ---    0.52544   0.53274   0.59342   0.60321   0.62259
     Eigenvalues ---    0.64128   0.71401   0.71422   0.74318   0.77990
     Eigenvalues ---    0.81933   0.82464   0.89792   0.90498   0.94748
     Eigenvalues ---    1.02895   1.06582   1.11037   1.12865   1.14238
     Eigenvalues ---    1.15178   1.15216   1.15425   1.19262   1.20058
     Eigenvalues ---    1.26333   1.29933   1.30684   1.39714   1.39933
     Eigenvalues ---    1.41121   1.43338   1.48771   1.49144   1.49773
     Eigenvalues ---    1.49964   1.50047   1.54398   1.58698   1.64575
     Eigenvalues ---    1.65125   1.66863   1.69665   1.71154   1.74180
     Eigenvalues ---    1.75963   1.76559   2.80237   2.80601  39.90474
     Eigenvalues ---  177.67922
 Eigenvalue     1 is   7.94D-05 Eigenvector:
                          Z51       Z46       Z32       Z45       X49
   1                    0.20969   0.18451  -0.17964   0.16936  -0.16717
                          X46       X29       X52       X26       Z39
   1                    0.16582   0.16132  -0.15958  -0.15920   0.15492
 Eigenvalue     2 is   9.27D-05 Eigenvector:
                          Z26       Z29       Z31       Z52       Z49
   1                    0.21998  -0.21873   0.21644   0.21479   0.20710
                          Z46       Z19       Z32       Z48       Z25
   1                   -0.18087   0.16969  -0.16809   0.16800   0.16785
 Quadratic step=5.071D+00 exceeds max=3.000D-01 adjusted using Lamda=-7.450D-03.
 Angle between NR and scaled steps=  51.82 degrees.
 Angle between quadratic step and forces=  75.03 degrees.
 Linear search not attempted -- first point.
 B after Tr=     0.000472   -0.000649    0.000601
         Rot=    1.000000    0.000073    0.000120    0.000039 Ang=   0.02 deg.
 Variable       Old X    -DE/DX   Delta X   Delta X   Delta X     New X
                                 (Linear)    (Quad)   (Total)
    X1        2.65608  -0.00572   0.00000  -0.00291  -0.00215   2.65393
    Y1        0.93238   0.00886   0.00000   0.03187   0.03088   0.96326
    Z1       -0.91526  -0.00475   0.00000   0.01239   0.01348  -0.90177
    X2        2.69017  -0.00292   0.00000  -0.00252  -0.00237   2.68780
    Y2       -0.94439  -0.00852   0.00000  -0.03774  -0.03845  -0.98284
    Z2        1.06251   0.00361   0.00000  -0.02562  -0.02423   1.03828
    X3        4.97733  -0.00043   0.00000  -0.00906  -0.00919   4.96814
    Y3       -1.83604  -0.00353   0.00000  -0.06511  -0.06588  -1.90192
    Z3        1.93211  -0.00076   0.00000  -0.03684  -0.03476   1.89735
    X4        7.26838   0.00109   0.00000  -0.00841  -0.00824   7.26013
    Y4       -0.93487  -0.00616   0.00000  -0.02978  -0.03086  -0.96573
    Z4        0.95082   0.00685   0.00000  -0.00240   0.00008   0.95090
    X5        7.21334   0.00198   0.00000  -0.00270  -0.00189   7.21145
    Y5        0.92522   0.00631   0.00000   0.02627   0.02489   0.95012
    Z5       -1.09132  -0.00703   0.00000   0.01750   0.01969  -1.07163
    X6        4.88211  -0.00055   0.00000  -0.00095   0.00012   4.88223
    Y6        1.83136   0.00311   0.00000   0.06357   0.06226   1.89362
    Z6       -1.93142   0.00217   0.00000   0.04557   0.04707  -1.88436
    X7        5.01320  -0.00017   0.00000  -0.01517  -0.01577   4.99743
    Y7       -3.28586  -0.00002   0.00000  -0.07828  -0.07883  -3.36468
    Z7        3.38559   0.00037   0.00000  -0.04933  -0.04704   3.33854
    X8        4.82883  -0.00051   0.00000  -0.00351  -0.00197   4.82686
    Y8        3.26419  -0.00007   0.00000   0.08243   0.08092   3.34510
    Z8       -3.40178  -0.00002   0.00000   0.06444   0.06571  -3.33608
    X9        9.45034  -0.00202   0.00000   0.00104   0.00219   9.45253
    Y9        1.82502  -0.00182   0.00000   0.01423   0.01251   1.83753
    Z9       -2.26027   0.00102   0.00000   0.02488   0.02748  -2.23279
   X10       11.24716   0.00093   0.00000   0.00960   0.01106  11.25822
   Y10        2.59726   0.00043   0.00000   0.00553   0.00352   2.60078
   Z10       -3.26392   0.00005   0.00000   0.03191   0.03483  -3.22909
   X11        9.57963  -0.00262   0.00000  -0.01117  -0.01131   9.56831
   Y11       -1.85291   0.00156   0.00000  -0.02216  -0.02327  -1.87618
   Z11        1.94273  -0.00073   0.00000  -0.00034   0.00283   1.94556
   X12       11.46096   0.00106   0.00000  -0.00861  -0.00902  11.45194
   Y12       -2.62750  -0.00063   0.00000  -0.01681  -0.01795  -2.64545
   Z12        2.77580   0.00032   0.00000   0.00148   0.00522   2.78102
   X13       -0.61811  -0.00085   0.00000   0.00931   0.01025  -0.60786
   Y13        4.25250   0.01095   0.00000   0.04686   0.04618   4.29867
   Z13       -0.52460  -0.00010   0.00000  -0.02934  -0.02951  -0.55411
   X14       -1.65473  -0.00301   0.00000  -0.00314  -0.00190  -1.65664
   Y14        0.89792  -0.00430   0.00000  -0.00731  -0.00825   0.88966
   Z14       -2.90369   0.00153   0.00000   0.02783   0.02790  -2.87578
   X15        0.69365  -0.00234   0.00000  -0.00321  -0.00250   0.69115
   Y15        5.97966  -0.00161   0.00000   0.04820   0.04764   6.02730
   Z15        0.99501  -0.00259   0.00000  -0.03371  -0.03383   0.96118
   X16       -3.18425   0.00420   0.00000   0.00428   0.00541  -3.17884
   Y16        4.60082  -0.00248   0.00000   0.01403   0.01345   4.61427
   Z16       -1.22763  -0.00063   0.00000  -0.00195  -0.00279  -1.23042
   X17       -1.57204  -0.00218   0.00000  -0.00017   0.00121  -1.57082
   Y17       -1.36598   0.00091   0.00000   0.00354   0.00240  -1.36359
   Z17       -4.24450  -0.00079   0.00000   0.01162   0.01204  -4.23245
   X18       -3.84966   0.00196   0.00000  -0.00134  -0.00002  -3.84969
   Y18        2.41809   0.00015   0.00000  -0.00579  -0.00654   2.41155
   Z18       -2.77460   0.00182   0.00000   0.02611   0.02543  -2.74916
   X19       -0.62585  -0.00061   0.00000  -0.01757  -0.01689  -0.64274
   Y19        8.09770  -0.00011   0.00000   0.03335   0.03302   8.13071
   Z19        1.80117  -0.00029   0.00000  -0.01695  -0.01769   1.78347
   X20        2.66103   0.00039   0.00000  -0.00427  -0.00370   2.65734
   Y20        5.66238  -0.00029   0.00000   0.04728   0.04663   5.70901
   Z20        1.47711   0.00055   0.00000  -0.02200  -0.02159   1.45552
   X21       -4.45544   0.00065   0.00000  -0.01118  -0.01009  -4.46553
   Y21        6.73106   0.00350   0.00000   0.00753   0.00718   6.73824
   Z21       -0.39530   0.00280   0.00000   0.00711   0.00565  -0.38965
   X22       -3.79154   0.00313   0.00000   0.00162   0.00323  -3.78831
   Y22       -2.12610  -0.00017   0.00000   0.00173   0.00058  -2.12551
   Z22       -5.45571   0.00088   0.00000   0.01733   0.01733  -5.43838
   X23        0.15552   0.00060   0.00000   0.00893   0.01026   0.16578
   Y23       -2.45972  -0.00006   0.00000   0.01791   0.01661  -2.44310
   Z23       -4.35204  -0.00072   0.00000  -0.01917  -0.01817  -4.37022
   X24       -6.00970  -0.00185   0.00000  -0.00918  -0.00762  -6.01733
   Y24        1.65295  -0.00333   0.00000  -0.01542  -0.01619   1.63676
   Z24       -4.03318  -0.00225   0.00000   0.03535   0.03427  -3.99891
   X25       -3.15814  -0.00203   0.00000  -0.02377  -0.02290  -3.18104
   Y25        8.47008  -0.00114   0.00000   0.01661   0.01638   8.48645
   Z25        1.11885  -0.00105   0.00000  -0.00268  -0.00409   1.11476
   X26        0.32259  -0.00002   0.00000  -0.02428  -0.02377   0.29882
   Y26        9.49351   0.00017   0.00000   0.03000   0.02977   9.52328
   Z26        2.96419   0.00028   0.00000  -0.00636  -0.00708   2.95711
   X27       -6.41655  -0.00026   0.00000  -0.01965  -0.01841  -6.43496
   Y27        7.05953  -0.00026   0.00000  -0.01626  -0.01653   7.04301
   Z27       -0.89854   0.00008   0.00000   0.02323   0.02125  -0.87729
   X28       -5.96515  -0.00151   0.00000  -0.00906  -0.00736  -5.97251
   Y28       -0.64137   0.00328   0.00000  -0.00891  -0.00987  -0.65124
   Z28       -5.36660   0.00180   0.00000   0.03713   0.03639  -5.33021
   X29       -3.80552  -0.00002   0.00000   0.00658   0.00830  -3.79722
   Y29       -3.89624  -0.00006   0.00000   0.01121   0.00991  -3.88633
   Z29       -6.48886  -0.00038   0.00000  -0.00073  -0.00047  -6.48933
   X30       -7.71409   0.00003   0.00000  -0.00900  -0.00736  -7.72145
   Y30        2.79482  -0.00004   0.00000  -0.01531  -0.01593   2.77889
   Z30       -3.99306   0.00002   0.00000   0.03350   0.03184  -3.96122
   X31       -4.13370  -0.00018   0.00000  -0.03481  -0.03397  -4.16767
   Y31       10.14933   0.00006   0.00000   0.00668   0.00662  10.15595
   Z31        1.77680  -0.00002   0.00000   0.00592   0.00403   1.78083
   X32       -7.64938  -0.00025   0.00000  -0.01165  -0.00976  -7.65914
   Y32       -1.25666  -0.00013   0.00000  -0.01225  -0.01323  -1.26988
   Z32       -6.36034   0.00023   0.00000   0.04249   0.04144  -6.31890
   X33       -1.65000  -0.00237   0.00000   0.00672   0.00640  -1.64360
   Y33       -0.91992   0.00267   0.00000   0.00359   0.00351  -0.91641
   Z33        3.03249  -0.00146   0.00000  -0.03294  -0.03260   2.99989
   X34       -0.57133  -0.00128   0.00000   0.00690   0.00687  -0.56446
   Y34       -4.27268  -0.00872   0.00000  -0.04549  -0.04599  -4.31867
   Z34        0.66016   0.00005   0.00000   0.01440   0.01550   0.67566
   X35       -1.61999  -0.00013   0.00000   0.02145   0.02097  -1.59902
   Y35        1.31289  -0.00015   0.00000   0.00143   0.00155   1.31444
   Z35        4.42700   0.00038   0.00000  -0.02815  -0.02813   4.39887
   X36       -3.86040  -0.00039   0.00000   0.00772   0.00734  -3.85306
   Y36       -2.39453   0.00116   0.00000   0.00160   0.00166  -2.39287
   Z36        2.77312   0.00035   0.00000  -0.01997  -0.01995   2.75317
   X37        0.74165  -0.00128   0.00000   0.00181   0.00200   0.74366
   Y37       -6.02701   0.00118   0.00000  -0.04206  -0.04288  -6.06989
   Z37       -0.82646   0.00203   0.00000   0.01698   0.01865  -0.80781
   X38       -3.17410   0.00286   0.00000   0.00780   0.00761  -3.16649
   Y38       -4.55670  -0.00056   0.00000  -0.02089  -0.02111  -4.57781
   Z38        1.23053  -0.00052   0.00000   0.00299   0.00350   1.23402
   X39       -3.88101   0.00083   0.00000   0.02772   0.02703  -3.85398
   Y39        2.07055   0.00012   0.00000   0.01024   0.01070   2.08125
   Z39        5.54912   0.00004   0.00000  -0.02499  -0.02562   5.52350
   X40        0.11220   0.00038   0.00000   0.02847   0.02801   0.14022
   Y40        2.38371   0.00010   0.00000  -0.01039  -0.01037   2.37334
   Z40        4.65704   0.00022   0.00000  -0.01926  -0.01898   4.63807
   X41       -6.08113   0.00027   0.00000   0.01080   0.01021  -6.07092
   Y41       -1.62644  -0.00048   0.00000   0.01655   0.01695  -1.60948
   Z41        3.95045  -0.00061   0.00000  -0.02662  -0.02724   3.92321
   X42       -0.61096  -0.00119   0.00000  -0.00561  -0.00536  -0.61632
   Y42       -8.07795  -0.00028   0.00000  -0.03173  -0.03259  -8.11054
   Z42       -1.73735   0.00023   0.00000   0.00591   0.00755  -1.72980
   X43        2.74122   0.00036   0.00000  -0.00079  -0.00049   2.74073
   Y43       -5.78515   0.00042   0.00000  -0.03169  -0.03273  -5.81788
   Z43       -1.21211  -0.00053   0.00000   0.00185   0.00396  -1.20815
   X44       -4.48641   0.00026   0.00000   0.00072   0.00060  -4.48581
   Y44       -6.62917  -0.00012   0.00000  -0.01594  -0.01619  -6.64537
   Z44        0.28506  -0.00031   0.00000   0.00335   0.00385   0.28891
   X45       -6.07905   0.00082   0.00000   0.02109   0.02034  -6.05871
   Y45        0.62031   0.00039   0.00000   0.02152   0.02212   0.64243
   Z45        5.32992  -0.00031   0.00000  -0.03231  -0.03326   5.29666
   X46       -3.92038   0.00022   0.00000   0.03584   0.03502  -3.88537
   Y46        3.81062   0.00005   0.00000   0.00646   0.00709   3.81771
   Z46        6.63352   0.00002   0.00000  -0.01818  -0.01907   6.61445
   X47       -7.78775   0.00021   0.00000   0.00713   0.00648  -7.78127
   Y47       -2.75851   0.00024   0.00000   0.02220   0.02271  -2.73580
   Z47        3.80437  -0.00009   0.00000  -0.02047  -0.02134   3.78303
   X48       -3.19416   0.00082   0.00000  -0.00498  -0.00488  -3.19904
   Y48       -8.37759   0.00031   0.00000  -0.02131  -0.02188  -8.39947
   Z48       -1.19747  -0.00011   0.00000   0.00483   0.00589  -1.19159
   X49        0.34943   0.00006   0.00000  -0.01205  -0.01163   0.33780
   Y49       -9.48923  -0.00004   0.00000  -0.02401  -0.02510  -9.51433
   Z49       -2.87212  -0.00046   0.00000  -0.01013  -0.00805  -2.88017
   X50       -6.48290  -0.00002   0.00000  -0.00265  -0.00289  -6.48579
   Y50       -6.87951   0.00016   0.00000  -0.00144  -0.00148  -6.88099
   Z50        0.68767  -0.00000   0.00000  -0.00461  -0.00456   0.68311
   X51       -7.79704  -0.00002   0.00000   0.02176   0.02083  -7.77620
   Y51        1.23566   0.00035   0.00000   0.03194   0.03281   1.26847
   Z51        6.26464  -0.00027   0.00000  -0.03681  -0.03826   6.22637
   X52       -4.19165  -0.00005   0.00000  -0.01206  -0.01191  -4.20356
   Y52      -10.00652  -0.00010   0.00000  -0.01443  -0.01503 -10.02155
   Z52       -1.94325   0.00001   0.00000  -0.00050   0.00056  -1.94269
   X53        0.26420   0.00810   0.00000   0.00752   0.00852   0.27272
   Y53        2.03079  -0.00581   0.00000   0.01825   0.01735   2.04815
   Z53       -1.52925  -0.00047   0.00000   0.00323   0.00359  -1.52566
   X54        0.32551   0.00557   0.00000   0.00518   0.00507   0.33058
   Y54       -2.07421   0.00457   0.00000  -0.02024  -0.02067  -2.09488
   Z54        1.73323  -0.00047   0.00000  -0.01968  -0.01869   1.71454
         Item               Value     Threshold  Converged?
 Maximum Force            0.010947     0.000450     NO 
 RMS     Force            0.002489     0.000300     NO 
 Maximum Displacement     0.080915     0.001800     NO 
 RMS     Displacement     0.023546     0.001200     NO 
 Predicted change in Energy=-1.562192D-03
 GradGradGradGradGradGradGradGradGradGradGradGradGradGradGradGradGradGrad

 Unable to Open any file for archive entry.
 1\1\GINC-X10P1N1\Force\UM062X\6-31G(d)\C32H18N4(3)\MAYUMIAO\14-Jul-202
 4\0\\# 6-31g(d) m062x g09default scf=(xqc,maxcycle=64) force guess=rea
 d nosymm\\Title Card\\0,3\C,1.40553662,0.49339294,-0.48433459\C,1.4235
 7757,-0.49974994,0.56225486\C,2.63388893,-0.97159102,1.02242977\C,3.84
 625967,-0.49471241,0.5031499\C,3.81713497,0.4896078,-0.57750355\C,2.58
 350033,0.96911591,-1.02206443\H,2.65286987,-1.7388,1.79157447\H,2.5553
 0823,1.72733383,-1.80014507\C,5.00090378,0.96576114,-1.19608148\N,5.95
 174334,1.37440983,-1.7271943\C,5.0693193,-0.98051882,1.02804674\N,6.06
 488038,-1.39041182,1.46888984\C,-0.32708944,2.25032503,-0.27760391\C,-
 0.8756463,0.47515773,-1.53656432\C,0.36706134,3.16430139,0.52653421\C,
 -1.68503234,2.43465162,-0.64963215\C,-0.83188563,-0.72284754,-2.246091
 32\C,-2.03715485,1.27959841,-1.4682526\C,-0.33118603,4.28511612,0.9531
 3768\H,1.40815732,2.9964024,0.78165296\C,-2.35771595,3.5619234,-0.2091
 8586\C,-2.00639767,-1.12508309,-2.88703921\H,0.08229541,-1.3016255,-2.
 30300211\C,-3.18019795,0.874703,-2.1342649\C,-1.67121522,4.48217136,0.
 59206803\H,0.17070963,5.0237502,1.56858418\H,-3.39549229,3.73574384,-0
 .47548774\C,-3.15662137,-0.3393959,-2.83988444\H,-2.01379431,-2.061802
 85,-3.43375429\H,-4.08211828,1.47895393,-2.11303851\H,-2.18745741,5.37
 079277,0.94024444\H,-4.04787603,-0.66499451,-3.36574757\C,-0.87314208,
 -0.48680186,1.60472474\C,-0.30233523,-2.26100535,0.34934008\C,-0.85725
 981,0.69475292,2.34266685\C,-2.04283745,-1.26712898,1.46746955\C,0.392
 46671,-3.1893542,-0.4373449\C,-1.67966341,-2.41130381,0.65116727\C,-2.
 0537398,1.0956882,2.93646689\H,0.0593753,1.26140762,2.46440074\C,-3.21
 799284,-0.86067276,2.09049013\C,-0.32330851,-4.27466785,-0.91936355\H,
 1.45059098,-3.06136865,-0.64142059\C,-2.37410658,-3.50800602,0.1508472
 8\C,-3.21689418,0.32825403,2.82047235\H,-2.07457792,2.01649387,3.51030
 79\H,-4.12109975,-1.45973891,2.01318627\C,-1.69027433,-4.43323103,-0.6
 3367622\H,0.1849101,-5.02148316,-1.51985797\H,-3.43060454,-3.64048225,
 0.36389939\H,-4.12601509,0.65388163,3.31510218\H,-2.21812521,-5.295221
 44,-1.02832395\N,0.139807,1.07464845,-0.80924471\N,0.17225008,-1.09762
 678,0.9171877\\Version=ES64L-G16RevC.01\HF=-1448.5822665\S2=2.02966\S2
 -1=0.\S2A=2.000559\RMSD=4.316e-09\RMSF=2.489e-03\Dipole=-6.5079329,0.2
 756652,-0.0563662\Quadrupole=-39.7496991,28.7919346,10.9577644,-0.5486
 407,2.6049296,13.6849462\PG=C01 [X(C32H18N4)]\\@
 The archive entry for this job was punched.


 Cherishing children is the mark of a civilized society.
 -- Joan Ganz Cooney
 Job cpu time:       0 days  0 hours 51 minutes  0.3 seconds.
 Elapsed time:       0 days  0 hours  1 minutes 50.4 seconds.
 File lengths (MBytes):  RWF=    314 Int=      0 D2E=      0 Chk=     25 Scr=      1
 Normal termination of Gaussian 16 at Sun Jul 14 00:30:30 2024.
