 Entering Gaussian System, Link 0=g16
 Input=JOBS/2_B.gjf
 Output=JOBS/2_B.log
 Initial command:
 /data/app/gaussian/C01-avx2//g16/l1.exe "/tmp/Gau-1299377.inp" -scrdir="/tmp/"
 Entering Link 1 = /data/app/gaussian/C01-avx2//g16/l1.exe PID=   1299378.
  
 Copyright (c) 1988-2019, Gaussian, Inc.  All Rights Reserved.
  
 This is part of the Gaussian(R) 16 program.  It is based on
 the Gaussian(R) 09 system (copyright 2009, Gaussian, Inc.),
 the Gaussian(R) 03 system (copyright 2003, Gaussian, Inc.),
 the Gaussian(R) 98 system (copyright 1998, Gaussian, Inc.),
 the Gaussian(R) 94 system (copyright 1995, Gaussian, Inc.),
 the Gaussian 92(TM) system (copyright 1992, Gaussian, Inc.),
 the Gaussian 90(TM) system (copyright 1990, Gaussian, Inc.),
 the Gaussian 88(TM) system (copyright 1988, Gaussian, Inc.),
 the Gaussian 86(TM) system (copyright 1986, Carnegie Mellon
 University), and the Gaussian 82(TM) system (copyright 1983,
 Carnegie Mellon University). Gaussian is a federally registered
 trademark of Gaussian, Inc.
  
 This software contains proprietary and confidential information,
 including trade secrets, belonging to Gaussian, Inc.
  
 This software is provided under written license and may be
 used, copied, transmitted, or stored only in accord with that
 written license.
  
 The following legend is applicable only to US Government
 contracts under FAR:
  
                    RESTRICTED RIGHTS LEGEND
  
 Use, reproduction and disclosure by the US Government is
 subject to restrictions as set forth in subparagraphs (a)
 and (c) of the Commercial Computer Software - Restricted
 Rights clause in FAR 52.227-19.
  
 Gaussian, Inc.
 340 Quinnipiac St., Bldg. 40, Wallingford CT 06492
  
  
 ---------------------------------------------------------------
 Warning -- This program may not be used in any manner that
 competes with the business of Gaussian, Inc. or will provide
 assistance to any competitor of Gaussian, Inc.  The licensee
 of this program is prohibited from giving any competitor of
 Gaussian, Inc. access to this program.  By using this program,
 the user acknowledges that Gaussian, Inc. is engaged in the
 business of creating and licensing software in the field of
 computational chemistry and represents and warrants to the
 licensee that it is not a competitor of Gaussian, Inc. and that
 it will not use this program in any manner prohibited above.
 ---------------------------------------------------------------
  

 Cite this work as:
 Gaussian 16, Revision C.01,
 M. J. Frisch, G. W. Trucks, H. B. Schlegel, G. E. Scuseria, 
 M. A. Robb, J. R. Cheeseman, G. Scalmani, V. Barone, 
 G. A. Petersson, H. Nakatsuji, X. Li, M. Caricato, A. V. Marenich, 
 J. Bloino, B. G. Janesko, R. Gomperts, B. Mennucci, H. P. Hratchian, 
 J. V. Ortiz, A. F. Izmaylov, J. L. Sonnenberg, D. Williams-Young, 
 F. Ding, F. Lipparini, F. Egidi, J. Goings, B. Peng, A. Petrone, 
 T. Henderson, D. Ranasinghe, V. G. Zakrzewski, J. Gao, N. Rega, 
 G. Zheng, W. Liang, M. Hada, M. Ehara, K. Toyota, R. Fukuda, 
 J. Hasegawa, M. Ishida, T. Nakajima, Y. Honda, O. Kitao, H. Nakai, 
 T. Vreven, K. Throssell, J. A. Montgomery, Jr., J. E. Peralta, 
 F. Ogliaro, M. J. Bearpark, J. J. Heyd, E. N. Brothers, K. N. Kudin, 
 V. N. Staroverov, T. A. Keith, R. Kobayashi, J. Normand, 
 K. Raghavachari, A. P. Rendell, J. C. Burant, S. S. Iyengar, 
 J. Tomasi, M. Cossi, J. M. Millam, M. Klene, C. Adamo, R. Cammi, 
 J. W. Ochterski, R. L. Martin, K. Morokuma, O. Farkas, 
 J. B. Foresman, and D. J. Fox, Gaussian, Inc., Wallingford CT, 2019.
 
 ******************************************
 Gaussian 16:  ES64L-G16RevC.01  3-Jul-2019
                13-Jul-2024 
 ******************************************
 %chk=b.chk
 %nprocshared=28
 Will use up to   28 processors via shared memory.
 %mem=48gb
 ----------------------------------------------------------------------
 # 6-31g(d) m062x g09default scf=(xqc,maxcycle=64) force guess=read nos
 ymm
 ----------------------------------------------------------------------
 1/10=7,30=1,38=1,158=3,167=1/1,3;
 2/12=2,15=1,17=6,18=5,40=1/2;
 3/5=1,6=6,7=1,11=2,25=1,27=10,30=1,71=1,74=-55,75=-4,116=-2,158=3/1,2,3;
 4/5=1,60=-1/1;
 5/5=2,7=64,8=3,13=1,38=6,87=10/2,8;
 6/7=2,8=2,9=2,10=2,28=1,87=10/1;
 7/29=1,30=1,87=10/1,2,3,16;
 1/10=7,30=1,158=3,167=1/3;
 99//99;
 Using 2006 physical constants.
 ----------
 Title Card
 ----------
 Symbolic Z-matrix:
 Charge =  0 Multiplicity = 3
 6                     1.40879   0.49744  -0.48043 
 6                     1.42457  -0.50042   0.5598 
 6                     2.63595  -0.97405   1.01719 
 6                     3.84676  -0.49593   0.49899 
 6                     3.81861   0.49236  -0.57714 
 6                     2.58371   0.97715  -1.01613 
 1                     2.65779  -1.7428    1.78536 
 1                     2.5529    1.74658  -1.78245 
 6                     5.00426   0.96504  -1.2065 
 7                     5.94217   1.36648  -1.74697 
 6                     5.06603  -0.975     1.02654 
 7                     6.0689   -1.38165   1.47616 
 6                    -0.32952   2.2451   -0.26731 
 6                    -0.87758   0.46977  -1.52505 
 6                     0.37064   3.16535   0.52533 
 6                    -1.68823   2.4292   -0.6386 
 6                    -0.83585  -0.7294   -2.23353 
 6                    -2.03847   1.27489  -1.4594 
 6                    -0.32714   4.28278   0.95832 
 1                     1.41857   3.00907   0.75866 
 6                    -2.35577   3.56286  -0.2048 
 6                    -2.00811  -1.12821  -2.87996 
 1                     0.07601  -1.31171  -2.29117 
 6                    -3.17539   0.87974  -2.142 
 6                    -1.66767   4.48145   0.59719 
 1                     0.17742   5.02101   1.57234 
 1                    -3.38913   3.74666  -0.48073 
 6                    -3.15473  -0.33683  -2.84513 
 1                    -2.01318  -2.06407  -3.42891 
 1                    -4.06643   1.49964  -2.14583 
 1                    -2.1793    5.37622   0.9359 
 1                    -4.04365  -0.65743  -3.37736 
 6                    -0.8782   -0.48327   1.59572 
 6                    -0.30385  -2.25638   0.34045 
 6                    -0.86612   0.6997    2.33345 
 6                    -2.04608  -1.266     1.46303 
 6                     0.39198  -3.19297  -0.43351 
 6                    -1.68416  -2.40905   0.64372 
 6                    -2.06191   1.09236   2.93458 
 1                     0.0469    1.2718    2.45243 
 6                    -3.21893  -0.87055   2.09668 
 6                    -0.32024  -4.2765   -0.91708 
 1                     1.45716  -3.07531  -0.62371 
 6                    -2.37517  -3.50655   0.14694 
 6                    -3.22049   0.31865   2.82838 
 1                    -2.08552   2.01348   3.50891 
 1                    -4.11739  -1.47729   2.03117 
 6                    -1.69336  -4.4314   -0.63798 
 1                     0.18821  -5.02884  -1.50939 
 1                    -3.43169  -3.64143   0.36563 
 1                    -4.12882   0.63899   3.32758 
 1                    -2.21876  -5.29171  -1.0362 
 7                     0.13892   1.07258  -0.80097 
 7                     0.16829  -1.09288   0.90794 
 

 GradGradGradGradGradGradGradGradGradGradGradGradGradGradGradGradGradGrad
 Berny optimization.
 Initialization pass.
 Trust Radius=3.00D-01 FncErr=1.00D-07 GrdErr=1.00D-07 EigMax=2.50D+02 EigMin=1.00D-04
 Number of steps in this run=      2 maximum allowed number of steps=      2.
 GradGradGradGradGradGradGradGradGradGradGradGradGradGradGradGradGradGrad

 Symmetry turned off by external request.
 Stoichiometry    C32H18N4(3)
 Framework group  C1[X(C32H18N4)]
 Deg. of freedom   156
 Full point group                 C1      NOp   1
                          Input orientation:                          
 ---------------------------------------------------------------------
 Center     Atomic      Atomic             Coordinates (Angstroms)
 Number     Number       Type             X           Y           Z
 ---------------------------------------------------------------------
      1          6           0        1.408794    0.497440   -0.480431
      2          6           0        1.424565   -0.500419    0.559805
      3          6           0        2.635953   -0.974046    1.017193
      4          6           0        3.846765   -0.495933    0.498991
      5          6           0        3.818609    0.492360   -0.577143
      6          6           0        2.583713    0.977146   -1.016128
      7          1           0        2.657791   -1.742803    1.785356
      8          1           0        2.552901    1.746580   -1.782446
      9          6           0        5.004259    0.965039   -1.206501
     10          7           0        5.942175    1.366476   -1.746972
     11          6           0        5.066031   -0.975000    1.026537
     12          7           0        6.068902   -1.381650    1.476158
     13          6           0       -0.329518    2.245104   -0.267306
     14          6           0       -0.877582    0.469773   -1.525045
     15          6           0        0.370644    3.165348    0.525328
     16          6           0       -1.688234    2.429200   -0.638601
     17          6           0       -0.835852   -0.729399   -2.233529
     18          6           0       -2.038475    1.274891   -1.459403
     19          6           0       -0.327142    4.282784    0.958317
     20          1           0        1.418570    3.009070    0.758657
     21          6           0       -2.355770    3.562860   -0.204803
     22          6           0       -2.008114   -1.128208   -2.879956
     23          1           0        0.076013   -1.311713   -2.291171
     24          6           0       -3.175394    0.879742   -2.142000
     25          6           0       -1.667673    4.481449    0.597193
     26          1           0        0.177423    5.021013    1.572344
     27          1           0       -3.389134    3.746655   -0.480732
     28          6           0       -3.154728   -0.336830   -2.845129
     29          1           0       -2.013179   -2.064068   -3.428912
     30          1           0       -4.066429    1.499637   -2.145826
     31          1           0       -2.179302    5.376219    0.935898
     32          1           0       -4.043654   -0.657432   -3.377361
     33          6           0       -0.878198   -0.483269    1.595723
     34          6           0       -0.303847   -2.256385    0.340448
     35          6           0       -0.866124    0.699702    2.333452
     36          6           0       -2.046084   -1.266004    1.463033
     37          6           0        0.391983   -3.192975   -0.433512
     38          6           0       -1.684159   -2.409051    0.643723
     39          6           0       -2.061910    1.092361    2.934581
     40          1           0        0.046904    1.271799    2.452433
     41          6           0       -3.218934   -0.870548    2.096683
     42          6           0       -0.320244   -4.276498   -0.917076
     43          1           0        1.457161   -3.075311   -0.623706
     44          6           0       -2.375171   -3.506547    0.146943
     45          6           0       -3.220494    0.318651    2.828381
     46          1           0       -2.085520    2.013479    3.508908
     47          1           0       -4.117392   -1.477288    2.031169
     48          6           0       -1.693358   -4.431402   -0.637980
     49          1           0        0.188205   -5.028842   -1.509386
     50          1           0       -3.431687   -3.641432    0.365630
     51          1           0       -4.128818    0.638990    3.327582
     52          1           0       -2.218755   -5.291706   -1.036195
     53          7           0        0.138918    1.072579   -0.800970
     54          7           0        0.168289   -1.092876    0.907944
 ---------------------------------------------------------------------
 Rotational constants (GHZ):           0.1589787           0.1163991           0.0924927
 Standard basis: 6-31G(d) (6D, 7F)
   576 basis functions,  1080 primitive gaussians,   576 cartesian basis functions
   120 alpha electrons      118 beta electrons
       nuclear repulsion energy      3659.4597747101 Hartrees.
 NAtoms=   54 NActive=   54 NUniq=   54 SFac= 1.00D+00 NAtFMM=   60 NAOKFM=F Big=F
 Integral buffers will be    131072 words long.
 Raffenetti 2 integral format.
 Two-electron integral symmetry is turned off.
 One-electron integrals computed using PRISM.
 NBasis=   576 RedAO= T EigKep=  2.59D-04  NBF=   576
 NBsUse=   576 1.00D-06 EigRej= -1.00D+00 NBFU=   576
 Initial guess from the checkpoint file:  "b.chk"
 B after Tr=    -0.001163   -0.000294    0.000032
         Rot=    1.000000   -0.000084   -0.000044   -0.000006 Ang=  -0.01 deg.
 Initial guess <Sx>= 0.0000 <Sy>= 0.0000 <Sz>= 1.0000 <S**2>= 2.0312 S= 1.0104
 Requested convergence on RMS density matrix=1.00D-08 within  64 cycles.
 Requested convergence on MAX density matrix=1.00D-06.
 Requested convergence on             energy=1.00D-06.
 No special actions if energy rises.
 Restarting incremental Fock formation.
 SCF Done:  E(UM062X) =  -1448.58146480     A.U. after   23 cycles
            NFock= 23  Conv=0.70D-08     -V/T= 2.0086
 <Sx>= 0.0000 <Sy>= 0.0000 <Sz>= 1.0000 <S**2>= 2.0297 S= 1.0099
 <L.S>=  0.00000000000    
 Annihilation of the first spin contaminant:
 S**2 before annihilation     2.0297,   after     2.0006
 QCSCF skips out because SCF is already converged.

 **********************************************************************

            Population analysis using the SCF Density.

 **********************************************************************

 Alpha  occ. eigenvalues --  -14.86239 -14.85103 -14.73207 -14.72924 -10.62274
 Alpha  occ. eigenvalues --  -10.61958 -10.61660 -10.61361 -10.60262 -10.60153
 Alpha  occ. eigenvalues --  -10.59244 -10.58965 -10.58859 -10.58829 -10.58825
 Alpha  occ. eigenvalues --  -10.58742 -10.58603 -10.58417 -10.58342 -10.58188
 Alpha  occ. eigenvalues --  -10.58146 -10.58127 -10.58122 -10.58107 -10.58061
 Alpha  occ. eigenvalues --  -10.57935 -10.57808 -10.57733 -10.57655 -10.57627
 Alpha  occ. eigenvalues --  -10.57563 -10.57539 -10.57457 -10.57321 -10.55688
 Alpha  occ. eigenvalues --  -10.55508  -1.15653  -1.13468  -1.00703  -0.98851
 Alpha  occ. eigenvalues --   -0.98650  -0.98274  -0.97863  -0.97634  -0.95744
 Alpha  occ. eigenvalues --   -0.91708  -0.91083  -0.88397  -0.88153  -0.87713
 Alpha  occ. eigenvalues --   -0.87542  -0.84786  -0.84574  -0.83902  -0.83133
 Alpha  occ. eigenvalues --   -0.77677  -0.76182  -0.73828  -0.73239  -0.72571
 Alpha  occ. eigenvalues --   -0.71718  -0.69582  -0.69225  -0.68948  -0.68279
 Alpha  occ. eigenvalues --   -0.65045  -0.64187  -0.62620  -0.61867  -0.61751
 Alpha  occ. eigenvalues --   -0.60723  -0.59457  -0.58688  -0.56132  -0.55837
 Alpha  occ. eigenvalues --   -0.55145  -0.55102  -0.54232  -0.53941  -0.53274
 Alpha  occ. eigenvalues --   -0.53156  -0.53039  -0.52631  -0.52065  -0.51812
 Alpha  occ. eigenvalues --   -0.51415  -0.51315  -0.50818  -0.49216  -0.47421
 Alpha  occ. eigenvalues --   -0.46607  -0.46345  -0.45834  -0.45605  -0.45337
 Alpha  occ. eigenvalues --   -0.45048  -0.44701  -0.43391  -0.42926  -0.42575
 Alpha  occ. eigenvalues --   -0.42416  -0.41899  -0.41714  -0.40628  -0.40556
 Alpha  occ. eigenvalues --   -0.40528  -0.39590  -0.37276  -0.36861  -0.36591
 Alpha  occ. eigenvalues --   -0.36290  -0.34539  -0.33241  -0.32985  -0.30923
 Alpha  occ. eigenvalues --   -0.29973  -0.29145  -0.28697  -0.27717  -0.15349
 Alpha virt. eigenvalues --   -0.03145  -0.02510   0.00054   0.00241   0.01268
 Alpha virt. eigenvalues --    0.02916   0.03384   0.04874   0.05464   0.09065
 Alpha virt. eigenvalues --    0.10282   0.11412   0.11586   0.12151   0.12194
 Alpha virt. eigenvalues --    0.12960   0.14006   0.14659   0.15538   0.15965
 Alpha virt. eigenvalues --    0.16571   0.17432   0.17488   0.17668   0.17940
 Alpha virt. eigenvalues --    0.18070   0.18457   0.18595   0.20311   0.21400
 Alpha virt. eigenvalues --    0.21674   0.21911   0.22185   0.22481   0.22604
 Alpha virt. eigenvalues --    0.22936   0.23729   0.24785   0.25495   0.26242
 Alpha virt. eigenvalues --    0.26511   0.26967   0.27329   0.27394   0.27911
 Alpha virt. eigenvalues --    0.28162   0.29776   0.30266   0.30671   0.31284
 Alpha virt. eigenvalues --    0.31805   0.34021   0.34320   0.34942   0.35601
 Alpha virt. eigenvalues --    0.36028   0.36260   0.36836   0.38083   0.40110
 Alpha virt. eigenvalues --    0.40767   0.40937   0.42362   0.43196   0.43562
 Alpha virt. eigenvalues --    0.44365   0.44437   0.45805   0.46100   0.46716
 Alpha virt. eigenvalues --    0.47458   0.48747   0.49775   0.51152   0.51515
 Alpha virt. eigenvalues --    0.53648   0.54231   0.54530   0.55070   0.55416
 Alpha virt. eigenvalues --    0.55612   0.55731   0.56439   0.56516   0.57415
 Alpha virt. eigenvalues --    0.57803   0.58041   0.58365   0.58606   0.59290
 Alpha virt. eigenvalues --    0.59628   0.59825   0.59936   0.60709   0.60865
 Alpha virt. eigenvalues --    0.61293   0.61721   0.61982   0.62137   0.62369
 Alpha virt. eigenvalues --    0.62739   0.62927   0.63021   0.63089   0.63714
 Alpha virt. eigenvalues --    0.63845   0.64162   0.64307   0.65199   0.65379
 Alpha virt. eigenvalues --    0.65574   0.65830   0.65855   0.66198   0.66670
 Alpha virt. eigenvalues --    0.67319   0.67370   0.67901   0.68489   0.68651
 Alpha virt. eigenvalues --    0.70606   0.71621   0.72536   0.72825   0.74121
 Alpha virt. eigenvalues --    0.74266   0.74430   0.75556   0.75999   0.77053
 Alpha virt. eigenvalues --    0.77307   0.77896   0.79821   0.79974   0.80556
 Alpha virt. eigenvalues --    0.81302   0.82182   0.83354   0.83715   0.84323
 Alpha virt. eigenvalues --    0.84691   0.85399   0.86497   0.86818   0.86836
 Alpha virt. eigenvalues --    0.86989   0.87324   0.88034   0.88134   0.88431
 Alpha virt. eigenvalues --    0.88661   0.89084   0.89190   0.89453   0.89895
 Alpha virt. eigenvalues --    0.90320   0.90627   0.90684   0.91367   0.92168
 Alpha virt. eigenvalues --    0.92661   0.92838   0.93255   0.93628   0.93933
 Alpha virt. eigenvalues --    0.94748   0.95228   0.95545   0.96182   0.96708
 Alpha virt. eigenvalues --    0.97239   0.97884   0.98431   0.99986   1.00154
 Alpha virt. eigenvalues --    1.00930   1.01138   1.01640   1.02510   1.02978
 Alpha virt. eigenvalues --    1.03309   1.03796   1.04468   1.05081   1.06932
 Alpha virt. eigenvalues --    1.07209   1.07880   1.07919   1.08585   1.09855
 Alpha virt. eigenvalues --    1.11830   1.13220   1.14203   1.16052   1.16878
 Alpha virt. eigenvalues --    1.17369   1.17886   1.18801   1.19427   1.19557
 Alpha virt. eigenvalues --    1.20106   1.21285   1.21732   1.23196   1.23438
 Alpha virt. eigenvalues --    1.24373   1.25003   1.26038   1.27509   1.28630
 Alpha virt. eigenvalues --    1.29189   1.29248   1.30059   1.30102   1.30964
 Alpha virt. eigenvalues --    1.32561   1.33224   1.33787   1.34322   1.35279
 Alpha virt. eigenvalues --    1.36608   1.37786   1.38239   1.38483   1.40457
 Alpha virt. eigenvalues --    1.41182   1.41400   1.42115   1.43687   1.44681
 Alpha virt. eigenvalues --    1.44844   1.45669   1.46417   1.47260   1.47587
 Alpha virt. eigenvalues --    1.48278   1.48647   1.48951   1.50373   1.50542
 Alpha virt. eigenvalues --    1.50934   1.51460   1.51747   1.51867   1.51994
 Alpha virt. eigenvalues --    1.52602   1.53045   1.55196   1.57009   1.58963
 Alpha virt. eigenvalues --    1.59354   1.59948   1.60216   1.61303   1.61770
 Alpha virt. eigenvalues --    1.62601   1.62799   1.64313   1.66384   1.68009
 Alpha virt. eigenvalues --    1.68232   1.72968   1.73382   1.74585   1.75762
 Alpha virt. eigenvalues --    1.77405   1.77536   1.78526   1.78761   1.79192
 Alpha virt. eigenvalues --    1.80129   1.80890   1.81357   1.82517   1.83732
 Alpha virt. eigenvalues --    1.84096   1.85106   1.85824   1.86597   1.87041
 Alpha virt. eigenvalues --    1.87531   1.88600   1.88876   1.89268   1.91046
 Alpha virt. eigenvalues --    1.91374   1.92320   1.92933   1.94171   1.94902
 Alpha virt. eigenvalues --    1.95697   1.96282   1.97048   1.97917   1.98461
 Alpha virt. eigenvalues --    1.98572   1.99632   2.00066   2.00552   2.00977
 Alpha virt. eigenvalues --    2.01762   2.02139   2.02348   2.04069   2.04524
 Alpha virt. eigenvalues --    2.04941   2.05057   2.06391   2.07042   2.08453
 Alpha virt. eigenvalues --    2.09196   2.09321   2.10488   2.10704   2.11100
 Alpha virt. eigenvalues --    2.11389   2.12339   2.13058   2.14103   2.14680
 Alpha virt. eigenvalues --    2.14958   2.15909   2.16061   2.18227   2.18475
 Alpha virt. eigenvalues --    2.19104   2.20434   2.21020   2.21236   2.21720
 Alpha virt. eigenvalues --    2.21976   2.22467   2.23734   2.24915   2.25664
 Alpha virt. eigenvalues --    2.26377   2.26653   2.27199   2.27937   2.28593
 Alpha virt. eigenvalues --    2.29047   2.29719   2.29903   2.30653   2.31401
 Alpha virt. eigenvalues --    2.32644   2.33736   2.34871   2.36010   2.38539
 Alpha virt. eigenvalues --    2.39186   2.41763   2.42594   2.43369   2.47708
 Alpha virt. eigenvalues --    2.48355   2.49152   2.50177   2.52597   2.53965
 Alpha virt. eigenvalues --    2.54314   2.54789   2.56093   2.56243   2.58030
 Alpha virt. eigenvalues --    2.59228   2.59710   2.62061   2.63424   2.63960
 Alpha virt. eigenvalues --    2.64312   2.66139   2.66244   2.66742   2.68099
 Alpha virt. eigenvalues --    2.68428   2.68729   2.69295   2.69425   2.69862
 Alpha virt. eigenvalues --    2.70251   2.71088   2.72329   2.72658   2.73370
 Alpha virt. eigenvalues --    2.76807   2.77873   2.79417   2.81421   2.81924
 Alpha virt. eigenvalues --    2.82844   2.83039   2.83861   2.84061   2.86392
 Alpha virt. eigenvalues --    2.87259   2.89568   2.90701   2.91933   2.93864
 Alpha virt. eigenvalues --    2.94118   2.96141   2.97979   2.98218   2.98909
 Alpha virt. eigenvalues --    3.03713   3.07002   3.08351   3.22389   3.22919
 Alpha virt. eigenvalues --    3.27103   3.29375   3.29992   3.30853   3.31640
 Alpha virt. eigenvalues --    3.36493   3.38317   3.49671   3.50677   3.53888
 Alpha virt. eigenvalues --    4.05201   4.05713   4.07459   4.09498   4.10256
 Alpha virt. eigenvalues --    4.11132   4.11809   4.14071   4.15000   4.16270
 Alpha virt. eigenvalues --    4.16625   4.17003   4.21219   4.24055   4.25679
 Alpha virt. eigenvalues --    4.26188   4.27723   4.30393   4.32551   4.33363
 Alpha virt. eigenvalues --    4.37701   4.39571   4.42813   4.45126   4.46150
 Alpha virt. eigenvalues --    4.48663   4.49062   4.50615   4.59008   4.66031
 Alpha virt. eigenvalues --    4.70474   4.74948   4.76675   4.84244   4.89236
 Alpha virt. eigenvalues --    4.96554
  Beta  occ. eigenvalues --  -14.85930 -14.84880 -14.72996 -14.72744 -10.62288
  Beta  occ. eigenvalues --  -10.61977 -10.61660 -10.61370 -10.60028 -10.59915
  Beta  occ. eigenvalues --  -10.59193 -10.58897 -10.58848 -10.58845 -10.58760
  Beta  occ. eigenvalues --  -10.58733 -10.58537 -10.58371 -10.58371 -10.58176
  Beta  occ. eigenvalues --  -10.58107 -10.58099 -10.58096 -10.58082 -10.58078
  Beta  occ. eigenvalues --  -10.57934 -10.57797 -10.57735 -10.57715 -10.57641
  Beta  occ. eigenvalues --  -10.57632 -10.57300 -10.57297 -10.57201 -10.55765
  Beta  occ. eigenvalues --  -10.55576  -1.14812  -1.12757  -1.00226  -0.98498
  Beta  occ. eigenvalues --   -0.98346  -0.97944  -0.97741  -0.97053  -0.95233
  Beta  occ. eigenvalues --   -0.91407  -0.90821  -0.88168  -0.87672  -0.87351
  Beta  occ. eigenvalues --   -0.87318  -0.84702  -0.84180  -0.83804  -0.82547
  Beta  occ. eigenvalues --   -0.77159  -0.75922  -0.73428  -0.72917  -0.72256
  Beta  occ. eigenvalues --   -0.71482  -0.69252  -0.69010  -0.68662  -0.68161
  Beta  occ. eigenvalues --   -0.64651  -0.63871  -0.62387  -0.61669  -0.61501
  Beta  occ. eigenvalues --   -0.60512  -0.58346  -0.58258  -0.55946  -0.55639
  Beta  occ. eigenvalues --   -0.54980  -0.54893  -0.53781  -0.53690  -0.52952
  Beta  occ. eigenvalues --   -0.52751  -0.52566  -0.52218  -0.51923  -0.51703
  Beta  occ. eigenvalues --   -0.51264  -0.51206  -0.50702  -0.48746  -0.46259
  Beta  occ. eigenvalues --   -0.46068  -0.45846  -0.45550  -0.45330  -0.45042
  Beta  occ. eigenvalues --   -0.44717  -0.44297  -0.43242  -0.42487  -0.42363
  Beta  occ. eigenvalues --   -0.41832  -0.41270  -0.40925  -0.40000  -0.39865
  Beta  occ. eigenvalues --   -0.38861  -0.37613  -0.36749  -0.36544  -0.36186
  Beta  occ. eigenvalues --   -0.35938  -0.33591  -0.31930  -0.31506  -0.29856
  Beta  occ. eigenvalues --   -0.28945  -0.27002  -0.26262
  Beta virt. eigenvalues --   -0.18185  -0.02686  -0.02121  -0.01366   0.00586
  Beta virt. eigenvalues --    0.00727   0.01568   0.03922   0.04164   0.05382
  Beta virt. eigenvalues --    0.05818   0.10593   0.11255   0.11620   0.11965
  Beta virt. eigenvalues --    0.12243   0.12287   0.13266   0.14410   0.14817
  Beta virt. eigenvalues --    0.15640   0.16740   0.17322   0.17525   0.17736
  Beta virt. eigenvalues --    0.17876   0.18099   0.18242   0.18601   0.18849
  Beta virt. eigenvalues --    0.20378   0.21593   0.21846   0.22121   0.22335
  Beta virt. eigenvalues --    0.22657   0.22796   0.23084   0.24119   0.25158
  Beta virt. eigenvalues --    0.26270   0.26668   0.26898   0.27380   0.27715
  Beta virt. eigenvalues --    0.27989   0.28150   0.28550   0.30010   0.30546
  Beta virt. eigenvalues --    0.31070   0.31451   0.31917   0.34334   0.34644
  Beta virt. eigenvalues --    0.35368   0.35841   0.36361   0.36686   0.37114
  Beta virt. eigenvalues --    0.38216   0.40260   0.41024   0.41142   0.42795
  Beta virt. eigenvalues --    0.43610   0.43867   0.44690   0.45227   0.46260
  Beta virt. eigenvalues --    0.46725   0.47139   0.47760   0.49004   0.49910
  Beta virt. eigenvalues --    0.51339   0.51788   0.53940   0.54454   0.54737
  Beta virt. eigenvalues --    0.55352   0.55817   0.55952   0.56171   0.56706
  Beta virt. eigenvalues --    0.56878   0.57685   0.58035   0.58247   0.58566
  Beta virt. eigenvalues --    0.58803   0.59487   0.59785   0.60097   0.60359
  Beta virt. eigenvalues --    0.60749   0.61063   0.61511   0.61943   0.62242
  Beta virt. eigenvalues --    0.62275   0.62569   0.62916   0.63108   0.63158
  Beta virt. eigenvalues --    0.63328   0.63916   0.64280   0.64422   0.64592
  Beta virt. eigenvalues --    0.65373   0.65651   0.65879   0.66057   0.66097
  Beta virt. eigenvalues --    0.66438   0.66879   0.67614   0.67882   0.68278
  Beta virt. eigenvalues --    0.68606   0.68943   0.70942   0.71998   0.72670
  Beta virt. eigenvalues --    0.73049   0.74204   0.74437   0.74539   0.75619
  Beta virt. eigenvalues --    0.76400   0.77325   0.77537   0.78613   0.80139
  Beta virt. eigenvalues --    0.80354   0.80837   0.81825   0.82479   0.83705
  Beta virt. eigenvalues --    0.83999   0.84635   0.84880   0.85598   0.86614
  Beta virt. eigenvalues --    0.87009   0.87130   0.87474   0.87754   0.88149
  Beta virt. eigenvalues --    0.88342   0.88740   0.88888   0.89295   0.89536
  Beta virt. eigenvalues --    0.89846   0.90158   0.90421   0.91003   0.91147
  Beta virt. eigenvalues --    0.91652   0.92593   0.92996   0.93098   0.93468
  Beta virt. eigenvalues --    0.93851   0.94311   0.95066   0.95470   0.95867
  Beta virt. eigenvalues --    0.96510   0.97047   0.97515   0.98579   0.98846
  Beta virt. eigenvalues --    1.00407   1.00739   1.01186   1.01578   1.01883
  Beta virt. eigenvalues --    1.02752   1.03302   1.03583   1.04180   1.04817
  Beta virt. eigenvalues --    1.05550   1.07227   1.07391   1.08168   1.08389
  Beta virt. eigenvalues --    1.09191   1.10227   1.12053   1.13502   1.14443
  Beta virt. eigenvalues --    1.16313   1.17090   1.17808   1.18201   1.19414
  Beta virt. eigenvalues --    1.19838   1.19896   1.20343   1.21582   1.21899
  Beta virt. eigenvalues --    1.23450   1.23699   1.25077   1.25465   1.26546
  Beta virt. eigenvalues --    1.27754   1.29046   1.29533   1.29585   1.30394
  Beta virt. eigenvalues --    1.30933   1.31457   1.33019   1.33673   1.34227
  Beta virt. eigenvalues --    1.34737   1.35650   1.36912   1.38241   1.38483
  Beta virt. eigenvalues --    1.40006   1.40704   1.41460   1.41657   1.42622
  Beta virt. eigenvalues --    1.44582   1.44944   1.45215   1.45921   1.46660
  Beta virt. eigenvalues --    1.47583   1.47893   1.48842   1.49075   1.49790
  Beta virt. eigenvalues --    1.50649   1.50843   1.51229   1.51849   1.52097
  Beta virt. eigenvalues --    1.52139   1.52303   1.52866   1.53354   1.55476
  Beta virt. eigenvalues --    1.57436   1.59288   1.59553   1.60334   1.60579
  Beta virt. eigenvalues --    1.61442   1.62067   1.62912   1.63164   1.64736
  Beta virt. eigenvalues --    1.66617   1.68296   1.68756   1.73351   1.73946
  Beta virt. eigenvalues --    1.74996   1.76081   1.77753   1.78146   1.78778
  Beta virt. eigenvalues --    1.79103   1.79530   1.80475   1.81347   1.81756
  Beta virt. eigenvalues --    1.83014   1.84068   1.84314   1.85413   1.86084
  Beta virt. eigenvalues --    1.86833   1.87598   1.87856   1.88995   1.89374
  Beta virt. eigenvalues --    1.89754   1.91298   1.91758   1.92857   1.93363
  Beta virt. eigenvalues --    1.94725   1.95284   1.96268   1.96804   1.97339
  Beta virt. eigenvalues --    1.98238   1.98746   1.98908   1.99969   2.00345
  Beta virt. eigenvalues --    2.00832   2.01389   2.02205   2.02519   2.02820
  Beta virt. eigenvalues --    2.04451   2.04948   2.05233   2.05360   2.06670
  Beta virt. eigenvalues --    2.07430   2.08847   2.09519   2.09607   2.10855
  Beta virt. eigenvalues --    2.11100   2.11628   2.11930   2.12619   2.13935
  Beta virt. eigenvalues --    2.14604   2.14928   2.15397   2.16322   2.16393
  Beta virt. eigenvalues --    2.18573   2.19051   2.19408   2.21104   2.21341
  Beta virt. eigenvalues --    2.22085   2.22153   2.22795   2.22896   2.24480
  Beta virt. eigenvalues --    2.25231   2.26016   2.26732   2.26995   2.27533
  Beta virt. eigenvalues --    2.28414   2.29054   2.29502   2.30262   2.30622
  Beta virt. eigenvalues --    2.31135   2.31997   2.33062   2.34284   2.35351
  Beta virt. eigenvalues --    2.36371   2.38871   2.39782   2.42426   2.43192
  Beta virt. eigenvalues --    2.43857   2.48263   2.48996   2.49669   2.50550
  Beta virt. eigenvalues --    2.53676   2.54293   2.54702   2.55178   2.56706
  Beta virt. eigenvalues --    2.56915   2.58456   2.59793   2.60140   2.62508
  Beta virt. eigenvalues --    2.63802   2.64343   2.64781   2.66601   2.66768
  Beta virt. eigenvalues --    2.67373   2.68421   2.68755   2.69233   2.69710
  Beta virt. eigenvalues --    2.69850   2.70461   2.70673   2.71477   2.73102
  Beta virt. eigenvalues --    2.73716   2.73979   2.77540   2.78455   2.79976
  Beta virt. eigenvalues --    2.82135   2.82645   2.83186   2.83560   2.84196
  Beta virt. eigenvalues --    2.84480   2.86777   2.87837   2.89977   2.91308
  Beta virt. eigenvalues --    2.92902   2.94323   2.94550   2.96787   2.98374
  Beta virt. eigenvalues --    2.98770   2.99322   3.04550   3.07495   3.09276
  Beta virt. eigenvalues --    3.23115   3.23567   3.28237   3.30019   3.30665
  Beta virt. eigenvalues --    3.31650   3.32574   3.36872   3.39144   3.50098
  Beta virt. eigenvalues --    3.51010   3.55698   4.05460   4.06835   4.07755
  Beta virt. eigenvalues --    4.09822   4.10534   4.11412   4.12058   4.14385
  Beta virt. eigenvalues --    4.15293   4.16570   4.17271   4.17477   4.21337
  Beta virt. eigenvalues --    4.24384   4.25853   4.26304   4.28680   4.30552
  Beta virt. eigenvalues --    4.32869   4.33784   4.38398   4.39805   4.43088
  Beta virt. eigenvalues --    4.45453   4.46424   4.49153   4.49502   4.50956
  Beta virt. eigenvalues --    4.59324   4.66065   4.71792   4.75199   4.76844
  Beta virt. eigenvalues --    4.84506   4.89479   4.97810
          Condensed to atoms (all electrons):
          Atomic-Atomic Spin Densities.
 Mulliken charges and spin densities:
               1          2
     1  C    0.156164   0.278709
     2  C    0.178629   0.272987
     3  C   -0.206094  -0.120137
     4  C    0.090547   0.332137
     5  C    0.075980   0.318248
     6  C   -0.191747  -0.116526
     7  H    0.199867   0.003211
     8  H    0.199879   0.002923
     9  C    0.195764  -0.068579
    10  N   -0.484635   0.157561
    11  C    0.187167  -0.079764
    12  N   -0.495094   0.183925
    13  C    0.280584  -0.029498
    14  C    0.272936  -0.030025
    15  C   -0.164533   0.101230
    16  C    0.053832   0.073030
    17  C   -0.153270   0.091803
    18  C    0.052869   0.013401
    19  C   -0.177991  -0.046518
    20  H    0.209237  -0.005013
    21  C   -0.190565  -0.028517
    22  C   -0.167508  -0.020866
    23  H    0.196208  -0.004164
    24  C   -0.190558   0.022956
    25  C   -0.169616   0.110787
    26  H    0.186054   0.001448
    27  H    0.181659   0.000938
    28  C   -0.170721   0.062806
    29  H    0.180608   0.000325
    30  H    0.180264  -0.001460
    31  H    0.179771  -0.005554
    32  H    0.177078  -0.003387
    33  C    0.275537  -0.018885
    34  C    0.279586  -0.014639
    35  C   -0.165613   0.059013
    36  C    0.039663   0.001392
    37  C   -0.174762   0.069414
    38  C    0.043115   0.062169
    39  C   -0.168532  -0.006519
    40  H    0.186958  -0.002852
    41  C   -0.183403   0.023912
    42  C   -0.179345  -0.033737
    43  H    0.203122  -0.003487
    44  C   -0.185040  -0.026151
    45  C   -0.175788   0.033047
    46  H    0.174525  -0.000104
    47  H    0.176003  -0.001348
    48  C   -0.176073   0.082766
    49  H    0.181824   0.001080
    50  H    0.176534   0.001022
    51  H    0.172120  -0.001862
    52  H    0.175307  -0.004117
    53  N   -0.667907   0.183592
    54  N   -0.680595   0.127880
 Sum of Mulliken charges =  -0.00000   2.00000
 Mulliken charges and spin densities with hydrogens summed into heavy atoms:
               1          2
     1  C    0.156164   0.278709
     2  C    0.178629   0.272987
     3  C   -0.006227  -0.116926
     4  C    0.090547   0.332137
     5  C    0.075980   0.318248
     6  C    0.008132  -0.113603
     9  C    0.195764  -0.068579
    10  N   -0.484635   0.157561
    11  C    0.187167  -0.079764
    12  N   -0.495094   0.183925
    13  C    0.280584  -0.029498
    14  C    0.272936  -0.030025
    15  C    0.044704   0.096217
    16  C    0.053832   0.073030
    17  C    0.042937   0.087640
    18  C    0.052869   0.013401
    19  C    0.008063  -0.045071
    21  C   -0.008906  -0.027579
    22  C    0.013100  -0.020541
    24  C   -0.010294   0.021496
    25  C    0.010155   0.105233
    28  C    0.006357   0.059420
    33  C    0.275537  -0.018885
    34  C    0.279586  -0.014639
    35  C    0.021345   0.056160
    36  C    0.039663   0.001392
    37  C    0.028360   0.065927
    38  C    0.043115   0.062169
    39  C    0.005993  -0.006623
    41  C   -0.007400   0.022564
    42  C    0.002479  -0.032657
    44  C   -0.008506  -0.025128
    45  C   -0.003668   0.031185
    48  C   -0.000766   0.078650
    53  N   -0.667907   0.183592
    54  N   -0.680595   0.127880
 Electronic spatial extent (au):  <R**2>=          12756.0081
 Charge=             -0.0000 electrons
 Dipole moment (field-independent basis, Debye):
    X=            -16.5893    Y=              0.7098    Z=             -0.1476  Tot=             16.6051
 Quadrupole moment (field-independent basis, Debye-Ang):
   XX=           -270.5147   YY=           -177.5478   ZZ=           -202.1589
   XY=             -0.5920   XZ=              3.4946   YZ=             18.2667
 Traceless Quadrupole moment (field-independent basis, Debye-Ang):
   XX=            -53.7742   YY=             39.1927   ZZ=             14.5816
   XY=             -0.5920   XZ=              3.4946   YZ=             18.2667
 Octapole moment (field-independent basis, Debye-Ang**2):
  XXX=           -700.6056  YYY=             15.1157  ZZZ=              0.9327  XYY=            -77.3357
  XXY=              6.6043  XXZ=              6.3522  XZZ=            -73.1838  YZZ=             -0.3059
  YYZ=              0.2281  XYZ=             30.4274
 Hexadecapole moment (field-independent basis, Debye-Ang**3):
 XXXX=         -12402.4260 YYYY=          -5361.6862 ZZZZ=          -3018.1048 XXXY=             44.6673
 XXXZ=            111.0160 YYYX=            -12.9842 YYYZ=            209.6849 ZZZX=             78.9806
 ZZZY=             13.8738 XXYY=          -2502.2440 XXZZ=          -2163.8016 YYZZ=          -1442.3233
 XXYZ=            227.4282 YYXZ=             27.6346 ZZXY=             -8.8628
 N-N= 3.659459774710D+03 E-N=-1.067377909170D+04  KE= 1.436270253021D+03
                          Isotropic Fermi Contact Couplings
        Atom                 a.u.       MegaHertz       Gauss      10(-4) cm-1
     1  C(13)              0.04665      26.22250       9.35684       8.74689
     2  C(13)              0.05096      28.64331      10.22064       9.55438
     3  C(13)             -0.03464     -19.47113      -6.94778      -6.49487
     4  C(13)              0.04945      27.79386       9.91754       9.27103
     5  C(13)              0.04711      26.47964       9.44859       8.83266
     6  C(13)             -0.03269     -18.37461      -6.55652      -6.12911
     7  H(1)               0.00109       2.43038       0.86722       0.81069
     8  H(1)               0.00096       2.14638       0.76588       0.71595
     9  C(13)             -0.02678     -15.05289      -5.37125      -5.02110
    10  N(14)              0.03166       5.11395       1.82478       1.70583
    11  C(13)             -0.02976     -16.72519      -5.96797      -5.57892
    12  N(14)              0.03717       6.00543       2.14289       2.00320
    13  C(13)              0.00002       0.01252       0.00447       0.00418
    14  C(13)             -0.00257      -1.44349      -0.51507      -0.48150
    15  C(13)              0.01799      10.11012       3.60754       3.37237
    16  C(13)              0.01224       6.88055       2.45515       2.29510
    17  C(13)              0.01727       9.70749       3.46387       3.23807
    18  C(13)             -0.00019      -0.10441      -0.03725      -0.03483
    19  C(13)             -0.01145      -6.43332      -2.29557      -2.14592
    20  H(1)              -0.00173      -3.87461      -1.38256      -1.29243
    21  C(13)             -0.00769      -4.32046      -1.54165      -1.44115
    22  C(13)             -0.00658      -3.70053      -1.32044      -1.23436
    23  H(1)              -0.00142      -3.16489      -1.12931      -1.05569
    24  C(13)              0.00232       1.30417       0.46536       0.43502
    25  C(13)              0.01909      10.72992       3.82870       3.57912
    26  H(1)               0.00046       1.03292       0.36857       0.34454
    27  H(1)               0.00034       0.75777       0.27039       0.25277
    28  C(13)              0.00984       5.53177       1.97387       1.84520
    29  H(1)               0.00023       0.51684       0.18442       0.17240
    30  H(1)              -0.00045      -1.00781      -0.35961      -0.33617
    31  H(1)              -0.00172      -3.85144      -1.37429      -1.28470
    32  H(1)              -0.00105      -2.33901      -0.83462      -0.78021
    33  C(13)              0.00005       0.02757       0.00984       0.00919
    34  C(13)              0.00427       2.40078       0.85666       0.80081
    35  C(13)              0.01137       6.38852       2.27958       2.13098
    36  C(13)             -0.00172      -0.96807      -0.34543      -0.32291
    37  C(13)              0.01220       6.85495       2.44602       2.28656
    38  C(13)              0.01102       6.19282       2.20975       2.06570
    39  C(13)             -0.00308      -1.73168      -0.61791      -0.57763
    40  H(1)              -0.00082      -1.82317      -0.65055      -0.60814
    41  C(13)              0.00322       1.80911       0.64553       0.60345
    42  C(13)             -0.00835      -4.69093      -1.67384      -1.56473
    43  H(1)              -0.00124      -2.76360      -0.98612      -0.92184
    44  C(13)             -0.00657      -3.69306      -1.31777      -1.23187
    45  C(13)              0.00483       2.71551       0.96896       0.90580
    46  H(1)               0.00008       0.18551       0.06619       0.06188
    47  H(1)              -0.00042      -0.93304      -0.33293      -0.31123
    48  C(13)              0.01426       8.01282       2.85917       2.67279
    49  H(1)               0.00034       0.76305       0.27227       0.25452
    50  H(1)               0.00036       0.79862       0.28497       0.26639
    51  H(1)              -0.00057      -1.28108      -0.45712      -0.42732
    52  H(1)              -0.00127      -2.83879      -1.01295      -0.94692
    53  N(14)              0.03990       6.44628       2.30019       2.15025
    54  N(14)              0.02645       4.27370       1.52496       1.42555
 --------------------------------------------------------
       Center         ----  Spin Dipole Couplings  ----
                      3XX-RR        3YY-RR        3ZZ-RR
 --------------------------------------------------------
     1   Atom       -0.148229      0.054327      0.093902
     2   Atom       -0.146240      0.057845      0.088395
     3   Atom        0.053023     -0.026615     -0.026408
     4   Atom       -0.180244      0.116817      0.063427
     5   Atom       -0.171586      0.111455      0.060130
     6   Atom        0.054587     -0.026984     -0.027603
     7   Atom        0.007646     -0.003887     -0.003759
     8   Atom        0.007913     -0.003856     -0.004057
     9   Atom        0.030752     -0.017311     -0.013441
    10   Atom       -0.143273      0.089664      0.053609
    11   Atom        0.039037     -0.019438     -0.019599
    12   Atom       -0.172218      0.104616      0.067601
    13   Atom        0.008078      0.009419     -0.017496
    14   Atom        0.017617     -0.003601     -0.014015
    15   Atom       -0.033538     -0.010063      0.043601
    16   Atom       -0.029274     -0.010377      0.039652
    17   Atom       -0.039318      0.002295      0.037023
    18   Atom       -0.002821     -0.003659      0.006480
    19   Atom        0.012029      0.006299     -0.018328
    20   Atom        0.004512      0.000840     -0.005353
    21   Atom        0.004667      0.005457     -0.010124
    22   Atom        0.006191     -0.000926     -0.005266
    23   Atom        0.004251     -0.002491     -0.001759
    24   Atom       -0.007485     -0.003217      0.010702
    25   Atom       -0.037682     -0.010234      0.047916
    26   Atom        0.000498      0.001350     -0.001848
    27   Atom        0.000685      0.000588     -0.001273
    28   Atom       -0.017277     -0.012818      0.030096
    29   Atom        0.000326     -0.000361      0.000035
    30   Atom        0.001753      0.000240     -0.001994
    31   Atom       -0.003852      0.006147     -0.002295
    32   Atom        0.002331     -0.002814      0.000483
    33   Atom        0.015719     -0.004144     -0.011575
    34   Atom        0.005453      0.005072     -0.010525
    35   Atom       -0.027205      0.007090      0.020115
    36   Atom        0.000346     -0.001986      0.001640
    37   Atom       -0.026459     -0.003958      0.030417
    38   Atom       -0.026734     -0.007190      0.033924
    39   Atom        0.001795     -0.002555      0.000760
    40   Atom        0.002487     -0.002707      0.000221
    41   Atom       -0.008341     -0.002371      0.010713
    42   Atom        0.009759      0.004487     -0.014246
    43   Atom        0.002881      0.002162     -0.005043
    44   Atom        0.006178      0.004189     -0.010366
    45   Atom       -0.009921     -0.006737      0.016658
    46   Atom       -0.000211     -0.000248      0.000459
    47   Atom        0.001781     -0.000208     -0.001573
    48   Atom       -0.031922     -0.002754      0.034676
    49   Atom        0.000385      0.001250     -0.001635
    50   Atom        0.000349      0.000788     -0.001136
    51   Atom        0.001583     -0.001754      0.000171
    52   Atom       -0.002810      0.004306     -0.001496
    53   Atom       -0.145960     -0.104362      0.250322
    54   Atom       -0.105114     -0.079280      0.184394
 --------------------------------------------------------
                        XY            XZ            YZ
 --------------------------------------------------------
     1   Atom        0.023460      0.032315      0.229211
     2   Atom       -0.019557     -0.024226      0.219538
     3   Atom       -0.002659     -0.001975     -0.059627
     4   Atom       -0.003985      0.001272      0.273075
     5   Atom        0.026877      0.020349      0.262514
     6   Atom        0.000792     -0.001289     -0.058034
     7   Atom       -0.001072      0.001026     -0.003470
     8   Atom        0.001039     -0.002071     -0.003686
     9   Atom        0.019635     -0.025771     -0.023781
    10   Atom        0.015221      0.033062      0.205508
    11   Atom       -0.024828      0.024344     -0.024496
    12   Atom        0.007808     -0.015754      0.238011
    13   Atom       -0.018118     -0.002104      0.024678
    14   Atom        0.001479      0.020433      0.018575
    15   Atom        0.019325     -0.034863     -0.054159
    16   Atom        0.005745     -0.011286     -0.044550
    17   Atom        0.013459     -0.013064     -0.061603
    18   Atom        0.003009     -0.003577     -0.009178
    19   Atom       -0.009320      0.010732      0.020169
    20   Atom       -0.001287      0.003317      0.000842
    21   Atom       -0.005312      0.007867      0.010494
    22   Atom       -0.001412      0.006285      0.008126
    23   Atom       -0.002618      0.000296      0.003266
    24   Atom        0.007210     -0.010643     -0.015053
    25   Atom        0.020078     -0.037937     -0.059744
    26   Atom       -0.001878     -0.000150      0.001090
    27   Atom       -0.000465      0.000920      0.001111
    28   Atom        0.015190     -0.024014     -0.031778
    29   Atom        0.001349      0.002271      0.001203
    30   Atom       -0.002914      0.000199      0.000099
    31   Atom       -0.005916     -0.003955      0.002346
    32   Atom        0.003803      0.004120      0.001067
    33   Atom       -0.002690     -0.014435      0.012752
    34   Atom        0.014636      0.007983      0.017330
    35   Atom       -0.006026      0.002500     -0.042850
    36   Atom        0.000010     -0.001321     -0.003274
    37   Atom       -0.011083      0.020059     -0.039155
    38   Atom       -0.000680      0.002184     -0.041168
    39   Atom       -0.000657     -0.002461      0.001828
    40   Atom        0.001037     -0.000724      0.002916
    41   Atom       -0.005761      0.008221     -0.015569
    42   Atom        0.005903     -0.005849      0.015637
    43   Atom        0.000487     -0.002128      0.001018
    44   Atom        0.005161     -0.006062      0.011254
    45   Atom       -0.007775      0.011320     -0.017658
    46   Atom       -0.001296     -0.002044      0.001087
    47   Atom        0.002516     -0.000149     -0.000106
    48   Atom       -0.011629      0.021949     -0.047538
    49   Atom        0.001372      0.000213      0.000922
    50   Atom        0.000767     -0.000506      0.000816
    51   Atom       -0.002208     -0.002838      0.000647
    52   Atom        0.004765      0.003104      0.001934
    53   Atom        0.105436     -0.205684     -0.252468
    54   Atom       -0.076003      0.152192     -0.183105
 --------------------------------------------------------


 ---------------------------------------------------------------------------------
              Anisotropic Spin Dipole Couplings in Principal Axis System
 ---------------------------------------------------------------------------------

       Atom             a.u.   MegaHertz   Gauss  10(-4) cm-1        Axes

              Baa    -0.1588   -21.314    -7.605    -7.110 -0.5341 -0.5911  0.6044
     1 C(13)  Bbb    -0.1488   -19.967    -7.125    -6.660  0.8410 -0.4448  0.3081
              Bcc     0.3076    41.281    14.730    13.770  0.0867  0.6728  0.7347
 
              Baa    -0.1500   -20.132    -7.184    -6.715  0.8090 -0.3891  0.4405
     2 C(13)  Bbb    -0.1453   -19.504    -6.960    -6.506  0.5836  0.6212 -0.5230
              Bcc     0.2954    39.636    14.143    13.221 -0.0702  0.6802  0.7297
 
              Baa    -0.0862   -11.569    -4.128    -3.859  0.0235  0.7076  0.7062
     3 C(13)  Bbb     0.0331     4.442     1.585     1.482 -0.0240 -0.7058  0.7080
              Bcc     0.0531     7.127     2.543     2.377  0.9994 -0.0336  0.0004
 
              Baa    -0.1864   -25.012    -8.925    -8.343 -0.5080 -0.5801  0.6367
     4 C(13)  Bbb    -0.1781   -23.902    -8.529    -7.973  0.8614 -0.3388  0.3785
              Bcc     0.3645    48.913    17.454    16.316 -0.0038  0.7407  0.6718
 
              Baa    -0.1795   -24.089    -8.595    -8.035  0.4577 -0.6185  0.6387
     5 C(13)  Bbb    -0.1722   -23.108    -8.246    -7.708  0.8868  0.2659 -0.3781
              Bcc     0.3517    47.197    16.841    15.743  0.0640  0.7394  0.6702
 
              Baa    -0.0853   -11.450    -4.086    -3.819  0.0025  0.7052  0.7090
     6 C(13)  Bbb     0.0307     4.113     1.468     1.372 -0.0613  0.7078 -0.7038
              Bcc     0.0547     7.337     2.618     2.447  0.9981  0.0417 -0.0451
 
              Baa    -0.0073    -3.892    -1.389    -1.298  0.0031  0.7141  0.7001
     7 H(1)   Bbb    -0.0006    -0.330    -0.118    -0.110 -0.1766 -0.6887  0.7032
              Bcc     0.0079     4.221     1.506     1.408  0.9843 -0.1259  0.1240
 
              Baa    -0.0077    -4.099    -1.463    -1.367  0.0507  0.6857  0.7261
     8 H(1)   Bbb    -0.0008    -0.434    -0.155    -0.145 -0.2410  0.7140 -0.6574
              Bcc     0.0085     4.533     1.617     1.512  0.9692  0.1417 -0.2015
 
              Baa    -0.0394    -5.290    -1.888    -1.765  0.0624  0.7047  0.7068
     9 C(13)  Bbb    -0.0144    -1.930    -0.689    -0.644 -0.5769  0.6034 -0.5506
              Bcc     0.0538     7.220     2.576     2.408  0.8144  0.3734 -0.4441
 
              Baa    -0.1554    -5.995    -2.139    -2.000  0.8258  0.3313 -0.4563
    10 N(14)  Bbb    -0.1252    -4.827    -1.722    -1.610 -0.5584  0.5938 -0.5793
              Bcc     0.2806    10.822     3.862     3.610  0.0790  0.7332  0.6754
 
              Baa    -0.0440    -5.907    -2.108    -1.970  0.0049  0.7084  0.7058
    11 C(13)  Bbb    -0.0167    -2.242    -0.800    -0.748 -0.5292 -0.5971  0.6029
              Bcc     0.0607     8.149     2.908     2.718  0.8485 -0.3765  0.3720
 
              Baa    -0.1820    -7.018    -2.504    -2.341  0.8669 -0.3322  0.3716
    12 N(14)  Bbb    -0.1429    -5.512    -1.967    -1.839 -0.4983 -0.5927  0.6328
              Bcc     0.3249    12.530     4.471     4.180 -0.0100  0.7337  0.6794
 
              Baa    -0.0336    -4.515    -1.611    -1.506 -0.1972 -0.5486  0.8125
    13 C(13)  Bbb    -0.0011    -0.153    -0.055    -0.051  0.8181  0.3645  0.4447
              Bcc     0.0348     4.668     1.666     1.557 -0.5401  0.7525  0.3769
 
              Baa    -0.0332    -4.452    -1.589    -1.485 -0.3121 -0.4940  0.8115
    14 C(13)  Bbb     0.0025     0.334     0.119     0.111 -0.4930  0.8144  0.3062
              Bcc     0.0307     4.119     1.470     1.374  0.8121  0.3046  0.4977
 
              Baa    -0.0473    -6.350    -2.266    -2.118  0.8477  0.2445  0.4707
    15 C(13)  Bbb    -0.0427    -5.732    -2.045    -1.912 -0.4327  0.8320  0.3472
              Bcc     0.0900    12.083     4.311     4.030 -0.3067 -0.4980  0.8111
 
              Baa    -0.0366    -4.905    -1.750    -1.636  0.1290  0.8476  0.5147
    16 C(13)  Bbb    -0.0308    -4.137    -1.476    -1.380  0.9831 -0.1772  0.0454
              Bcc     0.0674     9.042     3.226     3.016 -0.1297 -0.5001  0.8562
 
              Baa    -0.0462    -6.205    -2.214    -2.070 -0.5524  0.7092  0.4381
    17 C(13)  Bbb    -0.0402    -5.389    -1.923    -1.798  0.8207  0.3707  0.4348
              Bcc     0.0864    11.594     4.137     3.867 -0.1460 -0.5997  0.7868
 
              Baa    -0.0092    -1.233    -0.440    -0.411 -0.1429  0.8679  0.4758
    18 C(13)  Bbb    -0.0040    -0.542    -0.193    -0.181  0.9503 -0.0140  0.3110
              Bcc     0.0132     1.774     0.633     0.592 -0.2766 -0.4966  0.8227
 
              Baa    -0.0339    -4.546    -1.622    -1.517 -0.2911 -0.4823  0.8263
    19 C(13)  Bbb     0.0141     1.893     0.675     0.631  0.7513  0.4195  0.5095
              Bcc     0.0198     2.654     0.947     0.885 -0.5923  0.7691  0.2402
 
              Baa    -0.0066    -3.497    -1.248    -1.167 -0.3004 -0.1593  0.9404
    20 H(1)   Bbb     0.0008     0.442     0.158     0.147  0.1477  0.9663  0.2109
              Bcc     0.0057     3.056     1.090     1.019  0.9423 -0.2022  0.2667
 
              Baa    -0.0191    -2.568    -0.916    -0.856 -0.3685 -0.4311  0.8237
    21 C(13)  Bbb     0.0079     1.066     0.380     0.355  0.8606  0.1768  0.4775
              Bcc     0.0112     1.502     0.536     0.501 -0.3515  0.8848  0.3059
 
              Baa    -0.0133    -1.784    -0.637    -0.595 -0.2925 -0.5481  0.7836
    22 C(13)  Bbb     0.0037     0.503     0.179     0.168 -0.4917  0.7890  0.3684
              Bcc     0.0095     1.281     0.457     0.427  0.8202  0.2776  0.5003
 
              Baa    -0.0059    -3.139    -1.120    -1.047  0.2139  0.7582 -0.6159
    23 H(1)   Bbb     0.0006     0.337     0.120     0.112  0.3262  0.5388  0.7767
              Bcc     0.0053     2.802     1.000     0.935  0.9208 -0.3671 -0.1320
 
              Baa    -0.0130    -1.749    -0.624    -0.583 -0.4849  0.8204  0.3029
    24 C(13)  Bbb    -0.0123    -1.653    -0.590    -0.551  0.7950  0.2692  0.5436
              Bcc     0.0254     3.402     1.214     1.135 -0.3644 -0.5044  0.7828
 
              Baa    -0.0528    -7.085    -2.528    -2.363  0.8302  0.2828  0.4805
    25 C(13)  Bbb    -0.0459    -6.163    -2.199    -2.056 -0.4702  0.8182  0.3308
              Bcc     0.0987    13.248     4.727     4.419 -0.2996 -0.5005  0.8122
 
              Baa    -0.0023    -1.212    -0.432    -0.404 -0.2082 -0.3793  0.9016
    26 H(1)   Bbb    -0.0008    -0.408    -0.145    -0.136  0.7793  0.4927  0.3872
              Bcc     0.0030     1.620     0.578     0.540 -0.5911  0.7832  0.1930
 
              Baa    -0.0022    -1.155    -0.412    -0.385 -0.3401 -0.4008  0.8507
    27 H(1)   Bbb     0.0010     0.557     0.199     0.186  0.8493  0.2576  0.4609
              Bcc     0.0011     0.598     0.213     0.199 -0.4038  0.8792  0.2528
 
              Baa    -0.0310    -4.164    -1.486    -1.389 -0.5170  0.8256  0.2261
    28 C(13)  Bbb    -0.0267    -3.578    -1.277    -1.194  0.7795  0.3449  0.5229
              Bcc     0.0577     7.742     2.763     2.583 -0.3537 -0.4466  0.8219
 
              Baa    -0.0021    -1.119    -0.399    -0.373 -0.6961  0.0442  0.7166
    29 H(1)   Bbb    -0.0012    -0.662    -0.236    -0.221 -0.2874  0.8975 -0.3346
              Bcc     0.0033     1.781     0.636     0.594  0.6579  0.4388  0.6120
 
              Baa    -0.0022    -1.177    -0.420    -0.392 -0.4512 -0.5657  0.6902
    30 H(1)   Bbb    -0.0018    -0.963    -0.343    -0.321  0.4128  0.5533  0.7235
              Bcc     0.0040     2.139     0.763     0.714  0.7912 -0.6114  0.0161
 
              Baa    -0.0080    -4.265    -1.522    -1.422  0.8393  0.2731  0.4701
    31 H(1)   Bbb    -0.0021    -1.121    -0.400    -0.374 -0.3145 -0.4615  0.8295
              Bcc     0.0101     5.386     1.922     1.796 -0.4435  0.8441  0.3015
 
              Baa    -0.0051    -2.717    -0.970    -0.906 -0.5485  0.7970  0.2528
    32 H(1)   Bbb    -0.0019    -1.023    -0.365    -0.341 -0.3408 -0.4892  0.8028
              Bcc     0.0070     3.740     1.335     1.248  0.7635  0.3542  0.5400
 
              Baa    -0.0239    -3.208    -1.145    -1.070  0.2672 -0.4965  0.8259
    33 C(13)  Bbb    -0.0002    -0.031    -0.011    -0.010  0.4527  0.8213  0.3473
              Bcc     0.0241     3.240     1.156     1.081  0.8507 -0.2811 -0.4442
 
              Baa    -0.0218    -2.926    -1.044    -0.976  0.0620 -0.5644  0.8231
    34 C(13)  Bbb    -0.0066    -0.879    -0.314    -0.293  0.8066 -0.4574 -0.3744
              Bcc     0.0284     3.806     1.358     1.269  0.5878  0.6872  0.4269
 
              Baa    -0.0318    -4.266    -1.522    -1.423  0.5724  0.6457  0.5054
    35 C(13)  Bbb    -0.0256    -3.429    -1.224    -1.144  0.8171 -0.3974 -0.4176
              Bcc     0.0573     7.695     2.746     2.567  0.0688 -0.6520  0.7551
 
              Baa    -0.0040    -0.539    -0.192    -0.180  0.1559  0.8388  0.5216
    36 C(13)  Bbb     0.0001     0.011     0.004     0.004  0.9387 -0.2902  0.1862
              Bcc     0.0039     0.529     0.189     0.176 -0.3075 -0.4606  0.8327
 
              Baa    -0.0331    -4.444    -1.586    -1.482  0.8812 -0.2241 -0.4163
    37 C(13)  Bbb    -0.0288    -3.863    -1.378    -1.289  0.4009  0.8207  0.4070
              Bcc     0.0619     8.307     2.964     2.771  0.2505 -0.5255  0.8131
 
              Baa    -0.0327    -4.388    -1.566    -1.464 -0.0960  0.8454  0.5255
    38 C(13)  Bbb    -0.0267    -3.588    -1.280    -1.197  0.9951  0.0951  0.0287
              Bcc     0.0594     7.976     2.846     2.661  0.0257 -0.5256  0.8503
 
              Baa    -0.0034    -0.457    -0.163    -0.152 -0.1004  0.8879 -0.4490
    39 C(13)  Bbb    -0.0008    -0.108    -0.039    -0.036  0.6828  0.3897  0.6179
              Bcc     0.0042     0.565     0.202     0.189  0.7236 -0.2445 -0.6454
 
              Baa    -0.0047    -2.522    -0.900    -0.841 -0.1724  0.8374 -0.5187
    40 H(1)   Bbb     0.0020     1.074     0.383     0.358  0.0994  0.5387  0.8366
              Bcc     0.0027     1.448     0.517     0.483  0.9800  0.0927 -0.1761
 
              Baa    -0.0128    -1.712    -0.611    -0.571  0.1696  0.8476  0.5028
    41 C(13)  Bbb    -0.0114    -1.529    -0.546    -0.510  0.9403  0.0135 -0.3401
              Bcc     0.0242     3.242     1.157     1.081  0.2951 -0.5305  0.7947
 
              Baa    -0.0250    -3.349    -1.195    -1.117  0.2253 -0.4918  0.8410
    42 C(13)  Bbb     0.0101     1.357     0.484     0.453  0.8049 -0.3924 -0.4451
              Bcc     0.0148     1.992     0.711     0.664  0.5489  0.7773  0.3075
 
              Baa    -0.0057    -3.059    -1.092    -1.020  0.2449 -0.1388  0.9596
    43 H(1)   Bbb     0.0023     1.213     0.433     0.405 -0.1511  0.9722  0.1791
              Bcc     0.0035     1.846     0.659     0.616  0.9577  0.1888 -0.2171
 
              Baa    -0.0189    -2.539    -0.906    -0.847  0.2975 -0.4709  0.8305
    44 C(13)  Bbb     0.0077     1.030     0.368     0.344  0.8197 -0.3200 -0.4751
              Bcc     0.0112     1.509     0.538     0.503  0.4895  0.8221  0.2908
 
              Baa    -0.0170    -2.284    -0.815    -0.762  0.4676  0.8377  0.2820
    45 C(13)  Bbb    -0.0137    -1.840    -0.656    -0.614  0.8245 -0.2984 -0.4808
              Bcc     0.0307     4.124     1.471     1.376  0.3187 -0.4574  0.8302
 
              Baa    -0.0020    -1.078    -0.384    -0.359  0.7980  0.2461  0.5501
    46 H(1)   Bbb    -0.0010    -0.546    -0.195    -0.182  0.0865  0.8566 -0.5086
              Bcc     0.0030     1.624     0.579     0.542 -0.5964  0.4535  0.6623
 
              Baa    -0.0019    -1.024    -0.365    -0.341 -0.5620  0.8271  0.0118
    47 H(1)   Bbb    -0.0016    -0.843    -0.301    -0.281  0.0364  0.0105  0.9993
              Bcc     0.0035     1.866     0.666     0.623  0.8264  0.5620 -0.0360
 
              Baa    -0.0394    -5.288    -1.887    -1.764  0.8262 -0.3300 -0.4566
    48 C(13)  Bbb    -0.0335    -4.491    -1.602    -1.498  0.5145  0.7721  0.3730
              Bcc     0.0729     9.779     3.489     3.262  0.2294 -0.5430  0.8077
 
              Baa    -0.0019    -1.026    -0.366    -0.342  0.1022 -0.3180  0.9426
    49 H(1)   Bbb    -0.0005    -0.277    -0.099    -0.093  0.8241 -0.5036 -0.2592
              Bcc     0.0024     1.304     0.465     0.435  0.5571  0.8033  0.2106
 
              Baa    -0.0017    -0.915    -0.326    -0.305  0.3524 -0.3859  0.8526
    50 H(1)   Bbb     0.0003     0.155     0.055     0.052  0.7778 -0.3858 -0.4961
              Bcc     0.0014     0.760     0.271     0.253  0.5204  0.8380  0.1642
 
              Baa    -0.0031    -1.655    -0.590    -0.552  0.5605  0.7568  0.3364
    51 H(1)   Bbb    -0.0014    -0.768    -0.274    -0.256  0.3052 -0.5663  0.7656
              Bcc     0.0045     2.423     0.865     0.808  0.7699 -0.3264 -0.5484
 
              Baa    -0.0061    -3.274    -1.168    -1.092  0.8455 -0.3045 -0.4386
    52 H(1)   Bbb    -0.0016    -0.875    -0.312    -0.292  0.2608 -0.4812  0.8369
              Bcc     0.0078     4.150     1.481     1.384  0.4659  0.8220  0.3274
 
              Baa    -0.2360    -9.102    -3.248    -3.036  0.3369  0.7698  0.5421
    53 N(14)  Bbb    -0.2324    -8.965    -3.199    -2.990  0.8732 -0.4708  0.1258
              Bcc     0.4685    18.067     6.447     6.027 -0.3521 -0.4310  0.8308
 
              Baa    -0.1737    -6.700    -2.391    -2.235 -0.3514  0.7646  0.5403
    54 N(14)  Bbb    -0.1691    -6.520    -2.327    -2.175  0.8663  0.4844 -0.1221
              Bcc     0.3428    13.221     4.717     4.410  0.3550 -0.4251  0.8326
 

 ---------------------------------------------------------------------------------

 Calling FoFJK, ICntrl=      2127 FMM=F ISym2X=0 I1Cent= 0 IOpClX= 1 NMat=1 NMatS=1 NMatT=0.
 -------------------------------------------------------------------
 Center     Atomic                   Forces (Hartrees/Bohr)
 Number     Number              X              Y              Z
 -------------------------------------------------------------------
      1        6          -0.008053324    0.008190367   -0.004344710
      2        6          -0.002057804   -0.008620998    0.003666752
      3        6          -0.003058646   -0.004394276    0.000243595
      4        6           0.000811035   -0.004637976    0.005369768
      5        6           0.002800688    0.007934471   -0.009078460
      6        6           0.001894566    0.003489879    0.002236297
      7        1          -0.000316321    0.000151997    0.000154252
      8        1          -0.000315758   -0.000280818   -0.000672024
      9        6          -0.021608592   -0.010031718    0.012125571
     10        7           0.017870904    0.007664199   -0.009473271
     11        6           0.016107617   -0.006133575    0.007732813
     12        7          -0.015199624    0.005907046   -0.007046330
     13        6          -0.000717190    0.012121092   -0.000867412
     14        6          -0.003056606   -0.004792642    0.001215874
     15        6          -0.002411956   -0.001951091   -0.002676248
     16        6           0.004714082   -0.001908332   -0.000766899
     17        6          -0.001630412    0.001521810   -0.000957661
     18        6           0.001970983    0.000660601    0.001319784
     19        6          -0.000947064    0.000435434   -0.000586310
     20        1           0.000183429   -0.000814138    0.001273587
     21        6           0.000880629    0.003489275    0.002833881
     22        6           0.002696452   -0.000464716    0.000298513
     23        1           0.000718599    0.000180784   -0.000573183
     24        6          -0.001775616   -0.003824987   -0.002760063
     25        6          -0.001776713   -0.001222440   -0.001395214
     26        1          -0.000132247    0.000321925   -0.000021237
     27        1          -0.000493399   -0.000534389    0.000265937
     28        6          -0.001061579    0.004223455    0.002497714
     29        1          -0.000156330    0.000021328   -0.000062614
     30        1          -0.000532999   -0.000382131    0.000837313
     31        1          -0.000351369   -0.000069506    0.000362836
     32        1          -0.000253452   -0.000097014   -0.000090032
     33        6          -0.002296650    0.004006454   -0.000393247
     34        6          -0.004470205   -0.009133336    0.002222651
     35        6          -0.000151299   -0.001453268    0.000161042
     36        6          -0.000442664   -0.000239892   -0.000228527
     37        6           0.003309611    0.002044412    0.001378806
     38        6           0.006508444    0.001593704    0.000065309
     39        6           0.001134347    0.001134892    0.000487131
     40        1           0.000652161    0.000144055    0.000301185
     41        6           0.000255757    0.000930356    0.000171298
     42        6          -0.005892057   -0.001656410    0.000618779
     43        1          -0.001802656    0.000642436   -0.000464763
     44        6          -0.002483181   -0.001443200   -0.000559070
     45        6           0.000438184   -0.000892991   -0.001295083
     46        1           0.000397888   -0.000205027   -0.000226262
     47        1           0.000079033    0.000108207   -0.000512128
     48        6           0.004777595    0.000761518   -0.000673974
     49        1           0.000392355   -0.000118678   -0.000679796
     50        1           0.000788507    0.000288055   -0.000457645
     51        1           0.000017369    0.000313003   -0.000034786
     52        1          -0.000638988   -0.000739145   -0.000004522
     53        7           0.008321919   -0.005915007   -0.000714258
     54        7           0.006362547    0.003676945   -0.000224959
 -------------------------------------------------------------------
 Cartesian Forces:  Max     0.021608592 RMS     0.004388017

 GradGradGradGradGradGradGradGradGradGradGradGradGradGradGradGradGradGrad
 Berny optimization.
 Search for a local minimum.
 Step number   1 out of a maximum of    2
 All quantities printed in internal units (Hartrees-Bohrs-Radians)
 Second derivative matrix not updated -- first step.
 ITU=  0
     Eigenvalues ---    0.00008   0.00009   0.00022   0.00075   0.00079
     Eigenvalues ---    0.00114   0.00182   0.00266   0.00292   0.00300
     Eigenvalues ---    0.00322   0.00448   0.00716   0.00849   0.00933
     Eigenvalues ---    0.01019   0.01227   0.01234   0.01250   0.01253
     Eigenvalues ---    0.01678   0.02380   0.02425   0.02531   0.02584
     Eigenvalues ---    0.02606   0.02616   0.02736   0.02955   0.03424
     Eigenvalues ---    0.03444   0.03626   0.04610   0.04646   0.04702
     Eigenvalues ---    0.04978   0.06579   0.06740   0.06998   0.07010
     Eigenvalues ---    0.07022   0.07031   0.07054   0.07062   0.07100
     Eigenvalues ---    0.07109   0.07449   0.07905   0.07923   0.07941
     Eigenvalues ---    0.08626   0.08983   0.09454   0.10183   0.10545
     Eigenvalues ---    0.10657   0.10771   0.10792   0.11101   0.12441
     Eigenvalues ---    0.12476   0.12506   0.12629   0.12874   0.13598
     Eigenvalues ---    0.13718   0.13878   0.15062   0.15071   0.15295
     Eigenvalues ---    0.17581   0.18413   0.19500   0.19642   0.21244
     Eigenvalues ---    0.21857   0.23489   0.24133   0.26498   0.27640
     Eigenvalues ---    0.28054   0.28243   0.29738   0.30090   0.30774
     Eigenvalues ---    0.30929   0.31617   0.32978   0.35672   0.35798
     Eigenvalues ---    0.35808   0.36579   0.38145   0.40837   0.42819
     Eigenvalues ---    0.43075   0.43137   0.43374   0.45966   0.47666
     Eigenvalues ---    0.48252   0.49832   0.50398   0.50603   0.50734
     Eigenvalues ---    0.52508   0.53242   0.59322   0.60291   0.62260
     Eigenvalues ---    0.64161   0.71261   0.71395   0.74392   0.77902
     Eigenvalues ---    0.81858   0.82459   0.89800   0.90504   0.94736
     Eigenvalues ---    1.02904   1.06595   1.11012   1.12845   1.14132
     Eigenvalues ---    1.15085   1.15219   1.15434   1.19127   1.20041
     Eigenvalues ---    1.26363   1.29852   1.30674   1.39782   1.40171
     Eigenvalues ---    1.41102   1.43151   1.48863   1.49142   1.49651
     Eigenvalues ---    1.49886   1.50148   1.54610   1.58565   1.64303
     Eigenvalues ---    1.65049   1.66848   1.69622   1.71173   1.74534
     Eigenvalues ---    1.76083   1.76713   2.71029   2.90793  27.56632
     Eigenvalues ---  179.55818
 Eigenvalue     1 is   8.02D-05 Eigenvector:
                          Z51       Z46       Z32       Z45       X49
   1                    0.21175   0.18783  -0.17790   0.17113  -0.16720
                          X46       X29       X52       X26       Z39
   1                    0.16591   0.16060  -0.15981  -0.15812   0.15740
 Eigenvalue     2 is   9.21D-05 Eigenvector:
                          Z29       Z26       Z31       Z52       Z49
   1                    0.22092  -0.22043  -0.21678  -0.21409  -0.20596
                          Z46       Z32       Z19       Z25       Z48
   1                    0.17825   0.16992  -0.16978  -0.16770  -0.16754
 Quadratic step=4.355D+00 exceeds max=3.000D-01 adjusted using Lamda=-8.210D-03.
 Angle between NR and scaled steps=  55.18 degrees.
 Angle between quadratic step and forces=  77.39 degrees.
 Linear search not attempted -- first point.
 B after Tr=     0.000893   -0.000375    0.000492
         Rot=    1.000000    0.000163    0.000148    0.000052 Ang=   0.03 deg.
 Variable       Old X    -DE/DX   Delta X   Delta X   Delta X     New X
                                 (Linear)    (Quad)   (Total)
    X1        2.66223  -0.00805   0.00000  -0.00922  -0.00796   2.65427
    Y1        0.94003   0.00819   0.00000   0.02689   0.02595   0.96597
    Z1       -0.90788  -0.00434   0.00000   0.00981   0.01077  -0.89711
    X2        2.69204  -0.00206   0.00000  -0.00570  -0.00522   2.68682
    Y2       -0.94566  -0.00862   0.00000  -0.03846  -0.03877  -0.98443
    Z2        1.05788   0.00367   0.00000  -0.02069  -0.01908   1.03880
    X3        4.98123  -0.00306   0.00000  -0.01363  -0.01350   4.96773
    Y3       -1.84068  -0.00439   0.00000  -0.06238  -0.06266  -1.90334
    Z3        1.92222   0.00024   0.00000  -0.02970  -0.02712   1.89510
    X4        7.26933   0.00081   0.00000  -0.00948  -0.00897   7.26036
    Y4       -0.93718  -0.00464   0.00000  -0.02776  -0.02859  -0.96576
    Z4        0.94296   0.00537   0.00000   0.00105   0.00401   0.94697
    X5        7.21613   0.00280   0.00000  -0.00785  -0.00654   7.20958
    Y5        0.93043   0.00793   0.00000   0.02315   0.02168   0.95210
    Z5       -1.09064  -0.00908   0.00000   0.01566   0.01799  -1.07266
    X6        4.88251   0.00189   0.00000  -0.00329  -0.00164   4.88087
    Y6        1.84654   0.00349   0.00000   0.05355   0.05206   1.89860
    Z6       -1.92020   0.00224   0.00000   0.03822   0.03955  -1.88066
    X7        5.02250  -0.00032   0.00000  -0.02074  -0.02119   5.00131
    Y7       -3.29342   0.00015   0.00000  -0.07246  -0.07227  -3.36569
    Z7        3.37383   0.00015   0.00000  -0.04036  -0.03729   3.33655
    X8        4.82428  -0.00032   0.00000  -0.00252  -0.00029   4.82399
    Y8        3.30056  -0.00028   0.00000   0.05998   0.05802   3.35858
    Z8       -3.36834  -0.00067   0.00000   0.04386   0.04469  -3.32364
    X9        9.45668  -0.02161   0.00000  -0.01002  -0.00826   9.44841
    Y9        1.82366  -0.01003   0.00000   0.01125   0.00916   1.83282
    Z9       -2.27996   0.01213   0.00000   0.02918   0.03188  -2.24808
   X10       11.22908   0.01787   0.00000   0.01331   0.01545  11.24453
   Y10        2.58227   0.00766   0.00000   0.00936   0.00675   2.58901
   Z10       -3.30130  -0.00947   0.00000   0.03310   0.03609  -3.26521
   X11        9.57341   0.01611   0.00000  -0.00595  -0.00583   9.56758
   Y11       -1.84248  -0.00613   0.00000  -0.02429  -0.02503  -1.86751
   Z11        1.93987   0.00773   0.00000   0.00303   0.00697   1.94684
   X12       11.46856  -0.01520   0.00000  -0.01593  -0.01613  11.45243
   Y12       -2.61094   0.00591   0.00000  -0.01454  -0.01520  -2.62614
   Z12        2.78953  -0.00705   0.00000  -0.00423   0.00052   2.79005
   X13       -0.62270  -0.00072   0.00000   0.01292   0.01442  -0.60828
   Y13        4.24263   0.01212   0.00000   0.05620   0.05571   4.29834
   Z13       -0.50513  -0.00087   0.00000  -0.04409  -0.04517  -0.55031
   X14       -1.65839  -0.00306   0.00000  -0.00109   0.00075  -1.65764
   Y14        0.88774  -0.00479   0.00000   0.00381   0.00267   0.89042
   Z14       -2.88192   0.00122   0.00000   0.01012   0.00983  -2.87209
   X15        0.70041  -0.00241   0.00000  -0.00508  -0.00384   0.69657
   Y15        5.98164  -0.00195   0.00000   0.04816   0.04802   6.02967
   Z15        0.99273  -0.00268   0.00000  -0.03361  -0.03488   0.95785
   X16       -3.19030   0.00471   0.00000   0.00955   0.01129  -3.17901
   Y16        4.59052  -0.00191   0.00000   0.02622   0.02578   4.61631
   Z16       -1.20678  -0.00077   0.00000  -0.01868  -0.02063  -1.22741
   X17       -1.57953  -0.00163   0.00000   0.00328   0.00529  -1.57424
   Y17       -1.37836   0.00152   0.00000   0.01627   0.01469  -1.36368
   Z17       -4.22076  -0.00096   0.00000  -0.00639  -0.00592  -4.22668
   X18       -3.85216   0.00197   0.00000   0.00137   0.00333  -3.84883
   Y18        2.40919   0.00066   0.00000   0.00648   0.00561   2.41481
   Z18       -2.75787   0.00132   0.00000   0.01036   0.00892  -2.74895
   X19       -0.61821  -0.00095   0.00000  -0.01733  -0.01612  -0.63433
   Y19        8.09329   0.00044   0.00000   0.03898   0.03925   8.13254
   Z19        1.81096  -0.00059   0.00000  -0.02555  -0.02789   1.78307
   X20        2.68071   0.00018   0.00000  -0.01357  -0.01250   2.66821
   Y20        5.68632  -0.00081   0.00000   0.03165   0.03147   5.71779
   Z20        1.43365   0.00127   0.00000   0.00271   0.00214   1.43579
   X21       -4.45176   0.00088   0.00000  -0.01041  -0.00870  -4.46046
   Y21        6.73283   0.00349   0.00000   0.01244   0.01240   6.74523
   Z21       -0.38702   0.00283   0.00000   0.00057  -0.00246  -0.38948
   X22       -3.79479   0.00270   0.00000   0.00221   0.00450  -3.79029
   Y22       -2.13200  -0.00046   0.00000   0.01196   0.01022  -2.12179
   Z22       -5.44233   0.00030   0.00000   0.00439   0.00445  -5.43788
   X23        0.14364   0.00072   0.00000   0.01331   0.01524   0.15889
   Y23       -2.47878   0.00018   0.00000   0.03165   0.02984  -2.44894
   Z23       -4.32969  -0.00057   0.00000  -0.03283  -0.03150  -4.36118
   X24       -6.00062  -0.00178   0.00000  -0.01303  -0.01077  -6.01140
   Y24        1.66247  -0.00382   0.00000  -0.01139  -0.01244   1.65003
   Z24       -4.04779  -0.00276   0.00000   0.03514   0.03331  -4.01448
   X25       -3.15145  -0.00178   0.00000  -0.02369  -0.02224  -3.17369
   Y25        8.46871  -0.00122   0.00000   0.02088   0.02120   8.48991
   Z25        1.12853  -0.00140   0.00000  -0.00893  -0.01214   1.11639
   X26        0.33528  -0.00013   0.00000  -0.02576  -0.02475   0.31053
   Y26        9.48834   0.00032   0.00000   0.03590   0.03646   9.52479
   Z26        2.97130  -0.00002   0.00000  -0.01436  -0.01687   2.95443
   X27       -6.40454  -0.00049   0.00000  -0.02422  -0.02233  -6.42686
   Y27        7.08015  -0.00053   0.00000  -0.02045  -0.02044   7.05971
   Z27       -0.90845   0.00027   0.00000   0.02800   0.02429  -0.88416
   X28       -5.96157  -0.00106   0.00000  -0.00941  -0.00699  -5.96857
   Y28       -0.63652   0.00422   0.00000  -0.00005  -0.00154  -0.63806
   Z28       -5.37651   0.00250   0.00000   0.03172   0.03065  -5.34586
   X29       -3.80436  -0.00016   0.00000   0.00307   0.00549  -3.79887
   Y29       -3.90052   0.00002   0.00000   0.01830   0.01622  -3.88431
   Z29       -6.47971  -0.00006   0.00000  -0.00702  -0.00640  -6.48610
   X30       -7.68444  -0.00053   0.00000  -0.02396  -0.02159  -7.70603
   Y30        2.83390  -0.00038   0.00000  -0.02603  -0.02690   2.80700
   Z30       -4.05502   0.00084   0.00000   0.05849   0.05578  -3.99925
   X31       -4.11828  -0.00035   0.00000  -0.03915  -0.03773  -4.15601
   Y31       10.15958  -0.00007   0.00000   0.00420   0.00484  10.16442
   Z31        1.76859   0.00036   0.00000   0.01192   0.00787   1.77646
   X32       -7.64140  -0.00025   0.00000  -0.01305  -0.01041  -7.65180
   Y32       -1.24237  -0.00010   0.00000  -0.00553  -0.00717  -1.24953
   Z32       -6.38229  -0.00009   0.00000   0.03916   0.03778  -6.34450
   X33       -1.65955  -0.00230   0.00000   0.01106   0.01097  -1.64859
   Y33       -0.91325   0.00401   0.00000  -0.00583  -0.00506  -0.91831
   Z33        3.01548  -0.00039   0.00000  -0.01417  -0.01386   3.00161
   X34       -0.57419  -0.00447   0.00000   0.00950   0.00974  -0.56445
   Y34       -4.26395  -0.00913   0.00000  -0.05470  -0.05480  -4.31875
   Z34        0.64335   0.00222   0.00000   0.03276   0.03449   0.67784
   X35       -1.63674  -0.00015   0.00000   0.02600   0.02572  -1.61102
   Y35        1.32224  -0.00145   0.00000  -0.00994  -0.00871   1.31353
   Z35        4.40959   0.00016   0.00000  -0.01027  -0.01069   4.39890
   X36       -3.86654  -0.00044   0.00000   0.01161   0.01143  -3.85511
   Y36       -2.39240  -0.00024   0.00000  -0.00693  -0.00601  -2.39841
   Z36        2.76473  -0.00023   0.00000  -0.00850  -0.00837   2.75636
   X37        0.74074   0.00331   0.00000   0.00459   0.00508   0.74582
   Y37       -6.03385   0.00204   0.00000  -0.04217  -0.04288  -6.07673
   Z37       -0.81922   0.00138   0.00000   0.02009   0.02278  -0.79644
   X38       -3.18260   0.00651   0.00000   0.01452   0.01457  -3.16803
   Y38       -4.55245   0.00159   0.00000  -0.02829  -0.02793  -4.58038
   Z38        1.21646   0.00007   0.00000   0.01649   0.01753   1.23399
   X39       -3.89645   0.00113   0.00000   0.02977   0.02924  -3.86721
   Y39        2.06426   0.00113   0.00000   0.00489   0.00672   2.07098
   Z39        5.54555   0.00049   0.00000  -0.01562  -0.01695   5.52861
   X40        0.08864   0.00065   0.00000   0.03462   0.03438   0.12302
   Y40        2.40335   0.00014   0.00000  -0.02321  -0.02209   2.38126
   Z40        4.63443   0.00030   0.00000   0.00058   0.00034   4.63477
   X41       -6.08290   0.00026   0.00000   0.01071   0.01027  -6.07264
   Y41       -1.64510   0.00093   0.00000   0.01534   0.01688  -1.62822
   Z41        3.96216   0.00017   0.00000  -0.02579  -0.02658   3.93558
   X42       -0.60517  -0.00589   0.00000  -0.00757  -0.00701  -0.61218
   Y42       -8.08141  -0.00166   0.00000  -0.03349  -0.03436  -8.11577
   Z42       -1.73302   0.00062   0.00000   0.00810   0.01105  -1.72197
   X43        2.75364  -0.00180   0.00000  -0.00739  -0.00675   2.74689
   Y43       -5.81150   0.00064   0.00000  -0.02047  -0.02151  -5.83301
   Z43       -1.17863  -0.00046   0.00000  -0.00825  -0.00505  -1.18368
   X44       -4.48842  -0.00248   0.00000   0.00243   0.00255  -4.48588
   Y44       -6.62641  -0.00144   0.00000  -0.02102  -0.02083  -6.64725
   Z44        0.27768  -0.00056   0.00000   0.00656   0.00788   0.28556
   X45       -6.08585   0.00044   0.00000   0.02074   0.02012  -6.06574
   Y45        0.60216  -0.00089   0.00000   0.01783   0.01981   0.62198
   Z45        5.34487  -0.00130   0.00000  -0.03097  -0.03248   5.31239
   X46       -3.94106   0.00040   0.00000   0.03846   0.03779  -3.90327
   Y46        3.80492  -0.00021   0.00000   0.00187   0.00406   3.80898
   Z46        6.63088  -0.00023   0.00000  -0.01183  -0.01373   6.61714
   X47       -7.78074   0.00008   0.00000   0.00438   0.00386  -7.77689
   Y47       -2.79167   0.00011   0.00000   0.02521   0.02688  -2.76479
   Z47        3.83835  -0.00051   0.00000  -0.03224  -0.03315   3.80520
   X48       -3.19998   0.00478   0.00000   0.00054   0.00091  -3.19908
   Y48       -8.37414   0.00076   0.00000  -0.02636  -0.02679  -8.40092
   Z48       -1.20561  -0.00067   0.00000   0.00947   0.01174  -1.19386
   X49        0.35566   0.00039   0.00000  -0.01331  -0.01256   0.34309
   Y49       -9.50313  -0.00012   0.00000  -0.02061  -0.02195  -9.52508
   Z49       -2.85233  -0.00068   0.00000  -0.01580  -0.01211  -2.86444
   X50       -6.48495   0.00079   0.00000  -0.00112  -0.00115  -6.48610
   Y50       -6.88131   0.00029   0.00000  -0.00268  -0.00216  -6.88347
   Z50        0.69094  -0.00046   0.00000  -0.01188  -0.01107   0.67987
   X51       -7.80233   0.00002   0.00000   0.02050   0.01967  -7.78267
   Y51        1.20752   0.00031   0.00000   0.02903   0.03150   1.23902
   Z51        6.28822  -0.00003   0.00000  -0.03693  -0.03915   6.24907
   X52       -4.19284  -0.00064   0.00000  -0.00920  -0.00878  -4.20162
   Y52       -9.99987  -0.00074   0.00000  -0.02077  -0.02134 -10.02122
   Z52       -1.95812  -0.00000   0.00000   0.00456   0.00706  -1.95107
   X53        0.26252   0.00832   0.00000   0.00745   0.00901   0.27153
   Y53        2.02688  -0.00592   0.00000   0.02276   0.02187   2.04875
   Z53       -1.51361  -0.00071   0.00000  -0.00713  -0.00723  -1.52084
   X54        0.31802   0.00636   0.00000   0.00855   0.00872   0.32674
   Y54       -2.06524   0.00368   0.00000  -0.02843  -0.02828  -2.09352
   Z54        1.71577  -0.00022   0.00000  -0.00388  -0.00261   1.71315
         Item               Value     Threshold  Converged?
 Maximum Force            0.021609     0.000450     NO 
 RMS     Force            0.004388     0.000300     NO 
 Maximum Displacement     0.072272     0.001800     NO 
 RMS     Displacement     0.023516     0.001200     NO 
 Predicted change in Energy=-2.198071D-03
 GradGradGradGradGradGradGradGradGradGradGradGradGradGradGradGradGradGrad

 Unable to Open any file for archive entry.
 1\1\GINC-X10P1N1\Force\UM062X\6-31G(d)\C32H18N4(3)\MAYUMIAO\13-Jul-202
 4\0\\# 6-31g(d) m062x g09default scf=(xqc,maxcycle=64) force guess=rea
 d nosymm\\Title Card\\0,3\C,1.40879401,0.49743998,-0.48043056\C,1.4245
 6542,-0.50041932,0.55980484\C,2.63595303,-0.97404628,1.01719299\C,3.84
 676468,-0.49593278,0.49899104\C,3.81860894,0.49236007,-0.57714256\C,2.
 58371263,0.97714644,-1.0161282\H,2.65779091,-1.74280312,1.78535622\H,2
 .55290122,1.74658035,-1.7824464\C,5.00425885,0.96503876,-1.20650127\N,
 5.94217458,1.36647637,-1.74697211\C,5.06603112,-0.9750002,1.02653711\N
 ,6.06890213,-1.38164962,1.4761582\C,-0.32951803,2.24510428,-0.26730566
 \C,-0.87758162,0.46977321,-1.52504523\C,0.37064355,3.16534825,0.525327
 88\C,-1.68823446,2.42920012,-0.63860084\C,-0.83585223,-0.72939871,-2.2
 3352851\C,-2.0384749,1.27489102,-1.45940281\C,-0.32714231,4.28278363,0
 .95831714\H,1.41857017,3.00907049,0.75865735\C,-2.35577029,3.56286003,
 -0.20480334\C,-2.00811435,-1.12820803,-2.87995602\H,0.07601338,-1.3117
 1342,-2.29117106\C,-3.17539382,0.87974189,-2.14200044\C,-1.66767309,4.
 48144904,0.59719256\H,0.17742302,5.02101287,1.57234446\H,-3.3891342,3.
 74665526,-0.48073185\C,-3.15472788,-0.33682978,-2.8451286\H,-2.0131787
 1,-2.06406821,-3.42891241\H,-4.06642939,1.49963695,-2.14582604\H,-2.17
 930169,5.37621943,0.93589776\H,-4.04365429,-0.65743222,-3.37736072\C,-
 0.87819819,-0.48326909,1.59572263\C,-0.30384749,-2.25638494,0.34044839
 \C,-0.86612432,0.69970172,2.3334521\C,-2.04608444,-1.26600402,1.463033
 18\C,0.39198283,-3.19297489,-0.43351238\C,-1.68415856,-2.40905118,0.64
 372287\C,-2.06191027,1.09236101,2.93458064\H,0.04690441,1.27179913,2.4
 5243286\C,-3.21893416,-0.87054774,2.0966834\C,-0.32024407,-4.27649802,
 -0.91707561\H,1.45716099,-3.07531127,-0.6237055\C,-2.37517148,-3.50654
 729,0.14694314\C,-3.22049409,0.31865063,2.82838143\H,-2.0855203,2.0134
 7896,3.50890797\H,-4.11739211,-1.47728849,2.03116854\C,-1.69335847,-4.
 4314021,-0.63797957\H,0.18820519,-5.02884172,-1.50938568\H,-3.43168737
 ,-3.641432,0.36562963\H,-4.12881762,0.63898971,3.32758206\H,-2.2187552
 3,-5.29170586,-1.03619501\N,0.13891835,1.0725793,-0.80097017\N,0.16828
 902,-1.09287561,0.90794417\\Version=ES64L-G16RevC.01\HF=-1448.5814648\
 S2=2.029657\S2-1=0.\S2A=2.00056\RMSD=6.957e-09\RMSF=4.388e-03\Dipole=-
 6.5267264,0.2792632,-0.0580701\Quadrupole=-39.97983,29.138796,10.84103
 4,-0.4401328,2.5981525,13.5808296\PG=C01 [X(C32H18N4)]\\@
 The archive entry for this job was punched.


 TO SEE A WORLD IN A GRAIN OF SAND
 AND A HEAVEN IN A WILD FLOWER
 HOLD INFINITY IN THE PALM OF YOUR HAND
 AND ETERNITY IN AN HOUR

                       -- WILLIAM BLAKE
 Job cpu time:       0 days  1 hours  9 minutes 31.0 seconds.
 Elapsed time:       0 days  0 hours  2 minutes 30.3 seconds.
 File lengths (MBytes):  RWF=    314 Int=      0 D2E=      0 Chk=     25 Scr=      1
 Normal termination of Gaussian 16 at Sat Jul 13 21:12:03 2024.
