 Entering Gaussian System, Link 0=g16
 Input=JOBS/5_A.gjf
 Output=JOBS/5_A.log
 Initial command:
 /data/app/gaussian/C01-avx2//g16/l1.exe "/tmp/Gau-1303062.inp" -scrdir="/tmp/"
 Entering Link 1 = /data/app/gaussian/C01-avx2//g16/l1.exe PID=   1303063.
  
 Copyright (c) 1988-2019, Gaussian, Inc.  All Rights Reserved.
  
 This is part of the Gaussian(R) 16 program.  It is based on
 the Gaussian(R) 09 system (copyright 2009, Gaussian, Inc.),
 the Gaussian(R) 03 system (copyright 2003, Gaussian, Inc.),
 the Gaussian(R) 98 system (copyright 1998, Gaussian, Inc.),
 the Gaussian(R) 94 system (copyright 1995, Gaussian, Inc.),
 the Gaussian 92(TM) system (copyright 1992, Gaussian, Inc.),
 the Gaussian 90(TM) system (copyright 1990, Gaussian, Inc.),
 the Gaussian 88(TM) system (copyright 1988, Gaussian, Inc.),
 the Gaussian 86(TM) system (copyright 1986, Carnegie Mellon
 University), and the Gaussian 82(TM) system (copyright 1983,
 Carnegie Mellon University). Gaussian is a federally registered
 trademark of Gaussian, Inc.
  
 This software contains proprietary and confidential information,
 including trade secrets, belonging to Gaussian, Inc.
  
 This software is provided under written license and may be
 used, copied, transmitted, or stored only in accord with that
 written license.
  
 The following legend is applicable only to US Government
 contracts under FAR:
  
                    RESTRICTED RIGHTS LEGEND
  
 Use, reproduction and disclosure by the US Government is
 subject to restrictions as set forth in subparagraphs (a)
 and (c) of the Commercial Computer Software - Restricted
 Rights clause in FAR 52.227-19.
  
 Gaussian, Inc.
 340 Quinnipiac St., Bldg. 40, Wallingford CT 06492
  
  
 ---------------------------------------------------------------
 Warning -- This program may not be used in any manner that
 competes with the business of Gaussian, Inc. or will provide
 assistance to any competitor of Gaussian, Inc.  The licensee
 of this program is prohibited from giving any competitor of
 Gaussian, Inc. access to this program.  By using this program,
 the user acknowledges that Gaussian, Inc. is engaged in the
 business of creating and licensing software in the field of
 computational chemistry and represents and warrants to the
 licensee that it is not a competitor of Gaussian, Inc. and that
 it will not use this program in any manner prohibited above.
 ---------------------------------------------------------------
  

 Cite this work as:
 Gaussian 16, Revision C.01,
 M. J. Frisch, G. W. Trucks, H. B. Schlegel, G. E. Scuseria, 
 M. A. Robb, J. R. Cheeseman, G. Scalmani, V. Barone, 
 G. A. Petersson, H. Nakatsuji, X. Li, M. Caricato, A. V. Marenich, 
 J. Bloino, B. G. Janesko, R. Gomperts, B. Mennucci, H. P. Hratchian, 
 J. V. Ortiz, A. F. Izmaylov, J. L. Sonnenberg, D. Williams-Young, 
 F. Ding, F. Lipparini, F. Egidi, J. Goings, B. Peng, A. Petrone, 
 T. Henderson, D. Ranasinghe, V. G. Zakrzewski, J. Gao, N. Rega, 
 G. Zheng, W. Liang, M. Hada, M. Ehara, K. Toyota, R. Fukuda, 
 J. Hasegawa, M. Ishida, T. Nakajima, Y. Honda, O. Kitao, H. Nakai, 
 T. Vreven, K. Throssell, J. A. Montgomery, Jr., J. E. Peralta, 
 F. Ogliaro, M. J. Bearpark, J. J. Heyd, E. N. Brothers, K. N. Kudin, 
 V. N. Staroverov, T. A. Keith, R. Kobayashi, J. Normand, 
 K. Raghavachari, A. P. Rendell, J. C. Burant, S. S. Iyengar, 
 J. Tomasi, M. Cossi, J. M. Millam, M. Klene, C. Adamo, R. Cammi, 
 J. W. Ochterski, R. L. Martin, K. Morokuma, O. Farkas, 
 J. B. Foresman, and D. J. Fox, Gaussian, Inc., Wallingford CT, 2019.
 
 ******************************************
 Gaussian 16:  ES64L-G16RevC.01  3-Jul-2019
                13-Jul-2024 
 ******************************************
 %chk=a.chk
 %nprocshared=28
 Will use up to   28 processors via shared memory.
 %mem=48gb
 ----------------------------------------------------------------------
 # 6-31g(d) m062x g09default scf=(xqc,maxcycle=64) force guess=read td 
 nosymm
 ----------------------------------------------------------------------
 1/10=7,30=1,38=1,158=3,167=1/1,3;
 2/12=2,15=1,17=6,18=5,40=1/2;
 3/5=1,6=6,7=1,11=9,25=1,27=10,30=1,71=1,74=-55,75=-4,116=-2,158=3/1,2,3,8;
 4/5=1,60=-1/1;
 5/5=2,7=64,8=3,13=1,38=6,87=10/2,8;
 8/6=1,10=2,87=10/1;
 9/15=2,42=1,70=2,87=10/14;
 10/5=4,31=1,87=10/2;
 6/7=2,8=2,9=2,10=2,18=1,87=10/1;
 7/12=6,13=5,29=1,30=1,87=10/1,2,3,16;
 1/10=7,30=1,158=3,167=1/3;
 99//99;
 Using 2006 physical constants.
 ----------
 Title Card
 ----------
 Symbolic Z-matrix:
 Charge =  0 Multiplicity = 1
 6                     1.40728   0.49864  -0.48103 
 6                     1.42417  -0.50181   0.56013 
 6                     2.63537  -0.97523   1.01754 
 6                     3.84629  -0.49647   0.49964 
 6                     3.81907   0.4937   -0.57852 
 6                     2.5836    0.97794  -1.01591 
 1                     2.65735  -1.74287   1.78564 
 1                     2.55308   1.74595  -1.7833 
 6                     4.99877   0.96276  -1.20321 
 7                     5.94713   1.36855  -1.74877 
 6                     5.06938  -0.97638   1.02809 
 7                     6.06621  -1.38095   1.4748 
 6                    -0.32929   2.24787  -0.26873 
 6                    -0.87798   0.46898  -1.52501 
 6                     0.37026   3.16533   0.52454 
 6                    -1.68703   2.42959  -0.63956 
 6                    -0.83583  -0.72892  -2.23409 
 6                    -2.03803   1.27528  -1.45941 
 6                    -0.3275    4.28319   0.95787 
 1                     1.41798   3.00807   0.76016 
 6                    -2.35557   3.56344  -0.20455 
 6                    -2.00763  -1.12821  -2.88034 
 1                     0.07653  -1.31114  -2.29176 
 6                    -3.17603   0.87891  -2.14211 
 6                    -1.66811   4.48136   0.59684 
 1                     0.17708   5.02133   1.57214 
 1                    -3.38953   3.74591  -0.48032 
 6                    -3.15476  -0.33602  -2.84445 
 1                    -2.01353  -2.06404  -3.42898 
 1                    -4.06735   1.49873  -2.14434 
 1                    -2.17974   5.37596   0.93631 
 1                    -4.04374  -0.65746  -3.3772 
 6                    -0.8783   -0.48239   1.5962 
 6                    -0.30495  -2.25841   0.34231 
 6                    -0.86579   0.69911   2.33376 
 6                    -2.04595  -1.26624   1.46289 
 6                     0.3936   -3.19259  -0.43314 
 6                    -1.68223  -2.40857   0.64438 
 6                    -2.06141   1.09293   2.93471 
 1                     0.04759   1.27155   2.45284 
 6                    -3.219    -0.86964   2.09638 
 6                    -0.32226  -4.27731  -0.91701 
 1                     1.45637  -3.07416  -0.62459 
 6                    -2.3762   -3.50724   0.14682 
 6                    -3.22034   0.31871   2.82758 
 1                    -2.085     2.01352   3.50895 
 1                    -4.11735  -1.47689   2.03038 
 6                    -1.69185  -4.43136  -0.63812 
 1                     0.18825  -5.02877  -1.51004 
 1                    -3.43146  -3.64136   0.36519 
 1                    -4.12867   0.63932   3.32743 
 1                    -2.21921  -5.29236  -1.03598 
 7                     0.14014   1.0719   -0.80166 
 7                     0.16979  -1.093     0.90882 
 

 GradGradGradGradGradGradGradGradGradGradGradGradGradGradGradGradGradGrad
 Berny optimization.
 Initialization pass.
 Trust Radius=3.00D-01 FncErr=1.00D-07 GrdErr=1.00D-07 EigMax=2.50D+02 EigMin=1.00D-04
 Number of steps in this run=      2 maximum allowed number of steps=      2.
 GradGradGradGradGradGradGradGradGradGradGradGradGradGradGradGradGradGrad

 Symmetry turned off by external request.
 Stoichiometry    C32H18N4
 Framework group  C1[X(C32H18N4)]
 Deg. of freedom   156
 Full point group                 C1      NOp   1
                          Input orientation:                          
 ---------------------------------------------------------------------
 Center     Atomic      Atomic             Coordinates (Angstroms)
 Number     Number       Type             X           Y           Z
 ---------------------------------------------------------------------
      1          6           0        1.407285    0.498637   -0.481029
      2          6           0        1.424174   -0.501814    0.560127
      3          6           0        2.635370   -0.975227    1.017537
      4          6           0        3.846293   -0.496469    0.499637
      5          6           0        3.819067    0.493699   -0.578524
      6          6           0        2.583600    0.977935   -1.015907
      7          1           0        2.657354   -1.742873    1.785641
      8          1           0        2.553082    1.745951   -1.783301
      9          6           0        4.998767    0.962760   -1.203208
     10          7           0        5.947130    1.368554   -1.748769
     11          6           0        5.069384   -0.976383    1.028086
     12          7           0        6.066213   -1.380948    1.474804
     13          6           0       -0.329286    2.247866   -0.268733
     14          6           0       -0.877984    0.468984   -1.525007
     15          6           0        0.370261    3.165334    0.524542
     16          6           0       -1.687032    2.429591   -0.639559
     17          6           0       -0.835831   -0.728919   -2.234094
     18          6           0       -2.038026    1.275284   -1.459407
     19          6           0       -0.327505    4.283186    0.957867
     20          1           0        1.417983    3.008067    0.760165
     21          6           0       -2.355566    3.563437   -0.204555
     22          6           0       -2.007626   -1.128207   -2.880342
     23          1           0        0.076530   -1.311136   -2.291759
     24          6           0       -3.176035    0.878910   -2.142109
     25          6           0       -1.668112    4.481356    0.596839
     26          1           0        0.177082    5.021331    1.572141
     27          1           0       -3.389533    3.745906   -0.480318
     28          6           0       -3.154760   -0.336020   -2.844451
     29          1           0       -2.013531   -2.064036   -3.428978
     30          1           0       -4.067352    1.498732   -2.144344
     31          1           0       -2.179737    5.375963    0.936306
     32          1           0       -4.043739   -0.657461   -3.377195
     33          6           0       -0.878295   -0.482388    1.596200
     34          6           0       -0.304946   -2.258414    0.342309
     35          6           0       -0.865794    0.699111    2.333756
     36          6           0       -2.045955   -1.266242    1.462885
     37          6           0        0.393599   -3.192590   -0.433144
     38          6           0       -1.682230   -2.408568    0.644382
     39          6           0       -2.061408    1.092927    2.934713
     40          1           0        0.047587    1.271547    2.452836
     41          6           0       -3.219001   -0.869644    2.096381
     42          6           0       -0.322263   -4.277312   -0.917010
     43          1           0        1.456371   -3.074164   -0.624593
     44          6           0       -2.376196   -3.507235    0.146825
     45          6           0       -3.220343    0.318707    2.827582
     46          1           0       -2.084996    2.013521    3.508948
     47          1           0       -4.117351   -1.476893    2.030376
     48          6           0       -1.691853   -4.431359   -0.638119
     49          1           0        0.188245   -5.028773   -1.510035
     50          1           0       -3.431461   -3.641358    0.365194
     51          1           0       -4.128666    0.639316    3.327426
     52          1           0       -2.219211   -5.292364   -1.035984
     53          7           0        0.140142    1.071898   -0.801656
     54          7           0        0.169792   -1.093001    0.908820
 ---------------------------------------------------------------------
 Rotational constants (GHZ):           0.1589512           0.1163994           0.0924864
 Standard basis: 6-31G(d) (6D, 7F)
   576 basis functions,  1080 primitive gaussians,   576 cartesian basis functions
   119 alpha electrons      119 beta electrons
       nuclear repulsion energy      3659.2363253364 Hartrees.
 NAtoms=   54 NActive=   54 NUniq=   54 SFac= 1.00D+00 NAtFMM=   60 NAOKFM=F Big=F
 Integral buffers will be    131072 words long.
 Regular integral format.
 Two-electron integral symmetry is turned off.
 One-electron integrals computed using PRISM.
 NBasis=   576 RedAO= T EigKep=  2.59D-04  NBF=   576
 NBsUse=   576 1.00D-06 EigRej= -1.00D+00 NBFU=   576
 Initial guess from the checkpoint file:  "a.chk"
 B after Tr=     0.000010    0.000013   -0.000002
         Rot=    1.000000    0.000006    0.000003    0.000002 Ang=   0.00 deg.
 Requested convergence on RMS density matrix=1.00D-08 within  64 cycles.
 Requested convergence on MAX density matrix=1.00D-06.
 Requested convergence on             energy=1.00D-06.
 No special actions if energy rises.
 SCF Done:  E(RM062X) =  -1448.68821135     A.U. after    9 cycles
            NFock=  9  Conv=0.83D-08     -V/T= 2.0088
 QCSCF skips out because SCF is already converged.
 DoSCS=F DFT=T ScalE2(SS,OS)=  1.000000  1.000000
 ExpMin= 1.61D-01 ExpMax= 4.17D+03 ExpMxC= 6.27D+02 IAcc=3 IRadAn=         5 AccDes= 0.00D+00
 HarFok:  IExCor=  205 AccDes= 0.00D+00 IRadAn=         5 IDoV=-2 UseB2=F ITyADJ=14
 ICtDFT= 12500011 ScaDFX=  1.000000  1.000000  1.000000  1.000000
 GSVD:  LWork=       -1584 too small for GESVD, short by        7020 words or        7020 for optimal perf.
 Range of M.O.s used for correlation:    37   576
 NBasis=   576 NAE=   119 NBE=   119 NFC=    36 NFV=     0
 NROrb=    540 NOA=    83 NOB=    83 NVA=   457 NVB=   457
    12 initial guesses have been made.
 Convergence on wavefunction:    0.000001000000000
 Iteration     1 Dimension    12 NMult     0 NNew     12
 CISAX will form    12 AO SS matrices at one time.
 Iteration     2 Dimension    18 NMult    12 NNew      6
 Iteration     3 Dimension    24 NMult    18 NNew      6
 Iteration     4 Dimension    30 NMult    24 NNew      6
 Iteration     5 Dimension    36 NMult    30 NNew      6
 Iteration     6 Dimension    42 NMult    36 NNew      6
 Iteration     7 Dimension    48 NMult    42 NNew      6
 Iteration     8 Dimension    54 NMult    48 NNew      6
 Iteration     9 Dimension    60 NMult    54 NNew      6
 Iteration    10 Dimension    66 NMult    60 NNew      6
 Iteration    11 Dimension    72 NMult    66 NNew      6
 Iteration    12 Dimension    78 NMult    72 NNew      6
 Iteration    13 Dimension    80 NMult    78 NNew      2
 ***********************************************************************
 Excited states from <AA,BB:AA,BB> singles matrix:
 ***********************************************************************
 
 Ground to excited state transition densities written to RWF  633
 Ground to excited state transition electric dipole moments (Au):
       state          X           Y           Z        Dip. S.      Osc.
         1         0.0838     -0.2984      0.2564      0.1618      0.0115
         2        -0.5715     -0.0588      0.0702      0.3350      0.0259
         3         0.0126      0.1399     -0.0734      0.0251      0.0022
 Ground to excited state transition velocity dipole moments (Au):
       state          X           Y           Z        Dip. S.      Osc.
         1        -0.0091      0.0297     -0.0327      0.0020      0.0128
         2         0.0672      0.0068     -0.0091      0.0046      0.0267
         3        -0.0016     -0.0216      0.0131      0.0006      0.0032
 Ground to excited state transition magnetic dipole moments (Au):
       state          X           Y           Z
         1        -0.0329      0.2830      0.2922
         2         0.2413      0.0784      0.0599
         3         0.0075     -0.2322      0.0472
 Ground to excited state transition velocity quadrupole moments (Au):
       state          XX          YY          ZZ          XY          XZ          YZ
         1        -0.0621      0.0294      0.0061      0.0078     -0.0132      0.0069
         2         0.3891     -0.1658     -0.0592      0.0109     -0.0134     -0.0622
         3        -0.0022      0.0029     -0.0040     -0.0508      0.0316     -0.0008
 <0|del|b> * <b|rxdel|0> + <0|del|b> * <b|delr+rdel|0>
 Rotatory Strengths (R) in cgs (10**-40 erg-esu-cm/Gauss)
       state          XX          YY          ZZ    R(velocity)    E-M Angle
         1        -3.3670    -30.1657     27.8718     -1.8870       92.65
         2        -0.0425     35.3102     63.4453     32.9043       24.16
         3        15.1501      3.4206     11.5823     10.0510       20.51
 1/2[<0|r|b>*<b|rxdel|0> + (<0|rxdel|b>*<b|r|0>)*]
 Rotatory Strengths (R) in cgs (10**-40 erg-esu-cm/Gauss)
       state          XX          YY          ZZ     R(length)
         1         1.9478     59.7127    -52.9901      2.8901
         2        97.5264      3.2618     -2.9702     32.6060
         3        -0.0668     22.9699      2.4502      8.4511
  1/2[<0|del|b>*<b|r|0> + (<0|r|b>*<b|del|0>)*] (Au)
       state          X           Y           Z        Dip. S.   Osc.(frdel)
         1        -0.0008     -0.0089     -0.0084      0.0180      0.0120
         2        -0.0384     -0.0004     -0.0006      0.0394      0.0263
         3        -0.0000     -0.0030     -0.0010      0.0040      0.0027

 Excitation energies and oscillator strengths:
 
 Excited state symmetry could not be determined.
 Excited State   1:      Singlet-?Sym    2.8892 eV  429.13 nm  f=0.0115  <S**2>=0.000
     119 ->120         0.68929
 This state for optimization and/or second-order correction.
 Total Energy, E(TD-HF/TD-DFT) =  -1448.58203449    
 Copying the excited state density for this state as the 1-particle RhoCI density.
 
 Excited state symmetry could not be determined.
 Excited State   2:      Singlet-?Sym    3.1598 eV  392.38 nm  f=0.0259  <S**2>=0.000
     118 ->120         0.68760
 
 Excited state symmetry could not be determined.
 Excited State   3:      Singlet-?Sym    3.5872 eV  345.63 nm  f=0.0022  <S**2>=0.000
     117 ->120         0.69442
 SavETr:  write IOETrn=   770 NScale= 10 NData=  16 NLR=1 NState=    3 LETran=      64.
          IDoAtm=11111111111111111111111111111111111111111111111111
          IDoAtm=1111
          Differentiating once with respect to electric field.
                with respect to dipole field.
          Differentiating once with respect to nuclear coordinates.
          There are     1 degrees of freedom in the 1st order CPHF.  IDoFFX=0 NUNeed=     1.
 LinEq1:  Iter=  0 NonCon=     1 RMS=3.96D-03 Max=2.05D-01 NDo=     1
 AX will form     1 AO Fock derivatives at one time.
 LinEq1:  Iter=  1 NonCon=     1 RMS=2.46D-03 Max=1.79D-01 NDo=     1
 LinEq1:  Iter=  2 NonCon=     1 RMS=1.69D-03 Max=9.92D-02 NDo=     1
 LinEq1:  Iter=  3 NonCon=     1 RMS=9.08D-04 Max=5.72D-02 NDo=     1
 LinEq1:  Iter=  4 NonCon=     1 RMS=6.16D-04 Max=4.19D-02 NDo=     1
 LinEq1:  Iter=  5 NonCon=     1 RMS=3.24D-04 Max=1.35D-02 NDo=     1
 LinEq1:  Iter=  6 NonCon=     1 RMS=1.67D-04 Max=1.39D-02 NDo=     1
 LinEq1:  Iter=  7 NonCon=     1 RMS=1.10D-04 Max=6.64D-03 NDo=     1
 LinEq1:  Iter=  8 NonCon=     1 RMS=7.41D-05 Max=4.24D-03 NDo=     1
 LinEq1:  Iter=  9 NonCon=     1 RMS=4.21D-05 Max=1.81D-03 NDo=     1
 LinEq1:  Iter= 10 NonCon=     1 RMS=2.01D-05 Max=7.08D-04 NDo=     1
 LinEq1:  Iter= 11 NonCon=     1 RMS=1.05D-05 Max=5.55D-04 NDo=     1
 LinEq1:  Iter= 12 NonCon=     1 RMS=7.69D-06 Max=4.33D-04 NDo=     1
 LinEq1:  Iter= 13 NonCon=     1 RMS=4.49D-06 Max=2.59D-04 NDo=     1
 LinEq1:  Iter= 14 NonCon=     1 RMS=2.73D-06 Max=1.50D-04 NDo=     1
 LinEq1:  Iter= 15 NonCon=     1 RMS=1.28D-06 Max=5.38D-05 NDo=     1
 LinEq1:  Iter= 16 NonCon=     1 RMS=8.11D-07 Max=3.64D-05 NDo=     1
 LinEq1:  Iter= 17 NonCon=     1 RMS=3.42D-07 Max=1.19D-05 NDo=     1
 LinEq1:  Iter= 18 NonCon=     1 RMS=1.61D-07 Max=6.80D-06 NDo=     1
 LinEq1:  Iter= 19 NonCon=     1 RMS=8.47D-08 Max=3.55D-06 NDo=     1
 LinEq1:  Iter= 20 NonCon=     1 RMS=4.05D-08 Max=1.76D-06 NDo=     1
 LinEq1:  Iter= 21 NonCon=     1 RMS=2.33D-08 Max=1.14D-06 NDo=     1
 LinEq1:  Iter= 22 NonCon=     1 RMS=1.45D-08 Max=7.57D-07 NDo=     1
 LinEq1:  Iter= 23 NonCon=     1 RMS=5.81D-09 Max=2.71D-07 NDo=     1
 LinEq1:  Iter= 24 NonCon=     1 RMS=3.13D-09 Max=1.30D-07 NDo=     1
 LinEq1:  Iter= 25 NonCon=     1 RMS=1.45D-09 Max=6.99D-08 NDo=     1
 LinEq1:  Iter= 26 NonCon=     1 RMS=7.57D-10 Max=2.70D-08 NDo=     1
 LinEq1:  Iter= 27 NonCon=     1 RMS=3.45D-10 Max=1.37D-08 NDo=     1
 LinEq1:  Iter= 28 NonCon=     1 RMS=1.34D-10 Max=7.69D-09 NDo=     1
 LinEq1:  Iter= 29 NonCon=     1 RMS=6.56D-11 Max=3.33D-09 NDo=     1
 LinEq1:  Iter= 30 NonCon=     1 RMS=2.72D-11 Max=1.27D-09 NDo=     1
 LinEq1:  Iter= 31 NonCon=     0 RMS=1.34D-11 Max=4.58D-10 NDo=     1
 Linear equations converged to 1.000D-10 1.000D-09 after    31 iterations.
 End of Minotr F.D. properties file   721 does not exist.
 End of Minotr F.D. properties file   722 does not exist.
 End of Minotr F.D. properties file   788 does not exist.

 **********************************************************************

            Population analysis using the SCF Density.

 **********************************************************************

 Alpha  occ. eigenvalues --  -14.82686 -14.82449 -14.79664 -14.79603 -10.65559
 Alpha  occ. eigenvalues --  -10.65415 -10.65310 -10.65232 -10.62047 -10.61955
 Alpha  occ. eigenvalues --  -10.61641 -10.61596 -10.60039 -10.59934 -10.59744
 Alpha  occ. eigenvalues --  -10.59625 -10.56248 -10.56139 -10.56054 -10.56045
 Alpha  occ. eigenvalues --  -10.56044 -10.55973 -10.55968 -10.55959 -10.55864
 Alpha  occ. eigenvalues --  -10.55855 -10.55795 -10.55689 -10.55663 -10.55652
 Alpha  occ. eigenvalues --  -10.55506 -10.55428 -10.55273 -10.55177 -10.54953
 Alpha  occ. eigenvalues --  -10.54894  -1.13865  -1.11496  -1.05076  -1.03328
 Alpha  occ. eigenvalues --   -1.01655  -0.96826  -0.96286  -0.95892  -0.95575
 Alpha  occ. eigenvalues --   -0.92249  -0.91679  -0.88373  -0.87628  -0.85721
 Alpha  occ. eigenvalues --   -0.85327  -0.83742  -0.82648  -0.81958  -0.81825
 Alpha  occ. eigenvalues --   -0.78816  -0.76889  -0.73334  -0.72978  -0.69989
 Alpha  occ. eigenvalues --   -0.69915  -0.69711  -0.69207  -0.66600  -0.66288
 Alpha  occ. eigenvalues --   -0.66236  -0.63707  -0.62236  -0.61341  -0.60152
 Alpha  occ. eigenvalues --   -0.59714  -0.59022  -0.58432  -0.56316  -0.55903
 Alpha  occ. eigenvalues --   -0.53853  -0.53489  -0.53175  -0.53098  -0.52699
 Alpha  occ. eigenvalues --   -0.52495  -0.51406  -0.51277  -0.50675  -0.50594
 Alpha  occ. eigenvalues --   -0.49280  -0.49218  -0.49186  -0.49161  -0.48672
 Alpha  occ. eigenvalues --   -0.48443  -0.46187  -0.46048  -0.45206  -0.44029
 Alpha  occ. eigenvalues --   -0.43761  -0.43425  -0.43242  -0.43059  -0.42622
 Alpha  occ. eigenvalues --   -0.42280  -0.42121  -0.41970  -0.40696  -0.40615
 Alpha  occ. eigenvalues --   -0.40356  -0.40175  -0.39824  -0.39403  -0.36428
 Alpha  occ. eigenvalues --   -0.34545  -0.34389  -0.33857  -0.31857  -0.30540
 Alpha  occ. eigenvalues --   -0.27407  -0.26656  -0.26434  -0.25125
 Alpha virt. eigenvalues --   -0.08086  -0.03872  -0.00506  -0.00333   0.02732
 Alpha virt. eigenvalues --    0.03575   0.04528   0.05351   0.05678   0.05835
 Alpha virt. eigenvalues --    0.07124   0.07442   0.07672   0.10957   0.11038
 Alpha virt. eigenvalues --    0.13379   0.13597   0.14123   0.14705   0.14903
 Alpha virt. eigenvalues --    0.15896   0.17215   0.18076   0.18302   0.19344
 Alpha virt. eigenvalues --    0.19515   0.19680   0.19977   0.20286   0.21098
 Alpha virt. eigenvalues --    0.21476   0.21856   0.22786   0.22899   0.23287
 Alpha virt. eigenvalues --    0.23609   0.24451   0.24481   0.24759   0.24927
 Alpha virt. eigenvalues --    0.25269   0.26481   0.27664   0.27791   0.28518
 Alpha virt. eigenvalues --    0.29003   0.29612   0.29664   0.31099   0.32065
 Alpha virt. eigenvalues --    0.32607   0.33289   0.33842   0.34207   0.35978
 Alpha virt. eigenvalues --    0.36513   0.37042   0.37316   0.38389   0.39095
 Alpha virt. eigenvalues --    0.40035   0.40174   0.40795   0.41222   0.42497
 Alpha virt. eigenvalues --    0.42836   0.44092   0.45897   0.46293   0.47167
 Alpha virt. eigenvalues --    0.48582   0.48696   0.49257   0.51606   0.51732
 Alpha virt. eigenvalues --    0.52175   0.53105   0.53453   0.54163   0.54977
 Alpha virt. eigenvalues --    0.55037   0.56108   0.56266   0.56722   0.57118
 Alpha virt. eigenvalues --    0.57961   0.58512   0.58587   0.58802   0.59349
 Alpha virt. eigenvalues --    0.59524   0.60055   0.60337   0.60791   0.60882
 Alpha virt. eigenvalues --    0.61514   0.62066   0.62217   0.62515   0.62629
 Alpha virt. eigenvalues --    0.63499   0.64133   0.64200   0.64575   0.64772
 Alpha virt. eigenvalues --    0.64797   0.65190   0.65235   0.65385   0.66029
 Alpha virt. eigenvalues --    0.66334   0.66965   0.67151   0.67346   0.67729
 Alpha virt. eigenvalues --    0.68180   0.68346   0.68728   0.68969   0.69481
 Alpha virt. eigenvalues --    0.69558   0.69723   0.70098   0.70176   0.72198
 Alpha virt. eigenvalues --    0.72241   0.73422   0.74258   0.74776   0.75600
 Alpha virt. eigenvalues --    0.76181   0.76661   0.78019   0.78657   0.78995
 Alpha virt. eigenvalues --    0.82028   0.82506   0.82981   0.83478   0.83606
 Alpha virt. eigenvalues --    0.84841   0.85397   0.85838   0.86333   0.86748
 Alpha virt. eigenvalues --    0.86835   0.87735   0.87866   0.88336   0.89076
 Alpha virt. eigenvalues --    0.89346   0.89549   0.89848   0.90192   0.90293
 Alpha virt. eigenvalues --    0.90813   0.91037   0.91231   0.91777   0.91959
 Alpha virt. eigenvalues --    0.92358   0.92416   0.92623   0.93655   0.93928
 Alpha virt. eigenvalues --    0.94464   0.94771   0.95526   0.96038   0.96479
 Alpha virt. eigenvalues --    0.97350   0.97587   0.98810   0.99863   1.00323
 Alpha virt. eigenvalues --    1.01112   1.01359   1.01507   1.02503   1.03224
 Alpha virt. eigenvalues --    1.03524   1.03921   1.04943   1.05123   1.05577
 Alpha virt. eigenvalues --    1.06646   1.07322   1.08132   1.09506   1.10058
 Alpha virt. eigenvalues --    1.10334   1.13207   1.14184   1.14472   1.14984
 Alpha virt. eigenvalues --    1.16718   1.17693   1.18706   1.19310   1.19818
 Alpha virt. eigenvalues --    1.20320   1.20903   1.21720   1.21841   1.22752
 Alpha virt. eigenvalues --    1.24024   1.24544   1.25399   1.25917   1.26348
 Alpha virt. eigenvalues --    1.28936   1.29833   1.30790   1.31007   1.31801
 Alpha virt. eigenvalues --    1.32757   1.32827   1.34046   1.34594   1.35265
 Alpha virt. eigenvalues --    1.36416   1.37389   1.37746   1.38742   1.39609
 Alpha virt. eigenvalues --    1.40171   1.40723   1.41697   1.42646   1.42967
 Alpha virt. eigenvalues --    1.43488   1.44686   1.46520   1.47347   1.47745
 Alpha virt. eigenvalues --    1.49233   1.50187   1.50824   1.51005   1.52481
 Alpha virt. eigenvalues --    1.52570   1.52709   1.53083   1.53603   1.54114
 Alpha virt. eigenvalues --    1.54271   1.54393   1.54610   1.54758   1.55541
 Alpha virt. eigenvalues --    1.55658   1.56062   1.57152   1.58698   1.59480
 Alpha virt. eigenvalues --    1.60307   1.61640   1.63319   1.64088   1.67593
 Alpha virt. eigenvalues --    1.67840   1.69176   1.71593   1.73110   1.74184
 Alpha virt. eigenvalues --    1.74385   1.76204   1.76940   1.78072   1.78895
 Alpha virt. eigenvalues --    1.80425   1.80732   1.81386   1.81618   1.82236
 Alpha virt. eigenvalues --    1.83001   1.83747   1.84820   1.85117   1.86534
 Alpha virt. eigenvalues --    1.86998   1.87459   1.88519   1.89142   1.89859
 Alpha virt. eigenvalues --    1.91210   1.92140   1.93158   1.93814   1.94837
 Alpha virt. eigenvalues --    1.95015   1.95868   1.96865   1.97071   1.98187
 Alpha virt. eigenvalues --    1.98440   1.98623   1.99857   2.00554   2.01434
 Alpha virt. eigenvalues --    2.01930   2.02209   2.02323   2.03169   2.03361
 Alpha virt. eigenvalues --    2.03667   2.04016   2.04447   2.05969   2.06049
 Alpha virt. eigenvalues --    2.07082   2.07484   2.08811   2.09749   2.11134
 Alpha virt. eigenvalues --    2.11709   2.12642   2.12987   2.14469   2.14646
 Alpha virt. eigenvalues --    2.14956   2.15538   2.16769   2.17206   2.17486
 Alpha virt. eigenvalues --    2.18776   2.19589   2.21249   2.21827   2.22220
 Alpha virt. eigenvalues --    2.23460   2.23570   2.24444   2.24768   2.26851
 Alpha virt. eigenvalues --    2.27701   2.27837   2.28530   2.28742   2.29210
 Alpha virt. eigenvalues --    2.29504   2.30677   2.30833   2.31501   2.32770
 Alpha virt. eigenvalues --    2.33285   2.33637   2.34787   2.36011   2.36834
 Alpha virt. eigenvalues --    2.40605   2.40773   2.42585   2.43098   2.43456
 Alpha virt. eigenvalues --    2.46032   2.48129   2.49782   2.50900   2.51209
 Alpha virt. eigenvalues --    2.53658   2.54694   2.56010   2.56665   2.57269
 Alpha virt. eigenvalues --    2.59642   2.60521   2.60762   2.63216   2.65023
 Alpha virt. eigenvalues --    2.65729   2.66170   2.66238   2.67973   2.68509
 Alpha virt. eigenvalues --    2.69095   2.69873   2.70364   2.70794   2.71437
 Alpha virt. eigenvalues --    2.71979   2.72092   2.72737   2.72885   2.75000
 Alpha virt. eigenvalues --    2.75321   2.75629   2.75798   2.77827   2.78938
 Alpha virt. eigenvalues --    2.81672   2.82454   2.83496   2.85489   2.85599
 Alpha virt. eigenvalues --    2.85893   2.86518   2.86879   2.88678   2.91659
 Alpha virt. eigenvalues --    2.93759   2.94142   2.96090   2.97772   3.00271
 Alpha virt. eigenvalues --    3.00572   3.03301   3.08622   3.08814   3.21081
 Alpha virt. eigenvalues --    3.23165   3.23636   3.25761   3.30444   3.32391
 Alpha virt. eigenvalues --    3.32535   3.38567   3.38813   3.49603   3.52313
 Alpha virt. eigenvalues --    3.52945   3.99651   4.07404   4.09957   4.10424
 Alpha virt. eigenvalues --    4.11079   4.12725   4.12961   4.13891   4.15016
 Alpha virt. eigenvalues --    4.16818   4.17522   4.18915   4.20568   4.23080
 Alpha virt. eigenvalues --    4.23628   4.26823   4.28126   4.31022   4.34327
 Alpha virt. eigenvalues --    4.34960   4.37326   4.41908   4.43278   4.44850
 Alpha virt. eigenvalues --    4.47915   4.48533   4.51211   4.52783   4.53098
 Alpha virt. eigenvalues --    4.66024   4.68275   4.77048   4.78836   4.86816
 Alpha virt. eigenvalues --    4.90144   4.93075
          Condensed to atoms (all electrons):
 Mulliken charges:
               1
     1  C    0.221667
     2  C    0.235899
     3  C   -0.197818
     4  C    0.130674
     5  C    0.127576
     6  C   -0.181823
     7  H    0.234487
     8  H    0.236507
     9  C    0.233727
    10  N   -0.440926
    11  C    0.231192
    12  N   -0.440288
    13  C    0.286050
    14  C    0.277376
    15  C   -0.186258
    16  C    0.042997
    17  C   -0.166385
    18  C    0.047750
    19  C   -0.174024
    20  H    0.160452
    21  C   -0.190026
    22  C   -0.167061
    23  H    0.159866
    24  C   -0.194697
    25  C   -0.186034
    26  H    0.166727
    27  H    0.170294
    28  C   -0.181738
    29  H    0.165783
    30  H    0.166695
    31  H    0.160355
    32  H    0.159872
    33  C    0.281240
    34  C    0.284303
    35  C   -0.167576
    36  C    0.040165
    37  C   -0.187162
    38  C    0.037762
    39  C   -0.167414
    40  H    0.160089
    41  C   -0.186226
    42  C   -0.174743
    43  H    0.161163
    44  C   -0.181418
    45  C   -0.180677
    46  H    0.165902
    47  H    0.166979
    48  C   -0.186438
    49  H    0.166914
    50  H    0.170319
    51  H    0.161319
    52  H    0.161684
    53  N   -0.717058
    54  N   -0.717997
 Sum of Mulliken charges =  -0.00000
 Mulliken charges with hydrogens summed into heavy atoms:
               1
     1  C    0.221667
     2  C    0.235899
     3  C    0.036669
     4  C    0.130674
     5  C    0.127576
     6  C    0.054685
     9  C    0.233727
    10  N   -0.440926
    11  C    0.231192
    12  N   -0.440288
    13  C    0.286050
    14  C    0.277376
    15  C   -0.025807
    16  C    0.042997
    17  C   -0.006518
    18  C    0.047750
    19  C   -0.007296
    21  C   -0.019731
    22  C   -0.001277
    24  C   -0.028003
    25  C   -0.025678
    28  C   -0.021866
    33  C    0.281240
    34  C    0.284303
    35  C   -0.007486
    36  C    0.040165
    37  C   -0.025999
    38  C    0.037762
    39  C   -0.001512
    41  C   -0.019248
    42  C   -0.007829
    44  C   -0.011099
    45  C   -0.019358
    48  C   -0.024754
    53  N   -0.717058
    54  N   -0.717997
 Electronic spatial extent (au):  <R**2>=          12746.3902
 Charge=             -0.0000 electrons
 Dipole moment (field-independent basis, Debye):
    X=             -5.5584    Y=             -0.0035    Z=              0.2170  Tot=              5.5626
 Quadrupole moment (field-independent basis, Debye-Ang):
   XX=           -236.8569   YY=           -193.1835   ZZ=           -206.1737
   XY=              0.0550   XZ=              1.7831   YZ=             13.2889
 Traceless Quadrupole moment (field-independent basis, Debye-Ang):
   XX=            -24.7856   YY=             18.8879   ZZ=              5.8977
   XY=              0.0550   XZ=              1.7831   YZ=             13.2889
 Octapole moment (field-independent basis, Debye-Ang**2):
  XXX=           -449.8042  YYY=              1.3501  ZZZ=              4.4788  XYY=            -44.2407
  XXY=              2.5459  XXZ=              7.7076  XZZ=            -36.3665  YZZ=             -0.0189
  YYZ=             -0.9452  XYZ=             18.3748
 Hexadecapole moment (field-independent basis, Debye-Ang**3):
 XXXX=         -11213.7552 YYYY=          -5723.5767 ZZZZ=          -3078.4398 XXXY=             39.2390
 XXXZ=             85.5999 YYYX=              4.2130 YYYZ=            151.8346 ZZZX=             62.3135
 ZZZY=            -11.5624 XXYY=          -2468.1281 XXZZ=          -2101.2669 YYZZ=          -1468.9365
 XXYZ=            149.5086 YYXZ=             25.3302 ZZXY=             -6.9938
 N-N= 3.659236325336D+03 E-N=-1.067379086579D+04  KE= 1.436085276607D+03
 Calling FoFJK, ICntrl=  10005127 FMM=F ISym2X=0 I1Cent= 0 IOpClX= 0 NMat=1 NMatS=1 NMatT=0.
 -------------------------------------------------------------------
 Center     Atomic                   Forces (Hartrees/Bohr)
 Number     Number              X              Y              Z
 -------------------------------------------------------------------
      1        6           0.001394141   -0.002067218    0.001874665
      2        6           0.000881651    0.001663983   -0.001776534
      3        6          -0.000272699   -0.000387318    0.000205719
      4        6          -0.000281807    0.001348907   -0.001473926
      5        6          -0.001608765   -0.001735355    0.002159761
      6        6          -0.000091306    0.000200896   -0.000107417
      7        1          -0.000231653   -0.000262975    0.000374843
      8        1           0.000046467   -0.000101505   -0.000695564
      9        6           0.008230837    0.003742903   -0.004663203
     10        7          -0.006697577   -0.002943222    0.004551684
     11        6           0.003478052   -0.001630881    0.001711678
     12        7          -0.003143066    0.001066847   -0.001554146
     13        6           0.000868710   -0.001905423   -0.002054875
     14        6           0.000774817    0.000644272    0.000499855
     15        6           0.000683820    0.001114395    0.000450417
     16        6          -0.000498950    0.001482270   -0.000372306
     17        6           0.000595047   -0.000391311   -0.000336415
     18        6          -0.000261257   -0.000205418   -0.000380312
     19        6          -0.000191775    0.000255810   -0.000261650
     20        1          -0.000742656   -0.000596914    0.000778844
     21        6           0.000040904   -0.000973405   -0.000763582
     22        6          -0.000703822    0.000240727   -0.000410548
     23        1           0.000119038    0.000511370   -0.000374895
     24        6           0.000169135    0.000447493    0.000753217
     25        6           0.000243499    0.000538013    0.000239533
     26        1          -0.000287070    0.000101582   -0.000163064
     27        1          -0.000189051   -0.000455743    0.000336172
     28        6           0.000298662   -0.000612222   -0.000094412
     29        1          -0.000150625    0.000084800   -0.000062800
     30        1          -0.000521594   -0.000644192    0.000921038
     31        1          -0.000312882   -0.000164351    0.000260029
     32        1           0.000075233    0.000032175    0.000236666
     33        6           0.000789457   -0.000150366    0.000040336
     34        6           0.000506537    0.001277554    0.001675167
     35        6           0.000417867   -0.000020062    0.000149459
     36        6           0.000404294   -0.000171766   -0.000248335
     37        6           0.000788451   -0.001279558   -0.000698526
     38        6          -0.000360047   -0.000780121    0.000301267
     39        6          -0.000089150    0.000157812    0.000114804
     40        1           0.000342473   -0.000256025    0.000264505
     41        6          -0.000028597    0.000344444   -0.000299513
     42        6          -0.000398629    0.000561877    0.000496449
     43        1          -0.000970074    0.000650715   -0.000393072
     44        6           0.000242941    0.000567735    0.000406009
     45        6           0.000161382    0.000444557   -0.000251212
     46        1           0.000327602    0.000081249    0.000071547
     47        1           0.000017627    0.000323560   -0.000513603
     48        6           0.000741162   -0.000406825   -0.000254827
     49        1          -0.000081779    0.000095756   -0.000400528
     50        1          -0.000023074    0.000036945   -0.000267680
     51        1           0.000196245    0.000206565   -0.000205372
     52        1          -0.000074306   -0.000108686    0.000256064
     53        7          -0.002671823    0.002052559   -0.000620118
     54        7          -0.001952018   -0.002026913    0.000568710
 -------------------------------------------------------------------
 Cartesian Forces:  Max     0.008230837 RMS     0.001358430

 GradGradGradGradGradGradGradGradGradGradGradGradGradGradGradGradGradGrad
 Berny optimization.
 Search for a local minimum.
 Step number   1 out of a maximum of    2
 All quantities printed in internal units (Hartrees-Bohrs-Radians)
 Second derivative matrix not updated -- first step.
 ITU=  0
     Eigenvalues ---    0.00008   0.00009   0.00022   0.00075   0.00079
     Eigenvalues ---    0.00113   0.00181   0.00264   0.00292   0.00301
     Eigenvalues ---    0.00321   0.00448   0.00716   0.00849   0.00934
     Eigenvalues ---    0.01016   0.01229   0.01235   0.01243   0.01251
     Eigenvalues ---    0.01679   0.02378   0.02424   0.02534   0.02589
     Eigenvalues ---    0.02609   0.02619   0.02738   0.02950   0.03423
     Eigenvalues ---    0.03441   0.03626   0.04608   0.04645   0.04702
     Eigenvalues ---    0.04979   0.06582   0.06743   0.06999   0.07010
     Eigenvalues ---    0.07022   0.07027   0.07052   0.07059   0.07097
     Eigenvalues ---    0.07107   0.07451   0.07905   0.07920   0.07944
     Eigenvalues ---    0.08623   0.08982   0.09461   0.10177   0.10554
     Eigenvalues ---    0.10667   0.10765   0.10788   0.11079   0.12446
     Eigenvalues ---    0.12487   0.12509   0.12642   0.12870   0.13605
     Eigenvalues ---    0.13711   0.13874   0.15045   0.15070   0.15272
     Eigenvalues ---    0.17577   0.18396   0.19498   0.19654   0.21242
     Eigenvalues ---    0.21858   0.23527   0.24024   0.26509   0.27610
     Eigenvalues ---    0.28026   0.28234   0.29751   0.30094   0.30808
     Eigenvalues ---    0.30959   0.31625   0.32966   0.35630   0.35766
     Eigenvalues ---    0.35801   0.36574   0.38139   0.40865   0.42825
     Eigenvalues ---    0.43084   0.43121   0.43357   0.45928   0.47650
     Eigenvalues ---    0.48250   0.49837   0.50426   0.50565   0.50732
     Eigenvalues ---    0.52564   0.53307   0.59317   0.60288   0.62272
     Eigenvalues ---    0.64187   0.71368   0.71379   0.74373   0.78048
     Eigenvalues ---    0.81926   0.82481   0.89698   0.90398   0.94843
     Eigenvalues ---    1.02899   1.06503   1.11079   1.12779   1.14222
     Eigenvalues ---    1.15100   1.15193   1.15416   1.19166   1.19989
     Eigenvalues ---    1.26381   1.29995   1.30677   1.39698   1.39804
     Eigenvalues ---    1.40922   1.43125   1.48786   1.49192   1.49690
     Eigenvalues ---    1.49924   1.50168   1.54262   1.58676   1.64596
     Eigenvalues ---    1.65085   1.66919   1.69662   1.71045   1.73881
     Eigenvalues ---    1.75633   1.76867   2.76400   2.78738  28.18881
     Eigenvalues ---  160.81003
 Eigenvalue     1 is   8.09D-05 Eigenvector:
                          Z51       Z46       Z32       Z45       X49
   1                    0.21211   0.18867  -0.17546   0.17136  -0.16794
                          X46       X52       X29       Z39       X26
   1                    0.16645  -0.16060   0.16041   0.15792  -0.15786
 Eigenvalue     2 is   9.41D-05 Eigenvector:
                          Z29       Z26       Z31       Z52       Z49
   1                    0.22210  -0.22077  -0.21684  -0.21411  -0.20499
                          Z46       Z32       Z19       Z25       Z48
   1                    0.17680   0.17134  -0.16989  -0.16764  -0.16743
 Quadratic step=4.092D+00 exceeds max=3.000D-01 adjusted using Lamda=-4.221D-03.
 Angle between NR and scaled steps=  53.54 degrees.
 Angle between quadratic step and forces=  80.23 degrees.
 Linear search not attempted -- first point.
 B after Tr=     0.000968   -0.000246    0.000642
         Rot=    1.000000    0.000087    0.000214    0.000059 Ang=   0.03 deg.
 Variable       Old X    -DE/DX   Delta X   Delta X   Delta X     New X
                                 (Linear)    (Quad)   (Total)
    X1        2.65938   0.00139   0.00000   0.00111   0.00258   2.66197
    Y1        0.94229  -0.00207   0.00000  -0.00379  -0.00451   0.93778
    Z1       -0.90901   0.00187   0.00000  -0.00577  -0.00415  -0.91316
    X2        2.69130   0.00088   0.00000   0.00060   0.00100   2.69230
    Y2       -0.94829   0.00166   0.00000  -0.00370  -0.00409  -0.95238
    Z2        1.05849  -0.00178   0.00000  -0.00614  -0.00418   1.05431
    X3        4.98013  -0.00027   0.00000  -0.00298  -0.00305   4.97708
    Y3       -1.84291  -0.00039   0.00000  -0.00772  -0.00822  -1.85113
    Z3        1.92287   0.00021   0.00000  -0.00300   0.00009   1.92296
    X4        7.26844  -0.00028   0.00000  -0.00173  -0.00128   7.26716
    Y4       -0.93819   0.00135   0.00000  -0.00777  -0.00871  -0.94690
    Z4        0.94418  -0.00147   0.00000   0.00115   0.00506   0.94924
    X5        7.21699  -0.00161   0.00000   0.00189   0.00343   7.22042
    Y5        0.93296  -0.00174   0.00000  -0.00276  -0.00405   0.92891
    Z5       -1.09325   0.00216   0.00000   0.01129   0.01486  -1.07839
    X6        4.88230  -0.00009   0.00000   0.00437   0.00638   4.88868
    Y6        1.84803   0.00020   0.00000  -0.00742  -0.00858   1.83945
    Z6       -1.91979  -0.00011   0.00000  -0.00314  -0.00072  -1.92051
    X7        5.02167  -0.00023   0.00000  -0.00929  -0.01016   5.01151
    Y7       -3.29355  -0.00026   0.00000  -0.00891  -0.00916  -3.30272
    Z7        3.37437   0.00037   0.00000  -0.00231   0.00105   3.37542
    X8        4.82463   0.00005   0.00000   0.00940   0.01221   4.83683
    Y8        3.29937  -0.00010   0.00000  -0.01527  -0.01668   3.28269
    Z8       -3.36995  -0.00070   0.00000  -0.01292  -0.01077  -3.38072
    X9        9.44630   0.00823   0.00000   0.01206   0.01420   9.46050
    Y9        1.81935   0.00374   0.00000   0.01312   0.01136   1.83072
    Z9       -2.27373  -0.00466   0.00000   0.03393   0.03830  -2.23543
   X10       11.23845  -0.00670   0.00000   0.01622   0.01888  11.25733
   Y10        2.58619  -0.00294   0.00000   0.02020   0.01806   2.60425
   Z10       -3.30470   0.00455   0.00000   0.06127   0.06627  -3.23842
   X11        9.57975   0.00348   0.00000  -0.00313  -0.00322   9.57653
   Y11       -1.84510  -0.00163   0.00000  -0.01984  -0.02089  -1.86598
   Z11        1.94280   0.00171   0.00000  -0.00338   0.00169   1.94449
   X12       11.46348  -0.00314   0.00000  -0.00722  -0.00776  11.45572
   Y12       -2.60961   0.00107   0.00000  -0.02798  -0.02910  -2.63871
   Z12        2.78698  -0.00155   0.00000  -0.00929  -0.00328   2.78369
   X13       -0.62226   0.00087   0.00000  -0.00094   0.00076  -0.62150
   Y13        4.24785  -0.00191   0.00000   0.00561   0.00535   4.25320
   Z13       -0.50783  -0.00205   0.00000  -0.01913  -0.01949  -0.52733
   X14       -1.65915   0.00077   0.00000   0.00656   0.00888  -1.65027
   Y14        0.88625   0.00064   0.00000   0.01065   0.01009   0.89635
   Z14       -2.88185   0.00050   0.00000  -0.02525  -0.02547  -2.90732
   X15        0.69969   0.00068   0.00000  -0.01372  -0.01246   0.68723
   Y15        5.98161   0.00111   0.00000   0.00466   0.00451   5.98612
   Z15        0.99124   0.00045   0.00000  -0.00191  -0.00202   0.98922
   X16       -3.18803  -0.00050   0.00000  -0.00425  -0.00222  -3.19024
   Y16        4.59126   0.00148   0.00000   0.00002  -0.00006   4.59120
   Z16       -1.20859  -0.00037   0.00000  -0.01357  -0.01509  -1.22368
   X17       -1.57949   0.00060   0.00000   0.01453   0.01717  -1.56233
   Y17       -1.37746  -0.00039   0.00000   0.02196   0.02116  -1.35630
   Z17       -4.22183  -0.00034   0.00000  -0.04571  -0.04550  -4.26732
   X18       -3.85131  -0.00026   0.00000  -0.00507  -0.00263  -3.85394
   Y18        2.40994  -0.00021   0.00000  -0.00783  -0.00810   2.40184
   Z18       -2.75788  -0.00038   0.00000   0.00042  -0.00100  -2.75888
   X19       -0.61889  -0.00019   0.00000  -0.02063  -0.01948  -0.63837
   Y19        8.09405   0.00026   0.00000   0.00412   0.00426   8.09831
   Z19        1.81011  -0.00026   0.00000  -0.00834  -0.00938   1.80072
   X20        2.67960  -0.00074   0.00000  -0.02308  -0.02206   2.65753
   Y20        5.68442  -0.00060   0.00000  -0.00607  -0.00638   5.67805
   Z20        1.43650   0.00078   0.00000   0.02736   0.02815   1.46466
   X21       -4.45138   0.00004   0.00000  -0.01596  -0.01403  -4.46541
   Y21        6.73392  -0.00097   0.00000  -0.01304  -0.01283   6.72109
   Z21       -0.38655  -0.00076   0.00000  -0.00354  -0.00598  -0.39253
   X22       -3.79386  -0.00070   0.00000   0.00532   0.00837  -3.78549
   Y22       -2.13200   0.00024   0.00000   0.00804   0.00729  -2.12471
   Z22       -5.44306  -0.00041   0.00000  -0.02339  -0.02400  -5.46706
   X23        0.14462   0.00012   0.00000   0.02604   0.02861   0.17323
   Y23       -2.47769   0.00051   0.00000   0.04391   0.04287  -2.43481
   Z23       -4.33080  -0.00037   0.00000  -0.07622  -0.07508  -4.40588
   X24       -6.00184   0.00017   0.00000  -0.02126  -0.01838  -6.02022
   Y24        1.66090   0.00045   0.00000  -0.03244  -0.03267   1.62823
   Z24       -4.04800   0.00075   0.00000   0.04422   0.04200  -4.00600
   X25       -3.15227   0.00024   0.00000  -0.02254  -0.02105  -3.17332
   Y25        8.46854   0.00054   0.00000  -0.00552  -0.00519   8.46334
   Z25        1.12786   0.00024   0.00000  -0.00531  -0.00750   1.12036
   X26        0.33464  -0.00029   0.00000  -0.02917  -0.02835   0.30629
   Y26        9.48894   0.00010   0.00000   0.00613   0.00636   9.49530
   Z26        2.97092  -0.00016   0.00000  -0.00426  -0.00514   2.96578
   X27       -6.40529  -0.00019   0.00000  -0.02429  -0.02211  -6.42740
   Y27        7.07874  -0.00046   0.00000  -0.03392  -0.03356   7.04517
   Z27       -0.90767   0.00034   0.00000   0.01431   0.01098  -0.89669
   X28       -5.96163   0.00030   0.00000  -0.01238  -0.00920  -5.97083
   Y28       -0.63499  -0.00061   0.00000  -0.02153  -0.02200  -0.65698
   Z28       -5.37523  -0.00009   0.00000   0.02529   0.02349  -5.35175
   X29       -3.80502  -0.00015   0.00000   0.00844   0.01174  -3.79328
   Y29       -3.90046   0.00008   0.00000   0.01636   0.01543  -3.88504
   Z29       -6.47983  -0.00006   0.00000  -0.03725  -0.03756  -6.51739
   X30       -7.68618  -0.00052   0.00000  -0.04356  -0.04057  -7.72675
   Y30        2.83219  -0.00064   0.00000  -0.06399  -0.06401   2.76819
   Z30       -4.05222   0.00092   0.00000   0.09554   0.09239  -3.95984
   X31       -4.11911  -0.00031   0.00000  -0.03387  -0.03246  -4.15157
   Y31       10.15910  -0.00016   0.00000  -0.01599  -0.01543  10.14366
   Z31        1.76936   0.00026   0.00000   0.00590   0.00300   1.77236
   X32       -7.64156   0.00008   0.00000  -0.02141  -0.01788  -7.65944
   Y32       -1.24242   0.00003   0.00000  -0.03503  -0.03547  -1.27789
   Z32       -6.38197   0.00024   0.00000   0.04966   0.04724  -6.33473
   X33       -1.65974   0.00079   0.00000   0.01670   0.01626  -1.64348
   Y33       -0.91158  -0.00015   0.00000  -0.00763  -0.00716  -0.91874
   Z33        3.01638   0.00004   0.00000   0.01442   0.01452   3.03090
   X34       -0.57626   0.00051   0.00000   0.00182   0.00200  -0.57426
   Y34       -4.26778   0.00128   0.00000  -0.00600  -0.00606  -4.27385
   Z34        0.64687   0.00168   0.00000   0.00863   0.00977   0.65664
   X35       -1.63611   0.00042   0.00000   0.03379   0.03301  -1.60310
   Y35        1.32113  -0.00002   0.00000  -0.01354  -0.01283   1.30830
   Z35        4.41016   0.00015   0.00000   0.02333   0.02306   4.43322
   X36       -3.86629   0.00040   0.00000   0.00760   0.00711  -3.85919
   Y36       -2.39285  -0.00017   0.00000   0.00914   0.00984  -2.38301
   Z36        2.76445  -0.00025   0.00000   0.00013  -0.00047   2.76398
   X37        0.74379   0.00079   0.00000  -0.00737  -0.00676   0.73703
   Y37       -6.03312  -0.00128   0.00000   0.00410   0.00362  -6.02950
   Z37       -0.81852  -0.00070   0.00000  -0.01404  -0.01204  -0.83056
   X38       -3.17895  -0.00036   0.00000   0.00297   0.00287  -3.17608
   Y38       -4.55153  -0.00078   0.00000  -0.00340  -0.00305  -4.55459
   Z38        1.21770   0.00030   0.00000   0.01405   0.01413   1.23183
   X39       -3.89550  -0.00009   0.00000   0.03261   0.03144  -3.86405
   Y39        2.06533   0.00016   0.00000   0.01072   0.01190   2.07723
   Z39        5.54580   0.00011   0.00000   0.00473   0.00336   5.54916
   X40        0.08993   0.00034   0.00000   0.04612   0.04536   0.13529
   Y40        2.40288  -0.00026   0.00000  -0.03653  -0.03598   2.36690
   Z40        4.63519   0.00026   0.00000   0.04124   0.04153   4.67672
   X41       -6.08303  -0.00003   0.00000   0.00294   0.00204  -6.08099
   Y41       -1.64339   0.00034   0.00000   0.03981   0.04097  -1.60242
   Z41        3.96159  -0.00030   0.00000  -0.02826  -0.02994   3.93165
   X42       -0.60899  -0.00040   0.00000  -0.00944  -0.00868  -0.61767
   Y42       -8.08295   0.00056   0.00000   0.00448   0.00400  -8.07895
   Z42       -1.73290   0.00050   0.00000  -0.00840  -0.00662  -1.73952
   X43        2.75214  -0.00097   0.00000  -0.01700  -0.01620   2.73595
   Y43       -5.80933   0.00065   0.00000   0.02333   0.02255  -5.78678
   Z43       -1.18031  -0.00039   0.00000  -0.04303  -0.04021  -1.22052
   X44       -4.49036   0.00024   0.00000   0.00095   0.00100  -4.48936
   Y44       -6.62771   0.00057   0.00000  -0.00218  -0.00185  -6.62956
   Z44        0.27746   0.00041   0.00000   0.01589   0.01576   0.29322
   X45       -6.08557   0.00016   0.00000   0.01611   0.01488  -6.07068
   Y45        0.60227   0.00044   0.00000   0.03966   0.04105   0.64332
   Z45        5.34336  -0.00025   0.00000  -0.02646  -0.02853   5.31483
   X46       -3.94007   0.00033   0.00000   0.04508   0.04366  -3.89642
   Y46        3.80500   0.00008   0.00000   0.00741   0.00878   3.81378
   Z46        6.63095   0.00007   0.00000   0.01081   0.00912   6.64007
   X47       -7.78067   0.00002   0.00000  -0.01073  -0.01171  -7.79238
   Y47       -2.79092   0.00032   0.00000   0.06309   0.06442  -2.72650
   Z47        3.83686  -0.00051   0.00000  -0.05330  -0.05552   3.78134
   X48       -3.19714   0.00074   0.00000  -0.00284  -0.00235  -3.19949
   Y48       -8.37405  -0.00041   0.00000  -0.00414  -0.00421  -8.37827
   Z48       -1.20587  -0.00025   0.00000   0.01326   0.01399  -1.19188
   X49        0.35573  -0.00008   0.00000  -0.01723  -0.01615   0.33958
   Y49       -9.50300   0.00010   0.00000   0.01439   0.01361  -9.48940
   Z49       -2.85355  -0.00040   0.00000  -0.02833  -0.02590  -2.87945
   X50       -6.48452  -0.00002   0.00000   0.00009  -0.00006  -6.48458
   Y50       -6.88117   0.00004   0.00000   0.00080   0.00144  -6.87973
   Z50        0.69012  -0.00027   0.00000   0.01291   0.01197   0.70209
   X51       -7.80205   0.00020   0.00000   0.01330   0.01175  -7.79030
   Y51        1.20813   0.00021   0.00000   0.06002   0.06178   1.26991
   Z51        6.28792  -0.00021   0.00000  -0.04548  -0.04839   6.23953
   X52       -4.19370  -0.00007   0.00000  -0.00497  -0.00436  -4.19806
   Y52      -10.00112  -0.00011   0.00000  -0.00673  -0.00682 -10.00794
   Z52       -1.95773   0.00026   0.00000   0.02147   0.02205  -1.93567
   X53        0.26483  -0.00267   0.00000   0.00174   0.00361   0.26844
   Y53        2.02559   0.00205   0.00000   0.00737   0.00682   2.03241
   Z53       -1.51491  -0.00062   0.00000  -0.01765  -0.01724  -1.53215
   X54        0.32086  -0.00195   0.00000   0.00544   0.00542   0.32628
   Y54       -2.06547  -0.00203   0.00000  -0.00991  -0.00990  -2.07537
   Z54        1.71742   0.00057   0.00000   0.00617   0.00732   1.72474
         Item               Value     Threshold  Converged?
 Maximum Force            0.008231     0.000450     NO 
 RMS     Force            0.001358     0.000300     NO 
 Maximum Displacement     0.092388     0.001800     NO 
 RMS     Displacement     0.023510     0.001200     NO 
 Predicted change in Energy=-6.292831D-04
 GradGradGradGradGradGradGradGradGradGradGradGradGradGradGradGradGradGrad

 Unable to Open any file for archive entry.
 1\1\GINC-X10P1N1\Force\RM062X TD-FC\6-31G(d)\C32H18N4\MAYUMIAO\13-Jul-
 2024\0\\# 6-31g(d) m062x g09default scf=(xqc,maxcycle=64) force guess=
 read td nosymm\\Title Card\\0,1\C,1.40728473,0.49863747,-0.48102919\C,
 1.42417412,-0.50181429,0.56012693\C,2.63536976,-0.97522693,1.01753744\
 C,3.8462927,-0.49646861,0.49963652\C,3.81906741,0.49369874,-0.57852365
 \C,2.58360041,0.97793502,-1.01590702\H,2.65735441,-1.74287334,1.785641
 48\H,2.55308179,1.745951,-1.7833005\C,4.99876717,0.96276032,-1.2032080
 4\N,5.94712954,1.36855386,-1.74876935\C,5.06938421,-0.97638283,1.02808
 598\N,6.0662135,-1.38094779,1.47480402\C,-0.32928646,2.24786591,-0.268
 73308\C,-0.87798386,0.46898438,-1.52500739\C,0.37026148,3.16533371,0.5
 2454181\C,-1.6870319,2.42959073,-0.63955943\C,-0.83583112,-0.72891903,
 -2.23409384\C,-2.03802566,1.27528406,-1.45940709\C,-0.32750497,4.28318
 603,0.95786669\H,1.41798274,3.00806719,0.76016462\C,-2.35556622,3.5634
 3679,-0.20455468\C,-2.00762592,-1.12820716,-2.88034239\H,0.07653002,-1
 .31113565,-2.29175933\C,-3.17603453,0.87890954,-2.14210883\C,-1.668111
 58,4.48135621,0.59683897\H,0.17708214,5.0213314,1.57214056\H,-3.389532
 69,3.74590562,-0.48031762\C,-3.15475977,-0.33601977,-2.84445087\H,-2.0
 135306,-2.06403576,-3.42897849\H,-4.06735249,1.49873231,-2.14434437\H,
 -2.17973657,5.37596336,0.93630575\H,-4.04373926,-0.65746068,-3.3771953
 2\C,-0.87829547,-0.48238814,1.59619992\C,-0.30494613,-2.25841372,0.342
 30881\C,-0.8657942,0.69911129,2.33375562\C,-2.04595487,-1.26624163,1.4
 6288543\C,0.39359928,-3.19259044,-0.43314409\C,-1.68222993,-2.40856847
 ,0.64438163\C,-2.06140823,1.09292671,2.93471306\H,0.04758738,1.2715466
 9,2.45283625\C,-3.21900113,-0.86964422,2.0963806\C,-0.32226323,-4.2773
 1213,-0.91700955\H,1.45637086,-3.07416431,-0.62459321\C,-2.37619578,-3
 .50723541,0.14682467\C,-3.22034297,0.31870692,2.82758191\H,-2.08499626
 ,2.0135209,3.5089483\H,-4.11735139,-1.47689305,2.03037622\C,-1.6918529
 6,-4.43135868,-0.63811866\H,0.18824505,-5.02877288,-1.51003535\H,-3.43
 146108,-3.64135784,0.36519408\H,-4.12866612,0.63931628,3.32742559\H,-2
 .21921087,-5.29236367,-1.03598378\N,0.14014203,1.07189768,-0.80165562\
 N,0.16979248,-1.09300071,0.90881989\\Version=ES64L-G16RevC.01\HF=-1448
 .6882114\RMSD=8.284e-09\RMSF=1.358e-03\Dipole=-7.324227,0.5509112,-0.2
 320495\PG=C01 [X(C32H18N4)]\\@
 The archive entry for this job was punched.


 SUCCESS IS NEVER CERTAIN,
 FAILURE IS NEVER FINAL.
 Job cpu time:       0 days  4 hours 21 minutes 22.3 seconds.
 Elapsed time:       0 days  0 hours  9 minutes 25.1 seconds.
 File lengths (MBytes):  RWF=   1633 Int=      0 D2E=      0 Chk=     65 Scr=      1
 Normal termination of Gaussian 16 at Sat Jul 13 21:58:26 2024.
