 Entering Gaussian System, Link 0=g16
 Input=JOBS/6_A.gjf
 Output=JOBS/6_A.log
 Initial command:
 /data/app/gaussian/C01-avx2//g16/l1.exe "/tmp/Gau-1304132.inp" -scrdir="/tmp/"
 Entering Link 1 = /data/app/gaussian/C01-avx2//g16/l1.exe PID=   1304133.
  
 Copyright (c) 1988-2019, Gaussian, Inc.  All Rights Reserved.
  
 This is part of the Gaussian(R) 16 program.  It is based on
 the Gaussian(R) 09 system (copyright 2009, Gaussian, Inc.),
 the Gaussian(R) 03 system (copyright 2003, Gaussian, Inc.),
 the Gaussian(R) 98 system (copyright 1998, Gaussian, Inc.),
 the Gaussian(R) 94 system (copyright 1995, Gaussian, Inc.),
 the Gaussian 92(TM) system (copyright 1992, Gaussian, Inc.),
 the Gaussian 90(TM) system (copyright 1990, Gaussian, Inc.),
 the Gaussian 88(TM) system (copyright 1988, Gaussian, Inc.),
 the Gaussian 86(TM) system (copyright 1986, Carnegie Mellon
 University), and the Gaussian 82(TM) system (copyright 1983,
 Carnegie Mellon University). Gaussian is a federally registered
 trademark of Gaussian, Inc.
  
 This software contains proprietary and confidential information,
 including trade secrets, belonging to Gaussian, Inc.
  
 This software is provided under written license and may be
 used, copied, transmitted, or stored only in accord with that
 written license.
  
 The following legend is applicable only to US Government
 contracts under FAR:
  
                    RESTRICTED RIGHTS LEGEND
  
 Use, reproduction and disclosure by the US Government is
 subject to restrictions as set forth in subparagraphs (a)
 and (c) of the Commercial Computer Software - Restricted
 Rights clause in FAR 52.227-19.
  
 Gaussian, Inc.
 340 Quinnipiac St., Bldg. 40, Wallingford CT 06492
  
  
 ---------------------------------------------------------------
 Warning -- This program may not be used in any manner that
 competes with the business of Gaussian, Inc. or will provide
 assistance to any competitor of Gaussian, Inc.  The licensee
 of this program is prohibited from giving any competitor of
 Gaussian, Inc. access to this program.  By using this program,
 the user acknowledges that Gaussian, Inc. is engaged in the
 business of creating and licensing software in the field of
 computational chemistry and represents and warrants to the
 licensee that it is not a competitor of Gaussian, Inc. and that
 it will not use this program in any manner prohibited above.
 ---------------------------------------------------------------
  

 Cite this work as:
 Gaussian 16, Revision C.01,
 M. J. Frisch, G. W. Trucks, H. B. Schlegel, G. E. Scuseria, 
 M. A. Robb, J. R. Cheeseman, G. Scalmani, V. Barone, 
 G. A. Petersson, H. Nakatsuji, X. Li, M. Caricato, A. V. Marenich, 
 J. Bloino, B. G. Janesko, R. Gomperts, B. Mennucci, H. P. Hratchian, 
 J. V. Ortiz, A. F. Izmaylov, J. L. Sonnenberg, D. Williams-Young, 
 F. Ding, F. Lipparini, F. Egidi, J. Goings, B. Peng, A. Petrone, 
 T. Henderson, D. Ranasinghe, V. G. Zakrzewski, J. Gao, N. Rega, 
 G. Zheng, W. Liang, M. Hada, M. Ehara, K. Toyota, R. Fukuda, 
 J. Hasegawa, M. Ishida, T. Nakajima, Y. Honda, O. Kitao, H. Nakai, 
 T. Vreven, K. Throssell, J. A. Montgomery, Jr., J. E. Peralta, 
 F. Ogliaro, M. J. Bearpark, J. J. Heyd, E. N. Brothers, K. N. Kudin, 
 V. N. Staroverov, T. A. Keith, R. Kobayashi, J. Normand, 
 K. Raghavachari, A. P. Rendell, J. C. Burant, S. S. Iyengar, 
 J. Tomasi, M. Cossi, J. M. Millam, M. Klene, C. Adamo, R. Cammi, 
 J. W. Ochterski, R. L. Martin, K. Morokuma, O. Farkas, 
 J. B. Foresman, and D. J. Fox, Gaussian, Inc., Wallingford CT, 2019.
 
 ******************************************
 Gaussian 16:  ES64L-G16RevC.01  3-Jul-2019
                13-Jul-2024 
 ******************************************
 %chk=a.chk
 %nprocshared=28
 Will use up to   28 processors via shared memory.
 %mem=48gb
 ----------------------------------------------------------------------
 # 6-31g(d) m062x g09default scf=(xqc,maxcycle=64) force guess=read td 
 nosymm
 ----------------------------------------------------------------------
 1/10=7,30=1,38=1,158=3,167=1/1,3;
 2/12=2,15=1,17=6,18=5,40=1/2;
 3/5=1,6=6,7=1,11=9,25=1,27=10,30=1,71=1,74=-55,75=-4,116=-2,158=3/1,2,3,8;
 4/5=1,60=-1/1;
 5/5=2,7=64,8=3,13=1,38=6,87=10/2,8;
 8/6=1,10=2,87=10/1;
 9/15=2,42=1,70=2,87=10/14;
 10/5=4,31=1,87=10/2;
 6/7=2,8=2,9=2,10=2,18=1,87=10/1;
 7/12=6,13=5,29=1,30=1,87=10/1,2,3,16;
 1/10=7,30=1,158=3,167=1/3;
 99//99;
 Using 2006 physical constants.
 ----------
 Title Card
 ----------
 Symbolic Z-matrix:
 Charge =  0 Multiplicity = 1
 6                     1.40742   0.49761  -0.48019 
 6                     1.42476  -0.50166   0.55908 
 6                     2.63512  -0.97607   1.01805 
 6                     3.84698  -0.49635   0.49938 
 6                     3.81799   0.49358  -0.578 
 6                     2.58415   0.97867  -1.01594 
 1                     2.65657  -1.74328   1.78637 
 1                     2.55345   1.7449   -1.78475 
 6                     4.99849   0.9631   -1.20281 
 7                     5.94755   1.3686   -1.7472 
 6                     5.06854  -0.97626   1.02792 
 7                     6.06606  -1.38159   1.47437 
 6                    -0.32812   2.24829  -0.27229 
 6                    -0.87766   0.46935  -1.5246 
 6                     0.37065   3.16659   0.52423 
 6                    -1.68664   2.43163  -0.64115 
 6                    -0.83528  -0.72902  -2.23517 
 6                    -2.03807   1.27542  -1.46001 
 6                    -0.32796   4.28376   0.95709 
 1                     1.41656   3.00632   0.76268 
 6                    -2.35549   3.56298  -0.20523 
 6                    -2.00766  -1.12771  -2.88105 
 1                     0.07725  -1.30997  -2.29277 
 6                    -3.17628   0.87884  -2.14108 
 6                    -1.66828   4.48177   0.59674 
 1                     0.17644   5.02186   1.57176 
 1                    -3.39002   3.74456  -0.4795 
 6                    -3.15452  -0.33616  -2.84411 
 1                    -2.01416  -2.06404  -3.42915 
 1                    -4.069     1.49707  -2.14175 
 1                    -2.18051   5.3755    0.93701 
 1                    -4.04367  -0.6574   -3.37673 
 6                    -0.87735  -0.48263   1.59673 
 6                    -0.30414  -2.25893   0.34519 
 6                    -0.86495   0.69898   2.3345 
 6                    -2.04545  -1.26622   1.46278 
 6                     0.39398  -3.19393  -0.43315 
 6                    -1.6823   -2.40993   0.64523 
 6                    -2.06103   1.09336   2.93473 
 1                     0.04861   1.27092   2.4535 
 6                    -3.21901  -0.86876   2.09528 
 6                    -0.32268  -4.27687  -0.91659 
 1                     1.4553   -3.07212  -0.62613 
 6                    -2.37573  -3.50685   0.14709 
 6                    -3.22005   0.31972   2.82676 
 1                    -2.08408   2.01376   3.50916 
 1                    -4.11723  -1.47609   2.02901 
 6                    -1.69143  -4.43198  -0.63818 
 1                     0.18793  -5.02842  -1.51095 
 1                    -3.4314   -3.64133   0.36446 
 1                    -4.12825   0.6398    3.32703 
 1                    -2.21948  -5.29288  -1.03534 
 7                     0.13867   1.07341  -0.80285 
 7                     0.16913  -1.09516   0.9107 
 

 GradGradGradGradGradGradGradGradGradGradGradGradGradGradGradGradGradGrad
 Berny optimization.
 Initialization pass.
 Trust Radius=3.00D-01 FncErr=1.00D-07 GrdErr=1.00D-07 EigMax=2.50D+02 EigMin=1.00D-04
 Number of steps in this run=      2 maximum allowed number of steps=      2.
 GradGradGradGradGradGradGradGradGradGradGradGradGradGradGradGradGradGrad

 Symmetry turned off by external request.
 Stoichiometry    C32H18N4
 Framework group  C1[X(C32H18N4)]
 Deg. of freedom   156
 Full point group                 C1      NOp   1
                          Input orientation:                          
 ---------------------------------------------------------------------
 Center     Atomic      Atomic             Coordinates (Angstroms)
 Number     Number       Type             X           Y           Z
 ---------------------------------------------------------------------
      1          6           0        1.407416    0.497607   -0.480194
      2          6           0        1.424759   -0.501663    0.559079
      3          6           0        2.635121   -0.976074    1.018046
      4          6           0        3.846979   -0.496354    0.499384
      5          6           0        3.817995    0.493584   -0.577999
      6          6           0        2.584151    0.978674   -1.015943
      7          1           0        2.656567   -1.743281    1.786366
      8          1           0        2.553451    1.744904   -1.784749
      9          6           0        4.998488    0.963100   -1.202807
     10          7           0        5.947548    1.368596   -1.747196
     11          6           0        5.068538   -0.976262    1.027925
     12          7           0        6.066061   -1.381594    1.474372
     13          6           0       -0.328122    2.248290   -0.272287
     14          6           0       -0.877659    0.469349   -1.524603
     15          6           0        0.370655    3.166592    0.524232
     16          6           0       -1.686643    2.431625   -0.641147
     17          6           0       -0.835276   -0.729018   -2.235166
     18          6           0       -2.038071    1.275424   -1.460013
     19          6           0       -0.327964    4.283760    0.957094
     20          1           0        1.416557    3.006319    0.762678
     21          6           0       -2.355485    3.562983   -0.205232
     22          6           0       -2.007657   -1.127712   -2.881054
     23          1           0        0.077252   -1.309971   -2.292767
     24          6           0       -3.176282    0.878843   -2.141076
     25          6           0       -1.668282    4.481774    0.596745
     26          1           0        0.176439    5.021858    1.571763
     27          1           0       -3.390022    3.744560   -0.479505
     28          6           0       -3.154521   -0.336158   -2.844109
     29          1           0       -2.014163   -2.064045   -3.429152
     30          1           0       -4.068997    1.497069   -2.141748
     31          1           0       -2.180513    5.375498    0.937006
     32          1           0       -4.043673   -0.657398   -3.376735
     33          6           0       -0.877352   -0.482634    1.596734
     34          6           0       -0.304144   -2.258933    0.345185
     35          6           0       -0.864946    0.698980    2.334504
     36          6           0       -2.045453   -1.266218    1.462780
     37          6           0        0.393976   -3.193932   -0.433150
     38          6           0       -1.682304   -2.409928    0.645228
     39          6           0       -2.061035    1.093361    2.934728
     40          1           0        0.048610    1.270915    2.453504
     41          6           0       -3.219007   -0.868761    2.095280
     42          6           0       -0.322684   -4.276871   -0.916594
     43          1           0        1.455300   -3.072123   -0.626132
     44          6           0       -2.375730   -3.506847    0.147095
     45          6           0       -3.220047    0.319715    2.826763
     46          1           0       -2.084084    2.013763    3.509162
     47          1           0       -4.117230   -1.476089    2.029011
     48          6           0       -1.691435   -4.431979   -0.638182
     49          1           0        0.187928   -5.028422   -1.510945
     50          1           0       -3.431402   -3.641331    0.364463
     51          1           0       -4.128246    0.639801    3.327034
     52          1           0       -2.219478   -5.292884   -1.035337
     53          7           0        0.138673    1.073408   -0.802849
     54          7           0        0.169133   -1.095156    0.910704
 ---------------------------------------------------------------------
 Rotational constants (GHZ):           0.1589208           0.1164059           0.0924811
 Standard basis: 6-31G(d) (6D, 7F)
   576 basis functions,  1080 primitive gaussians,   576 cartesian basis functions
   119 alpha electrons      119 beta electrons
       nuclear repulsion energy      3659.0492018249 Hartrees.
 NAtoms=   54 NActive=   54 NUniq=   54 SFac= 1.00D+00 NAtFMM=   60 NAOKFM=F Big=F
 Integral buffers will be    131072 words long.
 Regular integral format.
 Two-electron integral symmetry is turned off.
 One-electron integrals computed using PRISM.
 NBasis=   576 RedAO= T EigKep=  2.60D-04  NBF=   576
 NBsUse=   576 1.00D-06 EigRej= -1.00D+00 NBFU=   576
 Initial guess from the checkpoint file:  "a.chk"
 B after Tr=     0.000158    0.000075   -0.000041
         Rot=    1.000000    0.000035    0.000016    0.000009 Ang=   0.00 deg.
 Requested convergence on RMS density matrix=1.00D-08 within  64 cycles.
 Requested convergence on MAX density matrix=1.00D-06.
 Requested convergence on             energy=1.00D-06.
 No special actions if energy rises.
 SCF Done:  E(RM062X) =  -1448.68807458     A.U. after   10 cycles
            NFock= 10  Conv=0.64D-08     -V/T= 2.0088
 QCSCF skips out because SCF is already converged.
 DoSCS=F DFT=T ScalE2(SS,OS)=  1.000000  1.000000
 ExpMin= 1.61D-01 ExpMax= 4.17D+03 ExpMxC= 6.27D+02 IAcc=3 IRadAn=         5 AccDes= 0.00D+00
 HarFok:  IExCor=  205 AccDes= 0.00D+00 IRadAn=         5 IDoV=-2 UseB2=F ITyADJ=14
 ICtDFT= 12500011 ScaDFX=  1.000000  1.000000  1.000000  1.000000
 GSVD:  LWork=       -1584 too small for GESVD, short by        7020 words or        7020 for optimal perf.
 Range of M.O.s used for correlation:    37   576
 NBasis=   576 NAE=   119 NBE=   119 NFC=    36 NFV=     0
 NROrb=    540 NOA=    83 NOB=    83 NVA=   457 NVB=   457

 **** Warning!!: The largest alpha MO coefficient is  0.10274153D+02

    12 initial guesses have been made.
 Convergence on wavefunction:    0.000001000000000
 Iteration     1 Dimension    12 NMult     0 NNew     12
 CISAX will form    12 AO SS matrices at one time.
 Iteration     2 Dimension    18 NMult    12 NNew      6
 Iteration     3 Dimension    24 NMult    18 NNew      6
 Iteration     4 Dimension    30 NMult    24 NNew      6
 Iteration     5 Dimension    36 NMult    30 NNew      6
 Iteration     6 Dimension    42 NMult    36 NNew      6
 Iteration     7 Dimension    48 NMult    42 NNew      6
 Iteration     8 Dimension    54 NMult    48 NNew      6
 Iteration     9 Dimension    60 NMult    54 NNew      6
 Iteration    10 Dimension    66 NMult    60 NNew      6
 Iteration    11 Dimension    72 NMult    66 NNew      6
 Iteration    12 Dimension    78 NMult    72 NNew      6
 Iteration    13 Dimension    80 NMult    78 NNew      2
 ***********************************************************************
 Excited states from <AA,BB:AA,BB> singles matrix:
 ***********************************************************************
 
 Ground to excited state transition densities written to RWF  633
 Ground to excited state transition electric dipole moments (Au):
       state          X           Y           Z        Dip. S.      Osc.
         1        -0.0926      0.2973     -0.2546      0.1618      0.0114
         2         0.5700      0.0571     -0.0684      0.3329      0.0258
         3        -0.0109     -0.1389      0.0745      0.0250      0.0022
 Ground to excited state transition velocity dipole moments (Au):
       state          X           Y           Z        Dip. S.      Osc.
         1         0.0100     -0.0295      0.0324      0.0020      0.0127
         2        -0.0670     -0.0065      0.0089      0.0046      0.0265
         3         0.0014      0.0215     -0.0133      0.0006      0.0032
 Ground to excited state transition magnetic dipole moments (Au):
       state          X           Y           Z
         1         0.0330     -0.2804     -0.2905
         2        -0.2384     -0.0764     -0.0607
         3        -0.0066      0.2312     -0.0460
 Ground to excited state transition velocity quadrupole moments (Au):
       state          XX          YY          ZZ          XY          XZ          YZ
         1         0.0679     -0.0318     -0.0069     -0.0075      0.0124     -0.0081
         2        -0.3886      0.1655      0.0593     -0.0101      0.0140      0.0622
         3         0.0013     -0.0033      0.0041      0.0512     -0.0311      0.0008
 <0|del|b> * <b|rxdel|0> + <0|del|b> * <b|delr+rdel|0>
 Rotatory Strengths (R) in cgs (10**-40 erg-esu-cm/Gauss)
       state          XX          YY          ZZ    R(velocity)    E-M Angle
         1        -3.3534    -29.7381     27.7630     -1.7762       92.51
         2        -0.1268     34.5636     62.5618     32.3329       24.41
         3        14.9169      3.4389     11.4912      9.9490       21.00
 1/2[<0|r|b>*<b|rxdel|0> + (<0|rxdel|b>*<b|r|0>)*]
 Rotatory Strengths (R) in cgs (10**-40 erg-esu-cm/Gauss)
       state          XX          YY          ZZ     R(length)
         1         2.1596     58.9365    -52.3057      2.9301
         2        96.0815      3.0890     -2.9347     32.0786
         3        -0.0510     22.7121      2.4230      8.3614
  1/2[<0|del|b>*<b|r|0> + (<0|r|b>*<b|del|0>)*] (Au)
       state          X           Y           Z        Dip. S.   Osc.(frdel)
         1        -0.0009     -0.0088     -0.0082      0.0179      0.0120
         2        -0.0382     -0.0004     -0.0006      0.0392      0.0261
         3        -0.0000     -0.0030     -0.0010      0.0040      0.0027

 Excitation energies and oscillator strengths:
 
 Excited state symmetry could not be determined.
 Excited State   1:      Singlet-?Sym    2.8834 eV  430.00 nm  f=0.0114  <S**2>=0.000
     119 ->120         0.68984
 This state for optimization and/or second-order correction.
 Total Energy, E(TD-HF/TD-DFT) =  -1448.58211327    
 Copying the excited state density for this state as the 1-particle RhoCI density.
 
 Excited state symmetry could not be determined.
 Excited State   2:      Singlet-?Sym    3.1602 eV  392.32 nm  f=0.0258  <S**2>=0.000
     118 ->120         0.68823
 
 Excited state symmetry could not be determined.
 Excited State   3:      Singlet-?Sym    3.5895 eV  345.41 nm  f=0.0022  <S**2>=0.000
     117 ->120         0.69485
 SavETr:  write IOETrn=   770 NScale= 10 NData=  16 NLR=1 NState=    3 LETran=      64.
          IDoAtm=11111111111111111111111111111111111111111111111111
          IDoAtm=1111
          Differentiating once with respect to electric field.
                with respect to dipole field.
          Differentiating once with respect to nuclear coordinates.
          There are     1 degrees of freedom in the 1st order CPHF.  IDoFFX=0 NUNeed=     1.
 LinEq1:  Iter=  0 NonCon=     1 RMS=3.97D-03 Max=2.06D-01 NDo=     1
 AX will form     1 AO Fock derivatives at one time.
 LinEq1:  Iter=  1 NonCon=     1 RMS=2.46D-03 Max=1.79D-01 NDo=     1
 LinEq1:  Iter=  2 NonCon=     1 RMS=1.70D-03 Max=9.94D-02 NDo=     1
 LinEq1:  Iter=  3 NonCon=     1 RMS=9.10D-04 Max=5.67D-02 NDo=     1
 LinEq1:  Iter=  4 NonCon=     1 RMS=6.17D-04 Max=4.21D-02 NDo=     1
 LinEq1:  Iter=  5 NonCon=     1 RMS=3.25D-04 Max=1.33D-02 NDo=     1
 LinEq1:  Iter=  6 NonCon=     1 RMS=1.67D-04 Max=1.39D-02 NDo=     1
 LinEq1:  Iter=  7 NonCon=     1 RMS=1.10D-04 Max=6.54D-03 NDo=     1
 LinEq1:  Iter=  8 NonCon=     1 RMS=7.43D-05 Max=4.30D-03 NDo=     1
 LinEq1:  Iter=  9 NonCon=     1 RMS=4.22D-05 Max=1.79D-03 NDo=     1
 LinEq1:  Iter= 10 NonCon=     1 RMS=2.01D-05 Max=7.11D-04 NDo=     1
 LinEq1:  Iter= 11 NonCon=     1 RMS=1.03D-05 Max=5.52D-04 NDo=     1
 LinEq1:  Iter= 12 NonCon=     1 RMS=7.36D-06 Max=4.24D-04 NDo=     1
 LinEq1:  Iter= 13 NonCon=     1 RMS=4.43D-06 Max=2.52D-04 NDo=     1
 LinEq1:  Iter= 14 NonCon=     1 RMS=2.71D-06 Max=1.47D-04 NDo=     1
 LinEq1:  Iter= 15 NonCon=     1 RMS=1.26D-06 Max=5.09D-05 NDo=     1
 LinEq1:  Iter= 16 NonCon=     1 RMS=8.03D-07 Max=3.51D-05 NDo=     1
 LinEq1:  Iter= 17 NonCon=     1 RMS=3.40D-07 Max=1.19D-05 NDo=     1
 LinEq1:  Iter= 18 NonCon=     1 RMS=1.59D-07 Max=6.81D-06 NDo=     1
 LinEq1:  Iter= 19 NonCon=     1 RMS=8.43D-08 Max=3.47D-06 NDo=     1
 LinEq1:  Iter= 20 NonCon=     1 RMS=4.02D-08 Max=1.74D-06 NDo=     1
 LinEq1:  Iter= 21 NonCon=     1 RMS=2.28D-08 Max=1.07D-06 NDo=     1
 LinEq1:  Iter= 22 NonCon=     1 RMS=1.44D-08 Max=7.35D-07 NDo=     1
 LinEq1:  Iter= 23 NonCon=     1 RMS=5.81D-09 Max=2.80D-07 NDo=     1
 LinEq1:  Iter= 24 NonCon=     1 RMS=3.07D-09 Max=1.25D-07 NDo=     1
 LinEq1:  Iter= 25 NonCon=     1 RMS=1.44D-09 Max=7.15D-08 NDo=     1
 LinEq1:  Iter= 26 NonCon=     1 RMS=7.42D-10 Max=2.73D-08 NDo=     1
 LinEq1:  Iter= 27 NonCon=     1 RMS=3.45D-10 Max=1.36D-08 NDo=     1
 LinEq1:  Iter= 28 NonCon=     1 RMS=1.35D-10 Max=7.58D-09 NDo=     1
 LinEq1:  Iter= 29 NonCon=     1 RMS=6.71D-11 Max=3.34D-09 NDo=     1
 LinEq1:  Iter= 30 NonCon=     1 RMS=2.84D-11 Max=1.39D-09 NDo=     1
 LinEq1:  Iter= 31 NonCon=     0 RMS=1.42D-11 Max=5.23D-10 NDo=     1
 Linear equations converged to 1.000D-10 1.000D-09 after    31 iterations.
 End of Minotr F.D. properties file   721 does not exist.
 End of Minotr F.D. properties file   722 does not exist.
 End of Minotr F.D. properties file   788 does not exist.

 **********************************************************************

            Population analysis using the SCF Density.

 **********************************************************************

 Alpha  occ. eigenvalues --  -14.82713 -14.82491 -14.79675 -14.79642 -10.65600
 Alpha  occ. eigenvalues --  -10.65476 -10.65330 -10.65255 -10.62096 -10.61996
 Alpha  occ. eigenvalues --  -10.61655 -10.61625 -10.60038 -10.59933 -10.59735
 Alpha  occ. eigenvalues --  -10.59621 -10.56238 -10.56137 -10.56039 -10.56027
 Alpha  occ. eigenvalues --  -10.56026 -10.55955 -10.55949 -10.55944 -10.55858
 Alpha  occ. eigenvalues --  -10.55845 -10.55800 -10.55684 -10.55661 -10.55655
 Alpha  occ. eigenvalues --  -10.55503 -10.55422 -10.55259 -10.55162 -10.54948
 Alpha  occ. eigenvalues --  -10.54884  -1.13905  -1.11560  -1.05099  -1.03331
 Alpha  occ. eigenvalues --   -1.01678  -0.96815  -0.96266  -0.95878  -0.95562
 Alpha  occ. eigenvalues --   -0.92273  -0.91713  -0.88365  -0.87629  -0.85712
 Alpha  occ. eigenvalues --   -0.85320  -0.83717  -0.82630  -0.81968  -0.81830
 Alpha  occ. eigenvalues --   -0.78830  -0.76926  -0.73331  -0.72996  -0.70025
 Alpha  occ. eigenvalues --   -0.69918  -0.69749  -0.69171  -0.66590  -0.66284
 Alpha  occ. eigenvalues --   -0.66236  -0.63703  -0.62251  -0.61346  -0.60156
 Alpha  occ. eigenvalues --   -0.59724  -0.59020  -0.58439  -0.56342  -0.55917
 Alpha  occ. eigenvalues --   -0.53867  -0.53491  -0.53178  -0.53099  -0.52696
 Alpha  occ. eigenvalues --   -0.52493  -0.51410  -0.51284  -0.50676  -0.50600
 Alpha  occ. eigenvalues --   -0.49297  -0.49221  -0.49187  -0.49153  -0.48655
 Alpha  occ. eigenvalues --   -0.48458  -0.46203  -0.46063  -0.45218  -0.44035
 Alpha  occ. eigenvalues --   -0.43748  -0.43439  -0.43255  -0.43039  -0.42624
 Alpha  occ. eigenvalues --   -0.42268  -0.42122  -0.41989  -0.40705  -0.40622
 Alpha  occ. eigenvalues --   -0.40379  -0.40166  -0.39793  -0.39393  -0.36443
 Alpha  occ. eigenvalues --   -0.34554  -0.34388  -0.33891  -0.31837  -0.30522
 Alpha  occ. eigenvalues --   -0.27412  -0.26665  -0.26420  -0.25097
 Alpha virt. eigenvalues --   -0.08090  -0.03925  -0.00481  -0.00305   0.02713
 Alpha virt. eigenvalues --    0.03553   0.04514   0.05369   0.05676   0.05816
 Alpha virt. eigenvalues --    0.07107   0.07457   0.07687   0.10920   0.11005
 Alpha virt. eigenvalues --    0.13381   0.13604   0.14128   0.14714   0.14890
 Alpha virt. eigenvalues --    0.15882   0.17236   0.18072   0.18284   0.19351
 Alpha virt. eigenvalues --    0.19531   0.19691   0.19989   0.20273   0.21071
 Alpha virt. eigenvalues --    0.21468   0.21824   0.22786   0.22898   0.23274
 Alpha virt. eigenvalues --    0.23596   0.24453   0.24482   0.24750   0.24923
 Alpha virt. eigenvalues --    0.25259   0.26451   0.27598   0.27717   0.28522
 Alpha virt. eigenvalues --    0.28998   0.29606   0.29645   0.31118   0.32091
 Alpha virt. eigenvalues --    0.32628   0.33309   0.33875   0.34195   0.35964
 Alpha virt. eigenvalues --    0.36522   0.36994   0.37324   0.38375   0.39093
 Alpha virt. eigenvalues --    0.40026   0.40101   0.40810   0.41207   0.42473
 Alpha virt. eigenvalues --    0.42824   0.44063   0.45904   0.46319   0.47183
 Alpha virt. eigenvalues --    0.48636   0.48728   0.49273   0.51595   0.51709
 Alpha virt. eigenvalues --    0.52168   0.53095   0.53444   0.54147   0.54948
 Alpha virt. eigenvalues --    0.55029   0.56106   0.56251   0.56691   0.57127
 Alpha virt. eigenvalues --    0.57936   0.58498   0.58572   0.58812   0.59321
 Alpha virt. eigenvalues --    0.59530   0.60042   0.60318   0.60761   0.60860
 Alpha virt. eigenvalues --    0.61512   0.62072   0.62223   0.62492   0.62642
 Alpha virt. eigenvalues --    0.63502   0.64142   0.64207   0.64582   0.64773
 Alpha virt. eigenvalues --    0.64805   0.65200   0.65250   0.65385   0.66038
 Alpha virt. eigenvalues --    0.66334   0.66967   0.67152   0.67351   0.67726
 Alpha virt. eigenvalues --    0.68172   0.68344   0.68718   0.68953   0.69484
 Alpha virt. eigenvalues --    0.69537   0.69716   0.70104   0.70176   0.72188
 Alpha virt. eigenvalues --    0.72232   0.73432   0.74241   0.74769   0.75605
 Alpha virt. eigenvalues --    0.76172   0.76656   0.78026   0.78652   0.78993
 Alpha virt. eigenvalues --    0.82031   0.82508   0.82945   0.83478   0.83603
 Alpha virt. eigenvalues --    0.84816   0.85376   0.85826   0.86340   0.86718
 Alpha virt. eigenvalues --    0.86828   0.87714   0.87853   0.88336   0.89090
 Alpha virt. eigenvalues --    0.89358   0.89557   0.89848   0.90199   0.90298
 Alpha virt. eigenvalues --    0.90813   0.91033   0.91230   0.91767   0.91956
 Alpha virt. eigenvalues --    0.92342   0.92413   0.92629   0.93648   0.93938
 Alpha virt. eigenvalues --    0.94471   0.94753   0.95515   0.96029   0.96489
 Alpha virt. eigenvalues --    0.97352   0.97587   0.98807   0.99846   1.00306
 Alpha virt. eigenvalues --    1.01093   1.01327   1.01486   1.02496   1.03226
 Alpha virt. eigenvalues --    1.03521   1.03912   1.04924   1.05093   1.05554
 Alpha virt. eigenvalues --    1.06643   1.07328   1.08120   1.09506   1.10052
 Alpha virt. eigenvalues --    1.10314   1.13211   1.14189   1.14461   1.14956
 Alpha virt. eigenvalues --    1.16703   1.17700   1.18702   1.19290   1.19773
 Alpha virt. eigenvalues --    1.20294   1.20879   1.21727   1.21844   1.22710
 Alpha virt. eigenvalues --    1.24037   1.24524   1.25398   1.25909   1.26307
 Alpha virt. eigenvalues --    1.28933   1.29872   1.30727   1.30951   1.31792
 Alpha virt. eigenvalues --    1.32745   1.32819   1.34041   1.34587   1.35227
 Alpha virt. eigenvalues --    1.36371   1.37425   1.37728   1.38721   1.39609
 Alpha virt. eigenvalues --    1.40179   1.40746   1.41654   1.42566   1.43004
 Alpha virt. eigenvalues --    1.43482   1.44592   1.46494   1.47366   1.47742
 Alpha virt. eigenvalues --    1.49255   1.50177   1.50795   1.50989   1.52470
 Alpha virt. eigenvalues --    1.52582   1.52685   1.53033   1.53597   1.54101
 Alpha virt. eigenvalues --    1.54286   1.54387   1.54635   1.54728   1.55544
 Alpha virt. eigenvalues --    1.55650   1.56050   1.57136   1.58639   1.59422
 Alpha virt. eigenvalues --    1.60245   1.61645   1.63266   1.64121   1.67552
 Alpha virt. eigenvalues --    1.67795   1.69115   1.71555   1.73069   1.74104
 Alpha virt. eigenvalues --    1.74361   1.76161   1.76859   1.78123   1.78835
 Alpha virt. eigenvalues --    1.80390   1.80677   1.81400   1.81606   1.82242
 Alpha virt. eigenvalues --    1.82999   1.83725   1.84798   1.85101   1.86564
 Alpha virt. eigenvalues --    1.87049   1.87494   1.88469   1.89193   1.89869
 Alpha virt. eigenvalues --    1.91193   1.92116   1.93228   1.93784   1.94729
 Alpha virt. eigenvalues --    1.95039   1.95852   1.96873   1.97092   1.98163
 Alpha virt. eigenvalues --    1.98409   1.98589   1.99833   2.00610   2.01401
 Alpha virt. eigenvalues --    2.01914   2.02192   2.02364   2.03141   2.03361
 Alpha virt. eigenvalues --    2.03668   2.04004   2.04496   2.05945   2.06040
 Alpha virt. eigenvalues --    2.07097   2.07507   2.08847   2.09736   2.11098
 Alpha virt. eigenvalues --    2.11666   2.12591   2.12965   2.14456   2.14624
 Alpha virt. eigenvalues --    2.14944   2.15523   2.16767   2.17189   2.17474
 Alpha virt. eigenvalues --    2.18743   2.19552   2.21305   2.21800   2.22221
 Alpha virt. eigenvalues --    2.23498   2.23583   2.24457   2.24764   2.26821
 Alpha virt. eigenvalues --    2.27642   2.27882   2.28525   2.28759   2.29218
 Alpha virt. eigenvalues --    2.29489   2.30660   2.30788   2.31481   2.32672
 Alpha virt. eigenvalues --    2.33211   2.33596   2.34695   2.36051   2.36772
 Alpha virt. eigenvalues --    2.40625   2.40821   2.42613   2.43115   2.43440
 Alpha virt. eigenvalues --    2.46031   2.48095   2.49857   2.50942   2.51222
 Alpha virt. eigenvalues --    2.53706   2.54714   2.56061   2.56675   2.57283
 Alpha virt. eigenvalues --    2.59635   2.60501   2.60812   2.63198   2.65061
 Alpha virt. eigenvalues --    2.65726   2.66145   2.66217   2.67960   2.68485
 Alpha virt. eigenvalues --    2.69082   2.69875   2.70337   2.70749   2.71465
 Alpha virt. eigenvalues --    2.72002   2.72091   2.72749   2.72926   2.74876
 Alpha virt. eigenvalues --    2.75277   2.75592   2.75744   2.77780   2.78900
 Alpha virt. eigenvalues --    2.81696   2.82488   2.83433   2.85510   2.85615
 Alpha virt. eigenvalues --    2.85896   2.86508   2.86835   2.88668   2.91581
 Alpha virt. eigenvalues --    2.93768   2.94148   2.96082   2.97786   3.00198
 Alpha virt. eigenvalues --    3.00554   3.03206   3.08619   3.08837   3.21046
 Alpha virt. eigenvalues --    3.23033   3.23580   3.25673   3.30426   3.32420
 Alpha virt. eigenvalues --    3.32543   3.38601   3.38844   3.49573   3.52278
 Alpha virt. eigenvalues --    3.52902   3.99643   4.07383   4.09963   4.10410
 Alpha virt. eigenvalues --    4.11061   4.12737   4.12969   4.13915   4.15024
 Alpha virt. eigenvalues --    4.16813   4.17509   4.18909   4.20510   4.23014
 Alpha virt. eigenvalues --    4.23644   4.26804   4.28101   4.31008   4.34302
 Alpha virt. eigenvalues --    4.34947   4.37340   4.41929   4.43235   4.44851
 Alpha virt. eigenvalues --    4.47923   4.48586   4.51264   4.52768   4.53050
 Alpha virt. eigenvalues --    4.65960   4.68127   4.77054   4.78818   4.86833
 Alpha virt. eigenvalues --    4.90091   4.93006
          Condensed to atoms (all electrons):
 Mulliken charges:
               1
     1  C    0.220818
     2  C    0.235500
     3  C   -0.197190
     4  C    0.131229
     5  C    0.127253
     6  C   -0.181273
     7  H    0.234892
     8  H    0.237054
     9  C    0.234138
    10  N   -0.440804
    11  C    0.230752
    12  N   -0.440507
    13  C    0.286112
    14  C    0.277070
    15  C   -0.185584
    16  C    0.043297
    17  C   -0.165807
    18  C    0.047559
    19  C   -0.173799
    20  H    0.159974
    21  C   -0.190624
    22  C   -0.167011
    23  H    0.159610
    24  C   -0.195104
    25  C   -0.186301
    26  H    0.166612
    27  H    0.170256
    28  C   -0.181756
    29  H    0.165780
    30  H    0.166744
    31  H    0.160315
    32  H    0.159776
    33  C    0.281497
    34  C    0.283725
    35  C   -0.167318
    36  C    0.039165
    37  C   -0.185988
    38  C    0.038840
    39  C   -0.167380
    40  H    0.159859
    41  C   -0.186255
    42  C   -0.174803
    43  H    0.160730
    44  C   -0.182341
    45  C   -0.180681
    46  H    0.165923
    47  H    0.166943
    48  C   -0.186392
    49  H    0.166687
    50  H    0.170228
    51  H    0.161282
    52  H    0.161722
    53  N   -0.716646
    54  N   -0.717779
 Sum of Mulliken charges =  -0.00000
 Mulliken charges with hydrogens summed into heavy atoms:
               1
     1  C    0.220818
     2  C    0.235500
     3  C    0.037702
     4  C    0.131229
     5  C    0.127253
     6  C    0.055781
     9  C    0.234138
    10  N   -0.440804
    11  C    0.230752
    12  N   -0.440507
    13  C    0.286112
    14  C    0.277070
    15  C   -0.025611
    16  C    0.043297
    17  C   -0.006197
    18  C    0.047559
    19  C   -0.007187
    21  C   -0.020368
    22  C   -0.001231
    24  C   -0.028360
    25  C   -0.025986
    28  C   -0.021979
    33  C    0.281497
    34  C    0.283725
    35  C   -0.007459
    36  C    0.039165
    37  C   -0.025259
    38  C    0.038840
    39  C   -0.001457
    41  C   -0.019312
    42  C   -0.008116
    44  C   -0.012112
    45  C   -0.019400
    48  C   -0.024669
    53  N   -0.716646
    54  N   -0.717779
 Electronic spatial extent (au):  <R**2>=          12746.9920
 Charge=             -0.0000 electrons
 Dipole moment (field-independent basis, Debye):
    X=             -5.5261    Y=             -0.0042    Z=              0.2179  Tot=              5.5304
 Quadrupole moment (field-independent basis, Debye-Ang):
   XX=           -236.7910   YY=           -193.3241   ZZ=           -206.1691
   XY=              0.0603   XZ=              1.7724   YZ=             13.2607
 Traceless Quadrupole moment (field-independent basis, Debye-Ang):
   XX=            -24.6962   YY=             18.7706   ZZ=              5.9256
   XY=              0.0603   XZ=              1.7724   YZ=             13.2607
 Octapole moment (field-independent basis, Debye-Ang**2):
  XXX=           -449.4723  YYY=              1.2741  ZZZ=              4.5282  XYY=            -44.2629
  XXY=              2.5100  XXZ=              7.7241  XZZ=            -36.1686  YZZ=             -0.0017
  YYZ=             -0.8890  XYZ=             18.2569
 Hexadecapole moment (field-independent basis, Debye-Ang**3):
 XXXX=         -11210.8963 YYYY=          -5728.0293 ZZZZ=          -3078.5027 XXXY=             39.1672
 XXXZ=             85.4790 YYYX=              4.8255 YYYZ=            151.9648 ZZZX=             61.6691
 ZZZY=            -11.3126 XXYY=          -2468.5421 XXZZ=          -2100.7771 YYZZ=          -1469.2845
 XXYZ=            149.4571 YYXZ=             25.1199 ZZXY=             -6.8355
 N-N= 3.659049201825D+03 E-N=-1.067340343447D+04  KE= 1.436082969785D+03
 Calling FoFJK, ICntrl=  10005127 FMM=F ISym2X=0 I1Cent= 0 IOpClX= 0 NMat=1 NMatS=1 NMatT=0.
 -------------------------------------------------------------------
 Center     Atomic                   Forces (Hartrees/Bohr)
 Number     Number              X              Y              Z
 -------------------------------------------------------------------
      1        6           0.000354943    0.000057997   -0.000026716
      2        6          -0.000126738   -0.000346313    0.000072167
      3        6          -0.000076895    0.000488382   -0.000638467
      4        6          -0.001624994    0.000837144   -0.000823922
      5        6          -0.000587641   -0.001174851    0.001522072
      6        6          -0.001047281   -0.000626094    0.000434589
      7        1          -0.000241565   -0.000331227    0.000366927
      8        1           0.000033991    0.000049695   -0.000691619
      9        6           0.007968452    0.003575626   -0.004423685
     10        7          -0.006732869   -0.002930153    0.004511544
     11        6           0.005535893   -0.002306515    0.002386212
     12        7          -0.004460985    0.001588542   -0.002078685
     13        6           0.000416474    0.000856724   -0.000004433
     14        6          -0.000292400   -0.000315847   -0.000829046
     15        6          -0.000270677   -0.000313448   -0.000654480
     16        6           0.000035445   -0.000309617   -0.001167545
     17        6           0.000217670    0.000652401    0.000366436
     18        6          -0.000114593    0.000436960    0.000102369
     19        6           0.000164277    0.000501472    0.000008093
     20        1          -0.000237514   -0.000401479    0.000840670
     21        6          -0.000265570    0.000370275   -0.000147175
     22        6          -0.000228435   -0.000155000   -0.000359267
     23        1           0.000360893    0.000206745   -0.000432794
     24        6          -0.000163517    0.000089379    0.000414546
     25        6          -0.000126782    0.000091646   -0.000234570
     26        1          -0.000331411    0.000040381   -0.000143934
     27        1          -0.000183947   -0.000473690    0.000323902
     28        6          -0.000114610   -0.000214209   -0.000004142
     29        1          -0.000120568    0.000215569   -0.000071227
     30        1          -0.000307312   -0.000648525    0.000878411
     31        1          -0.000359954   -0.000066025    0.000289276
     32        1           0.000078195   -0.000007443    0.000276597
     33        6          -0.000194839   -0.000159597    0.000354892
     34        6           0.000216323   -0.001095498   -0.000075575
     35        6           0.000236396   -0.000175793   -0.000049858
     36        6          -0.000021785   -0.000199494   -0.000084281
     37        6           0.000006289    0.000841367    0.000688795
     38        6           0.000588230    0.000733800    0.000958286
     39        6           0.000304515    0.000101983   -0.000028138
     40        1           0.000399152   -0.000163992    0.000320555
     41        6           0.000269096    0.000482649   -0.000201674
     42        6           0.000212130   -0.000815974   -0.000474482
     43        1          -0.000426872    0.000378722   -0.000522189
     44        6          -0.000283446   -0.000935109   -0.000289771
     45        6           0.000010354    0.000098823   -0.000354966
     46        1           0.000286105    0.000118373    0.000098991
     47        1          -0.000034631    0.000349374   -0.000499021
     48        6          -0.000124323    0.000234136    0.000430281
     49        1          -0.000325770    0.000461268   -0.000132297
     50        1           0.000112478    0.000127494   -0.000262973
     51        1           0.000149367    0.000274444   -0.000223364
     52        1           0.000013106   -0.000088174    0.000192930
     53        7           0.000628319   -0.000059565   -0.000087865
     54        7           0.000829831    0.000052259    0.000179621
 -------------------------------------------------------------------
 Cartesian Forces:  Max     0.007968452 RMS     0.001290109

 GradGradGradGradGradGradGradGradGradGradGradGradGradGradGradGradGradGrad
 Berny optimization.
 Search for a local minimum.
 Step number   1 out of a maximum of    2
 All quantities printed in internal units (Hartrees-Bohrs-Radians)
 Second derivative matrix not updated -- first step.
 ITU=  0
     Eigenvalues ---    0.00008   0.00009   0.00023   0.00075   0.00078
     Eigenvalues ---    0.00114   0.00182   0.00264   0.00292   0.00300
     Eigenvalues ---    0.00321   0.00448   0.00715   0.00848   0.00931
     Eigenvalues ---    0.01015   0.01228   0.01234   0.01242   0.01251
     Eigenvalues ---    0.01676   0.02382   0.02428   0.02535   0.02589
     Eigenvalues ---    0.02610   0.02621   0.02732   0.02947   0.03423
     Eigenvalues ---    0.03441   0.03627   0.04609   0.04644   0.04703
     Eigenvalues ---    0.04978   0.06583   0.06740   0.06998   0.07009
     Eigenvalues ---    0.07022   0.07026   0.07052   0.07060   0.07099
     Eigenvalues ---    0.07109   0.07451   0.07904   0.07920   0.07940
     Eigenvalues ---    0.08615   0.08980   0.09462   0.10177   0.10552
     Eigenvalues ---    0.10669   0.10774   0.10789   0.11074   0.12451
     Eigenvalues ---    0.12495   0.12508   0.12633   0.12870   0.13602
     Eigenvalues ---    0.13722   0.13882   0.15038   0.15071   0.15277
     Eigenvalues ---    0.17599   0.18377   0.19496   0.19659   0.21212
     Eigenvalues ---    0.21855   0.23621   0.23920   0.26496   0.27638
     Eigenvalues ---    0.28046   0.28213   0.29699   0.30096   0.30798
     Eigenvalues ---    0.30954   0.31627   0.32972   0.35660   0.35788
     Eigenvalues ---    0.35799   0.36533   0.38145   0.40860   0.42845
     Eigenvalues ---    0.43065   0.43125   0.43355   0.45909   0.47670
     Eigenvalues ---    0.48255   0.49807   0.50442   0.50567   0.50726
     Eigenvalues ---    0.52584   0.53285   0.59298   0.60268   0.62257
     Eigenvalues ---    0.64170   0.71382   0.71397   0.74389   0.77935
     Eigenvalues ---    0.81898   0.82457   0.89765   0.90502   0.94768
     Eigenvalues ---    1.02918   1.06565   1.11037   1.12823   1.14189
     Eigenvalues ---    1.15110   1.15204   1.15414   1.19210   1.20050
     Eigenvalues ---    1.26389   1.29926   1.30601   1.39819   1.39940
     Eigenvalues ---    1.41009   1.43263   1.48669   1.49092   1.49779
     Eigenvalues ---    1.49955   1.50054   1.54457   1.58650   1.64491
     Eigenvalues ---    1.65041   1.66791   1.69531   1.71062   1.74259
     Eigenvalues ---    1.76119   1.76530   2.76376   2.78009  29.64765
     Eigenvalues ---  177.44634
 Eigenvalue     1 is   7.97D-05 Eigenvector:
                          Z51       Z46       Z32       Z45       X49
   1                    0.21389   0.19100  -0.17480   0.17289  -0.16776
                          X46       X52       Z39       X29       X26
   1                    0.16623  -0.16032   0.15973   0.15942  -0.15678
 Eigenvalue     2 is   9.21D-05 Eigenvector:
                          Z29       Z26       Z31       Z52       Z49
   1                    0.22326  -0.22137  -0.21649  -0.21346  -0.20413
                          Z46       Z32       Z19       Z25       Z22
   1                    0.17493   0.17303  -0.17024  -0.16747   0.16747
 Quadratic step=4.074D+00 exceeds max=3.000D-01 adjusted using Lamda=-4.034D-03.
 Angle between NR and scaled steps=  51.56 degrees.
 Angle between quadratic step and forces=  80.84 degrees.
 Linear search not attempted -- first point.
 B after Tr=     0.000957   -0.000264    0.000692
         Rot=    1.000000    0.000069    0.000216    0.000054 Ang=   0.03 deg.
 Variable       Old X    -DE/DX   Delta X   Delta X   Delta X     New X
                                 (Linear)    (Quad)   (Total)
    X1        2.65963   0.00035   0.00000   0.00117   0.00263   2.66226
    Y1        0.94034   0.00006   0.00000  -0.00299  -0.00366   0.93668
    Z1       -0.90743  -0.00003   0.00000  -0.00743  -0.00572  -0.91315
    X2        2.69240  -0.00013   0.00000   0.00087   0.00127   2.69367
    Y2       -0.94801  -0.00035   0.00000  -0.00427  -0.00468  -0.95269
    Z2        1.05651   0.00007   0.00000  -0.00571  -0.00373   1.05278
    X3        4.97966  -0.00008   0.00000  -0.00277  -0.00284   4.97681
    Y3       -1.84451   0.00049   0.00000  -0.00718  -0.00772  -1.85223
    Z3        1.92383  -0.00064   0.00000  -0.00439  -0.00129   1.92254
    X4        7.26974  -0.00162   0.00000  -0.00186  -0.00142   7.26832
    Y4       -0.93797   0.00084   0.00000  -0.00814  -0.00906  -0.94703
    Z4        0.94370  -0.00082   0.00000   0.00198   0.00595   0.94965
    X5        7.21496  -0.00059   0.00000   0.00317   0.00470   7.21966
    Y5        0.93274  -0.00117   0.00000  -0.00238  -0.00357   0.92916
    Z5       -1.09226   0.00152   0.00000   0.01097   0.01466  -1.07760
    X6        4.88334  -0.00105   0.00000   0.00403   0.00602   4.88936
    Y6        1.84943  -0.00063   0.00000  -0.00848  -0.00954   1.83989
    Z6       -1.91985   0.00043   0.00000  -0.00340  -0.00084  -1.92070
    X7        5.02018  -0.00024   0.00000  -0.00923  -0.01009   5.01009
    Y7       -3.29432  -0.00033   0.00000  -0.00968  -0.01002  -3.30434
    Z7        3.37574   0.00037   0.00000  -0.00481  -0.00149   3.37425
    X8        4.82532   0.00003   0.00000   0.00906   0.01184   4.83716
    Y8        3.29739   0.00005   0.00000  -0.01448  -0.01573   3.28166
    Z8       -3.37269  -0.00069   0.00000  -0.01172  -0.00939  -3.38207
    X9        9.44577   0.00797   0.00000   0.01279   0.01492   9.46069
    Y9        1.82000   0.00358   0.00000   0.01370   0.01211   1.83210
    Z9       -2.27298  -0.00442   0.00000   0.03477   0.03930  -2.23367
   X10       11.23924  -0.00673   0.00000   0.01668   0.01932  11.25856
   Y10        2.58627  -0.00293   0.00000   0.02145   0.01953   2.60580
   Z10       -3.30172   0.00451   0.00000   0.06220   0.06741  -3.23431
   X11        9.57815   0.00554   0.00000  -0.00154  -0.00163   9.57652
   Y11       -1.84487  -0.00231   0.00000  -0.02039  -0.02142  -1.86629
   Z11        1.94250   0.00239   0.00000  -0.00215   0.00294   1.94544
   X12       11.46319  -0.00446   0.00000  -0.00702  -0.00755  11.45564
   Y12       -2.61083   0.00159   0.00000  -0.02837  -0.02948  -2.64032
   Z12        2.78616  -0.00208   0.00000  -0.00803  -0.00202   2.78414
   X13       -0.62006   0.00042   0.00000  -0.00213  -0.00048  -0.62054
   Y13        4.24865   0.00086   0.00000   0.00404   0.00377   4.25242
   Z13       -0.51455  -0.00000   0.00000  -0.01325  -0.01341  -0.52796
   X14       -1.65854  -0.00029   0.00000   0.00612   0.00844  -1.65010
   Y14        0.88694  -0.00032   0.00000   0.00854   0.00805   0.89500
   Z14       -2.88108  -0.00083   0.00000  -0.02417  -0.02432  -2.90540
   X15        0.70044  -0.00027   0.00000  -0.01506  -0.01389   0.68655
   Y15        5.98399  -0.00031   0.00000   0.00206   0.00185   5.98585
   Z15        0.99066  -0.00065   0.00000  -0.00026  -0.00010   0.99056
   X16       -3.18729   0.00004   0.00000  -0.00488  -0.00290  -3.19019
   Y16        4.59511  -0.00031   0.00000  -0.00375  -0.00384   4.59127
   Z16       -1.21159  -0.00117   0.00000  -0.01086  -0.01219  -1.22378
   X17       -1.57844   0.00022   0.00000   0.01385   0.01651  -1.56193
   Y17       -1.37764   0.00065   0.00000   0.02077   0.02009  -1.35756
   Z17       -4.22385   0.00037   0.00000  -0.04230  -0.04209  -4.26594
   X18       -3.85140  -0.00011   0.00000  -0.00546  -0.00306  -3.85445
   Y18        2.41020   0.00044   0.00000  -0.00988  -0.01010   2.40010
   Z18       -2.75903   0.00010   0.00000   0.00269   0.00138  -2.75764
   X19       -0.61976   0.00016   0.00000  -0.02137  -0.02032  -0.64009
   Y19        8.09513   0.00050   0.00000   0.00225   0.00231   8.09744
   Z19        1.80864   0.00001   0.00000  -0.00651  -0.00721   1.80143
   X20        2.67690  -0.00024   0.00000  -0.02187  -0.02094   2.65597
   Y20        5.68112  -0.00040   0.00000  -0.00457  -0.00491   5.67621
   Z20        1.44125   0.00084   0.00000   0.02606   0.02712   1.46838
   X21       -4.45122  -0.00027   0.00000  -0.01696  -0.01511  -4.46633
   Y21        6.73306   0.00037   0.00000  -0.01362  -0.01346   6.71960
   Z21       -0.38783  -0.00015   0.00000  -0.00234  -0.00451  -0.39234
   X22       -3.79392  -0.00023   0.00000   0.00558   0.00868  -3.78525
   Y22       -2.13107  -0.00015   0.00000   0.00593   0.00532  -2.12574
   Z22       -5.44440  -0.00036   0.00000  -0.02054  -0.02119  -5.46559
   X23        0.14599   0.00036   0.00000   0.02560   0.02821   0.17419
   Y23       -2.47549   0.00021   0.00000   0.04124   0.04035  -2.43514
   Z23       -4.33270  -0.00043   0.00000  -0.07303  -0.07193  -4.40463
   X24       -6.00230  -0.00016   0.00000  -0.02149  -0.01862  -6.02093
   Y24        1.66077   0.00009   0.00000  -0.03440  -0.03456   1.62621
   Z24       -4.04605   0.00041   0.00000   0.04485   0.04271  -4.00334
   X25       -3.15260  -0.00013   0.00000  -0.02348  -0.02209  -3.17469
   Y25        8.46933   0.00009   0.00000  -0.00686  -0.00663   8.46270
   Z25        1.12768  -0.00023   0.00000  -0.00503  -0.00687   1.12081
   X26        0.33342  -0.00033   0.00000  -0.02991  -0.02922   0.30421
   Y26        9.48994   0.00004   0.00000   0.00418   0.00430   9.49423
   Z26        2.97020  -0.00014   0.00000  -0.00261  -0.00309   2.96711
   X27       -6.40621  -0.00018   0.00000  -0.02469  -0.02258  -6.42879
   Y27        7.07619  -0.00047   0.00000  -0.03377  -0.03347   7.04273
   Z27       -0.90613   0.00032   0.00000   0.01392   0.01086  -0.89528
   X28       -5.96118  -0.00011   0.00000  -0.01316  -0.00996  -5.97114
   Y28       -0.63525  -0.00021   0.00000  -0.02372  -0.02408  -0.65933
   Z28       -5.37459  -0.00000   0.00000   0.02728   0.02548  -5.34911
   X29       -3.80622  -0.00012   0.00000   0.01014   0.01350  -3.79272
   Y29       -3.90048   0.00022   0.00000   0.01523   0.01448  -3.88600
   Z29       -6.48016  -0.00007   0.00000  -0.03552  -0.03593  -6.51609
   X30       -7.68929  -0.00031   0.00000  -0.04201  -0.03904  -7.72833
   Y30        2.82905  -0.00065   0.00000  -0.06450  -0.06447   2.76458
   Z30       -4.04732   0.00088   0.00000   0.09445   0.09142  -3.95590
   X31       -4.12057  -0.00036   0.00000  -0.03438  -0.03309  -4.15367
   Y31       10.15822  -0.00007   0.00000  -0.01628  -0.01585  10.14237
   Z31        1.77068   0.00029   0.00000   0.00502   0.00252   1.77321
   X32       -7.64143   0.00008   0.00000  -0.02207  -0.01851  -7.65994
   Y32       -1.24230  -0.00001   0.00000  -0.03803  -0.03833  -1.28064
   Z32       -6.38110   0.00028   0.00000   0.05200   0.04955  -6.33155
   X33       -1.65795  -0.00019   0.00000   0.01635   0.01590  -1.64205
   Y33       -0.91205  -0.00016   0.00000  -0.00554  -0.00521  -0.91725
   Z33        3.01739   0.00035   0.00000   0.01137   0.01148   3.02887
   X34       -0.57475   0.00022   0.00000   0.00157   0.00179  -0.57296
   Y34       -4.26877  -0.00110   0.00000  -0.00419  -0.00430  -4.27306
   Z34        0.65231  -0.00008   0.00000   0.00308   0.00411   0.65641
   X35       -1.63451   0.00024   0.00000   0.03400   0.03318  -1.60134
   Y35        1.32088  -0.00018   0.00000  -0.01170  -0.01119   1.30970
   Z35        4.41157  -0.00005   0.00000   0.01978   0.01960   4.43117
   X36       -3.86535  -0.00002   0.00000   0.00740   0.00690  -3.85845
   Y36       -2.39281  -0.00020   0.00000   0.01133   0.01186  -2.38095
   Z36        2.76425  -0.00008   0.00000  -0.00145  -0.00210   2.76215
   X37        0.74451   0.00001   0.00000  -0.00837  -0.00771   0.73680
   Y37       -6.03566   0.00084   0.00000   0.00696   0.00650  -6.02916
   Z37       -0.81854   0.00069   0.00000  -0.01603  -0.01419  -0.83273
   X38       -3.17909   0.00059   0.00000   0.00349   0.00342  -3.17567
   Y38       -4.55410   0.00073   0.00000  -0.00004   0.00021  -4.55390
   Z38        1.21930   0.00096   0.00000   0.01198   0.01193   1.23123
   X39       -3.89479   0.00030   0.00000   0.03377   0.03255  -3.86224
   Y39        2.06615   0.00010   0.00000   0.01230   0.01322   2.07937
   Z39        5.54583  -0.00003   0.00000   0.00200   0.00074   5.54657
   X40        0.09186   0.00040   0.00000   0.04642   0.04561   0.13746
   Y40        2.40168  -0.00016   0.00000  -0.03439  -0.03403   2.36766
   Z40        4.63645   0.00032   0.00000   0.03809   0.03852   4.67497
   X41       -6.08304   0.00027   0.00000   0.00366   0.00274  -6.08030
   Y41       -1.64172   0.00048   0.00000   0.04141   0.04234  -1.59938
   Z41        3.95950  -0.00020   0.00000  -0.02871  -0.03044   3.92907
   X42       -0.60978   0.00021   0.00000  -0.01016  -0.00932  -0.61910
   Y42       -8.08212  -0.00082   0.00000   0.00472   0.00428  -8.07783
   Z42       -1.73211  -0.00047   0.00000  -0.01038  -0.00885  -1.74096
   X43        2.75012  -0.00043   0.00000  -0.01587  -0.01500   2.73512
   Y43       -5.80547   0.00038   0.00000   0.02168   0.02095  -5.78452
   Z43       -1.18322  -0.00052   0.00000  -0.04381  -0.04114  -1.22436
   X44       -4.48948  -0.00028   0.00000  -0.00009   0.00002  -4.48946
   Y44       -6.62698  -0.00094   0.00000  -0.00166  -0.00140  -6.62838
   Z44        0.27797  -0.00029   0.00000   0.01542   0.01508   0.29305
   X45       -6.08501   0.00001   0.00000   0.01685   0.01558  -6.06943
   Y45        0.60417   0.00010   0.00000   0.04125   0.04237   0.64654
   Z45        5.34181  -0.00035   0.00000  -0.02803  -0.03005   5.31175
   X46       -3.93835   0.00029   0.00000   0.04622   0.04472  -3.89363
   Y46        3.80546   0.00012   0.00000   0.00914   0.01021   3.81567
   Z46        6.63136   0.00010   0.00000   0.00810   0.00658   6.63794
   X47       -7.78044  -0.00003   0.00000  -0.01047  -0.01145  -7.79188
   Y47       -2.78940   0.00035   0.00000   0.06515   0.06625  -2.72316
   Z47        3.83427  -0.00050   0.00000  -0.05315  -0.05546   3.77882
   X48       -3.19635  -0.00012   0.00000  -0.00468  -0.00411  -3.20046
   Y48       -8.37523   0.00023   0.00000  -0.00263  -0.00271  -8.37793
   Z48       -1.20599   0.00043   0.00000   0.01323   0.01369  -1.19230
   X49        0.35513  -0.00033   0.00000  -0.01872  -0.01754   0.33759
   Y49       -9.50234   0.00046   0.00000   0.01506   0.01436  -9.48798
   Z49       -2.85527  -0.00013   0.00000  -0.02883  -0.02669  -2.88196
   X50       -6.48441   0.00011   0.00000  -0.00023  -0.00032  -6.48473
   Y50       -6.88112   0.00013   0.00000   0.00189   0.00242  -6.87870
   Z50        0.68873  -0.00026   0.00000   0.01425   0.01308   0.70181
   X51       -7.80125   0.00015   0.00000   0.01392   0.01231  -7.78894
   Y51        1.20905   0.00027   0.00000   0.06297   0.06440   1.27345
   Z51        6.28718  -0.00022   0.00000  -0.04778  -0.05063   6.23655
   X52       -4.19421   0.00001   0.00000  -0.00636  -0.00564  -4.19985
   Y52      -10.00210  -0.00009   0.00000  -0.00535  -0.00543 -10.00753
   Z52       -1.95650   0.00019   0.00000   0.02139   0.02164  -1.93486
   X53        0.26205   0.00063   0.00000   0.00415   0.00599   0.26804
   Y53        2.02845  -0.00006   0.00000   0.00479   0.00429   2.03274
   Z53       -1.51717  -0.00009   0.00000  -0.01538  -0.01485  -1.53202
   X54        0.31962   0.00083   0.00000   0.00774   0.00772   0.32734
   Y54       -2.06954   0.00005   0.00000  -0.00690  -0.00696  -2.07651
   Z54        1.72098   0.00018   0.00000   0.00285   0.00397   1.72495
         Item               Value     Threshold  Converged?
 Maximum Force            0.007968     0.000450     NO 
 RMS     Force            0.001290     0.000300     NO 
 Maximum Displacement     0.091417     0.001800     NO 
 RMS     Displacement     0.023510     0.001200     NO 
 Predicted change in Energy=-5.729292D-04
 GradGradGradGradGradGradGradGradGradGradGradGradGradGradGradGradGradGrad

 Unable to Open any file for archive entry.
 1\1\GINC-X10P1N1\Force\RM062X TD-FC\6-31G(d)\C32H18N4\MAYUMIAO\13-Jul-
 2024\0\\# 6-31g(d) m062x g09default scf=(xqc,maxcycle=64) force guess=
 read td nosymm\\Title Card\\0,1\C,1.40741609,0.4976066,-0.48019387\C,1
 .42475858,-0.50166275,0.55907935\C,2.63512087,-0.97607363,1.01804564\C
 ,3.84697885,-0.49635448,0.49938371\C,3.81799475,0.49358384,-0.57799934
 \C,2.58415072,0.97867437,-1.01594301\H,2.65656725,-1.74328054,1.786365
 68\H,2.55345075,1.744904,-1.78474858\C,4.99848826,0.96310036,-1.202807
 15\N,5.94754813,1.36859562,-1.74719552\C,5.06853778,-0.97626219,1.0279
 2488\N,6.06606064,-1.38159381,1.47437224\C,-0.32812233,2.24828965,-0.2
 7228717\C,-0.87765943,0.46934944,-1.52460349\C,0.37065472,3.16659219,0
 .52423215\C,-1.68664309,2.43162528,-0.64114718\C,-0.83527594,-0.729018
 17,-2.23516553\C,-2.03807073,1.27542399,-1.46001342\C,-0.32796434,4.28
 375991,0.95709353\H,1.41655705,3.00631921,0.76267773\C,-2.35548502,3.5
 6298283,-0.20523237\C,-2.00765743,-1.12771183,-2.88105376\H,0.07725201
 ,-1.30997064,-2.29276723\C,-3.176282,0.87884301,-2.14107558\C,-1.66828
 236,4.48177441,0.5967447\H,0.17643929,5.02185751,1.57176329\H,-3.39002
 155,3.74455961,-0.47950491\C,-3.1545207,-0.33615793,-2.84410885\H,-2.0
 1416342,-2.06404499,-3.42915178\H,-4.06899659,1.49706866,-2.14174844\H
 ,-2.18051331,5.37549766,0.93700594\H,-4.04367318,-0.6573976,-3.3767348
 1\C,-0.87735151,-0.48263449,1.59673445\C,-0.30414401,-2.25893341,0.345
 1854\C,-0.86494595,0.69898013,2.33450389\C,-2.04545312,-1.26621829,1.4
 6278025\C,0.39397569,-3.19393246,-0.43315013\C,-1.68230385,-2.40992793
 ,0.64522768\C,-2.06103482,1.09336091,2.93472809\H,0.04860951,1.270915,
 2.45350421\C,-3.21900653,-0.86876144,2.09527973\C,-0.32268372,-4.27687
 137,-0.91659427\H,1.45529991,-3.07212311,-0.62613184\C,-2.37572988,-3.
 50684726,0.14709462\C,-3.22004679,0.31971539,2.82676287\H,-2.08408406,
 2.01376295,3.50916199\H,-4.11722981,-1.47608901,2.02901076\C,-1.691434
 78,-4.43197891,-0.63818198\H,0.18792812,-5.02842171,-1.51094541\H,-3.4
 3140176,-3.64133086,0.36446273\H,-4.12824595,0.63980124,3.32703408\H,-
 2.21947797,-5.29288435,-1.03533708\N,0.13867264,1.0734083,-0.80284914\
 N,0.16913329,-1.09515593,0.91070424\\Version=ES64L-G16RevC.01\HF=-1448
 .6880746\RMSD=6.441e-09\RMSF=1.290e-03\Dipole=-7.3225895,0.5681525,-0.
 2429869\PG=C01 [X(C32H18N4)]\\@
 The archive entry for this job was punched.


 NOTHING PUZZLES ME MORE THAN TIME AND SPACE; AND YET NOTHING TROUBLES ME LESS
                                                          -- CHARLES LAMB (1810)
 Job cpu time:       0 days  4 hours 22 minutes 13.8 seconds.
 Elapsed time:       0 days  0 hours  9 minutes 27.0 seconds.
 File lengths (MBytes):  RWF=   1633 Int=      0 D2E=      0 Chk=     65 Scr=      1
 Normal termination of Gaussian 16 at Sat Jul 13 22:10:04 2024.
