 Entering Gaussian System, Link 0=g16
 Input=JOBS/7_A.gjf
 Output=JOBS/7_A.log
 Initial command:
 /data/app/gaussian/C01-avx2//g16/l1.exe "/tmp/Gau-1305218.inp" -scrdir="/tmp/"
 Entering Link 1 = /data/app/gaussian/C01-avx2//g16/l1.exe PID=   1305219.
  
 Copyright (c) 1988-2019, Gaussian, Inc.  All Rights Reserved.
  
 This is part of the Gaussian(R) 16 program.  It is based on
 the Gaussian(R) 09 system (copyright 2009, Gaussian, Inc.),
 the Gaussian(R) 03 system (copyright 2003, Gaussian, Inc.),
 the Gaussian(R) 98 system (copyright 1998, Gaussian, Inc.),
 the Gaussian(R) 94 system (copyright 1995, Gaussian, Inc.),
 the Gaussian 92(TM) system (copyright 1992, Gaussian, Inc.),
 the Gaussian 90(TM) system (copyright 1990, Gaussian, Inc.),
 the Gaussian 88(TM) system (copyright 1988, Gaussian, Inc.),
 the Gaussian 86(TM) system (copyright 1986, Carnegie Mellon
 University), and the Gaussian 82(TM) system (copyright 1983,
 Carnegie Mellon University). Gaussian is a federally registered
 trademark of Gaussian, Inc.
  
 This software contains proprietary and confidential information,
 including trade secrets, belonging to Gaussian, Inc.
  
 This software is provided under written license and may be
 used, copied, transmitted, or stored only in accord with that
 written license.
  
 The following legend is applicable only to US Government
 contracts under FAR:
  
                    RESTRICTED RIGHTS LEGEND
  
 Use, reproduction and disclosure by the US Government is
 subject to restrictions as set forth in subparagraphs (a)
 and (c) of the Commercial Computer Software - Restricted
 Rights clause in FAR 52.227-19.
  
 Gaussian, Inc.
 340 Quinnipiac St., Bldg. 40, Wallingford CT 06492
  
  
 ---------------------------------------------------------------
 Warning -- This program may not be used in any manner that
 competes with the business of Gaussian, Inc. or will provide
 assistance to any competitor of Gaussian, Inc.  The licensee
 of this program is prohibited from giving any competitor of
 Gaussian, Inc. access to this program.  By using this program,
 the user acknowledges that Gaussian, Inc. is engaged in the
 business of creating and licensing software in the field of
 computational chemistry and represents and warrants to the
 licensee that it is not a competitor of Gaussian, Inc. and that
 it will not use this program in any manner prohibited above.
 ---------------------------------------------------------------
  

 Cite this work as:
 Gaussian 16, Revision C.01,
 M. J. Frisch, G. W. Trucks, H. B. Schlegel, G. E. Scuseria, 
 M. A. Robb, J. R. Cheeseman, G. Scalmani, V. Barone, 
 G. A. Petersson, H. Nakatsuji, X. Li, M. Caricato, A. V. Marenich, 
 J. Bloino, B. G. Janesko, R. Gomperts, B. Mennucci, H. P. Hratchian, 
 J. V. Ortiz, A. F. Izmaylov, J. L. Sonnenberg, D. Williams-Young, 
 F. Ding, F. Lipparini, F. Egidi, J. Goings, B. Peng, A. Petrone, 
 T. Henderson, D. Ranasinghe, V. G. Zakrzewski, J. Gao, N. Rega, 
 G. Zheng, W. Liang, M. Hada, M. Ehara, K. Toyota, R. Fukuda, 
 J. Hasegawa, M. Ishida, T. Nakajima, Y. Honda, O. Kitao, H. Nakai, 
 T. Vreven, K. Throssell, J. A. Montgomery, Jr., J. E. Peralta, 
 F. Ogliaro, M. J. Bearpark, J. J. Heyd, E. N. Brothers, K. N. Kudin, 
 V. N. Staroverov, T. A. Keith, R. Kobayashi, J. Normand, 
 K. Raghavachari, A. P. Rendell, J. C. Burant, S. S. Iyengar, 
 J. Tomasi, M. Cossi, J. M. Millam, M. Klene, C. Adamo, R. Cammi, 
 J. W. Ochterski, R. L. Martin, K. Morokuma, O. Farkas, 
 J. B. Foresman, and D. J. Fox, Gaussian, Inc., Wallingford CT, 2019.
 
 ******************************************
 Gaussian 16:  ES64L-G16RevC.01  3-Jul-2019
                13-Jul-2024 
 ******************************************
 %chk=a.chk
 %nprocshared=28
 Will use up to   28 processors via shared memory.
 %mem=48gb
 ----------------------------------------------------------------------
 # 6-31g(d) m062x g09default scf=(xqc,maxcycle=64) force guess=read td 
 nosymm
 ----------------------------------------------------------------------
 1/10=7,30=1,38=1,158=3,167=1/1,3;
 2/12=2,15=1,17=6,18=5,40=1/2;
 3/5=1,6=6,7=1,11=9,25=1,27=10,30=1,71=1,74=-55,75=-4,116=-2,158=3/1,2,3,8;
 4/5=1,60=-1/1;
 5/5=2,7=64,8=3,13=1,38=6,87=10/2,8;
 8/6=1,10=2,87=10/1;
 9/15=2,42=1,70=2,87=10/14;
 10/5=4,31=1,87=10/2;
 6/7=2,8=2,9=2,10=2,18=1,87=10/1;
 7/12=6,13=5,29=1,30=1,87=10/1,2,3,16;
 1/10=7,30=1,158=3,167=1/3;
 99//99;
 Using 2006 physical constants.
 ----------
 Title Card
 ----------
 Symbolic Z-matrix:
 Charge =  0 Multiplicity = 1
 6                     1.40789   0.4965   -0.47982 
 6                     1.42515  -0.50162   0.5588 
 6                     2.63517  -0.97518   1.01746 
 6                     3.84584  -0.49519   0.49806 
 6                     3.81781   0.49228  -0.57607 
 6                     2.58373   0.9778   -1.01571 
 1                     2.65573  -1.74397   1.78727 
 1                     2.55386   1.74416  -1.7865 
 6                     4.99779   0.96346  -1.20201 
 7                     5.94833   1.36879  -1.7457 
 6                     5.06832  -0.97638   1.0277 
 7                     6.06627  -1.38245   1.47416 
 6                    -0.32698   2.24917  -0.27403 
 6                    -0.87776   0.46956  -1.52594 
 6                     0.37055   3.16682   0.52315 
 6                    -1.68662   2.43238  -0.64381 
 6                    -0.83454  -0.72814  -2.2352 
 6                    -2.03845   1.27617  -1.46041 
 6                    -0.32783   4.2848    0.95671 
 1                     1.41542   3.00469   0.76542 
 6                    -2.35602   3.56313  -0.20606 
 6                    -2.00801  -1.12765  -2.88204 
 1                     0.07822  -1.30898  -2.29394 
 6                    -3.17661   0.87934  -2.13957 
 6                    -1.66849   4.4822    0.59644 
 1                     0.17558   5.02224   1.57131 
 1                    -3.39051   3.74307  -0.47858 
 6                    -3.15454  -0.33692  -2.8442 
 1                    -2.01478  -2.06377  -3.42933 
 1                    -4.07044   1.49511  -2.13891 
 1                    -2.18144   5.37507   0.9378 
 1                    -4.04347  -0.65734  -3.37605 
 6                    -0.87691  -0.4835    1.59785 
 6                    -0.30309  -2.26026   0.34633 
 6                    -0.86412   0.69874   2.33492 
 6                    -2.04528  -1.26645   1.46272 
 6                     0.3937   -3.19342  -0.43207 
 6                    -1.68198  -2.40959   0.64717 
 6                    -2.06039   1.09367   2.93458 
 1                     0.04979   1.27027   2.45434 
 6                    -3.21863  -0.86752   2.09425 
 6                    -0.322    -4.27774  -0.9172 
 1                     1.4545   -3.07029  -0.62788 
 6                    -2.37587  -3.50802   0.14682 
 6                    -3.21995   0.3205    2.82583 
 1                    -2.08314   2.01411   3.50947 
 1                    -4.11722  -1.47513   2.02749 
 6                    -1.69205  -4.43214  -0.63753 
 1                     0.18724  -5.02756  -1.51163 
 1                    -3.43121  -3.64119   0.36367 
 1                    -4.12781   0.64045   3.32653 
 1                    -2.21959  -5.2933   -1.03465 
 7                     0.13862   1.07433  -0.80349 
 7                     0.16992  -1.09637   0.91226 
 

 GradGradGradGradGradGradGradGradGradGradGradGradGradGradGradGradGradGrad
 Berny optimization.
 Initialization pass.
 Trust Radius=3.00D-01 FncErr=1.00D-07 GrdErr=1.00D-07 EigMax=2.50D+02 EigMin=1.00D-04
 Number of steps in this run=      2 maximum allowed number of steps=      2.
 GradGradGradGradGradGradGradGradGradGradGradGradGradGradGradGradGradGrad

 Symmetry turned off by external request.
 Stoichiometry    C32H18N4
 Framework group  C1[X(C32H18N4)]
 Deg. of freedom   156
 Full point group                 C1      NOp   1
                          Input orientation:                          
 ---------------------------------------------------------------------
 Center     Atomic      Atomic             Coordinates (Angstroms)
 Number     Number       Type             X           Y           Z
 ---------------------------------------------------------------------
      1          6           0        1.407892    0.496498   -0.479816
      2          6           0        1.425152   -0.501620    0.558800
      3          6           0        2.635172   -0.975180    1.017462
      4          6           0        3.845836   -0.495186    0.498061
      5          6           0        3.817810    0.492277   -0.576066
      6          6           0        2.583727    0.977804   -1.015713
      7          1           0        2.655730   -1.743967    1.787274
      8          1           0        2.553856    1.744156   -1.786499
      9          6           0        4.997791    0.963458   -1.202010
     10          7           0        5.948333    1.368788   -1.745702
     11          6           0        5.068315   -0.976378    1.027703
     12          7           0        6.066270   -1.382449    1.474156
     13          6           0       -0.326977    2.249170   -0.274028
     14          6           0       -0.877763    0.469558   -1.525938
     15          6           0        0.370551    3.166820    0.523154
     16          6           0       -1.686619    2.432381   -0.643809
     17          6           0       -0.834541   -0.728138   -2.235196
     18          6           0       -2.038453    1.276172   -1.460409
     19          6           0       -0.327833    4.284797    0.956712
     20          1           0        1.415417    3.004687    0.765415
     21          6           0       -2.356023    3.563126   -0.206058
     22          6           0       -2.008013   -1.127653   -2.882038
     23          1           0        0.078216   -1.308983   -2.293941
     24          6           0       -3.176611    0.879341   -2.139570
     25          6           0       -1.668486    4.482197    0.596439
     26          1           0        0.175584    5.022245    1.571308
     27          1           0       -3.390507    3.743071   -0.478576
     28          6           0       -3.154541   -0.336922   -2.844205
     29          1           0       -2.014782   -2.063770   -3.429331
     30          1           0       -4.070444    1.495108   -2.138912
     31          1           0       -2.181437    5.375067    0.937802
     32          1           0       -4.043470   -0.657343   -3.376049
     33          6           0       -0.876906   -0.483504    1.597851
     34          6           0       -0.303086   -2.260260    0.346330
     35          6           0       -0.864119    0.698740    2.334917
     36          6           0       -2.045279   -1.266452    1.462715
     37          6           0        0.393697   -3.193416   -0.432066
     38          6           0       -1.681979   -2.409586    0.647173
     39          6           0       -2.060392    1.093670    2.934580
     40          1           0        0.049791    1.270271    2.454340
     41          6           0       -3.218631   -0.867522    2.094251
     42          6           0       -0.322001   -4.277739   -0.917202
     43          1           0        1.454496   -3.070287   -0.627882
     44          6           0       -2.375865   -3.508023    0.146824
     45          6           0       -3.219947    0.320499    2.825828
     46          1           0       -2.083140    2.014109    3.509472
     47          1           0       -4.117224   -1.475130    2.027489
     48          6           0       -1.692046   -4.432138   -0.637530
     49          1           0        0.187239   -5.027560   -1.511629
     50          1           0       -3.431205   -3.641190    0.363666
     51          1           0       -4.127812    0.640452    3.326527
     52          1           0       -2.219592   -5.293305   -1.034648
     53          7           0        0.138619    1.074326   -0.803495
     54          7           0        0.169921   -1.096371    0.912264
 ---------------------------------------------------------------------
 Rotational constants (GHZ):           0.1588988           0.1164091           0.0924746
 Standard basis: 6-31G(d) (6D, 7F)
   576 basis functions,  1080 primitive gaussians,   576 cartesian basis functions
   119 alpha electrons      119 beta electrons
       nuclear repulsion energy      3658.8615757192 Hartrees.
 NAtoms=   54 NActive=   54 NUniq=   54 SFac= 1.00D+00 NAtFMM=   60 NAOKFM=F Big=F
 Integral buffers will be    131072 words long.
 Regular integral format.
 Two-electron integral symmetry is turned off.
 One-electron integrals computed using PRISM.
 NBasis=   576 RedAO= T EigKep=  2.59D-04  NBF=   576
 NBsUse=   576 1.00D-06 EigRej= -1.00D+00 NBFU=   576
 Initial guess from the checkpoint file:  "a.chk"
 B after Tr=     0.000156    0.000053   -0.000058
         Rot=    1.000000    0.000037    0.000016    0.000008 Ang=   0.00 deg.
 Requested convergence on RMS density matrix=1.00D-08 within  64 cycles.
 Requested convergence on MAX density matrix=1.00D-06.
 Requested convergence on             energy=1.00D-06.
 No special actions if energy rises.
 SCF Done:  E(RM062X) =  -1448.68842101     A.U. after   10 cycles
            NFock= 10  Conv=0.73D-08     -V/T= 2.0088
 QCSCF skips out because SCF is already converged.
 DoSCS=F DFT=T ScalE2(SS,OS)=  1.000000  1.000000
 ExpMin= 1.61D-01 ExpMax= 4.17D+03 ExpMxC= 6.27D+02 IAcc=3 IRadAn=         5 AccDes= 0.00D+00
 HarFok:  IExCor=  205 AccDes= 0.00D+00 IRadAn=         5 IDoV=-2 UseB2=F ITyADJ=14
 ICtDFT= 12500011 ScaDFX=  1.000000  1.000000  1.000000  1.000000
 GSVD:  LWork=       -1584 too small for GESVD, short by        7020 words or        7020 for optimal perf.
 Range of M.O.s used for correlation:    37   576
 NBasis=   576 NAE=   119 NBE=   119 NFC=    36 NFV=     0
 NROrb=    540 NOA=    83 NOB=    83 NVA=   457 NVB=   457

 **** Warning!!: The largest alpha MO coefficient is  0.10381373D+02

    12 initial guesses have been made.
 Convergence on wavefunction:    0.000001000000000
 Iteration     1 Dimension    12 NMult     0 NNew     12
 CISAX will form    12 AO SS matrices at one time.
 Iteration     2 Dimension    18 NMult    12 NNew      6
 Iteration     3 Dimension    24 NMult    18 NNew      6
 Iteration     4 Dimension    30 NMult    24 NNew      6
 Iteration     5 Dimension    36 NMult    30 NNew      6
 Iteration     6 Dimension    42 NMult    36 NNew      6
 Iteration     7 Dimension    48 NMult    42 NNew      6
 Iteration     8 Dimension    54 NMult    48 NNew      6
 Iteration     9 Dimension    60 NMult    54 NNew      6
 Iteration    10 Dimension    66 NMult    60 NNew      6
 Iteration    11 Dimension    72 NMult    66 NNew      6
 Iteration    12 Dimension    78 NMult    72 NNew      6
 ***********************************************************************
 Excited states from <AA,BB:AA,BB> singles matrix:
 ***********************************************************************
 
 Ground to excited state transition densities written to RWF  633
 Ground to excited state transition electric dipole moments (Au):
       state          X           Y           Z        Dip. S.      Osc.
         1         0.0978     -0.2943      0.2527      0.1600      0.0113
         2        -0.5686     -0.0609      0.0723      0.3323      0.0258
         3         0.0087      0.1399     -0.0744      0.0252      0.0022
 Ground to excited state transition velocity dipole moments (Au):
       state          X           Y           Z        Dip. S.      Osc.
         1        -0.0106      0.0293     -0.0322      0.0020      0.0126
         2         0.0671      0.0070     -0.0095      0.0046      0.0265
         3        -0.0011     -0.0216      0.0133      0.0006      0.0033
 Ground to excited state transition magnetic dipole moments (Au):
       state          X           Y           Z
         1        -0.0350      0.2789      0.2903
         2         0.2376      0.0814      0.0644
         3         0.0099     -0.2318      0.0445
 Ground to excited state transition velocity quadrupole moments (Au):
       state          XX          YY          ZZ          XY          XZ          YZ
         1        -0.0713      0.0338      0.0073      0.0072     -0.0119      0.0087
         2         0.3892     -0.1653     -0.0596      0.0106     -0.0140     -0.0623
         3         0.0007      0.0033     -0.0046     -0.0508      0.0308     -0.0011
 <0|del|b> * <b|rxdel|0> + <0|del|b> * <b|delr+rdel|0>
 Rotatory Strengths (R) in cgs (10**-40 erg-esu-cm/Gauss)
       state          XX          YY          ZZ    R(velocity)    E-M Angle
         1        -3.5501    -29.4224     27.5792     -1.7978       92.56
         2        -0.1304     34.1103     62.4705     32.1501       25.82
         3        14.9784      3.3578     11.6033      9.9799       21.22
 1/2[<0|r|b>*<b|rxdel|0> + (<0|rxdel|b>*<b|r|0>)*]
 Rotatory Strengths (R) in cgs (10**-40 erg-esu-cm/Gauss)
       state          XX          YY          ZZ     R(length)
         1         2.4186     58.0516    -51.8899      2.8601
         2        95.5270      3.5087     -3.2929     31.9143
         3        -0.0613     22.9260      2.3403      8.4017
  1/2[<0|del|b>*<b|r|0> + (<0|r|b>*<b|del|0>)*] (Au)
       state          X           Y           Z        Dip. S.   Osc.(frdel)
         1        -0.0010     -0.0086     -0.0081      0.0178      0.0119
         2        -0.0382     -0.0004     -0.0007      0.0393      0.0262
         3        -0.0000     -0.0030     -0.0010      0.0040      0.0027

 Excitation energies and oscillator strengths:
 
 Excited state symmetry could not be determined.
 Excited State   1:      Singlet-?Sym    2.8923 eV  428.67 nm  f=0.0113  <S**2>=0.000
     119 ->120         0.68954
 This state for optimization and/or second-order correction.
 Total Energy, E(TD-HF/TD-DFT) =  -1448.58213171    
 Copying the excited state density for this state as the 1-particle RhoCI density.
 
 Excited state symmetry could not be determined.
 Excited State   2:      Singlet-?Sym    3.1724 eV  390.82 nm  f=0.0258  <S**2>=0.000
     118 ->120         0.68840
 
 Excited state symmetry could not be determined.
 Excited State   3:      Singlet-?Sym    3.5962 eV  344.76 nm  f=0.0022  <S**2>=0.000
     117 ->120         0.69462
 SavETr:  write IOETrn=   770 NScale= 10 NData=  16 NLR=1 NState=    3 LETran=      64.
          IDoAtm=11111111111111111111111111111111111111111111111111
          IDoAtm=1111
          Differentiating once with respect to electric field.
                with respect to dipole field.
          Differentiating once with respect to nuclear coordinates.
          There are     1 degrees of freedom in the 1st order CPHF.  IDoFFX=0 NUNeed=     1.
 LinEq1:  Iter=  0 NonCon=     1 RMS=3.98D-03 Max=2.04D-01 NDo=     1
 AX will form     1 AO Fock derivatives at one time.
 LinEq1:  Iter=  1 NonCon=     1 RMS=2.47D-03 Max=1.79D-01 NDo=     1
 LinEq1:  Iter=  2 NonCon=     1 RMS=1.70D-03 Max=9.94D-02 NDo=     1
 LinEq1:  Iter=  3 NonCon=     1 RMS=9.18D-04 Max=5.66D-02 NDo=     1
 LinEq1:  Iter=  4 NonCon=     1 RMS=6.22D-04 Max=4.19D-02 NDo=     1
 LinEq1:  Iter=  5 NonCon=     1 RMS=3.27D-04 Max=1.31D-02 NDo=     1
 LinEq1:  Iter=  6 NonCon=     1 RMS=1.70D-04 Max=1.43D-02 NDo=     1
 LinEq1:  Iter=  7 NonCon=     1 RMS=1.14D-04 Max=6.61D-03 NDo=     1
 LinEq1:  Iter=  8 NonCon=     1 RMS=7.65D-05 Max=4.35D-03 NDo=     1
 LinEq1:  Iter=  9 NonCon=     1 RMS=4.26D-05 Max=1.80D-03 NDo=     1
 LinEq1:  Iter= 10 NonCon=     1 RMS=2.04D-05 Max=6.95D-04 NDo=     1
 LinEq1:  Iter= 11 NonCon=     1 RMS=1.05D-05 Max=5.55D-04 NDo=     1
 LinEq1:  Iter= 12 NonCon=     1 RMS=7.67D-06 Max=4.43D-04 NDo=     1
 LinEq1:  Iter= 13 NonCon=     1 RMS=4.52D-06 Max=2.51D-04 NDo=     1
 LinEq1:  Iter= 14 NonCon=     1 RMS=2.78D-06 Max=1.47D-04 NDo=     1
 LinEq1:  Iter= 15 NonCon=     1 RMS=1.32D-06 Max=5.42D-05 NDo=     1
 LinEq1:  Iter= 16 NonCon=     1 RMS=8.45D-07 Max=3.41D-05 NDo=     1
 LinEq1:  Iter= 17 NonCon=     1 RMS=3.47D-07 Max=1.11D-05 NDo=     1
 LinEq1:  Iter= 18 NonCon=     1 RMS=1.63D-07 Max=6.83D-06 NDo=     1
 LinEq1:  Iter= 19 NonCon=     1 RMS=8.70D-08 Max=3.55D-06 NDo=     1
 LinEq1:  Iter= 20 NonCon=     1 RMS=4.24D-08 Max=1.84D-06 NDo=     1
 LinEq1:  Iter= 21 NonCon=     1 RMS=2.47D-08 Max=1.19D-06 NDo=     1
 LinEq1:  Iter= 22 NonCon=     1 RMS=1.51D-08 Max=8.09D-07 NDo=     1
 LinEq1:  Iter= 23 NonCon=     1 RMS=6.02D-09 Max=2.88D-07 NDo=     1
 LinEq1:  Iter= 24 NonCon=     1 RMS=3.25D-09 Max=1.38D-07 NDo=     1
 LinEq1:  Iter= 25 NonCon=     1 RMS=1.49D-09 Max=7.28D-08 NDo=     1
 LinEq1:  Iter= 26 NonCon=     1 RMS=7.72D-10 Max=2.72D-08 NDo=     1
 LinEq1:  Iter= 27 NonCon=     1 RMS=3.52D-10 Max=1.33D-08 NDo=     1
 LinEq1:  Iter= 28 NonCon=     1 RMS=1.39D-10 Max=7.69D-09 NDo=     1
 LinEq1:  Iter= 29 NonCon=     1 RMS=6.83D-11 Max=3.36D-09 NDo=     1
 LinEq1:  Iter= 30 NonCon=     1 RMS=2.90D-11 Max=1.39D-09 NDo=     1
 LinEq1:  Iter= 31 NonCon=     0 RMS=1.44D-11 Max=5.22D-10 NDo=     1
 Linear equations converged to 1.000D-10 1.000D-09 after    31 iterations.
 End of Minotr F.D. properties file   721 does not exist.
 End of Minotr F.D. properties file   722 does not exist.
 End of Minotr F.D. properties file   788 does not exist.

 **********************************************************************

            Population analysis using the SCF Density.

 **********************************************************************

 Alpha  occ. eigenvalues --  -14.82712 -14.82487 -14.79698 -14.79656 -10.65591
 Alpha  occ. eigenvalues --  -10.65469 -10.65319 -10.65242 -10.62098 -10.62009
 Alpha  occ. eigenvalues --  -10.61680 -10.61648 -10.60027 -10.59933 -10.59738
 Alpha  occ. eigenvalues --  -10.59622 -10.56238 -10.56130 -10.56043 -10.56038
 Alpha  occ. eigenvalues --  -10.56024 -10.55964 -10.55947 -10.55942 -10.55852
 Alpha  occ. eigenvalues --  -10.55844 -10.55806 -10.55685 -10.55667 -10.55659
 Alpha  occ. eigenvalues --  -10.55513 -10.55428 -10.55263 -10.55162 -10.54950
 Alpha  occ. eigenvalues --  -10.54887  -1.13884  -1.11547  -1.05104  -1.03299
 Alpha  occ. eigenvalues --   -1.01692  -0.96815  -0.96253  -0.95866  -0.95551
 Alpha  occ. eigenvalues --   -0.92261  -0.91725  -0.88359  -0.87639  -0.85715
 Alpha  occ. eigenvalues --   -0.85323  -0.83706  -0.82626  -0.81959  -0.81816
 Alpha  occ. eigenvalues --   -0.78818  -0.76923  -0.73327  -0.73013  -0.70015
 Alpha  occ. eigenvalues --   -0.69940  -0.69736  -0.69164  -0.66585  -0.66287
 Alpha  occ. eigenvalues --   -0.66247  -0.63682  -0.62265  -0.61352  -0.60168
 Alpha  occ. eigenvalues --   -0.59735  -0.59016  -0.58453  -0.56318  -0.55894
 Alpha  occ. eigenvalues --   -0.53872  -0.53497  -0.53164  -0.53100  -0.52696
 Alpha  occ. eigenvalues --   -0.52496  -0.51403  -0.51280  -0.50673  -0.50599
 Alpha  occ. eigenvalues --   -0.49301  -0.49225  -0.49194  -0.49143  -0.48662
 Alpha  occ. eigenvalues --   -0.48463  -0.46205  -0.46059  -0.45188  -0.44042
 Alpha  occ. eigenvalues --   -0.43737  -0.43435  -0.43256  -0.43051  -0.42628
 Alpha  occ. eigenvalues --   -0.42252  -0.42104  -0.41995  -0.40702  -0.40604
 Alpha  occ. eigenvalues --   -0.40385  -0.40171  -0.39810  -0.39396  -0.36440
 Alpha  occ. eigenvalues --   -0.34561  -0.34389  -0.33921  -0.31842  -0.30529
 Alpha  occ. eigenvalues --   -0.27389  -0.26653  -0.26426  -0.25090
 Alpha virt. eigenvalues --   -0.08055  -0.03928  -0.00510  -0.00325   0.02730
 Alpha virt. eigenvalues --    0.03558   0.04499   0.05371   0.05681   0.05829
 Alpha virt. eigenvalues --    0.07114   0.07452   0.07684   0.10861   0.10947
 Alpha virt. eigenvalues --    0.13381   0.13618   0.14128   0.14728   0.14854
 Alpha virt. eigenvalues --    0.15873   0.17246   0.18060   0.18267   0.19344
 Alpha virt. eigenvalues --    0.19534   0.19690   0.19982   0.20267   0.21056
 Alpha virt. eigenvalues --    0.21473   0.21814   0.22790   0.22892   0.23260
 Alpha virt. eigenvalues --    0.23569   0.24460   0.24493   0.24751   0.24932
 Alpha virt. eigenvalues --    0.25249   0.26430   0.27581   0.27701   0.28530
 Alpha virt. eigenvalues --    0.29004   0.29620   0.29655   0.31137   0.32088
 Alpha virt. eigenvalues --    0.32618   0.33286   0.33860   0.34202   0.35982
 Alpha virt. eigenvalues --    0.36511   0.36965   0.37334   0.38365   0.39097
 Alpha virt. eigenvalues --    0.40086   0.40181   0.40806   0.41217   0.42455
 Alpha virt. eigenvalues --    0.42815   0.44038   0.45927   0.46325   0.47193
 Alpha virt. eigenvalues --    0.48646   0.48733   0.49282   0.51595   0.51711
 Alpha virt. eigenvalues --    0.52181   0.53092   0.53464   0.54136   0.54948
 Alpha virt. eigenvalues --    0.55031   0.56106   0.56248   0.56678   0.57112
 Alpha virt. eigenvalues --    0.57928   0.58498   0.58564   0.58797   0.59327
 Alpha virt. eigenvalues --    0.59537   0.60046   0.60331   0.60753   0.60864
 Alpha virt. eigenvalues --    0.61515   0.62026   0.62217   0.62486   0.62619
 Alpha virt. eigenvalues --    0.63486   0.64135   0.64202   0.64578   0.64760
 Alpha virt. eigenvalues --    0.64798   0.65208   0.65243   0.65382   0.66041
 Alpha virt. eigenvalues --    0.66332   0.66978   0.67153   0.67361   0.67730
 Alpha virt. eigenvalues --    0.68174   0.68326   0.68704   0.68951   0.69488
 Alpha virt. eigenvalues --    0.69534   0.69712   0.70100   0.70168   0.72189
 Alpha virt. eigenvalues --    0.72228   0.73435   0.74216   0.74773   0.75610
 Alpha virt. eigenvalues --    0.76158   0.76652   0.78026   0.78651   0.78990
 Alpha virt. eigenvalues --    0.82037   0.82500   0.82882   0.83480   0.83588
 Alpha virt. eigenvalues --    0.84792   0.85306   0.85820   0.86336   0.86683
 Alpha virt. eigenvalues --    0.86814   0.87724   0.87853   0.88333   0.89090
 Alpha virt. eigenvalues --    0.89347   0.89580   0.89817   0.90204   0.90308
 Alpha virt. eigenvalues --    0.90831   0.91048   0.91221   0.91765   0.91964
 Alpha virt. eigenvalues --    0.92355   0.92439   0.92627   0.93633   0.93958
 Alpha virt. eigenvalues --    0.94474   0.94745   0.95528   0.96056   0.96493
 Alpha virt. eigenvalues --    0.97365   0.97624   0.98802   0.99816   1.00280
 Alpha virt. eigenvalues --    1.01073   1.01293   1.01466   1.02444   1.03202
 Alpha virt. eigenvalues --    1.03510   1.03906   1.04881   1.05078   1.05547
 Alpha virt. eigenvalues --    1.06627   1.07324   1.08115   1.09500   1.10059
 Alpha virt. eigenvalues --    1.10305   1.13199   1.14184   1.14443   1.14899
 Alpha virt. eigenvalues --    1.16685   1.17713   1.18670   1.19266   1.19714
 Alpha virt. eigenvalues --    1.20326   1.20872   1.21708   1.21835   1.22687
 Alpha virt. eigenvalues --    1.24035   1.24516   1.25397   1.25877   1.26306
 Alpha virt. eigenvalues --    1.28918   1.29885   1.30674   1.30902   1.31786
 Alpha virt. eigenvalues --    1.32690   1.32813   1.33993   1.34571   1.35223
 Alpha virt. eigenvalues --    1.36361   1.37444   1.37703   1.38722   1.39580
 Alpha virt. eigenvalues --    1.40198   1.40784   1.41650   1.42544   1.43030
 Alpha virt. eigenvalues --    1.43486   1.44574   1.46491   1.47359   1.47773
 Alpha virt. eigenvalues --    1.49322   1.50182   1.50785   1.51008   1.52450
 Alpha virt. eigenvalues --    1.52575   1.52664   1.53005   1.53631   1.54096
 Alpha virt. eigenvalues --    1.54290   1.54365   1.54610   1.54716   1.55530
 Alpha virt. eigenvalues --    1.55639   1.56058   1.57139   1.58617   1.59413
 Alpha virt. eigenvalues --    1.60242   1.61637   1.63261   1.64126   1.67570
 Alpha virt. eigenvalues --    1.67811   1.69124   1.71597   1.73125   1.74094
 Alpha virt. eigenvalues --    1.74360   1.76124   1.76809   1.78160   1.78804
 Alpha virt. eigenvalues --    1.80411   1.80661   1.81413   1.81605   1.82256
 Alpha virt. eigenvalues --    1.83041   1.83702   1.84809   1.85048   1.86490
 Alpha virt. eigenvalues --    1.87050   1.87498   1.88481   1.89189   1.89834
 Alpha virt. eigenvalues --    1.91197   1.92084   1.93248   1.93768   1.94685
 Alpha virt. eigenvalues --    1.95044   1.95862   1.96862   1.97120   1.98157
 Alpha virt. eigenvalues --    1.98366   1.98567   1.99821   2.00628   2.01349
 Alpha virt. eigenvalues --    2.01903   2.02179   2.02386   2.03142   2.03364
 Alpha virt. eigenvalues --    2.03662   2.03989   2.04468   2.05794   2.06049
 Alpha virt. eigenvalues --    2.07104   2.07482   2.08822   2.09740   2.11055
 Alpha virt. eigenvalues --    2.11655   2.12558   2.12952   2.14433   2.14648
 Alpha virt. eigenvalues --    2.14888   2.15511   2.16699   2.17150   2.17434
 Alpha virt. eigenvalues --    2.18708   2.19519   2.21342   2.21730   2.22181
 Alpha virt. eigenvalues --    2.23499   2.23558   2.24443   2.24719   2.26811
 Alpha virt. eigenvalues --    2.27615   2.27824   2.28473   2.28742   2.29225
 Alpha virt. eigenvalues --    2.29457   2.30675   2.30789   2.31464   2.32674
 Alpha virt. eigenvalues --    2.33211   2.33633   2.34698   2.36032   2.36746
 Alpha virt. eigenvalues --    2.40565   2.40788   2.42637   2.43109   2.43424
 Alpha virt. eigenvalues --    2.46083   2.48062   2.49900   2.50927   2.51201
 Alpha virt. eigenvalues --    2.53717   2.54708   2.56159   2.56668   2.57268
 Alpha virt. eigenvalues --    2.59585   2.60503   2.60842   2.63164   2.65055
 Alpha virt. eigenvalues --    2.65754   2.66139   2.66183   2.67954   2.68499
 Alpha virt. eigenvalues --    2.69067   2.69859   2.70344   2.70739   2.71412
 Alpha virt. eigenvalues --    2.71984   2.72076   2.72718   2.72909   2.74804
 Alpha virt. eigenvalues --    2.75284   2.75521   2.75588   2.77790   2.78853
 Alpha virt. eigenvalues --    2.81631   2.82429   2.83387   2.85479   2.85552
 Alpha virt. eigenvalues --    2.85828   2.86471   2.86786   2.88621   2.91529
 Alpha virt. eigenvalues --    2.93786   2.94132   2.96061   2.97756   3.00218
 Alpha virt. eigenvalues --    3.00564   3.03169   3.08609   3.08850   3.21069
 Alpha virt. eigenvalues --    3.22970   3.23383   3.25573   3.30427   3.32469
 Alpha virt. eigenvalues --    3.32580   3.38586   3.38799   3.49620   3.52247
 Alpha virt. eigenvalues --    3.52871   3.99611   4.07390   4.09930   4.10413
 Alpha virt. eigenvalues --    4.10953   4.12721   4.12953   4.13903   4.15023
 Alpha virt. eigenvalues --    4.16802   4.17511   4.18913   4.20452   4.23006
 Alpha virt. eigenvalues --    4.23650   4.26776   4.28064   4.30938   4.34286
 Alpha virt. eigenvalues --    4.34951   4.37318   4.41915   4.43176   4.44846
 Alpha virt. eigenvalues --    4.47902   4.48591   4.51251   4.52723   4.52916
 Alpha virt. eigenvalues --    4.65928   4.67957   4.77030   4.78784   4.86840
 Alpha virt. eigenvalues --    4.90128   4.92994
          Condensed to atoms (all electrons):
 Mulliken charges:
               1
     1  C    0.220752
     2  C    0.235621
     3  C   -0.197638
     4  C    0.130826
     5  C    0.126955
     6  C   -0.181556
     7  H    0.235177
     8  H    0.237364
     9  C    0.234630
    10  N   -0.441212
    11  C    0.231854
    12  N   -0.440775
    13  C    0.287603
    14  C    0.277685
    15  C   -0.186121
    16  C    0.042491
    17  C   -0.166846
    18  C    0.048652
    19  C   -0.173549
    20  H    0.159706
    21  C   -0.190404
    22  C   -0.166856
    23  H    0.159641
    24  C   -0.196115
    25  C   -0.186502
    26  H    0.166717
    27  H    0.170174
    28  C   -0.181572
    29  H    0.165823
    30  H    0.166794
    31  H    0.160231
    32  H    0.159783
    33  C    0.281154
    34  C    0.285142
    35  C   -0.167161
    36  C    0.039797
    37  C   -0.186721
    38  C    0.036990
    39  C   -0.167552
    40  H    0.159862
    41  C   -0.186262
    42  C   -0.174860
    43  H    0.160567
    44  C   -0.181003
    45  C   -0.180562
    46  H    0.165932
    47  H    0.166868
    48  C   -0.186439
    49  H    0.166944
    50  H    0.170129
    51  H    0.161361
    52  H    0.161672
    53  N   -0.717132
    54  N   -0.718062
 Sum of Mulliken charges =  -0.00000
 Mulliken charges with hydrogens summed into heavy atoms:
               1
     1  C    0.220752
     2  C    0.235621
     3  C    0.037539
     4  C    0.130826
     5  C    0.126955
     6  C    0.055808
     9  C    0.234630
    10  N   -0.441212
    11  C    0.231854
    12  N   -0.440775
    13  C    0.287603
    14  C    0.277685
    15  C   -0.026415
    16  C    0.042491
    17  C   -0.007204
    18  C    0.048652
    19  C   -0.006831
    21  C   -0.020230
    22  C   -0.001032
    24  C   -0.029321
    25  C   -0.026271
    28  C   -0.021789
    33  C    0.281154
    34  C    0.285142
    35  C   -0.007299
    36  C    0.039797
    37  C   -0.026154
    38  C    0.036990
    39  C   -0.001619
    41  C   -0.019395
    42  C   -0.007916
    44  C   -0.010874
    45  C   -0.019200
    48  C   -0.024766
    53  N   -0.717132
    54  N   -0.718062
 Electronic spatial extent (au):  <R**2>=          12747.5651
 Charge=              0.0000 electrons
 Dipole moment (field-independent basis, Debye):
    X=             -5.5261    Y=             -0.0124    Z=              0.2162  Tot=              5.5303
 Quadrupole moment (field-independent basis, Debye-Ang):
   XX=           -236.7906   YY=           -193.3731   ZZ=           -206.1423
   XY=              0.0654   XZ=              1.7539   YZ=             13.3014
 Traceless Quadrupole moment (field-independent basis, Debye-Ang):
   XX=            -24.6886   YY=             18.7289   ZZ=              5.9597
   XY=              0.0654   XZ=              1.7539   YZ=             13.3014
 Octapole moment (field-independent basis, Debye-Ang**2):
  XXX=           -449.7291  YYY=              0.9688  ZZZ=              4.5718  XYY=            -44.2501
  XXY=              2.5720  XXZ=              7.6612  XZZ=            -36.1355  YZZ=             -0.0104
  YYZ=             -0.9029  XYZ=             18.2239
 Hexadecapole moment (field-independent basis, Debye-Ang**3):
 XXXX=         -11211.2045 YYYY=          -5729.7821 ZZZZ=          -3078.1309 XXXY=             39.3993
 XXXZ=             84.8860 YYYX=              5.2970 YYYZ=            153.1109 ZZZX=             60.9465
 ZZZY=            -10.7759 XXYY=          -2469.4240 XXZZ=          -2100.4939 YYZZ=          -1469.2396
 XXYZ=            149.7149 YYXZ=             24.8261 ZZXY=             -6.6619
 N-N= 3.658861575719D+03 E-N=-1.067302036675D+04  KE= 1.436072405811D+03
 Calling FoFJK, ICntrl=  10005127 FMM=F ISym2X=0 I1Cent= 0 IOpClX= 0 NMat=1 NMatS=1 NMatT=0.
 -------------------------------------------------------------------
 Center     Atomic                   Forces (Hartrees/Bohr)
 Number     Number              X              Y              Z
 -------------------------------------------------------------------
      1        6          -0.000756912    0.001276281   -0.001058424
      2        6          -0.001287011   -0.001127023    0.000974703
      3        6          -0.000266910   -0.000858429    0.000677241
      4        6           0.000276256   -0.001092002    0.001363822
      5        6          -0.000756100    0.001006187   -0.000947817
      6        6          -0.000312678   -0.000124409   -0.000159480
      7        1          -0.000131838    0.000743389   -0.000697038
      8        1           0.000036747   -0.000645287    0.000104741
      9        6           0.009315253    0.003840126   -0.004876699
     10        7          -0.008351949   -0.003502890    0.005312063
     11        6           0.006011206   -0.002459721    0.002518214
     12        7          -0.005856520    0.002144339   -0.002662687
     13        6          -0.000840478    0.000725990   -0.000402242
     14        6          -0.000081264    0.000585763   -0.000037780
     15        6           0.000020291    0.000509858    0.000148294
     16        6           0.000494368    0.000647497   -0.000101615
     17        6          -0.000411889   -0.000213627   -0.000497220
     18        6           0.000145298   -0.000045494   -0.000277982
     19        6          -0.000266925   -0.000516515   -0.000777416
     20        1          -0.000271427   -0.000322315    0.000661276
     21        6           0.000656821   -0.000017228   -0.000081020
     22        6           0.000429322    0.000387615    0.000309545
     23        1           0.000230543    0.000287736   -0.000310727
     24        6          -0.000243390   -0.001221802   -0.000392828
     25        6          -0.000060156   -0.000165644   -0.000412885
     26        1           0.000013768    0.000391117    0.000230208
     27        1          -0.000660827   -0.000298093    0.000202615
     28        6           0.000254145    0.000911479    0.000809868
     29        1          -0.000036644   -0.000104415   -0.000280160
     30        1          -0.000495188   -0.000365300    0.000863933
     31        1          -0.000360730   -0.000048204    0.000276957
     32        1          -0.000373505   -0.000213732    0.000037804
     33        6           0.000207619    0.000053660    0.000109146
     34        6          -0.001334764   -0.000035901    0.000942738
     35        6           0.000034914   -0.000285468   -0.000009761
     36        6           0.000356979    0.000245129    0.000242290
     37        6           0.000458485   -0.001064392   -0.000799845
     38        6           0.000532728   -0.001346046   -0.000548228
     39        6           0.000430109    0.000196454   -0.000029134
     40        1           0.000337530   -0.000214455    0.000298679
     41        6          -0.000516379    0.000208175   -0.000020144
     42        6          -0.001101725    0.001150099    0.001104677
     43        1          -0.000446536    0.000362862   -0.000364367
     44        6           0.000395894    0.000994426    0.000803579
     45        6           0.000199705    0.000128842   -0.000346952
     46        1           0.000269339   -0.000022794    0.000004319
     47        1           0.000189732    0.000564965   -0.000455469
     48        6           0.001257060   -0.000411011   -0.000333245
     49        1           0.000291584   -0.000332097   -0.000764111
     50        1          -0.000291651   -0.000016507   -0.000203728
     51        1           0.000057211    0.000303226   -0.000239938
     52        1          -0.000076527   -0.000106380    0.000160125
     53        7           0.001366188   -0.001040507   -0.000142063
     54        7           0.001320825    0.000552471    0.000074174
 -------------------------------------------------------------------
 Cartesian Forces:  Max     0.009315253 RMS     0.001532688

 GradGradGradGradGradGradGradGradGradGradGradGradGradGradGradGradGradGrad
 Berny optimization.
 Search for a local minimum.
 Step number   1 out of a maximum of    2
 All quantities printed in internal units (Hartrees-Bohrs-Radians)
 Second derivative matrix not updated -- first step.
 ITU=  0
     Eigenvalues ---    0.00008   0.00009   0.00022   0.00075   0.00078
     Eigenvalues ---    0.00113   0.00182   0.00266   0.00292   0.00301
     Eigenvalues ---    0.00321   0.00447   0.00716   0.00848   0.00930
     Eigenvalues ---    0.01020   0.01225   0.01233   0.01242   0.01250
     Eigenvalues ---    0.01676   0.02377   0.02422   0.02532   0.02591
     Eigenvalues ---    0.02604   0.02617   0.02728   0.02953   0.03427
     Eigenvalues ---    0.03444   0.03621   0.04611   0.04644   0.04706
     Eigenvalues ---    0.04979   0.06571   0.06744   0.06997   0.07010
     Eigenvalues ---    0.07024   0.07030   0.07054   0.07067   0.07104
     Eigenvalues ---    0.07113   0.07453   0.07902   0.07921   0.07941
     Eigenvalues ---    0.08612   0.08974   0.09467   0.10188   0.10546
     Eigenvalues ---    0.10667   0.10775   0.10793   0.11085   0.12445
     Eigenvalues ---    0.12495   0.12514   0.12631   0.12868   0.13603
     Eigenvalues ---    0.13713   0.13872   0.15021   0.15069   0.15279
     Eigenvalues ---    0.17621   0.18378   0.19473   0.19665   0.21209
     Eigenvalues ---    0.21854   0.23666   0.23933   0.26498   0.27604
     Eigenvalues ---    0.28014   0.28222   0.29700   0.30082   0.30783
     Eigenvalues ---    0.30953   0.31622   0.32957   0.35643   0.35769
     Eigenvalues ---    0.35796   0.36504   0.38169   0.40818   0.42819
     Eigenvalues ---    0.43063   0.43171   0.43400   0.45932   0.47668
     Eigenvalues ---    0.48267   0.49814   0.50403   0.50584   0.50749
     Eigenvalues ---    0.52469   0.53233   0.59357   0.60334   0.62242
     Eigenvalues ---    0.64074   0.71405   0.71433   0.74336   0.77920
     Eigenvalues ---    0.81946   0.82509   0.89688   0.90512   0.94722
     Eigenvalues ---    1.02883   1.06649   1.10976   1.12934   1.14212
     Eigenvalues ---    1.15203   1.15224   1.15429   1.19162   1.20066
     Eigenvalues ---    1.26276   1.29811   1.30698   1.39656   1.39908
     Eigenvalues ---    1.41204   1.43168   1.48699   1.49054   1.49600
     Eigenvalues ---    1.49893   1.49952   1.54717   1.58545   1.64416
     Eigenvalues ---    1.65027   1.66743   1.69649   1.71075   1.74211
     Eigenvalues ---    1.76232   1.76397   2.75323   2.77037  34.00498
     Eigenvalues ---  187.96973
 Eigenvalue     1 is   7.94D-05 Eigenvector:
                          Z51       Z46       Z32       Z45       X49
   1                    0.21265   0.18904  -0.17738   0.17194  -0.16719
                          X46       X29       X52       Z39       X26
   1                    0.16585   0.16004  -0.15971   0.15836  -0.15756
 Eigenvalue     2 is   9.13D-05 Eigenvector:
                          Z29       Z26       Z31       Z52       Z49
   1                    0.22160  -0.22082  -0.21646  -0.21387  -0.20546
                          Z46       Z32       Z19       Z25       Z48
   1                    0.17718   0.17095  -0.17006  -0.16758  -0.16739
 Quadratic step=3.974D+00 exceeds max=3.000D-01 adjusted using Lamda=-3.795D-03.
 Angle between NR and scaled steps=  49.33 degrees.
 Angle between quadratic step and forces=  82.32 degrees.
 Linear search not attempted -- first point.
 B after Tr=     0.000914   -0.000235    0.000704
         Rot=    1.000000    0.000048    0.000214    0.000049 Ang=   0.03 deg.
 Variable       Old X    -DE/DX   Delta X   Delta X   Delta X     New X
                                 (Linear)    (Quad)   (Total)
    X1        2.66053  -0.00076   0.00000   0.00124   0.00264   2.66317
    Y1        0.93825   0.00128   0.00000  -0.00116  -0.00174   0.93651
    Z1       -0.90672  -0.00106   0.00000  -0.00836  -0.00661  -0.91333
    X2        2.69315  -0.00129   0.00000   0.00016   0.00053   2.69368
    Y2       -0.94793  -0.00113   0.00000  -0.00467  -0.00506  -0.95299
    Z2        1.05598   0.00097   0.00000  -0.00513  -0.00318   1.05279
    X3        4.97975  -0.00027   0.00000  -0.00249  -0.00258   4.97718
    Y3       -1.84282  -0.00086   0.00000  -0.00863  -0.00916  -1.85199
    Z3        1.92272   0.00068   0.00000  -0.00323  -0.00022   1.92251
    X4        7.26758   0.00028   0.00000   0.00064   0.00105   7.26863
    Y4       -0.93577  -0.00109   0.00000  -0.00979  -0.01064  -0.94640
    Z4        0.94120   0.00136   0.00000   0.00393   0.00784   0.94903
    X5        7.21462  -0.00076   0.00000   0.00441   0.00588   7.22049
    Y5        0.93027   0.00101   0.00000   0.00040  -0.00064   0.92963
    Z5       -1.08861  -0.00095   0.00000   0.00808   0.01179  -1.07682
    X6        4.88254  -0.00031   0.00000   0.00517   0.00709   4.88963
    Y6        1.84778  -0.00012   0.00000  -0.00626  -0.00715   1.84063
    Z6       -1.91942  -0.00016   0.00000  -0.00420  -0.00158  -1.92100
    X7        5.01860  -0.00013   0.00000  -0.00819  -0.00904   5.00956
    Y7       -3.29562   0.00074   0.00000  -0.00827  -0.00867  -3.30429
    Z7        3.37746  -0.00070   0.00000  -0.00686  -0.00369   3.37377
    X8        4.82609   0.00004   0.00000   0.00949   0.01217   4.83826
    Y8        3.29598  -0.00065   0.00000  -0.01298  -0.01401   3.28196
    Z8       -3.37599   0.00010   0.00000  -0.00898  -0.00652  -3.38251
    X9        9.44446   0.00932   0.00000   0.01375   0.01580   9.46025
    Y9        1.82067   0.00384   0.00000   0.01587   0.01450   1.83517
    Z9       -2.27147  -0.00488   0.00000   0.03345   0.03803  -2.23344
   X10       11.24072  -0.00835   0.00000   0.01573   0.01828  11.25900
   Y10        2.58664  -0.00350   0.00000   0.02382   0.02218   2.60881
   Z10       -3.29890   0.00531   0.00000   0.06113   0.06640  -3.23250
   X11        9.57773   0.00601   0.00000  -0.00119  -0.00129   9.57644
   Y11       -1.84509  -0.00246   0.00000  -0.02111  -0.02209  -1.86718
   Z11        1.94208   0.00252   0.00000  -0.00121   0.00378   1.94585
   X12       11.46359  -0.00586   0.00000  -0.00811  -0.00864  11.45495
   Y12       -2.61245   0.00214   0.00000  -0.02897  -0.03005  -2.64250
   Z12        2.78575  -0.00266   0.00000  -0.00720  -0.00134   2.78441
   X13       -0.61790  -0.00084   0.00000  -0.00335  -0.00179  -0.61969
   Y13        4.25032   0.00073   0.00000   0.00237   0.00214   4.25246
   Z13       -0.51784  -0.00040   0.00000  -0.01053  -0.01050  -0.52834
   X14       -1.65873  -0.00008   0.00000   0.00675   0.00899  -1.64974
   Y14        0.88734   0.00059   0.00000   0.00708   0.00673   0.89406
   Z14       -2.88361  -0.00004   0.00000  -0.02100  -0.02109  -2.90470
   X15        0.70024   0.00002   0.00000  -0.01469  -0.01362   0.68662
   Y15        5.98442   0.00051   0.00000   0.00183   0.00162   5.98604
   Z15        0.98862   0.00015   0.00000   0.00146   0.00189   0.99050
   X16       -3.18725   0.00049   0.00000  -0.00507  -0.00319  -3.19044
   Y16        4.59653   0.00065   0.00000  -0.00551  -0.00556   4.59098
   Z16       -1.21662  -0.00010   0.00000  -0.00660  -0.00771  -1.22433
   X17       -1.57705  -0.00041   0.00000   0.01391   0.01652  -1.56053
   Y17       -1.37598  -0.00021   0.00000   0.01839   0.01790  -1.35809
   Z17       -4.22391  -0.00050   0.00000  -0.04005  -0.03989  -4.26380
   X18       -3.85212   0.00015   0.00000  -0.00500  -0.00268  -3.85480
   Y18        2.41162  -0.00005   0.00000  -0.01231  -0.01244   2.39918
   Z18       -2.75977  -0.00028   0.00000   0.00459   0.00341  -2.75636
   X19       -0.61951  -0.00027   0.00000  -0.02182  -0.02089  -0.64040
   Y19        8.09709  -0.00052   0.00000   0.00017   0.00017   8.09726
   Z19        1.80792  -0.00078   0.00000  -0.00593  -0.00628   1.80165
   X20        2.67475  -0.00027   0.00000  -0.02041  -0.01957   2.65518
   Y20        5.67804  -0.00032   0.00000  -0.00200  -0.00235   5.67568
   Z20        1.44643   0.00066   0.00000   0.02339   0.02468   1.47110
   X21       -4.45224   0.00066   0.00000  -0.01649  -0.01475  -4.46699
   Y21        6.73333  -0.00002   0.00000  -0.01562  -0.01546   6.71787
   Z21       -0.38939  -0.00008   0.00000  -0.00051  -0.00237  -0.39176
   X22       -3.79459   0.00043   0.00000   0.00686   0.00990  -3.78469
   Y22       -2.13096   0.00039   0.00000   0.00421   0.00381  -2.12715
   Z22       -5.44626   0.00031   0.00000  -0.01703  -0.01774  -5.46401
   X23        0.14781   0.00023   0.00000   0.02515   0.02771   0.17552
   Y23       -2.47362   0.00029   0.00000   0.03884   0.03816  -2.43545
   Z23       -4.33492  -0.00031   0.00000  -0.06964  -0.06862  -4.40354
   X24       -6.00292  -0.00024   0.00000  -0.02070  -0.01792  -6.02084
   Y24        1.66171  -0.00122   0.00000  -0.03736  -0.03740   1.62432
   Z24       -4.04320  -0.00039   0.00000   0.04495   0.04292  -4.00028
   X25       -3.15298  -0.00006   0.00000  -0.02330  -0.02204  -3.17502
   Y25        8.47012  -0.00017   0.00000  -0.00892  -0.00874   8.46139
   Z25        1.12711  -0.00041   0.00000  -0.00452  -0.00599   1.12112
   X26        0.33181   0.00001   0.00000  -0.02914  -0.02858   0.30323
   Y26        9.49067   0.00039   0.00000   0.00343   0.00345   9.49412
   Z26        2.96934   0.00023   0.00000  -0.00160  -0.00169   2.96765
   X27       -6.40713  -0.00066   0.00000  -0.02496  -0.02298  -6.43011
   Y27        7.07338  -0.00030   0.00000  -0.03402  -0.03371   7.03966
   Z27       -0.90438   0.00020   0.00000   0.01414   0.01142  -0.89296
   X28       -5.96122   0.00025   0.00000  -0.01222  -0.00908  -5.97030
   Y28       -0.63669   0.00091   0.00000  -0.02561  -0.02578  -0.66247
   Z28       -5.37477   0.00081   0.00000   0.03021   0.02842  -5.34635
   X29       -3.80739  -0.00004   0.00000   0.01255   0.01587  -3.79151
   Y29       -3.89996  -0.00010   0.00000   0.01279   0.01230  -3.88766
   Z29       -6.48050  -0.00028   0.00000  -0.03296  -0.03350  -6.51400
   X30       -7.69202  -0.00050   0.00000  -0.04088  -0.03801  -7.73003
   Y30        2.82534  -0.00037   0.00000  -0.06562  -0.06549   2.75985
   Z30       -4.04196   0.00086   0.00000   0.09311   0.09024  -3.95172
   X31       -4.12232  -0.00036   0.00000  -0.03387  -0.03273  -4.15505
   Y31       10.15740  -0.00005   0.00000  -0.01761  -0.01727  10.14013
   Z31        1.77219   0.00028   0.00000   0.00420   0.00215   1.77434
   X32       -7.64105  -0.00037   0.00000  -0.02235  -0.01885  -7.65990
   Y32       -1.24220  -0.00021   0.00000  -0.04159  -0.04169  -1.28389
   Z32       -6.37981   0.00004   0.00000   0.05482   0.05237  -6.32744
   X33       -1.65711   0.00021   0.00000   0.01628   0.01580  -1.64131
   Y33       -0.91369   0.00005   0.00000  -0.00349  -0.00328  -0.91697
   Z33        3.01950   0.00011   0.00000   0.00845   0.00854   3.02804
   X34       -0.57275  -0.00133   0.00000  -0.00084  -0.00063  -0.57338
   Y34       -4.27127  -0.00004   0.00000  -0.00223  -0.00235  -4.27362
   Z34        0.65447   0.00094   0.00000   0.00047   0.00134   0.65580
   X35       -1.63295   0.00003   0.00000   0.03395   0.03310  -1.59985
   Y35        1.32043  -0.00029   0.00000  -0.01080  -0.01046   1.30997
   Z35        4.41235  -0.00001   0.00000   0.01795   0.01784   4.43020
   X36       -3.86502   0.00036   0.00000   0.00714   0.00665  -3.85837
   Y36       -2.39325   0.00025   0.00000   0.01298   0.01339  -2.37986
   Z36        2.76413   0.00024   0.00000  -0.00333  -0.00404   2.76009
   X37        0.74398   0.00046   0.00000  -0.00936  -0.00867   0.73531
   Y37       -6.03468  -0.00106   0.00000   0.00583   0.00544  -6.02924
   Z37       -0.81649  -0.00080   0.00000  -0.01891  -0.01731  -0.83379
   X38       -3.17848   0.00053   0.00000   0.00232   0.00227  -3.17621
   Y38       -4.55346  -0.00135   0.00000   0.00049   0.00069  -4.55277
   Z38        1.22298  -0.00055   0.00000   0.00814   0.00792   1.23090
   X39       -3.89358   0.00043   0.00000   0.03423   0.03297  -3.86061
   Y39        2.06674   0.00020   0.00000   0.01361   0.01428   2.08102
   Z39        5.54555  -0.00003   0.00000   0.00003  -0.00112   5.54443
   X40        0.09409   0.00034   0.00000   0.04655   0.04569   0.13978
   Y40        2.40046  -0.00021   0.00000  -0.03433  -0.03413   2.36633
   Z40        4.63803   0.00030   0.00000   0.03688   0.03741   4.67544
   X41       -6.08233  -0.00052   0.00000   0.00274   0.00182  -6.08051
   Y41       -1.63938   0.00021   0.00000   0.04272   0.04346  -1.59592
   Z41        3.95756  -0.00002   0.00000  -0.02942  -0.03116   3.92640
   X42       -0.60849  -0.00110   0.00000  -0.01255  -0.01167  -0.62017
   Y42       -8.08375   0.00115   0.00000   0.00649   0.00615  -8.07760
   Z42       -1.73326   0.00110   0.00000  -0.01074  -0.00952  -1.74278
   X43        2.74860  -0.00045   0.00000  -0.01623  -0.01535   2.73325
   Y43       -5.80200   0.00036   0.00000   0.01815   0.01753  -5.78447
   Z43       -1.18652  -0.00036   0.00000  -0.04356  -0.04113  -1.22765
   X44       -4.48974   0.00040   0.00000  -0.00051  -0.00036  -4.49010
   Y44       -6.62920   0.00099   0.00000   0.00096   0.00119  -6.62801
   Z44        0.27746   0.00080   0.00000   0.01501   0.01444   0.29189
   X45       -6.08482   0.00020   0.00000   0.01696   0.01566  -6.06916
   Y45        0.60565   0.00013   0.00000   0.04324   0.04411   0.64976
   Z45        5.34004  -0.00035   0.00000  -0.02972  -0.03168   5.30836
   X46       -3.93656   0.00027   0.00000   0.04699   0.04543  -3.89114
   Y46        3.80611  -0.00002   0.00000   0.01012   0.01090   3.81701
   Z46        6.63194   0.00000   0.00000   0.00577   0.00444   6.63638
   X47       -7.78043   0.00019   0.00000  -0.01130  -0.01226  -7.79269
   Y47       -2.78759   0.00056   0.00000   0.06788   0.06877  -2.71882
   Z47        3.83140  -0.00046   0.00000  -0.05340  -0.05577   3.77563
   X48       -3.19750   0.00126   0.00000  -0.00493  -0.00432  -3.20182
   Y48       -8.37553  -0.00041   0.00000  -0.00143  -0.00147  -8.37700
   Z48       -1.20476  -0.00033   0.00000   0.01177   0.01191  -1.19285
   X49        0.35383   0.00029   0.00000  -0.01924  -0.01801   0.33582
   Y49       -9.50071  -0.00033   0.00000   0.01384   0.01330  -9.48742
   Z49       -2.85657  -0.00076   0.00000  -0.02983  -0.02806  -2.88463
   X50       -6.48404  -0.00029   0.00000  -0.00135  -0.00141  -6.48545
   Y50       -6.88085  -0.00002   0.00000   0.00308   0.00355  -6.87730
   Z50        0.68723  -0.00020   0.00000   0.01544   0.01403   0.70126
   X51       -7.80043   0.00006   0.00000   0.01360   0.01197  -7.78847
   Y51        1.21028   0.00030   0.00000   0.06637   0.06749   1.27777
   Z51        6.28622  -0.00024   0.00000  -0.05066  -0.05341   6.23281
   X52       -4.19442  -0.00008   0.00000  -0.00719  -0.00642  -4.20084
   Y52      -10.00290  -0.00011   0.00000  -0.00418  -0.00419 -10.00709
   Z52       -1.95520   0.00016   0.00000   0.02022   0.02009  -1.93511
   X53        0.26195   0.00137   0.00000   0.00473   0.00650   0.26845
   Y53        2.03018  -0.00104   0.00000   0.00375   0.00334   2.03352
   Z53       -1.51838  -0.00014   0.00000  -0.01407  -0.01345  -1.53183
   X54        0.32110   0.00132   0.00000   0.00705   0.00703   0.32813
   Y54       -2.07184   0.00055   0.00000  -0.00545  -0.00555  -2.07739
   Z54        1.72393   0.00007   0.00000   0.00084   0.00189   1.72582
         Item               Value     Threshold  Converged?
 Maximum Force            0.009315     0.000450     NO 
 RMS     Force            0.001533     0.000300     NO 
 Maximum Displacement     0.090242     0.001800     NO 
 RMS     Displacement     0.023554     0.001200     NO 
 Predicted change in Energy=-5.622575D-04
 GradGradGradGradGradGradGradGradGradGradGradGradGradGradGradGradGradGrad

 Unable to Open any file for archive entry.
 1\1\GINC-X10P1N1\Force\RM062X TD-FC\6-31G(d)\C32H18N4\MAYUMIAO\13-Jul-
 2024\0\\# 6-31g(d) m062x g09default scf=(xqc,maxcycle=64) force guess=
 read td nosymm\\Title Card\\0,1\C,1.40789154,0.49649825,-0.47981649\C,
 1.42515201,-0.50162046,0.55879955\C,2.63517187,-0.97517987,1.01746165\
 C,3.84583637,-0.49518595,0.49806113\C,3.81781013,0.49227655,-0.5760662
 6\C,2.58372705,0.97780402,-1.01571298\H,2.65573013,-1.7439674,1.787273
 93\H,2.55385554,1.74415609,-1.78649904\C,4.99779126,0.96345785,-1.2020
 0954\N,5.94833289,1.36878836,-1.74570153\C,5.06831538,-0.97637807,1.02
 770304\N,6.06626957,-1.38244922,1.47415566\C,-0.32697731,2.24917034,-0
 .27402846\C,-0.87776266,0.46955788,-1.52593841\C,0.37055146,3.16681967
 ,0.52315382\C,-1.68661892,2.43238062,-0.64380894\C,-0.834541,-0.728138
 41,-2.23519636\C,-2.03845345,1.27617237,-1.46040906\C,-0.32783253,4.28
 479674,0.95671177\H,1.41541718,3.00468673,0.76541522\C,-2.35602306,3.5
 6312594,-0.20605816\C,-2.00801273,-1.1276535,-2.88203761\H,0.07821618,
 -1.30898252,-2.29394088\C,-3.17661069,0.8793407,-2.13957018\C,-1.66848
 576,4.48219683,0.59643914\H,0.17558366,5.02224485,1.5713077\H,-3.39050
 727,3.74307058,-0.47857633\C,-3.15454125,-0.33692187,-2.8442047\H,-2.0
 1478162,-2.06377037,-3.42933074\H,-4.07044386,1.4951075,-2.13891154\H,
 -2.18143722,5.3750669,0.93780186\H,-4.04347041,-0.65734332,-3.37604918
 \C,-0.8769058,-0.48350427,1.5978507\C,-0.30308608,-2.26025961,0.346329
 52\C,-0.86411937,0.69873971,2.3349172\C,-2.04527923,-1.26645198,1.4627
 1527\C,0.39369719,-3.19341646,-0.43206578\C,-1.68197919,-2.40958647,0.
 64717291\C,-2.0603919,1.09366996,2.93458037\H,0.04979053,1.27027107,2.
 45433982\C,-3.21863072,-0.86752158,2.09425095\C,-0.32200085,-4.2777386
 ,-0.91720204\H,1.45449557,-3.0702868,-0.62788172\C,-2.37586544,-3.5080
 2268,0.14682394\C,-3.21994695,0.3204986,2.82582827\H,-2.08313994,2.014
 109,3.50947153\H,-4.11722415,-1.47512973,2.0274885\C,-1.69204642,-4.43
 213804,-0.63752967\H,0.18723919,-5.02755974,-1.51162948\H,-3.43120541,
 -3.64118972,0.36366618\H,-4.12781231,0.64045188,3.32652676\H,-2.219591
 7,-5.29330498,-1.03464842\N,0.13861857,1.0743263,-0.80349472\N,0.16992
 088,-1.09637067,0.91226383\\Version=ES64L-G16RevC.01\HF=-1448.688421\R
 MSD=7.333e-09\RMSF=1.533e-03\Dipole=-7.3288751,0.616289,-0.2710295\PG=
 C01 [X(C32H18N4)]\\@
 The archive entry for this job was punched.


 A MAN THINKING OR WORKING IS ALWAYS ALONE, 
 LET HIM BE WHERE HE WILL.

                                    -- THOREAU
 Job cpu time:       0 days  4 hours 13 minutes 47.2 seconds.
 Elapsed time:       0 days  0 hours  9 minutes  8.8 seconds.
 File lengths (MBytes):  RWF=   1633 Int=      0 D2E=      0 Chk=     65 Scr=      1
 Normal termination of Gaussian 16 at Sat Jul 13 22:21:18 2024.
