 Entering Gaussian System, Link 0=g16
 Input=JOBS/8_B.gjf
 Output=JOBS/8_B.log
 Initial command:
 /data/app/gaussian/C01-avx2//g16/l1.exe "/tmp/Gau-1305815.inp" -scrdir="/tmp/"
 Entering Link 1 = /data/app/gaussian/C01-avx2//g16/l1.exe PID=   1305816.
  
 Copyright (c) 1988-2019, Gaussian, Inc.  All Rights Reserved.
  
 This is part of the Gaussian(R) 16 program.  It is based on
 the Gaussian(R) 09 system (copyright 2009, Gaussian, Inc.),
 the Gaussian(R) 03 system (copyright 2003, Gaussian, Inc.),
 the Gaussian(R) 98 system (copyright 1998, Gaussian, Inc.),
 the Gaussian(R) 94 system (copyright 1995, Gaussian, Inc.),
 the Gaussian 92(TM) system (copyright 1992, Gaussian, Inc.),
 the Gaussian 90(TM) system (copyright 1990, Gaussian, Inc.),
 the Gaussian 88(TM) system (copyright 1988, Gaussian, Inc.),
 the Gaussian 86(TM) system (copyright 1986, Carnegie Mellon
 University), and the Gaussian 82(TM) system (copyright 1983,
 Carnegie Mellon University). Gaussian is a federally registered
 trademark of Gaussian, Inc.
  
 This software contains proprietary and confidential information,
 including trade secrets, belonging to Gaussian, Inc.
  
 This software is provided under written license and may be
 used, copied, transmitted, or stored only in accord with that
 written license.
  
 The following legend is applicable only to US Government
 contracts under FAR:
  
                    RESTRICTED RIGHTS LEGEND
  
 Use, reproduction and disclosure by the US Government is
 subject to restrictions as set forth in subparagraphs (a)
 and (c) of the Commercial Computer Software - Restricted
 Rights clause in FAR 52.227-19.
  
 Gaussian, Inc.
 340 Quinnipiac St., Bldg. 40, Wallingford CT 06492
  
  
 ---------------------------------------------------------------
 Warning -- This program may not be used in any manner that
 competes with the business of Gaussian, Inc. or will provide
 assistance to any competitor of Gaussian, Inc.  The licensee
 of this program is prohibited from giving any competitor of
 Gaussian, Inc. access to this program.  By using this program,
 the user acknowledges that Gaussian, Inc. is engaged in the
 business of creating and licensing software in the field of
 computational chemistry and represents and warrants to the
 licensee that it is not a competitor of Gaussian, Inc. and that
 it will not use this program in any manner prohibited above.
 ---------------------------------------------------------------
  

 Cite this work as:
 Gaussian 16, Revision C.01,
 M. J. Frisch, G. W. Trucks, H. B. Schlegel, G. E. Scuseria, 
 M. A. Robb, J. R. Cheeseman, G. Scalmani, V. Barone, 
 G. A. Petersson, H. Nakatsuji, X. Li, M. Caricato, A. V. Marenich, 
 J. Bloino, B. G. Janesko, R. Gomperts, B. Mennucci, H. P. Hratchian, 
 J. V. Ortiz, A. F. Izmaylov, J. L. Sonnenberg, D. Williams-Young, 
 F. Ding, F. Lipparini, F. Egidi, J. Goings, B. Peng, A. Petrone, 
 T. Henderson, D. Ranasinghe, V. G. Zakrzewski, J. Gao, N. Rega, 
 G. Zheng, W. Liang, M. Hada, M. Ehara, K. Toyota, R. Fukuda, 
 J. Hasegawa, M. Ishida, T. Nakajima, Y. Honda, O. Kitao, H. Nakai, 
 T. Vreven, K. Throssell, J. A. Montgomery, Jr., J. E. Peralta, 
 F. Ogliaro, M. J. Bearpark, J. J. Heyd, E. N. Brothers, K. N. Kudin, 
 V. N. Staroverov, T. A. Keith, R. Kobayashi, J. Normand, 
 K. Raghavachari, A. P. Rendell, J. C. Burant, S. S. Iyengar, 
 J. Tomasi, M. Cossi, J. M. Millam, M. Klene, C. Adamo, R. Cammi, 
 J. W. Ochterski, R. L. Martin, K. Morokuma, O. Farkas, 
 J. B. Foresman, and D. J. Fox, Gaussian, Inc., Wallingford CT, 2019.
 
 ******************************************
 Gaussian 16:  ES64L-G16RevC.01  3-Jul-2019
                13-Jul-2024 
 ******************************************
 %chk=b.chk
 %nprocshared=28
 Will use up to   28 processors via shared memory.
 %mem=48gb
 ----------------------------------------------------------------------
 # 6-31g(d) m062x g09default scf=(xqc,maxcycle=64) force guess=read nos
 ymm
 ----------------------------------------------------------------------
 1/10=7,30=1,38=1,158=3,167=1/1,3;
 2/12=2,15=1,17=6,18=5,40=1/2;
 3/5=1,6=6,7=1,11=2,25=1,27=10,30=1,71=1,74=-55,75=-4,116=-2,158=3/1,2,3;
 4/5=1,60=-1/1;
 5/5=2,7=64,8=3,13=1,38=6,87=10/2,8;
 6/7=2,8=2,9=2,10=2,28=1,87=10/1;
 7/29=1,30=1,87=10/1,2,3,16;
 1/10=7,30=1,158=3,167=1/3;
 99//99;
 Using 2006 physical constants.
 ----------
 Title Card
 ----------
 Symbolic Z-matrix:
 Charge =  0 Multiplicity = 3
 6                     1.40871   0.49352  -0.48004 
 6                     1.42476  -0.50116   0.55907 
 6                     2.63541  -0.97406   1.01869 
 6                     3.84567  -0.49399   0.49657 
 6                     3.81597   0.4911   -0.57321 
 6                     2.58406   0.97528  -1.01684 
 1                     2.65315  -1.744     1.78802 
 1                     2.55544   1.73998  -1.79049 
 6                     4.99858   0.96559  -1.20042 
 7                     5.9476    1.36824  -1.73927 
 6                     5.06901  -0.97735   1.02735 
 7                     6.06384  -1.38403   1.47217 
 6                    -0.32559   2.24968  -0.28037 
 6                    -0.87705   0.47289  -1.52923 
 6                     0.37133   3.16948   0.52165 
 6                    -1.68662   2.43725  -0.6504 
 6                    -0.83296  -0.72707  -2.23687 
 6                    -2.03944   1.27781  -1.46271 
 6                    -0.32823   4.28613   0.95396 
 1                     1.41147   2.99943   0.77404 
 6                    -2.35596   3.56229  -0.20903 
 6                    -2.00838  -1.12628  -2.88418 
 1                     0.08108  -1.30554  -2.29745 
 6                    -3.17758   0.87869  -2.13589 
 6                    -1.66868   4.48294   0.59525 
 1                     0.17352   5.02427   1.57052 
 1                    -3.39297   3.73853  -0.47586 
 6                    -3.15331  -0.33763  -2.8431 
 1                    -2.01677  -2.06363  -3.43027 
 1                    -4.07582   1.48933  -2.12959 
 1                    -2.18441   5.37372   0.94036 
 1                    -4.04382  -0.65759  -3.37442 
 6                    -0.87407  -0.48652   1.60171 
 6                    -0.30244  -2.26031   0.35211 
 6                    -0.86168   0.69768   2.33626 
 6                    -2.04384  -1.26664   1.46299 
 6                     0.39415  -3.19544  -0.43164 
 6                    -1.68184  -2.41221   0.65082 
 6                    -2.0583    1.09492   2.93409 
 1                     0.05353   1.26803   2.45698 
 6                    -3.2192   -0.86383   2.0912 
 6                    -0.32227  -4.27718  -0.91649 
 1                     1.45202  -3.06414  -0.63334 
 6                    -2.37514  -3.50855   0.14782 
 6                    -3.21945   0.32317   2.82288 
 1                    -2.08009   2.01494   3.51032 
 1                    -4.11675  -1.47165   2.02261 
 6                    -1.69177  -4.43351  -0.63661 
 1                     0.18619  -5.02625  -1.51497 
 1                    -3.43124  -3.64108   0.36121 
 1                    -4.12659   0.64254   3.32494 
 1                    -2.2203   -5.29501  -1.03253 
 7                     0.13825   1.07644  -0.80567 
 7                     0.1725   -1.10051   0.91751 
 

 GradGradGradGradGradGradGradGradGradGradGradGradGradGradGradGradGradGrad
 Berny optimization.
 Initialization pass.
 Trust Radius=3.00D-01 FncErr=1.00D-07 GrdErr=1.00D-07 EigMax=2.50D+02 EigMin=1.00D-04
 Number of steps in this run=      2 maximum allowed number of steps=      2.
 GradGradGradGradGradGradGradGradGradGradGradGradGradGradGradGradGradGrad

 Symmetry turned off by external request.
 Stoichiometry    C32H18N4(3)
 Framework group  C1[X(C32H18N4)]
 Deg. of freedom   156
 Full point group                 C1      NOp   1
                          Input orientation:                          
 ---------------------------------------------------------------------
 Center     Atomic      Atomic             Coordinates (Angstroms)
 Number     Number       Type             X           Y           Z
 ---------------------------------------------------------------------
      1          6           0        1.408706    0.493517   -0.480043
      2          6           0        1.424765   -0.501160    0.559071
      3          6           0        2.635413   -0.974065    1.018685
      4          6           0        3.845671   -0.493993    0.496573
      5          6           0        3.815969    0.491096   -0.573214
      6          6           0        2.584055    0.975280   -1.016844
      7          1           0        2.653150   -1.743998    1.788020
      8          1           0        2.555443    1.739984   -1.790489
      9          6           0        4.998582    0.965588   -1.200425
     10          7           0        5.947599    1.368244   -1.739266
     11          6           0        5.069014   -0.977350    1.027353
     12          7           0        6.063840   -1.384035    1.472171
     13          6           0       -0.325591    2.249682   -0.280365
     14          6           0       -0.877048    0.472888   -1.529234
     15          6           0        0.371331    3.169480    0.521646
     16          6           0       -1.686624    2.437250   -0.650398
     17          6           0       -0.832962   -0.727065   -2.236869
     18          6           0       -2.039441    1.277806   -1.462712
     19          6           0       -0.328232    4.286131    0.953962
     20          1           0        1.411469    2.999429    0.774037
     21          6           0       -2.355963    3.562286   -0.209035
     22          6           0       -2.008376   -1.126282   -2.884181
     23          1           0        0.081085   -1.305544   -2.297445
     24          6           0       -3.177577    0.878694   -2.135891
     25          6           0       -1.668684    4.482940    0.595247
     26          1           0        0.173523    5.024275    1.570517
     27          1           0       -3.392968    3.738530   -0.475857
     28          6           0       -3.153308   -0.337625   -2.843101
     29          1           0       -2.016767   -2.063629   -3.430267
     30          1           0       -4.075818    1.489327   -2.129588
     31          1           0       -2.184414    5.373723    0.940362
     32          1           0       -4.043822   -0.657595   -3.374422
     33          6           0       -0.874066   -0.486520    1.601712
     34          6           0       -0.302440   -2.260307    0.352106
     35          6           0       -0.861681    0.697676    2.336263
     36          6           0       -2.043837   -1.266638    1.462988
     37          6           0        0.394149   -3.195439   -0.431641
     38          6           0       -1.681843   -2.412207    0.650815
     39          6           0       -2.058303    1.094921    2.934092
     40          1           0        0.053525    1.268030    2.456978
     41          6           0       -3.219196   -0.863829    2.091198
     42          6           0       -0.322274   -4.277182   -0.916485
     43          1           0        1.452024   -3.064141   -0.633339
     44          6           0       -2.375139   -3.508547    0.147816
     45          6           0       -3.219446    0.323165    2.822877
     46          1           0       -2.080093    2.014937    3.510320
     47          1           0       -4.116753   -1.471649    2.022609
     48          6           0       -1.691768   -4.433505   -0.636608
     49          1           0        0.186189   -5.026246   -1.514965
     50          1           0       -3.431237   -3.641077    0.361211
     51          1           0       -4.126594    0.642539    3.324939
     52          1           0       -2.220304   -5.295008   -1.032534
     53          7           0        0.138254    1.076444   -0.805668
     54          7           0        0.172502   -1.100514    0.917512
 ---------------------------------------------------------------------
 Rotational constants (GHZ):           0.1588466           0.1164302           0.0924709
 Standard basis: 6-31G(d) (6D, 7F)
   576 basis functions,  1080 primitive gaussians,   576 cartesian basis functions
   120 alpha electrons      118 beta electrons
       nuclear repulsion energy      3658.5389401850 Hartrees.
 NAtoms=   54 NActive=   54 NUniq=   54 SFac= 1.00D+00 NAtFMM=   60 NAOKFM=F Big=F
 Integral buffers will be    131072 words long.
 Raffenetti 2 integral format.
 Two-electron integral symmetry is turned off.
 One-electron integrals computed using PRISM.
 NBasis=   576 RedAO= T EigKep=  2.60D-04  NBF=   576
 NBsUse=   576 1.00D-06 EigRej= -1.00D+00 NBFU=   576
 Initial guess from the checkpoint file:  "b.chk"
 B after Tr=     0.000511    0.000196   -0.000110
         Rot=    1.000000    0.000124    0.000055    0.000032 Ang=   0.02 deg.
 Initial guess <Sx>= 0.0000 <Sy>= 0.0000 <Sz>= 1.0000 <S**2>= 2.0300 S= 1.0100
 Requested convergence on RMS density matrix=1.00D-08 within  64 cycles.
 Requested convergence on MAX density matrix=1.00D-06.
 Requested convergence on             energy=1.00D-06.
 No special actions if energy rises.
 Restarting incremental Fock formation.
 SCF Done:  E(UM062X) =  -1448.58167409     A.U. after   21 cycles
            NFock= 21  Conv=0.84D-08     -V/T= 2.0086
 <Sx>= 0.0000 <Sy>= 0.0000 <Sz>= 1.0000 <S**2>= 2.0293 S= 1.0097
 <L.S>=  0.00000000000    
 Annihilation of the first spin contaminant:
 S**2 before annihilation     2.0293,   after     2.0006
 QCSCF skips out because SCF is already converged.

 **********************************************************************

            Population analysis using the SCF Density.

 **********************************************************************

 Alpha  occ. eigenvalues --  -14.86534 -14.84888 -14.72979 -14.72921 -10.62482
 Alpha  occ. eigenvalues --  -10.62117 -10.61556 -10.61247 -10.60172 -10.60118
 Alpha  occ. eigenvalues --  -10.59417 -10.59187 -10.59057 -10.59036 -10.58989
 Alpha  occ. eigenvalues --  -10.58907 -10.58834 -10.58494 -10.58354 -10.58292
 Alpha  occ. eigenvalues --  -10.58263 -10.58058 -10.58053 -10.58034 -10.57989
 Alpha  occ. eigenvalues --  -10.57828 -10.57705 -10.57652 -10.57635 -10.57596
 Alpha  occ. eigenvalues --  -10.57482 -10.57379 -10.57334 -10.57232 -10.55548
 Alpha  occ. eigenvalues --  -10.55463  -1.15797  -1.13457  -1.00699  -0.98822
 Alpha  occ. eigenvalues --   -0.98767  -0.98185  -0.97745  -0.97581  -0.95742
 Alpha  occ. eigenvalues --   -0.91832  -0.91008  -0.88539  -0.88183  -0.87637
 Alpha  occ. eigenvalues --   -0.87440  -0.84965  -0.84561  -0.83800  -0.83137
 Alpha  occ. eigenvalues --   -0.77711  -0.76160  -0.73831  -0.73285  -0.72672
 Alpha  occ. eigenvalues --   -0.71614  -0.69583  -0.69305  -0.68961  -0.68219
 Alpha  occ. eigenvalues --   -0.65091  -0.64098  -0.62793  -0.61858  -0.61750
 Alpha  occ. eigenvalues --   -0.60695  -0.59430  -0.58684  -0.56182  -0.55990
 Alpha  occ. eigenvalues --   -0.55084  -0.55068  -0.54347  -0.54013  -0.53367
 Alpha  occ. eigenvalues --   -0.53153  -0.53026  -0.52562  -0.52217  -0.51803
 Alpha  occ. eigenvalues --   -0.51489  -0.51201  -0.50750  -0.49116  -0.47375
 Alpha  occ. eigenvalues --   -0.46665  -0.46409  -0.45962  -0.45693  -0.45212
 Alpha  occ. eigenvalues --   -0.44971  -0.44671  -0.43581  -0.43018  -0.42590
 Alpha  occ. eigenvalues --   -0.42479  -0.41885  -0.41631  -0.40546  -0.40423
 Alpha  occ. eigenvalues --   -0.40400  -0.39542  -0.37462  -0.36567  -0.36506
 Alpha  occ. eigenvalues --   -0.36401  -0.34616  -0.33167  -0.32944  -0.30890
 Alpha  occ. eigenvalues --   -0.30104  -0.29230  -0.28639  -0.27683  -0.15165
 Alpha virt. eigenvalues --   -0.03281  -0.02466  -0.00099   0.00260   0.01306
 Alpha virt. eigenvalues --    0.02770   0.03483   0.04751   0.05533   0.09145
 Alpha virt. eigenvalues --    0.10437   0.11429   0.11573   0.12062   0.12213
 Alpha virt. eigenvalues --    0.12982   0.13953   0.14562   0.15596   0.16002
 Alpha virt. eigenvalues --    0.16491   0.17315   0.17399   0.17659   0.17902
 Alpha virt. eigenvalues --    0.18100   0.18519   0.18581   0.20245   0.21322
 Alpha virt. eigenvalues --    0.21609   0.21952   0.22117   0.22376   0.22646
 Alpha virt. eigenvalues --    0.23009   0.23741   0.24698   0.25536   0.26169
 Alpha virt. eigenvalues --    0.26467   0.26871   0.27420   0.27451   0.27921
 Alpha virt. eigenvalues --    0.28109   0.29705   0.30186   0.30690   0.31178
 Alpha virt. eigenvalues --    0.31853   0.33968   0.34280   0.34908   0.35592
 Alpha virt. eigenvalues --    0.36003   0.36280   0.36778   0.38061   0.39918
 Alpha virt. eigenvalues --    0.40798   0.40997   0.42255   0.43245   0.43555
 Alpha virt. eigenvalues --    0.44458   0.44586   0.45787   0.46221   0.46699
 Alpha virt. eigenvalues --    0.47481   0.48776   0.49704   0.51074   0.51499
 Alpha virt. eigenvalues --    0.53572   0.54139   0.54509   0.55026   0.55441
 Alpha virt. eigenvalues --    0.55506   0.55793   0.56324   0.56533   0.57343
 Alpha virt. eigenvalues --    0.57721   0.57999   0.58365   0.58481   0.59253
 Alpha virt. eigenvalues --    0.59643   0.59827   0.59973   0.60681   0.60829
 Alpha virt. eigenvalues --    0.61248   0.61668   0.61944   0.62166   0.62358
 Alpha virt. eigenvalues --    0.62656   0.62871   0.62994   0.63052   0.63736
 Alpha virt. eigenvalues --    0.63867   0.64159   0.64292   0.65151   0.65345
 Alpha virt. eigenvalues --    0.65530   0.65792   0.65873   0.66178   0.66627
 Alpha virt. eigenvalues --    0.67325   0.67363   0.67898   0.68463   0.68673
 Alpha virt. eigenvalues --    0.70616   0.71680   0.72453   0.72864   0.74191
 Alpha virt. eigenvalues --    0.74247   0.74525   0.75587   0.75997   0.76994
 Alpha virt. eigenvalues --    0.77290   0.77992   0.79860   0.80055   0.80492
 Alpha virt. eigenvalues --    0.81314   0.82098   0.83291   0.83566   0.84279
 Alpha virt. eigenvalues --    0.84557   0.85374   0.86470   0.86758   0.86806
 Alpha virt. eigenvalues --    0.86951   0.87356   0.87899   0.88119   0.88395
 Alpha virt. eigenvalues --    0.88539   0.89143   0.89221   0.89349   0.89851
 Alpha virt. eigenvalues --    0.90312   0.90595   0.90676   0.91374   0.92178
 Alpha virt. eigenvalues --    0.92644   0.92766   0.93232   0.93597   0.93928
 Alpha virt. eigenvalues --    0.94710   0.95240   0.95507   0.96183   0.96744
 Alpha virt. eigenvalues --    0.97141   0.97952   0.98430   0.99866   1.00075
 Alpha virt. eigenvalues --    1.00840   1.01014   1.01672   1.02514   1.02928
 Alpha virt. eigenvalues --    1.03239   1.03741   1.04387   1.05108   1.06874
 Alpha virt. eigenvalues --    1.07151   1.07809   1.07837   1.08521   1.09822
 Alpha virt. eigenvalues --    1.11776   1.13270   1.14173   1.16042   1.16992
 Alpha virt. eigenvalues --    1.17352   1.17750   1.18901   1.19370   1.19447
 Alpha virt. eigenvalues --    1.20042   1.21159   1.21670   1.23082   1.23398
 Alpha virt. eigenvalues --    1.24408   1.24905   1.25977   1.27427   1.28351
 Alpha virt. eigenvalues --    1.28816   1.29157   1.30090   1.30283   1.30847
 Alpha virt. eigenvalues --    1.32486   1.33103   1.33566   1.34199   1.35334
 Alpha virt. eigenvalues --    1.36516   1.37834   1.38350   1.38518   1.40564
 Alpha virt. eigenvalues --    1.41088   1.41469   1.42162   1.43781   1.44426
 Alpha virt. eigenvalues --    1.44724   1.45751   1.46494   1.47123   1.47560
 Alpha virt. eigenvalues --    1.48132   1.48644   1.48939   1.50065   1.50452
 Alpha virt. eigenvalues --    1.50741   1.51341   1.51579   1.51704   1.51998
 Alpha virt. eigenvalues --    1.52710   1.53090   1.54932   1.57090   1.58672
 Alpha virt. eigenvalues --    1.59520   1.59982   1.60219   1.61266   1.61802
 Alpha virt. eigenvalues --    1.62711   1.62784   1.64297   1.66367   1.67873
 Alpha virt. eigenvalues --    1.68041   1.72692   1.73282   1.74343   1.75689
 Alpha virt. eigenvalues --    1.77313   1.77706   1.78630   1.78818   1.79210
 Alpha virt. eigenvalues --    1.80149   1.80869   1.81340   1.82602   1.83796
 Alpha virt. eigenvalues --    1.84002   1.85278   1.85816   1.86565   1.87055
 Alpha virt. eigenvalues --    1.87489   1.88785   1.88908   1.89220   1.91203
 Alpha virt. eigenvalues --    1.91338   1.92220   1.93083   1.94137   1.94821
 Alpha virt. eigenvalues --    1.95548   1.96293   1.96860   1.97809   1.98352
 Alpha virt. eigenvalues --    1.98473   1.99507   2.00071   2.00458   2.01098
 Alpha virt. eigenvalues --    2.01832   2.02083   2.02336   2.04128   2.04482
 Alpha virt. eigenvalues --    2.04858   2.05008   2.06279   2.07126   2.08467
 Alpha virt. eigenvalues --    2.09214   2.09221   2.10312   2.10735   2.10937
 Alpha virt. eigenvalues --    2.11302   2.12324   2.12970   2.13948   2.14633
 Alpha virt. eigenvalues --    2.14908   2.15717   2.16068   2.18113   2.18405
 Alpha virt. eigenvalues --    2.19090   2.20497   2.21015   2.21259   2.21584
 Alpha virt. eigenvalues --    2.21935   2.22437   2.23773   2.24803   2.25567
 Alpha virt. eigenvalues --    2.26246   2.26606   2.27130   2.27730   2.28530
 Alpha virt. eigenvalues --    2.28957   2.29591   2.30016   2.30638   2.31342
 Alpha virt. eigenvalues --    2.32403   2.33565   2.34898   2.35929   2.38429
 Alpha virt. eigenvalues --    2.39186   2.41652   2.42573   2.43343   2.47652
 Alpha virt. eigenvalues --    2.48517   2.49165   2.50202   2.52920   2.53895
 Alpha virt. eigenvalues --    2.54258   2.54835   2.56184   2.56413   2.57995
 Alpha virt. eigenvalues --    2.59275   2.59658   2.61955   2.63411   2.63865
 Alpha virt. eigenvalues --    2.64177   2.66024   2.66072   2.66756   2.68003
 Alpha virt. eigenvalues --    2.68363   2.68651   2.69245   2.69389   2.69829
 Alpha virt. eigenvalues --    2.70193   2.71071   2.72411   2.72462   2.73410
 Alpha virt. eigenvalues --    2.76568   2.77863   2.79419   2.81320   2.81926
 Alpha virt. eigenvalues --    2.82710   2.83180   2.83799   2.83957   2.86340
 Alpha virt. eigenvalues --    2.87354   2.89388   2.90605   2.91921   2.93613
 Alpha virt. eigenvalues --    2.94029   2.96164   2.97988   2.98360   2.98805
 Alpha virt. eigenvalues --    3.03416   3.06929   3.08310   3.22544   3.22753
 Alpha virt. eigenvalues --    3.26950   3.29243   3.30205   3.30708   3.31724
 Alpha virt. eigenvalues --    3.36322   3.38377   3.49465   3.50597   3.54077
 Alpha virt. eigenvalues --    4.05165   4.05842   4.07349   4.09364   4.10218
 Alpha virt. eigenvalues --    4.11148   4.11823   4.13942   4.14829   4.16379
 Alpha virt. eigenvalues --    4.16504   4.17015   4.21165   4.23890   4.25527
 Alpha virt. eigenvalues --    4.26124   4.27766   4.30287   4.32486   4.33278
 Alpha virt. eigenvalues --    4.37531   4.39499   4.42786   4.45010   4.46195
 Alpha virt. eigenvalues --    4.48648   4.49066   4.50402   4.58959   4.65207
 Alpha virt. eigenvalues --    4.70363   4.74784   4.76507   4.84210   4.88978
 Alpha virt. eigenvalues --    4.96735
  Beta  occ. eigenvalues --  -14.86210 -14.84680 -14.72794 -14.72724 -10.62498
  Beta  occ. eigenvalues --  -10.62138 -10.61554 -10.61255 -10.59940 -10.59881
  Beta  occ. eigenvalues --  -10.59363 -10.59114 -10.59022 -10.59007 -10.58988
  Beta  occ. eigenvalues --  -10.58898 -10.58762 -10.58528 -10.58335 -10.58257
  Beta  occ. eigenvalues --  -10.58249 -10.58019 -10.58013 -10.58011 -10.58005
  Beta  occ. eigenvalues --  -10.57828 -10.57737 -10.57705 -10.57607 -10.57600
  Beta  occ. eigenvalues --  -10.57566 -10.57214 -10.57132 -10.57077 -10.55616
  Beta  occ. eigenvalues --  -10.55536  -1.14930  -1.12778  -1.00227  -0.98630
  Beta  occ. eigenvalues --   -0.98306  -0.97844  -0.97627  -0.97011  -0.95247
  Beta  occ. eigenvalues --   -0.91534  -0.90747  -0.88295  -0.87686  -0.87301
  Beta  occ. eigenvalues --   -0.87210  -0.84888  -0.84135  -0.83714  -0.82567
  Beta  occ. eigenvalues --   -0.77211  -0.75893  -0.73427  -0.72955  -0.72349
  Beta  occ. eigenvalues --   -0.71388  -0.69239  -0.69128  -0.68644  -0.68105
  Beta  occ. eigenvalues --   -0.64694  -0.63785  -0.62556  -0.61599  -0.61560
  Beta  occ. eigenvalues --   -0.60482  -0.58343  -0.58234  -0.55983  -0.55784
  Beta  occ. eigenvalues --   -0.54913  -0.54882  -0.53835  -0.53814  -0.52960
  Beta  occ. eigenvalues --   -0.52732  -0.52617  -0.52194  -0.52066  -0.51670
  Beta  occ. eigenvalues --   -0.51341  -0.51098  -0.50640  -0.48646  -0.46354
  Beta  occ. eigenvalues --   -0.46087  -0.45881  -0.45599  -0.45337  -0.44967
  Beta  occ. eigenvalues --   -0.44671  -0.44273  -0.43425  -0.42479  -0.42393
  Beta  occ. eigenvalues --   -0.41830  -0.41354  -0.40885  -0.39924  -0.39769
  Beta  occ. eigenvalues --   -0.38731  -0.37624  -0.36900  -0.36243  -0.36133
  Beta  occ. eigenvalues --   -0.36058  -0.33594  -0.31921  -0.31433  -0.30021
  Beta  occ. eigenvalues --   -0.28877  -0.27074  -0.26224
  Beta virt. eigenvalues --   -0.18208  -0.02779  -0.02093  -0.01242   0.00460
  Beta virt. eigenvalues --    0.00727   0.01598   0.03859   0.04205   0.05296
  Beta virt. eigenvalues --    0.05870   0.10736   0.11286   0.11531   0.12046
  Beta virt. eigenvalues --    0.12208   0.12295   0.13260   0.14395   0.14722
  Beta virt. eigenvalues --    0.15692   0.16665   0.17352   0.17408   0.17650
  Beta virt. eigenvalues --    0.17883   0.18123   0.18201   0.18627   0.18853
  Beta virt. eigenvalues --    0.20313   0.21540   0.21808   0.22117   0.22283
  Beta virt. eigenvalues --    0.22554   0.22833   0.23140   0.24129   0.25045
  Beta virt. eigenvalues --    0.26166   0.26570   0.26972   0.27358   0.27774
  Beta virt. eigenvalues --    0.28059   0.28167   0.28497   0.29953   0.30480
  Beta virt. eigenvalues --    0.31067   0.31342   0.31962   0.34286   0.34585
  Beta virt. eigenvalues --    0.35328   0.35824   0.36303   0.36737   0.37071
  Beta virt. eigenvalues --    0.38192   0.40076   0.41075   0.41187   0.42694
  Beta virt. eigenvalues --    0.43616   0.43886   0.44722   0.45367   0.46231
  Beta virt. eigenvalues --    0.46882   0.47136   0.47777   0.49032   0.49841
  Beta virt. eigenvalues --    0.51268   0.51777   0.53860   0.54368   0.54713
  Beta virt. eigenvalues --    0.55316   0.55758   0.55904   0.56226   0.56586
  Beta virt. eigenvalues --    0.56902   0.57610   0.57977   0.58217   0.58568
  Beta virt. eigenvalues --    0.58673   0.59454   0.59804   0.60106   0.60382
  Beta virt. eigenvalues --    0.60794   0.60990   0.61465   0.61892   0.62188
  Beta virt. eigenvalues --    0.62304   0.62581   0.62818   0.63071   0.63179
  Beta virt. eigenvalues --    0.63248   0.63939   0.64271   0.64416   0.64609
  Beta virt. eigenvalues --    0.65292   0.65600   0.65869   0.66030   0.66099
  Beta virt. eigenvalues --    0.66428   0.66851   0.67613   0.67880   0.68303
  Beta virt. eigenvalues --    0.68602   0.68948   0.70921   0.72070   0.72591
  Beta virt. eigenvalues --    0.73091   0.74274   0.74490   0.74570   0.75640
  Beta virt. eigenvalues --    0.76398   0.77254   0.77530   0.78711   0.80169
  Beta virt. eigenvalues --    0.80427   0.80767   0.81848   0.82387   0.83616
  Beta virt. eigenvalues --    0.83895   0.84600   0.84765   0.85542   0.86591
  Beta virt. eigenvalues --    0.86941   0.87083   0.87443   0.87786   0.88056
  Beta virt. eigenvalues --    0.88279   0.88642   0.88853   0.89346   0.89447
  Beta virt. eigenvalues --    0.89808   0.90163   0.90402   0.91012   0.91129
  Beta virt. eigenvalues --    0.91665   0.92586   0.92920   0.93051   0.93477
  Beta virt. eigenvalues --    0.93802   0.94301   0.95035   0.95489   0.95827
  Beta virt. eigenvalues --    0.96505   0.97080   0.97415   0.98597   0.98883
  Beta virt. eigenvalues --    1.00275   1.00693   1.01083   1.01462   1.01916
  Beta virt. eigenvalues --    1.02774   1.03257   1.03481   1.04141   1.04760
  Beta virt. eigenvalues --    1.05572   1.07162   1.07340   1.08072   1.08287
  Beta virt. eigenvalues --    1.09167   1.10173   1.12001   1.13564   1.14417
  Beta virt. eigenvalues --    1.16293   1.17199   1.17766   1.18122   1.19494
  Beta virt. eigenvalues --    1.19729   1.19883   1.20255   1.21466   1.21840
  Beta virt. eigenvalues --    1.23326   1.23644   1.24948   1.25555   1.26462
  Beta virt. eigenvalues --    1.27678   1.28773   1.29145   1.29527   1.30582
  Beta virt. eigenvalues --    1.30896   1.31389   1.32953   1.33575   1.34013
  Beta virt. eigenvalues --    1.34599   1.35715   1.36805   1.38296   1.38579
  Beta virt. eigenvalues --    1.40039   1.40792   1.41394   1.41697   1.42670
  Beta virt. eigenvalues --    1.44426   1.44880   1.45195   1.45980   1.46724
  Beta virt. eigenvalues --    1.47460   1.47863   1.48791   1.49016   1.49711
  Beta virt. eigenvalues --    1.50500   1.50662   1.51035   1.51702   1.51967
  Beta virt. eigenvalues --    1.52048   1.52283   1.52947   1.53384   1.55219
  Beta virt. eigenvalues --    1.57513   1.58995   1.59716   1.60366   1.60573
  Beta virt. eigenvalues --    1.61417   1.62090   1.63023   1.63141   1.64709
  Beta virt. eigenvalues --    1.66602   1.68160   1.68556   1.73073   1.73853
  Beta virt. eigenvalues --    1.74752   1.76000   1.77617   1.78342   1.78923
  Beta virt. eigenvalues --    1.79136   1.79558   1.80501   1.81293   1.81759
  Beta virt. eigenvalues --    1.83104   1.84127   1.84233   1.85570   1.86091
  Beta virt. eigenvalues --    1.86813   1.87598   1.87812   1.89176   1.89377
  Beta virt. eigenvalues --    1.89721   1.91484   1.91708   1.92826   1.93469
  Beta virt. eigenvalues --    1.94690   1.95246   1.96117   1.96789   1.97140
  Beta virt. eigenvalues --    1.98126   1.98679   1.98786   1.99872   2.00350
  Beta virt. eigenvalues --    2.00730   2.01519   2.02278   2.02479   2.02783
  Beta virt. eigenvalues --    2.04500   2.04890   2.05157   2.05318   2.06556
  Beta virt. eigenvalues --    2.07517   2.08862   2.09492   2.09549   2.10663
  Beta virt. eigenvalues --    2.11112   2.11490   2.11830   2.12618   2.13821
  Beta virt. eigenvalues --    2.14477   2.14826   2.15376   2.16117   2.16418
  Beta virt. eigenvalues --    2.18473   2.18958   2.19384   2.21138   2.21398
  Beta virt. eigenvalues --    2.21990   2.22039   2.22763   2.22924   2.24521
  Beta virt. eigenvalues --    2.25138   2.25923   2.26632   2.26938   2.27471
  Beta virt. eigenvalues --    2.28201   2.28982   2.29405   2.30113   2.30599
  Beta virt. eigenvalues --    2.31234   2.31975   2.32823   2.34106   2.35418
  Beta virt. eigenvalues --    2.36317   2.38785   2.39780   2.42307   2.43150
  Beta virt. eigenvalues --    2.43835   2.48200   2.49127   2.49714   2.50572
  Beta virt. eigenvalues --    2.54024   2.54190   2.54650   2.55207   2.56743
  Beta virt. eigenvalues --    2.57112   2.58459   2.59808   2.60116   2.62418
  Beta virt. eigenvalues --    2.63757   2.64298   2.64645   2.66447   2.66607
  Beta virt. eigenvalues --    2.67368   2.68409   2.68654   2.69151   2.69622
  Beta virt. eigenvalues --    2.69882   2.70428   2.70606   2.71461   2.72891
  Beta virt. eigenvalues --    2.73721   2.74143   2.77313   2.78484   2.79953
  Beta virt. eigenvalues --    2.82030   2.82642   2.83066   2.83696   2.84147
  Beta virt. eigenvalues --    2.84369   2.86715   2.87937   2.89803   2.91167
  Beta virt. eigenvalues --    2.92912   2.94030   2.94497   2.96821   2.98409
  Beta virt. eigenvalues --    2.98892   2.99212   3.04256   3.07424   3.09216
  Beta virt. eigenvalues --    3.23177   3.23499   3.28078   3.29869   3.30848
  Beta virt. eigenvalues --    3.31543   3.32622   3.36717   3.39225   3.49920
  Beta virt. eigenvalues --    3.50919   3.55879   4.05429   4.06939   4.07658
  Beta virt. eigenvalues --    4.09710   4.10506   4.11429   4.12066   4.14273
  Beta virt. eigenvalues --    4.15132   4.16586   4.17215   4.17500   4.21284
  Beta virt. eigenvalues --    4.24223   4.25698   4.26252   4.28719   4.30466
  Beta virt. eigenvalues --    4.32806   4.33707   4.38210   4.39742   4.43066
  Beta virt. eigenvalues --    4.45344   4.46472   4.49059   4.49556   4.50750
  Beta virt. eigenvalues --    4.59283   4.65234   4.71674   4.75059   4.76677
  Beta virt. eigenvalues --    4.84479   4.89219   4.97985
          Condensed to atoms (all electrons):
          Atomic-Atomic Spin Densities.
 Mulliken charges and spin densities:
               1          2
     1  C    0.151954   0.272160
     2  C    0.177069   0.274114
     3  C   -0.205680  -0.119214
     4  C    0.084266   0.332434
     5  C    0.079190   0.306407
     6  C   -0.191613  -0.113231
     7  H    0.199908   0.003202
     8  H    0.200196   0.002821
     9  C    0.193740  -0.069018
    10  N   -0.491358   0.161386
    11  C    0.190454  -0.074789
    12  N   -0.490791   0.172402
    13  C    0.282178  -0.032195
    14  C    0.272640  -0.032840
    15  C   -0.161100   0.109751
    16  C    0.055777   0.077152
    17  C   -0.152076   0.099326
    18  C    0.054851   0.013626
    19  C   -0.177739  -0.050186
    20  H    0.210393  -0.005414
    21  C   -0.191725  -0.030628
    22  C   -0.166814  -0.022654
    23  H    0.198102  -0.004539
    24  C   -0.191481   0.024777
    25  C   -0.168541   0.120040
    26  H    0.187200   0.001552
    27  H    0.182461   0.000986
    28  C   -0.169731   0.066883
    29  H    0.182079   0.000350
    30  H    0.181410  -0.001565
    31  H    0.181163  -0.006007
    32  H    0.177847  -0.003610
    33  C    0.275130  -0.017195
    34  C    0.277806  -0.012518
    35  C   -0.167517   0.055047
    36  C    0.035833  -0.000181
    37  C   -0.173899   0.067541
    38  C    0.042873   0.060014
    39  C   -0.169019  -0.004523
    40  H    0.185633  -0.002725
    41  C   -0.182319   0.024545
    42  C   -0.179660  -0.032417
    43  H    0.202236  -0.003461
    44  C   -0.184746  -0.025490
    45  C   -0.176683   0.029514
    46  H    0.173790  -0.000183
    47  H    0.175134  -0.001355
    48  C   -0.175980   0.079331
    49  H    0.181051   0.001043
    50  H    0.175904   0.001016
    51  H    0.171340  -0.001684
    52  H    0.174661  -0.003952
    53  N   -0.665138   0.194660
    54  N   -0.680655   0.119497
 Sum of Mulliken charges =  -0.00000   2.00000
 Mulliken charges and spin densities with hydrogens summed into heavy atoms:
               1          2
     1  C    0.151954   0.272160
     2  C    0.177069   0.274114
     3  C   -0.005772  -0.116012
     4  C    0.084266   0.332434
     5  C    0.079190   0.306407
     6  C    0.008583  -0.110410
     9  C    0.193740  -0.069018
    10  N   -0.491358   0.161386
    11  C    0.190454  -0.074789
    12  N   -0.490791   0.172402
    13  C    0.282178  -0.032195
    14  C    0.272640  -0.032840
    15  C    0.049293   0.104338
    16  C    0.055777   0.077152
    17  C    0.046026   0.094786
    18  C    0.054851   0.013626
    19  C    0.009460  -0.048633
    21  C   -0.009264  -0.029642
    22  C    0.015265  -0.022304
    24  C   -0.010071   0.023212
    25  C    0.012623   0.114033
    28  C    0.008116   0.063272
    33  C    0.275130  -0.017195
    34  C    0.277806  -0.012518
    35  C    0.018116   0.052322
    36  C    0.035833  -0.000181
    37  C    0.028336   0.064079
    38  C    0.042873   0.060014
    39  C    0.004772  -0.004707
    41  C   -0.007185   0.023190
    42  C    0.001391  -0.031374
    44  C   -0.008842  -0.024474
    45  C   -0.005343   0.027829
    48  C   -0.001319   0.075379
    53  N   -0.665138   0.194660
    54  N   -0.680655   0.119497
 Electronic spatial extent (au):  <R**2>=          12758.4479
 Charge=             -0.0000 electrons
 Dipole moment (field-independent basis, Debye):
    X=            -16.7787    Y=              0.9362    Z=             -0.2741  Tot=             16.8071
 Quadrupole moment (field-independent basis, Debye-Ang):
   XX=           -271.0954   YY=           -177.4961   ZZ=           -201.9971
   XY=             -0.9664   XZ=              3.9602   YZ=             18.4336
 Traceless Quadrupole moment (field-independent basis, Debye-Ang):
   XX=            -54.2325   YY=             39.3668   ZZ=             14.8658
   XY=             -0.9664   XZ=              3.9602   YZ=             18.4336
 Octapole moment (field-independent basis, Debye-Ang**2):
  XXX=           -705.6857  YYY=             19.2259  ZZZ=             -0.0515  XYY=            -78.4564
  XXY=              6.5964  XXZ=              6.0235  XZZ=            -73.0839  YZZ=             -0.2798
  YYZ=              0.9746  XYZ=             30.2994
 Hexadecapole moment (field-independent basis, Debye-Ang**3):
 XXXX=         -12420.0478 YYYY=          -5367.5653 ZZZZ=          -3016.4305 XXXY=             38.3373
 XXXZ=            119.1606 YYYX=            -17.4459 YYYZ=            214.2128 ZZZX=             80.3884
 ZZZY=             16.9177 XXYY=          -2505.0864 XXZZ=          -2163.1527 YYZZ=          -1442.6695
 XXYZ=            229.9992 YYXZ=             26.6685 ZZXY=             -8.3156
 N-N= 3.658538940185D+03 E-N=-1.067191366741D+04  KE= 1.436256218945D+03
                          Isotropic Fermi Contact Couplings
        Atom                 a.u.       MegaHertz       Gauss      10(-4) cm-1
     1  C(13)              0.04493      25.25456       9.01146       8.42402
     2  C(13)              0.05169      29.05654      10.36810       9.69222
     3  C(13)             -0.03447     -19.37636      -6.91397      -6.46326
     4  C(13)              0.04951      27.82732       9.92948       9.28219
     5  C(13)              0.04488      25.22837       9.00211       8.41528
     6  C(13)             -0.03165     -17.78971      -6.34781      -5.93401
     7  H(1)               0.00110       2.45103       0.87459       0.81757
     8  H(1)               0.00092       2.06432       0.73660       0.68858
     9  C(13)             -0.02665     -14.97942      -5.34503      -4.99660
    10  N(14)              0.03261       5.26876       1.88002       1.75747
    11  C(13)             -0.02860     -16.07815      -5.73708      -5.36309
    12  N(14)              0.03476       5.61621       2.00400       1.87337
    13  C(13)             -0.00101      -0.56521      -0.20168      -0.18853
    14  C(13)             -0.00342      -1.91999      -0.68510      -0.64044
    15  C(13)              0.01952      10.97340       3.91558       3.66033
    16  C(13)              0.01280       7.19394       2.56697       2.39964
    17  C(13)              0.01867      10.49426       3.74461       3.50051
    18  C(13)             -0.00024      -0.13650      -0.04871      -0.04553
    19  C(13)             -0.01234      -6.93486      -2.47453      -2.31322
    20  H(1)              -0.00187      -4.17863      -1.49104      -1.39384
    21  C(13)             -0.00828      -4.65384      -1.66061      -1.55235
    22  C(13)             -0.00709      -3.98425      -1.42168      -1.32900
    23  H(1)              -0.00154      -3.44656      -1.22982      -1.14965
    24  C(13)              0.00253       1.42094       0.50703       0.47398
    25  C(13)              0.02071      11.64140       4.15394       3.88315
    26  H(1)               0.00050       1.11220       0.39686       0.37099
    27  H(1)               0.00035       0.79186       0.28255       0.26413
    28  C(13)              0.01048       5.89128       2.10216       1.96512
    29  H(1)               0.00023       0.52116       0.18596       0.17384
    30  H(1)              -0.00049      -1.08510      -0.38719      -0.36195
    31  H(1)              -0.00187      -4.17433      -1.48951      -1.39241
    32  H(1)              -0.00112      -2.49549      -0.89045      -0.83241
    33  C(13)              0.00074       0.41404       0.14774       0.13811
    34  C(13)              0.00502       2.82214       1.00701       0.94136
    35  C(13)              0.01073       6.03217       2.15243       2.01212
    36  C(13)             -0.00192      -1.07763      -0.38452      -0.35946
    37  C(13)              0.01192       6.69968       2.39061       2.23477
    38  C(13)              0.01062       5.96835       2.12965       1.99083
    39  C(13)             -0.00261      -1.46843      -0.52397      -0.48981
    40  H(1)              -0.00073      -1.64097      -0.58554      -0.54737
    41  C(13)              0.00341       1.91693       0.68401       0.63942
    42  C(13)             -0.00803      -4.51103      -1.60965      -1.50472
    43  H(1)              -0.00119      -2.66818      -0.95207      -0.89001
    44  C(13)             -0.00636      -3.57721      -1.27644      -1.19323
    45  C(13)              0.00423       2.37821       0.84860       0.79328
    46  H(1)               0.00006       0.12975       0.04630       0.04328
    47  H(1)              -0.00042      -0.93914      -0.33511      -0.31326
    48  C(13)              0.01367       7.68468       2.74208       2.56333
    49  H(1)               0.00033       0.73876       0.26361       0.24642
    50  H(1)               0.00035       0.79203       0.28262       0.26419
    51  H(1)              -0.00052      -1.15751      -0.41303      -0.38610
    52  H(1)              -0.00122      -2.72470      -0.97224      -0.90886
    53  N(14)              0.04303       6.95226       2.48074       2.31903
    54  N(14)              0.02430       3.92592       1.40087       1.30955
 --------------------------------------------------------
       Center         ----  Spin Dipole Couplings  ----
                      3XX-RR        3YY-RR        3ZZ-RR
 --------------------------------------------------------
     1   Atom       -0.145305      0.050729      0.094576
     2   Atom       -0.146799      0.058655      0.088145
     3   Atom        0.052157     -0.026253     -0.025905
     4   Atom       -0.179841      0.116437      0.063404
     5   Atom       -0.165673      0.107926      0.057747
     6   Atom        0.053819     -0.027167     -0.026652
     7   Atom        0.007463     -0.003791     -0.003672
     8   Atom        0.007884     -0.003833     -0.004051
     9   Atom        0.031116     -0.017316     -0.013800
    10   Atom       -0.146891      0.091773      0.055118
    11   Atom        0.036945     -0.018355     -0.018589
    12   Atom       -0.161707      0.097983      0.063724
    13   Atom        0.008064      0.009958     -0.018023
    14   Atom        0.018091     -0.003131     -0.014959
    15   Atom       -0.034848     -0.011115      0.045963
    16   Atom       -0.030832     -0.010817      0.041648
    17   Atom       -0.042189      0.001819      0.040370
    18   Atom       -0.003314     -0.003748      0.007062
    19   Atom        0.013071      0.006501     -0.019572
    20   Atom        0.004971      0.000369     -0.005339
    21   Atom        0.005255      0.005376     -0.010630
    22   Atom        0.006771     -0.000783     -0.005988
    23   Atom        0.004572     -0.002557     -0.002015
    24   Atom       -0.008735     -0.003281      0.012016
    25   Atom       -0.041445     -0.010291      0.051736
    26   Atom        0.000618      0.001306     -0.001925
    27   Atom        0.000687      0.000591     -0.001278
    28   Atom       -0.018711     -0.013107      0.031819
    29   Atom        0.000398     -0.000374     -0.000024
    30   Atom        0.001856      0.000235     -0.002091
    31   Atom       -0.004108      0.006477     -0.002369
    32   Atom        0.002428     -0.002937      0.000509
    33   Atom        0.015430     -0.004102     -0.011329
    34   Atom        0.004604      0.004715     -0.009320
    35   Atom       -0.025610      0.006809      0.018802
    36   Atom        0.000828     -0.001877      0.001049
    37   Atom       -0.025300     -0.003247      0.028547
    38   Atom       -0.025832     -0.006919      0.032751
    39   Atom        0.001121     -0.002701      0.001581
    40   Atom        0.002265     -0.002691      0.000426
    41   Atom       -0.008688     -0.002575      0.011263
    42   Atom        0.009325      0.004284     -0.013609
    43   Atom        0.002728      0.002245     -0.004973
    44   Atom        0.006182      0.004014     -0.010196
    45   Atom       -0.008805     -0.006026      0.014831
    46   Atom       -0.000334     -0.000209      0.000543
    47   Atom        0.001780     -0.000251     -0.001529
    48   Atom       -0.030647     -0.002662      0.033309
    49   Atom        0.000317      0.001294     -0.001611
    50   Atom        0.000316      0.000796     -0.001112
    51   Atom        0.001450     -0.001630      0.000180
    52   Atom       -0.002671      0.004164     -0.001493
    53   Atom       -0.149962     -0.111174      0.261136
    54   Atom       -0.096534     -0.075196      0.171730
 --------------------------------------------------------
                        XY            XZ            YZ
 --------------------------------------------------------
     1   Atom        0.023268      0.032917      0.225258
     2   Atom       -0.020731     -0.024895      0.219888
     3   Atom       -0.002652     -0.002014     -0.058810
     4   Atom       -0.003453      0.001605      0.272771
     5   Atom        0.024751      0.018441      0.253325
     6   Atom        0.001155     -0.000936     -0.056695
     7   Atom       -0.001098      0.001039     -0.003484
     8   Atom        0.001067     -0.002122     -0.003631
     9   Atom        0.020015     -0.025841     -0.023757
    10   Atom        0.014467      0.033405      0.209840
    11   Atom       -0.023632      0.022951     -0.023187
    12   Atom        0.007719     -0.013521      0.224314
    13   Atom       -0.018252     -0.001251      0.025622
    14   Atom        0.001372      0.020776      0.019867
    15   Atom        0.022275     -0.039163     -0.058453
    16   Atom        0.006381     -0.012100     -0.046764
    17   Atom        0.014705     -0.014956     -0.066034
    18   Atom        0.002853     -0.003195     -0.009378
    19   Atom       -0.009979      0.011530      0.021692
    20   Atom       -0.001460      0.003695      0.000616
    21   Atom       -0.005506      0.008122      0.011596
    22   Atom       -0.001569      0.006585      0.008813
    23   Atom       -0.002992      0.000091      0.003228
    24   Atom        0.007343     -0.010939     -0.016365
    25   Atom        0.021625     -0.040156     -0.065443
    26   Atom       -0.001961     -0.000132      0.001112
    27   Atom       -0.000392      0.000982      0.001226
    28   Atom        0.016211     -0.025306     -0.034221
    29   Atom        0.001384      0.002317      0.001255
    30   Atom       -0.003065      0.000104      0.000156
    31   Atom       -0.006360     -0.004301      0.002560
    32   Atom        0.004033      0.004342      0.001118
    33   Atom       -0.002960     -0.013625      0.011842
    34   Atom        0.014318      0.008295      0.015826
    35   Atom       -0.005116      0.001472     -0.040390
    36   Atom        0.000451     -0.001934     -0.002337
    37   Atom       -0.011507      0.020317     -0.038261
    38   Atom       -0.000437      0.001691     -0.040031
    39   Atom       -0.000944     -0.001954      0.000908
    40   Atom        0.000842     -0.000799      0.002835
    41   Atom       -0.005533      0.008066     -0.015849
    42   Atom        0.005790     -0.005638      0.015086
    43   Atom        0.000562     -0.002107      0.001024
    44   Atom        0.005059     -0.005825      0.011051
    45   Atom       -0.007090      0.010142     -0.015934
    46   Atom       -0.001289     -0.002021      0.001065
    47   Atom        0.002513     -0.000152     -0.000155
    48   Atom       -0.011033      0.021041     -0.045490
    49   Atom        0.001325      0.000220      0.000922
    50   Atom        0.000779     -0.000489      0.000764
    51   Atom       -0.002011     -0.002712      0.000620
    52   Atom        0.004619      0.002967      0.001824
    53   Atom        0.111465     -0.218469     -0.262261
    54   Atom       -0.072357      0.145306     -0.171219
 --------------------------------------------------------


 ---------------------------------------------------------------------------------
              Anisotropic Spin Dipole Couplings in Principal Axis System
 ---------------------------------------------------------------------------------

       Atom             a.u.   MegaHertz   Gauss  10(-4) cm-1        Axes

              Baa    -0.1567   -21.028    -7.503    -7.014 -0.5264 -0.5976  0.6047
     1 C(13)  Bbb    -0.1458   -19.572    -6.984    -6.528  0.8455 -0.4425  0.2988
              Bcc     0.3026    40.599    14.487    13.542  0.0890  0.6686  0.7383
 
              Baa    -0.1502   -20.159    -7.193    -6.724  0.8654 -0.3200  0.3856
     2 C(13)  Bbb    -0.1459   -19.581    -6.987    -6.531  0.4958  0.6587 -0.5660
              Bcc     0.2961    39.740    14.180    13.256 -0.0728  0.6810  0.7286
 
              Baa    -0.0850   -11.402    -4.068    -3.803  0.0241  0.7080  0.7058
     3 C(13)  Bbb     0.0327     4.391     1.567     1.465 -0.0228 -0.7054  0.7084
              Bcc     0.0522     7.011     2.502     2.339  0.9995 -0.0331 -0.0008
 
              Baa    -0.1861   -24.973    -8.911    -8.330 -0.4890 -0.5872  0.6450
     4 C(13)  Bbb    -0.1779   -23.869    -8.517    -7.962  0.8723 -0.3269  0.3638
              Bcc     0.3640    48.843    17.428    16.292 -0.0027  0.7405  0.6720
 
              Baa    -0.1732   -23.248    -8.296    -7.755  0.4577 -0.6170  0.6401
     5 C(13)  Bbb    -0.1660   -22.279    -7.950    -7.431  0.8870  0.2677 -0.3762
              Bcc     0.3393    45.527    16.245    15.186  0.0607  0.7400  0.6699
 
              Baa    -0.0836   -11.219    -4.003    -3.742 -0.0012  0.7087  0.7055
     6 C(13)  Bbb     0.0297     3.985     1.422     1.329  0.0611 -0.7041  0.7074
              Bcc     0.0539     7.234     2.581     2.413  0.9981  0.0439 -0.0425
 
              Baa    -0.0072    -3.850    -1.374    -1.284  0.0038  0.7137  0.7004
     7 H(1)   Bbb    -0.0005    -0.284    -0.101    -0.095 -0.1856 -0.6877  0.7018
              Bcc     0.0077     4.134     1.475     1.379  0.9826 -0.1327  0.1299
 
              Baa    -0.0076    -4.063    -1.450    -1.355  0.0526  0.6838  0.7278
     8 H(1)   Bbb    -0.0009    -0.468    -0.167    -0.156 -0.2456  0.7153 -0.6543
              Bcc     0.0085     4.532     1.617     1.512  0.9679  0.1444 -0.2055
 
              Baa    -0.0396    -5.308    -1.894    -1.771  0.0600  0.7030  0.7087
     9 C(13)  Bbb    -0.0147    -1.972    -0.704    -0.658 -0.5750  0.6047 -0.5511
              Bcc     0.0543     7.280     2.598     2.428  0.8159  0.3744 -0.4405
 
              Baa    -0.1593    -6.145    -2.193    -2.050  0.8289  0.3298 -0.4518
    10 N(14)  Bbb    -0.1273    -4.909    -1.752    -1.638 -0.5541  0.5946 -0.5826
              Bcc     0.2866    11.055     3.945     3.688  0.0765  0.7333  0.6756
 
              Baa    -0.0417    -5.591    -1.995    -1.865  0.0072  0.7089  0.7052
    11 C(13)  Bbb    -0.0158    -2.125    -0.758    -0.709 -0.5294 -0.5956  0.6042
              Bcc     0.0575     7.716     2.753     2.574  0.8484 -0.3777  0.3710
 
              Baa    -0.1705    -6.574    -2.346    -2.193  0.8667 -0.3343  0.3703
    12 N(14)  Bbb    -0.1354    -5.222    -1.863    -1.742 -0.4988 -0.5920  0.6330
              Bcc     0.3058    11.796     4.209     3.935 -0.0076  0.7333  0.6798
 
              Baa    -0.0350    -4.694    -1.675    -1.566 -0.2083 -0.5469  0.8109
    13 C(13)  Bbb    -0.0003    -0.045    -0.016    -0.015  0.8239  0.3486  0.4468
              Bcc     0.0353     4.740     1.691     1.581 -0.5271  0.7612  0.3780
 
              Baa    -0.0349    -4.681    -1.670    -1.562 -0.3060 -0.4954  0.8130
    14 C(13)  Bbb     0.0034     0.463     0.165     0.154 -0.5050  0.8084  0.3025
              Bcc     0.0314     4.219     1.505     1.407  0.8071  0.3180  0.4975
 
              Baa    -0.0510    -6.848    -2.444    -2.284  0.8424  0.2379  0.4835
    15 C(13)  Bbb    -0.0467    -6.270    -2.237    -2.091 -0.4324  0.8338  0.3432
              Bcc     0.0978    13.118     4.681     4.376 -0.3215 -0.4981  0.8053
 
              Baa    -0.0383    -5.135    -1.832    -1.713  0.1062  0.8511  0.5141
    16 C(13)  Bbb    -0.0326    -4.375    -1.561    -1.459  0.9854 -0.1593  0.0602
              Bcc     0.0709     9.510     3.394     3.172 -0.1332 -0.5002  0.8556
 
              Baa    -0.0495    -6.647    -2.372    -2.217 -0.5478  0.7151  0.4341
    17 C(13)  Bbb    -0.0435    -5.844    -2.085    -1.949  0.8227  0.3663  0.4348
              Bcc     0.0931    12.490     4.457     4.166 -0.1520 -0.5954  0.7890
 
              Baa    -0.0093    -1.250    -0.446    -0.417 -0.1654  0.8694  0.4656
    18 C(13)  Bbb    -0.0042    -0.565    -0.202    -0.189  0.9561  0.0254  0.2921
              Bcc     0.0135     1.815     0.648     0.606 -0.2421 -0.4935  0.8354
 
              Baa    -0.0364    -4.882    -1.742    -1.628 -0.2902 -0.4849  0.8250
    19 C(13)  Bbb     0.0152     2.046     0.730     0.683  0.7393  0.4338  0.5150
              Bcc     0.0211     2.835     1.012     0.946 -0.6076  0.7594  0.2326
 
              Baa    -0.0067    -3.564    -1.272    -1.189 -0.3157 -0.1472  0.9374
    20 H(1)   Bbb     0.0003     0.149     0.053     0.050  0.1436  0.9691  0.2006
              Bcc     0.0064     3.415     1.219     1.139  0.9379 -0.1979  0.2848
 
              Baa    -0.0204    -2.741    -0.978    -0.914 -0.3554 -0.4452  0.8219
    21 C(13)  Bbb     0.0086     1.153     0.411     0.384  0.8787  0.1407  0.4562
              Bcc     0.0118     1.588     0.567     0.530 -0.3187  0.8843  0.3412
 
              Baa    -0.0144    -1.936    -0.691    -0.646 -0.2855 -0.5429  0.7898
    22 C(13)  Bbb     0.0043     0.576     0.205     0.192 -0.4828  0.7933  0.3708
              Bcc     0.0101     1.360     0.485     0.454  0.8279  0.2754  0.4886
 
              Baa    -0.0060    -3.220    -1.149    -1.074  0.2192  0.7584 -0.6138
    23 H(1)   Bbb     0.0002     0.118     0.042     0.039  0.3466  0.5276  0.7756
              Bcc     0.0058     3.102     1.107     1.035  0.9120 -0.3828 -0.1472
 
              Baa    -0.0139    -1.870    -0.667    -0.624 -0.5842  0.7746  0.2422
    24 C(13)  Bbb    -0.0133    -1.787    -0.638    -0.596  0.7353  0.3787  0.5621
              Bcc     0.0273     3.657     1.305     1.220 -0.3437 -0.5065  0.7908
 
              Baa    -0.0571    -7.663    -2.735    -2.556  0.8332  0.2809  0.4763
    25 C(13)  Bbb    -0.0500    -6.706    -2.393    -2.237 -0.4690  0.8154  0.3395
              Bcc     0.1071    14.370     5.127     4.793 -0.2930 -0.5062  0.8111
 
              Baa    -0.0024    -1.265    -0.451    -0.422 -0.2133 -0.3853  0.8978
    26 H(1)   Bbb    -0.0008    -0.405    -0.145    -0.135  0.7625  0.5089  0.3995
              Bcc     0.0031     1.670     0.596     0.557 -0.6108  0.7698  0.1853
 
              Baa    -0.0023    -1.207    -0.431    -0.403 -0.3368 -0.4104  0.8474
    27 H(1)   Bbb     0.0010     0.548     0.196     0.183  0.8520 -0.5160  0.0887
              Bcc     0.0012     0.659     0.235     0.220  0.4008  0.7519  0.5234
 
              Baa    -0.0330    -4.430    -1.581    -1.478 -0.5281  0.8186  0.2259
    28 C(13)  Bbb    -0.0285    -3.822    -1.364    -1.275  0.7736  0.3541  0.5256
              Bcc     0.0615     8.252     2.945     2.753 -0.3502 -0.4523  0.8202
 
              Baa    -0.0021    -1.142    -0.407    -0.381 -0.6762  0.0064  0.7367
    29 H(1)   Bbb    -0.0013    -0.689    -0.246    -0.230 -0.3208  0.8976 -0.3023
              Bcc     0.0034     1.831     0.653     0.611  0.6632  0.4408  0.6049
 
              Baa    -0.0023    -1.225    -0.437    -0.409 -0.4494 -0.5859  0.6744
    30 H(1)   Bbb    -0.0019    -1.025    -0.366    -0.342  0.4127  0.5334  0.7384
              Bcc     0.0042     2.250     0.803     0.750  0.7923 -0.6101 -0.0021
 
              Baa    -0.0086    -4.581    -1.635    -1.528  0.8400  0.2752  0.4677
    31 H(1)   Bbb    -0.0022    -1.185    -0.423    -0.395 -0.3076 -0.4687  0.8281
              Bcc     0.0108     5.766     2.058     1.923 -0.4471  0.8394  0.3090
 
              Baa    -0.0054    -2.872    -1.025    -0.958 -0.5522  0.7933  0.2564
    32 H(1)   Bbb    -0.0020    -1.068    -0.381    -0.356 -0.3367 -0.4936  0.8019
              Bcc     0.0074     3.940     1.406     1.314  0.7627  0.3565  0.5396
 
              Baa    -0.0226    -3.030    -1.081    -1.011  0.2598 -0.4912  0.8314
    33 C(13)  Bbb    -0.0007    -0.094    -0.034    -0.031  0.4454  0.8249  0.3481
              Bcc     0.0233     3.124     1.115     1.042  0.8568 -0.2799 -0.4330
 
              Baa    -0.0197    -2.638    -0.941    -0.880  0.0520 -0.5651  0.8233
    34 C(13)  Bbb    -0.0075    -1.004    -0.358    -0.335  0.8045 -0.4647 -0.3698
              Bcc     0.0271     3.642     1.299     1.215  0.5916  0.6816  0.4305
 
              Baa    -0.0300    -4.032    -1.439    -1.345  0.5697  0.6418  0.5135
    35 C(13)  Bbb    -0.0238    -3.199    -1.142    -1.067  0.8200 -0.4012 -0.4083
              Bcc     0.0539     7.231     2.580     2.412  0.0560 -0.6536  0.7548
 
              Baa    -0.0033    -0.437    -0.156    -0.146  0.1558  0.8371  0.5244
    36 C(13)  Bbb    -0.0004    -0.053    -0.019    -0.018  0.8100 -0.4121  0.4172
              Bcc     0.0037     0.490     0.175     0.164 -0.5653 -0.3598  0.7423
 
              Baa    -0.0324    -4.345    -1.550    -1.449  0.8779 -0.2151 -0.4278
    37 C(13)  Bbb    -0.0280    -3.761    -1.342    -1.255  0.4007  0.8193  0.4102
              Bcc     0.0604     8.107     2.893     2.704  0.2623 -0.5315  0.8054
 
              Baa    -0.0318    -4.268    -1.523    -1.424 -0.0872  0.8456  0.5266
    38 C(13)  Bbb    -0.0258    -3.465    -1.236    -1.156  0.9960  0.0846  0.0291
              Bcc     0.0576     7.733     2.759     2.579  0.0200 -0.5271  0.8496
 
              Baa    -0.0030    -0.399    -0.143    -0.133  0.1665  0.9783 -0.1236
    39 C(13)  Bbb    -0.0006    -0.082    -0.029    -0.027  0.7377 -0.0404  0.6739
              Bcc     0.0036     0.482     0.172     0.161 -0.6543  0.2033  0.7284
 
              Baa    -0.0046    -2.431    -0.867    -0.811 -0.1640  0.8458 -0.5076
    40 H(1)   Bbb     0.0020     1.050     0.375     0.350  0.4591  0.5209  0.7196
              Bcc     0.0026     1.381     0.493     0.461  0.8731 -0.1151 -0.4738
 
              Baa    -0.0130    -1.742    -0.621    -0.581  0.1374  0.8494  0.5096
    41 C(13)  Bbb    -0.0115    -1.548    -0.552    -0.516  0.9494  0.0338 -0.3123
              Bcc     0.0245     3.290     1.174     1.097  0.2825 -0.5267  0.8017
 
              Baa    -0.0240    -3.223    -1.150    -1.075  0.2277 -0.4939  0.8392
    42 C(13)  Bbb     0.0097     1.296     0.462     0.432  0.8048 -0.3897 -0.4477
              Bcc     0.0144     1.927     0.688     0.643  0.5481  0.7773  0.3088
 
              Baa    -0.0057    -3.027    -1.080    -1.010  0.2497 -0.1416  0.9579
    43 H(1)   Bbb     0.0023     1.238     0.442     0.413 -0.2475  0.9471  0.2045
              Bcc     0.0034     1.790     0.639     0.597  0.9362  0.2881 -0.2014
 
              Baa    -0.0185    -2.487    -0.888    -0.830  0.2927 -0.4729  0.8311
    44 C(13)  Bbb     0.0075     1.007     0.359     0.336  0.8106 -0.3383 -0.4780
              Bcc     0.0110     1.480     0.528     0.494  0.5072  0.8136  0.2844
 
              Baa    -0.0154    -2.065    -0.737    -0.689  0.4605  0.8396  0.2882
    45 C(13)  Bbb    -0.0122    -1.639    -0.585    -0.547  0.8279 -0.2890 -0.4807
              Bcc     0.0276     3.704     1.322     1.236  0.3203 -0.4599  0.8282
 
              Baa    -0.0021    -1.097    -0.392    -0.366  0.8108  0.2651  0.5218
    46 H(1)   Bbb    -0.0010    -0.510    -0.182    -0.170  0.0593  0.8498 -0.5238
              Bcc     0.0030     1.607     0.573     0.536 -0.5823  0.4556  0.6733
 
              Baa    -0.0020    -1.040    -0.371    -0.347 -0.5528  0.8268  0.1043
    47 H(1)   Bbb    -0.0015    -0.818    -0.292    -0.273  0.0934 -0.0629  0.9936
              Bcc     0.0035     1.859     0.663     0.620  0.8281  0.5590 -0.0425
 
              Baa    -0.0378    -5.077    -1.812    -1.693  0.8273 -0.3292 -0.4552
    48 C(13)  Bbb    -0.0320    -4.288    -1.530    -1.430  0.5130  0.7729  0.3734
              Bcc     0.0698     9.365     3.342     3.124  0.2289 -0.5424  0.8083
 
              Baa    -0.0019    -1.010    -0.361    -0.337  0.0930 -0.3120  0.9455
    49 H(1)   Bbb    -0.0005    -0.277    -0.099    -0.092  0.8379 -0.4884 -0.2436
              Bcc     0.0024     1.287     0.459     0.429  0.5378  0.8149  0.2160
 
              Baa    -0.0017    -0.885    -0.316    -0.295  0.3605 -0.3797  0.8520
    50 H(1)   Bbb     0.0002     0.127     0.045     0.042  0.7718 -0.3915 -0.5011
              Bcc     0.0014     0.758     0.270     0.253  0.5238  0.8382  0.1519
 
              Baa    -0.0029    -1.532    -0.547    -0.511  0.5678  0.7433  0.3537
    51 H(1)   Bbb    -0.0014    -0.742    -0.265    -0.248  0.3011 -0.5875  0.7511
              Bcc     0.0043     2.275     0.812     0.759  0.7661 -0.3200 -0.5574
 
              Baa    -0.0059    -3.149    -1.124    -1.050  0.8436 -0.3073 -0.4404
    52 H(1)   Bbb    -0.0016    -0.852    -0.304    -0.284  0.2639 -0.4770  0.8383
              Bcc     0.0075     4.002     1.428     1.335  0.4677  0.8234  0.3213
 
              Baa    -0.2470    -9.528    -3.400    -3.178  0.3169  0.7804  0.5390
    53 N(14)  Bbb    -0.2435    -9.390    -3.351    -3.132  0.8784 -0.4558  0.1434
              Bcc     0.4905    18.918     6.750     6.310 -0.3576 -0.4280  0.8300
 
              Baa    -0.1635    -6.306    -2.250    -2.104 -0.3542  0.7617  0.5426
    54 N(14)  Bbb    -0.1588    -6.123    -2.185    -2.042  0.8625  0.4903 -0.1252
              Bcc     0.3223    12.429     4.435     4.146  0.3614 -0.4236  0.8306
 

 ---------------------------------------------------------------------------------

 Calling FoFJK, ICntrl=      2127 FMM=F ISym2X=0 I1Cent= 0 IOpClX= 1 NMat=1 NMatS=1 NMatT=0.
 -------------------------------------------------------------------
 Center     Atomic                   Forces (Hartrees/Bohr)
 Number     Number              X              Y              Z
 -------------------------------------------------------------------
      1        6          -0.009107521    0.011443072   -0.007460372
      2        6          -0.003243596   -0.010929097    0.006240584
      3        6          -0.001361613   -0.003641335   -0.000464166
      4        6           0.002329605   -0.009354694    0.010987585
      5        6           0.003340532    0.009738979   -0.011301313
      6        6          -0.000412153    0.003209563    0.002072815
      7        1           0.000111602    0.001026236   -0.000691640
      8        1          -0.000438644   -0.000926984    0.000595944
      9        6          -0.002479501   -0.002438375    0.001736812
     10        7           0.000675952    0.000540212    0.000163445
     11        6          -0.003382288    0.002011333   -0.001517969
     12        7           0.001364610   -0.000838019    0.000513568
     13        6          -0.001647748    0.016047580    0.002571320
     14        6          -0.003685743   -0.005553423    0.000636948
     15        6          -0.004128709   -0.004373037   -0.003759610
     16        6           0.006922569   -0.004938192   -0.000403993
     17        6          -0.003298715    0.001831788   -0.001343790
     18        6           0.002875542    0.000857020    0.001307781
     19        6          -0.000468565    0.000613217   -0.000302666
     20        1           0.001220172   -0.000164790    0.000802953
     21        6           0.000092940    0.006217466    0.004018854
     22        6           0.005245908   -0.000786261    0.001676281
     23        1           0.000608222   -0.000050552   -0.000383796
     24        6          -0.002779920   -0.004602443   -0.003739142
     25        6          -0.002784729   -0.001724525   -0.002370038
     26        1          -0.000040343    0.000062924    0.000138183
     27        1          -0.000475430   -0.000261629    0.000178476
     28        6          -0.003189119    0.005015223    0.002353979
     29        1           0.000136356    0.000117151   -0.000310854
     30        1           0.000174157   -0.000317204    0.000507219
     31        1          -0.000059993   -0.000442753    0.000112274
     32        1           0.000038928   -0.000168665    0.000288644
     33        6          -0.002878320    0.003125400   -0.001328283
     34        6          -0.001459362   -0.012916431   -0.002373218
     35        6          -0.000162924   -0.000253694    0.000756171
     36        6          -0.001358695    0.001446579    0.001732522
     37        6          -0.002324254    0.003985934    0.003127670
     38        6           0.004628647    0.000221796   -0.000969131
     39        6           0.001169069    0.000136298   -0.000127075
     40        1           0.000084530   -0.000223188    0.000207605
     41        6           0.001307986   -0.000980602   -0.000725232
     42        6          -0.001390578   -0.001198973   -0.000209819
     43        1           0.000622336   -0.000056368   -0.000595414
     44        6           0.000106959   -0.000550135   -0.000333471
     45        6           0.000914287    0.000468574   -0.000265027
     46        1           0.000286025   -0.000228458   -0.000303165
     47        1          -0.000186422    0.000442013   -0.000349019
     48        6           0.000926384    0.000377802    0.000375741
     49        1          -0.000036025    0.000258566   -0.000314672
     50        1          -0.000315429    0.000150399   -0.000114942
     51        1          -0.000072811    0.000489310   -0.000305792
     52        1           0.000164113    0.000146685    0.000058824
     53        7           0.011211405   -0.009125775   -0.000552594
     54        7           0.006610318    0.007064483   -0.000245995
 -------------------------------------------------------------------
 Cartesian Forces:  Max     0.016047580 RMS     0.003666929

 GradGradGradGradGradGradGradGradGradGradGradGradGradGradGradGradGradGrad
 Berny optimization.
 Search for a local minimum.
 Step number   1 out of a maximum of    2
 All quantities printed in internal units (Hartrees-Bohrs-Radians)
 Second derivative matrix not updated -- first step.
 ITU=  0
     Eigenvalues ---    0.00008   0.00009   0.00023   0.00075   0.00078
     Eigenvalues ---    0.00114   0.00183   0.00268   0.00291   0.00301
     Eigenvalues ---    0.00322   0.00447   0.00715   0.00848   0.00929
     Eigenvalues ---    0.01026   0.01223   0.01232   0.01239   0.01254
     Eigenvalues ---    0.01673   0.02381   0.02425   0.02535   0.02595
     Eigenvalues ---    0.02606   0.02618   0.02721   0.02959   0.03425
     Eigenvalues ---    0.03440   0.03624   0.04612   0.04641   0.04708
     Eigenvalues ---    0.04974   0.06565   0.06740   0.06984   0.07005
     Eigenvalues ---    0.07022   0.07024   0.07052   0.07062   0.07102
     Eigenvalues ---    0.07114   0.07449   0.07896   0.07915   0.07935
     Eigenvalues ---    0.08604   0.08966   0.09463   0.10194   0.10535
     Eigenvalues ---    0.10664   0.10775   0.10815   0.11100   0.12448
     Eigenvalues ---    0.12501   0.12515   0.12618   0.12862   0.13594
     Eigenvalues ---    0.13722   0.13877   0.15033   0.15063   0.15287
     Eigenvalues ---    0.17638   0.18374   0.19477   0.19703   0.21163
     Eigenvalues ---    0.21839   0.23780   0.23941   0.26488   0.27635
     Eigenvalues ---    0.28041   0.28220   0.29637   0.30089   0.30732
     Eigenvalues ---    0.30936   0.31603   0.32941   0.35638   0.35788
     Eigenvalues ---    0.35817   0.36454   0.38175   0.40817   0.42817
     Eigenvalues ---    0.43033   0.43146   0.43380   0.45955   0.47609
     Eigenvalues ---    0.48246   0.49761   0.50348   0.50571   0.50838
     Eigenvalues ---    0.52373   0.53133   0.59285   0.60274   0.62185
     Eigenvalues ---    0.63965   0.71403   0.71415   0.74274   0.77784
     Eigenvalues ---    0.81827   0.82380   0.89695   0.90609   0.94649
     Eigenvalues ---    1.02840   1.06713   1.10871   1.12999   1.14124
     Eigenvalues ---    1.15130   1.15243   1.15432   1.19110   1.20087
     Eigenvalues ---    1.26213   1.29576   1.30700   1.39634   1.40091
     Eigenvalues ---    1.41591   1.43457   1.48444   1.48875   1.49778
     Eigenvalues ---    1.49900   1.49990   1.55043   1.58505   1.64116
     Eigenvalues ---    1.64916   1.66774   1.69599   1.71162   1.74473
     Eigenvalues ---    1.76126   1.76776   2.80095   2.80573  41.91293
     Eigenvalues ---  192.43164
 Eigenvalue     1 is   7.85D-05 Eigenvector:
                          Z51       Z32       Z46       Z45       X49
   1                    0.20548  -0.18805   0.17831   0.16626  -0.16482
                          X46       X29       X26       X52       Z29
   1                    0.16415   0.16307  -0.16131  -0.15725  -0.15485
 Eigenvalue     2 is   8.97D-05 Eigenvector:
                          Z26       Z31       Z52       Z29       Z49
   1                    0.21756   0.21626   0.21570  -0.21307   0.21138
                          Z46       Z48       Z19       Z25       Z42
   1                   -0.18768   0.16874   0.16850   0.16781   0.16603
 Quadratic step=4.897D+00 exceeds max=3.000D-01 adjusted using Lamda=-6.941D-03.
 Angle between NR and scaled steps=  50.54 degrees.
 Angle between quadratic step and forces=  77.02 degrees.
 Linear search not attempted -- first point.
 B after Tr=     0.000536   -0.000572    0.000572
         Rot=    1.000000    0.000050    0.000140    0.000038 Ang=   0.02 deg.
 Variable       Old X    -DE/DX   Delta X   Delta X   Delta X     New X
                                 (Linear)    (Quad)   (Total)
    X1        2.66207  -0.00911   0.00000  -0.00772  -0.00686   2.65521
    Y1        0.93261   0.01144   0.00000   0.03141   0.03054   0.96315
    Z1       -0.90715  -0.00746   0.00000   0.00780   0.00902  -0.89813
    X2        2.69242  -0.00324   0.00000  -0.00527  -0.00510   2.68732
    Y2       -0.94706  -0.01093   0.00000  -0.03779  -0.03847  -0.98552
    Z2        1.05649   0.00624   0.00000  -0.02287  -0.02145   1.03504
    X3        4.98021  -0.00136   0.00000  -0.01116  -0.01130   4.96891
    Y3       -1.84072  -0.00364   0.00000  -0.06169  -0.06246  -1.90318
    Z3        1.92504  -0.00046   0.00000  -0.03365  -0.03150   1.89354
    X4        7.26726   0.00233   0.00000  -0.00712  -0.00692   7.26035
    Y4       -0.93351  -0.00935   0.00000  -0.02991  -0.03094  -0.96445
    Z4        0.93839   0.01099   0.00000   0.00412   0.00682   0.94520
    X5        7.21114   0.00334   0.00000  -0.00131  -0.00040   7.21074
    Y5        0.92804   0.00974   0.00000   0.02812   0.02689   0.95493
    Z5       -1.08322  -0.01130   0.00000   0.01311   0.01560  -1.06761
    X6        4.88316  -0.00041   0.00000  -0.00268  -0.00147   4.88168
    Y6        1.84301   0.00321   0.00000   0.05978   0.05865   1.90166
    Z6       -1.92156   0.00207   0.00000   0.04154   0.04329  -1.87826
    X7        5.01373   0.00011   0.00000  -0.01484  -0.01550   4.99823
    Y7       -3.29568   0.00103   0.00000  -0.07221  -0.07284  -3.36852
    Z7        3.37887  -0.00069   0.00000  -0.04946  -0.04716   3.33171
    X8        4.82909  -0.00044   0.00000  -0.00503  -0.00331   4.82578
    Y8        3.28809  -0.00093   0.00000   0.07369   0.07242   3.36051
    Z8       -3.38353   0.00060   0.00000   0.05989   0.06148  -3.32206
    X9        9.44595  -0.00248   0.00000   0.00167   0.00297   9.44892
    Y9        1.82470  -0.00244   0.00000   0.01799   0.01648   1.84117
    Z9       -2.26847   0.00174   0.00000   0.02662   0.02966  -2.23882
   X10       11.23933   0.00068   0.00000   0.01038   0.01203  11.25136
   Y10        2.58561   0.00054   0.00000   0.01240   0.01065   2.59625
   Z10       -3.28674   0.00016   0.00000   0.03660   0.04006  -3.24667
   X11        9.57905  -0.00338   0.00000  -0.01111  -0.01126   9.56778
   Y11       -1.84692   0.00201   0.00000  -0.02519  -0.02630  -1.87323
   Z11        1.94142  -0.00152   0.00000   0.00172   0.00516   1.94657
   X12       11.45900   0.00136   0.00000  -0.00867  -0.00911  11.44988
   Y12       -2.61545  -0.00084   0.00000  -0.02348  -0.02465  -2.64010
   Z12        2.78200   0.00051   0.00000   0.00123   0.00527   2.78727
   X13       -0.61528  -0.00165   0.00000   0.00924   0.01026  -0.60502
   Y13        4.25128   0.01605   0.00000   0.04905   0.04846   4.29975
   Z13       -0.52981   0.00257   0.00000  -0.02558  -0.02561  -0.55542
   X14       -1.65738  -0.00369   0.00000  -0.00252  -0.00111  -1.65849
   Y14        0.89363  -0.00555   0.00000  -0.00522  -0.00595   0.88768
   Z14       -2.88983   0.00064   0.00000   0.02209   0.02211  -2.86772
   X15        0.70171  -0.00413   0.00000  -0.00631  -0.00558   0.69613
   Y15        5.98945  -0.00437   0.00000   0.04342   0.04289   6.03234
   Z15        0.98577  -0.00376   0.00000  -0.02931  -0.02915   0.95662
   X16       -3.18726   0.00692   0.00000   0.00764   0.00887  -3.17838
   Y16        4.60574  -0.00494   0.00000   0.01404   0.01358   4.61932
   Z16       -1.22907  -0.00040   0.00000  -0.00218  -0.00296  -1.23203
   X17       -1.57407  -0.00330   0.00000   0.00019   0.00181  -1.57226
   Y17       -1.37395   0.00183   0.00000   0.00827   0.00740  -1.36655
   Z17       -4.22707  -0.00134   0.00000   0.00708   0.00734  -4.21973
   X18       -3.85399   0.00288   0.00000   0.00132   0.00281  -3.85118
   Y18        2.41470   0.00086   0.00000  -0.00228  -0.00283   2.41188
   Z18       -2.76412   0.00131   0.00000   0.01971   0.01897  -2.74516
   X19       -0.62027  -0.00047   0.00000  -0.01776  -0.01710  -0.63737
   Y19        8.09961   0.00061   0.00000   0.03506   0.03471   8.13433
   Z19        1.80273  -0.00030   0.00000  -0.02202  -0.02243   1.78030
   X20        2.66729   0.00122   0.00000  -0.00552  -0.00495   2.66234
   Y20        5.66810  -0.00016   0.00000   0.04380   0.04317   5.71127
   Z20        1.46272   0.00080   0.00000  -0.01436  -0.01361   1.44911
   X21       -4.45212   0.00009   0.00000  -0.01207  -0.01091  -4.46303
   Y21        6.73174   0.00622   0.00000   0.01025   0.00998   6.74172
   Z21       -0.39502   0.00402   0.00000   0.00642   0.00508  -0.38994
   X22       -3.79528   0.00525   0.00000   0.00363   0.00552  -3.78976
   Y22       -2.12836  -0.00079   0.00000   0.00360   0.00278  -2.12559
   Z22       -5.45031   0.00168   0.00000   0.01792   0.01764  -5.43267
   X23        0.15323   0.00061   0.00000   0.00903   0.01060   0.16383
   Y23       -2.46712  -0.00005   0.00000   0.02177   0.02075  -2.44637
   Z23       -4.34154  -0.00038   0.00000  -0.01750  -0.01664  -4.35818
   X24       -6.00475  -0.00278   0.00000  -0.01108  -0.00930  -6.01405
   Y24        1.66049  -0.00460   0.00000  -0.01622  -0.01673   1.64377
   Z24       -4.03625  -0.00374   0.00000   0.03432   0.03304  -4.00321
   X25       -3.15336  -0.00278   0.00000  -0.02404  -0.02317  -3.17652
   Y25        8.47153  -0.00172   0.00000   0.01860   0.01838   8.48991
   Z25        1.12485  -0.00237   0.00000  -0.00890  -0.01006   1.11479
   X26        0.32791  -0.00004   0.00000  -0.02351  -0.02307   0.30484
   Y26        9.49450   0.00006   0.00000   0.03281   0.03250   9.52701
   Z26        2.96785   0.00014   0.00000  -0.01424  -0.01453   2.95332
   X27       -6.41178  -0.00048   0.00000  -0.02231  -0.02099  -6.43277
   Y27        7.06480  -0.00026   0.00000  -0.01578  -0.01595   7.04885
   Z27       -0.89924   0.00018   0.00000   0.02574   0.02381  -0.87543
   X28       -5.95889  -0.00319   0.00000  -0.01176  -0.00978  -5.96867
   Y28       -0.63802   0.00502   0.00000  -0.00843  -0.00908  -0.64710
   Z28       -5.37268   0.00235   0.00000   0.03900   0.03796  -5.33472
   X29       -3.81114   0.00014   0.00000   0.01117   0.01322  -3.79791
   Y29       -3.89969   0.00012   0.00000   0.01254   0.01161  -3.88808
   Z29       -6.48227  -0.00031   0.00000   0.00172   0.00161  -6.48065
   X30       -7.70218   0.00017   0.00000  -0.01407  -0.01221  -7.71439
   Y30        2.81442  -0.00032   0.00000  -0.02231  -0.02269   2.79173
   Z30       -4.02434   0.00051   0.00000   0.04608   0.04422  -3.98012
   X31       -4.12794  -0.00006   0.00000  -0.03585  -0.03503  -4.16297
   Y31       10.15487  -0.00044   0.00000   0.00516   0.00508  10.15995
   Z31        1.77703   0.00011   0.00000   0.00411   0.00251   1.77954
   X32       -7.64172   0.00004   0.00000  -0.01406  -0.01185  -7.65357
   Y32       -1.24267  -0.00017   0.00000  -0.01628  -0.01689  -1.25957
   Z32       -6.37673   0.00029   0.00000   0.04799   0.04655  -6.33019
   X33       -1.65175  -0.00288   0.00000   0.00662   0.00625  -1.64550
   Y33       -0.91939   0.00313   0.00000   0.00118   0.00103  -0.91836
   Z33        3.02680  -0.00133   0.00000  -0.02935  -0.02915   2.99765
   X34       -0.57153  -0.00146   0.00000   0.00679   0.00681  -0.56472
   Y34       -4.27136  -0.01292   0.00000  -0.04789  -0.04835  -4.31971
   Z34        0.66538  -0.00237   0.00000   0.00945   0.01030   0.67568
   X35       -1.62834  -0.00016   0.00000   0.02434   0.02374  -1.60460
   Y35        1.31842  -0.00025   0.00000  -0.00407  -0.00408   1.31434
   Z35        4.41490   0.00076   0.00000  -0.02188  -0.02189   4.39301
   X36       -3.86229  -0.00136   0.00000   0.00850   0.00808  -3.85421
   Y36       -2.39360   0.00145   0.00000  -0.00135  -0.00136  -2.39496
   Z36        2.76465   0.00173   0.00000  -0.01454  -0.01481   2.74984
   X37        0.74483  -0.00232   0.00000  -0.00054  -0.00024   0.74459
   Y37       -6.03850   0.00399   0.00000  -0.03786  -0.03857  -6.07707
   Z37       -0.81568   0.00313   0.00000   0.01098   0.01236  -0.80332
   X38       -3.17822   0.00463   0.00000   0.01027   0.01011  -3.16811
   Y38       -4.55841   0.00022   0.00000  -0.02153  -0.02174  -4.58015
   Z38        1.22986  -0.00097   0.00000   0.00310   0.00324   1.23310
   X39       -3.88963   0.00117   0.00000   0.03095   0.03010  -3.85953
   Y39        2.06910   0.00014   0.00000   0.00845   0.00872   2.07782
   Z39        5.54463  -0.00013   0.00000  -0.02399  -0.02470   5.51993
   X40        0.10115   0.00008   0.00000   0.03213   0.03155   0.13270
   Y40        2.39623  -0.00022   0.00000  -0.01940  -0.01953   2.37670
   Z40        4.64302   0.00021   0.00000  -0.01189  -0.01152   4.63149
   X41       -6.08340   0.00131   0.00000   0.01197   0.01129  -6.07211
   Y41       -1.63240  -0.00098   0.00000   0.01576   0.01605  -1.61635
   Z41        3.95179  -0.00073   0.00000  -0.02500  -0.02596   3.92583
   X42       -0.60901  -0.00139   0.00000  -0.00673  -0.00633  -0.61534
   Y42       -8.08270  -0.00120   0.00000  -0.03150  -0.03220  -8.11490
   Z42       -1.73191  -0.00021   0.00000   0.00433   0.00553  -1.72637
   X43        2.74393   0.00062   0.00000  -0.00203  -0.00160   2.74232
   Y43       -5.79039  -0.00006   0.00000  -0.03268  -0.03358  -5.82397
   Z43       -1.19684  -0.00060   0.00000  -0.00480  -0.00289  -1.19972
   X44       -4.48836   0.00011   0.00000   0.00103   0.00098  -4.48738
   Y44       -6.63019  -0.00055   0.00000  -0.01717  -0.01738  -6.64757
   Z44        0.27933  -0.00033   0.00000   0.00563   0.00560   0.28494
   X45       -6.08387   0.00091   0.00000   0.02278   0.02188  -6.06199
   Y45        0.61069   0.00047   0.00000   0.02275   0.02316   0.63386
   Z45        5.33446  -0.00027   0.00000  -0.03334  -0.03453   5.29993
   X46       -3.93081   0.00029   0.00000   0.03994   0.03891  -3.89189
   Y46        3.80768  -0.00023   0.00000   0.00626   0.00665   3.81433
   Z46        6.63354  -0.00030   0.00000  -0.02183  -0.02273   6.61082
   X47       -7.77954  -0.00019   0.00000   0.00276   0.00203  -7.77751
   Y47       -2.78101   0.00044   0.00000   0.02940   0.02980  -2.75122
   Z47        3.82218  -0.00035   0.00000  -0.02746  -0.02880   3.79338
   X48       -3.19698   0.00093   0.00000  -0.00414  -0.00391  -3.20089
   Y48       -8.37811   0.00038   0.00000  -0.02313  -0.02357  -8.40168
   Z48       -1.20301   0.00038   0.00000   0.00919   0.00970  -1.19332
   X49        0.35185  -0.00004   0.00000  -0.01319  -0.01258   0.33926
   Y49       -9.49823   0.00026   0.00000  -0.02251  -0.02339  -9.52162
   Z49       -2.86287  -0.00031   0.00000  -0.01175  -0.01013  -2.87300
   X50       -6.48410  -0.00032   0.00000  -0.00347  -0.00365  -6.48775
   Y50       -6.88064   0.00015   0.00000  -0.00187  -0.00187  -6.88251
   Z50        0.68259  -0.00011   0.00000  -0.00363  -0.00419   0.67840
   X51       -7.79813  -0.00007   0.00000   0.02177   0.02066  -7.77748
   Y51        1.21422   0.00049   0.00000   0.03930   0.03994   1.25417
   Z51        6.28322  -0.00031   0.00000  -0.04416  -0.04589   6.23733
   X52       -4.19577   0.00016   0.00000  -0.00990  -0.00958  -4.20535
   Y52      -10.00612   0.00015   0.00000  -0.01654  -0.01699 -10.02310
   Z52       -1.95121   0.00006   0.00000   0.00511   0.00549  -1.94571
   X53        0.26126   0.01121   0.00000   0.00839   0.00950   0.27077
   Y53        2.03418  -0.00913   0.00000   0.01711   0.01636   2.05055
   Z53       -1.52249  -0.00055   0.00000   0.00170   0.00215  -1.52034
   X54        0.32598   0.00661   0.00000   0.00431   0.00420   0.33018
   Y54       -2.07967   0.00706   0.00000  -0.01985  -0.02028  -2.09995
   Z54        1.73385  -0.00025   0.00000  -0.02017  -0.01930   1.71455
         Item               Value     Threshold  Converged?
 Maximum Force            0.016048     0.000450     NO 
 RMS     Force            0.003667     0.000300     NO 
 Maximum Displacement     0.072837     0.001800     NO 
 RMS     Displacement     0.023594     0.001200     NO 
 Predicted change in Energy=-1.889040D-03
 GradGradGradGradGradGradGradGradGradGradGradGradGradGradGradGradGradGrad

 Unable to Open any file for archive entry.
 1\1\GINC-X10P1N1\Force\UM062X\6-31G(d)\C32H18N4(3)\MAYUMIAO\13-Jul-202
 4\0\\# 6-31g(d) m062x g09default scf=(xqc,maxcycle=64) force guess=rea
 d nosymm\\Title Card\\0,3\C,1.4087057,0.49351656,-0.4800426\C,1.424764
 8,-0.50115996,0.55907125\C,2.63541266,-0.97406492,1.01868535\C,3.84567
 055,-0.49399324,0.49657255\C,3.81596881,0.49109575,-0.57321368\C,2.584
 05537,0.97528039,-1.01684442\H,2.65315016,-1.74399764,1.78801951\H,2.5
 554425,1.73998441,-1.79048927\C,4.99858246,0.96558795,-1.20042485\N,5.
 94759902,1.36824379,-1.73926582\C,5.06901372,-0.97735025,1.0273528\N,6
 .06384033,-1.38403492,1.47217105\C,-0.3255912,2.24968171,-0.2803651\C,
 -0.87704786,0.47288813,-1.52923418\C,0.37133128,3.16948044,0.52164556\
 C,-1.68662404,2.43725032,-0.65039844\C,-0.83296247,-0.72706547,-2.2368
 6919\C,-2.03944122,1.27780596,-1.4627115\C,-0.32823209,4.28613131,0.95
 396157\H,1.41146879,2.99942907,0.77403679\C,-2.3559625,3.56228563,-0.2
 0903495\C,-2.00837609,-1.1262816,-2.88418145\H,0.08108471,-1.30554399,
 -2.2974454\C,-3.17757741,0.87869388,-2.13589106\C,-1.66868411,4.482940
 46,0.59524672\H,0.17352312,5.02427484,1.57051695\H,-3.39296848,3.73853
 027,-0.47585728\C,-3.15330809,-0.33762525,-2.84310125\H,-2.01676666,-2
 .06362933,-3.43026741\H,-4.07581806,1.48932741,-2.12958771\H,-2.184413
 52,5.37372337,0.94036193\H,-4.04382174,-0.65759456,-3.37442169\C,-0.87
 406621,-0.48652046,1.60171185\C,-0.3024396,-2.26030692,0.35210606\C,-0
 .86168058,0.69767607,2.33626277\C,-2.0438372,-1.2666384,1.4629883\C,0.
 39414938,-3.19543856,-0.43164083\C,-1.68184259,-2.41220678,0.65081513\
 C,-2.05830329,1.09492124,2.93409195\H,0.05352532,1.2680302,2.45697824\
 C,-3.21919557,-0.86382896,2.09119809\C,-0.32227373,-4.27718218,-0.9164
 8548\H,1.4520239,-3.06414052,-0.6333386\C,-2.37513902,-3.50854729,0.14
 781561\C,-3.2194458,0.32316537,2.822877\H,-2.08009325,2.01493686,3.510
 32012\H,-4.1167527,-1.47164936,2.02260878\C,-1.69176821,-4.43350548,-0
 .63660775\H,0.18618853,-5.02624604,-1.51496517\H,-3.43123694,-3.641076
 94,0.36121076\H,-4.12659447,0.64253891,3.32493935\H,-2.22030381,-5.295
 00819,-1.03253382\N,0.1382544,1.07644432,-0.80566751\N,0.17250197,-1.1
 0051448,0.91751241\\Version=ES64L-G16RevC.01\HF=-1448.5816741\S2=2.029
 33\S2-1=0.\S2A=2.000551\RMSD=8.378e-09\RMSF=3.667e-03\Dipole=-6.601264
 5,0.3683183,-0.1078391\Quadrupole=-40.3205671,29.2682226,11.0523445,-0
 .7184683,2.9443174,13.7049052\PG=C01 [X(C32H18N4)]\\@
 The archive entry for this job was punched.


 KINETICS       FACT
 ---------  =  -------
 MECHANISM     FICTION
 Job cpu time:       0 days  1 hours  3 minutes  4.6 seconds.
 Elapsed time:       0 days  0 hours  2 minutes 16.5 seconds.
 File lengths (MBytes):  RWF=    314 Int=      0 D2E=      0 Chk=     25 Scr=      1
 Normal termination of Gaussian 16 at Sat Jul 13 22:23:35 2024.
