 Entering Gaussian System, Link 0=g16
 Input=JOBS/pre_B.gjf
 Output=JOBS/pre_B.log
 Initial command:
 /data/app/gaussian/C01-avx2//g16/l1.exe "/tmp/Gau-1296921.inp" -scrdir="/tmp/"
 Entering Link 1 = /data/app/gaussian/C01-avx2//g16/l1.exe PID=   1296922.
  
 Copyright (c) 1988-2019, Gaussian, Inc.  All Rights Reserved.
  
 This is part of the Gaussian(R) 16 program.  It is based on
 the Gaussian(R) 09 system (copyright 2009, Gaussian, Inc.),
 the Gaussian(R) 03 system (copyright 2003, Gaussian, Inc.),
 the Gaussian(R) 98 system (copyright 1998, Gaussian, Inc.),
 the Gaussian(R) 94 system (copyright 1995, Gaussian, Inc.),
 the Gaussian 92(TM) system (copyright 1992, Gaussian, Inc.),
 the Gaussian 90(TM) system (copyright 1990, Gaussian, Inc.),
 the Gaussian 88(TM) system (copyright 1988, Gaussian, Inc.),
 the Gaussian 86(TM) system (copyright 1986, Carnegie Mellon
 University), and the Gaussian 82(TM) system (copyright 1983,
 Carnegie Mellon University). Gaussian is a federally registered
 trademark of Gaussian, Inc.
  
 This software contains proprietary and confidential information,
 including trade secrets, belonging to Gaussian, Inc.
  
 This software is provided under written license and may be
 used, copied, transmitted, or stored only in accord with that
 written license.
  
 The following legend is applicable only to US Government
 contracts under FAR:
  
                    RESTRICTED RIGHTS LEGEND
  
 Use, reproduction and disclosure by the US Government is
 subject to restrictions as set forth in subparagraphs (a)
 and (c) of the Commercial Computer Software - Restricted
 Rights clause in FAR 52.227-19.
  
 Gaussian, Inc.
 340 Quinnipiac St., Bldg. 40, Wallingford CT 06492
  
  
 ---------------------------------------------------------------
 Warning -- This program may not be used in any manner that
 competes with the business of Gaussian, Inc. or will provide
 assistance to any competitor of Gaussian, Inc.  The licensee
 of this program is prohibited from giving any competitor of
 Gaussian, Inc. access to this program.  By using this program,
 the user acknowledges that Gaussian, Inc. is engaged in the
 business of creating and licensing software in the field of
 computational chemistry and represents and warrants to the
 licensee that it is not a competitor of Gaussian, Inc. and that
 it will not use this program in any manner prohibited above.
 ---------------------------------------------------------------
  

 Cite this work as:
 Gaussian 16, Revision C.01,
 M. J. Frisch, G. W. Trucks, H. B. Schlegel, G. E. Scuseria, 
 M. A. Robb, J. R. Cheeseman, G. Scalmani, V. Barone, 
 G. A. Petersson, H. Nakatsuji, X. Li, M. Caricato, A. V. Marenich, 
 J. Bloino, B. G. Janesko, R. Gomperts, B. Mennucci, H. P. Hratchian, 
 J. V. Ortiz, A. F. Izmaylov, J. L. Sonnenberg, D. Williams-Young, 
 F. Ding, F. Lipparini, F. Egidi, J. Goings, B. Peng, A. Petrone, 
 T. Henderson, D. Ranasinghe, V. G. Zakrzewski, J. Gao, N. Rega, 
 G. Zheng, W. Liang, M. Hada, M. Ehara, K. Toyota, R. Fukuda, 
 J. Hasegawa, M. Ishida, T. Nakajima, Y. Honda, O. Kitao, H. Nakai, 
 T. Vreven, K. Throssell, J. A. Montgomery, Jr., J. E. Peralta, 
 F. Ogliaro, M. J. Bearpark, J. J. Heyd, E. N. Brothers, K. N. Kudin, 
 V. N. Staroverov, T. A. Keith, R. Kobayashi, J. Normand, 
 K. Raghavachari, A. P. Rendell, J. C. Burant, S. S. Iyengar, 
 J. Tomasi, M. Cossi, J. M. Millam, M. Klene, C. Adamo, R. Cammi, 
 J. W. Ochterski, R. L. Martin, K. Morokuma, O. Farkas, 
 J. B. Foresman, and D. J. Fox, Gaussian, Inc., Wallingford CT, 2019.
 
 ******************************************
 Gaussian 16:  ES64L-G16RevC.01  3-Jul-2019
                13-Jul-2024 
 ******************************************
 %chk=b.chk
 %nprocshared=28
 Will use up to   28 processors via shared memory.
 %mem=48gb
 --------------------------------------------------------
 # 6-31g(d) m062x g09default scf=(xqc,maxcycle=64) nosymm
 --------------------------------------------------------
 1/38=1,158=3,167=1,172=1/1;
 2/12=2,15=1,17=6,18=5,40=1/2;
 3/5=1,6=6,7=1,11=2,25=1,27=10,30=1,74=-55,75=-4,158=3/1,2,3;
 4/60=-1/1;
 5/5=2,7=64,8=3,13=1,38=5,87=10/2,8;
 6/7=2,8=2,9=2,10=2,28=1,87=10/1;
 99/5=1,9=1/99;
 Using 2006 physical constants.
 ----------
 Title Card
 ----------
 Symbolic Z-matrix:
 Charge =  0 Multiplicity = 3
 6                     1.40869   0.49706  -0.47944 
 6                     1.42511  -0.49987   0.55947 
 6                     2.63519  -0.97384   1.01646 
 6                     3.8466   -0.49524   0.49843 
 6                     3.81979   0.49213  -0.57723 
 6                     2.58423   0.97702  -1.01584 
 1                     2.65855  -1.74276   1.78506 
 1                     2.55234   1.74801  -1.78154 
 6                     5.00108   0.96327  -1.20509 
 7                     5.94468   1.36762  -1.74989 
 6                     5.06982  -0.97645   1.0283 
 7                     6.06604  -1.37982   1.47509 
 6                    -0.32992   2.24341  -0.26552 
 6                    -0.87745   0.46952  -1.52453 
 6                     0.37068   3.16491   0.52599 
 6                    -1.68877   2.42815  -0.63699 
 6                    -0.83604  -0.72972  -2.23267 
 6                    -2.03864   1.27431  -1.45896 
 6                    -0.32678   4.28247   0.95905 
 1                     1.41958   3.01062   0.75635 
 6                    -2.35596   3.56251  -0.20466 
 6                    -2.0086   -1.12865  -2.87944 
 1                     0.07522  -1.31261  -2.29036 
 6                    -3.175     0.88038  -2.14253 
 6                    -1.66736   4.48174   0.59762 
 1                     0.17785   5.02038   1.5726 
 1                    -3.38865   3.74784  -0.48132 
 6                    -3.15515  -0.33725  -2.84571 
 1                    -2.0125   -2.06387  -3.42876 
 1                    -4.06475   1.50094  -2.14815 
 1                    -2.17865   5.37655   0.93529 
 1                    -4.04345  -0.6574   -3.37754 
 6                    -0.87875  -0.48276   1.59468 
 6                    -0.30437  -2.25561   0.33872 
 6                    -0.8668    0.69988   2.33275 
 6                    -2.04636  -1.26614   1.4629 
 6                     0.39206  -3.19304  -0.43429 
 6                    -1.68402  -2.40849   0.64281 
 6                    -2.06237   1.09194   2.93469 
 1                     0.04599   1.27234   2.45189 
 6                    -3.21872  -0.8713    2.09775 
 6                    -0.32028  -4.27575  -0.91656 
 1                     1.4571   -3.07725  -0.62212 
 6                    -2.3754   -3.50592   0.1473 
 6                    -3.22059   0.31781   2.82906 
 1                    -2.0863    2.01329   3.50871 
 1                    -4.11756  -1.47796   2.03233 
 6                    -1.69263  -4.43154  -0.63857 
 1                     0.18851  -5.02922  -1.50874 
 1                    -3.43173  -3.64139   0.36621 
 1                    -4.12911   0.63864   3.32781 
 1                    -2.21834  -5.29087  -1.0366 
 7                     0.13846   1.07271  -0.80017 
 7                     0.16713  -1.092     0.90609 
 
 Symmetry turned off by external request.
 Stoichiometry    C32H18N4(3)
 Framework group  C1[X(C32H18N4)]
 Deg. of freedom   156
 Full point group                 C1      NOp   1
                          Input orientation:                          
 ---------------------------------------------------------------------
 Center     Atomic      Atomic             Coordinates (Angstroms)
 Number     Number       Type             X           Y           Z
 ---------------------------------------------------------------------
      1          6           0        1.408689    0.497060   -0.479442
      2          6           0        1.425112   -0.499871    0.559470
      3          6           0        2.635189   -0.973837    1.016456
      4          6           0        3.846596   -0.495244    0.498433
      5          6           0        3.819785    0.492126   -0.577234
      6          6           0        2.584226    0.977019   -1.015841
      7          1           0        2.658553   -1.742761    1.785060
      8          1           0        2.552337    1.748009   -1.781540
      9          6           0        5.001085    0.963269   -1.205086
     10          7           0        5.944679    1.367615   -1.749889
     11          6           0        5.069816   -0.976448    1.028303
     12          7           0        6.066043   -1.379818    1.475090
     13          6           0       -0.329916    2.243409   -0.265517
     14          6           0       -0.877447    0.469517   -1.524531
     15          6           0        0.370675    3.164910    0.525994
     16          6           0       -1.688769    2.428148   -0.636991
     17          6           0       -0.836038   -0.729718   -2.232668
     18          6           0       -2.038637    1.274313   -1.458963
     19          6           0       -0.326778    4.282468    0.959049
     20          1           0        1.419577    3.010619    0.756347
     21          6           0       -2.355957    3.562513   -0.204662
     22          6           0       -2.008604   -1.128652   -2.879442
     23          1           0        0.075215   -1.312611   -2.290357
     24          6           0       -3.174997    0.880381   -2.142531
     25          6           0       -1.667357    4.481738    0.597615
     26          1           0        0.177845    5.020380    1.572604
     27          1           0       -3.388654    3.747841   -0.481317
     28          6           0       -3.155148   -0.337253   -2.845707
     29          1           0       -2.012501   -2.063870   -3.428756
     30          1           0       -4.064748    1.500936   -2.148147
     31          1           0       -2.178653    5.376552    0.935287
     32          1           0       -4.043448   -0.657396   -3.377538
     33          6           0       -0.878746   -0.482762    1.594679
     34          6           0       -0.304370   -2.255612    0.338720
     35          6           0       -0.866801    0.699878    2.332748
     36          6           0       -2.046356   -1.266137    1.462900
     37          6           0        0.392059   -3.193043   -0.434287
     38          6           0       -1.684023   -2.408491    0.642814
     39          6           0       -2.062365    1.091945    2.934694
     40          1           0        0.045986    1.272338    2.451891
     41          6           0       -3.218721   -0.871304    2.097749
     42          6           0       -0.320279   -4.275745   -0.916562
     43          1           0        1.457095   -3.077246   -0.622124
     44          6           0       -2.375395   -3.505920    0.147299
     45          6           0       -3.220587    0.317814    2.829063
     46          1           0       -2.086303    2.013288    3.508711
     47          1           0       -4.117560   -1.477961    2.032325
     48          6           0       -1.692629   -4.431536   -0.638573
     49          1           0        0.188505   -5.029221   -1.508743
     50          1           0       -3.431730   -3.641391    0.366208
     51          1           0       -4.129112    0.638636    3.327812
     52          1           0       -2.218338   -5.290868   -1.036605
     53          7           0        0.138459    1.072707   -0.800167
     54          7           0        0.167130   -1.092000    0.906091
 ---------------------------------------------------------------------
 Rotational constants (GHZ):           0.1590043           0.1163971           0.0924966
 Standard basis: 6-31G(d) (6D, 7F)
   576 basis functions,  1080 primitive gaussians,   576 cartesian basis functions
   120 alpha electrons      118 beta electrons
       nuclear repulsion energy      3659.6631482799 Hartrees.
 NAtoms=   54 NActive=   54 NUniq=   54 SFac= 1.00D+00 NAtFMM=   60 NAOKFM=F Big=F
 Integral buffers will be    131072 words long.
 Raffenetti 2 integral format.
 Two-electron integral symmetry is turned off.
 One-electron integrals computed using PRISM.
 NBasis=   576 RedAO= T EigKep=  2.59D-04  NBF=   576
 NBsUse=   576 1.00D-06 EigRej= -1.00D+00 NBFU=   576
 ExpMin= 1.61D-01 ExpMax= 4.17D+03 ExpMxC= 6.27D+02 IAcc=2 IRadAn=         4 AccDes= 0.00D+00
 Harris functional with IExCor= 1009 and IRadAn=      -1 diagonalized for initial guess.
 HarFok:  IExCor= 1009 AccDes= 0.00D+00 IRadAn=        -1 IDoV= 1 UseB2=F ITyADJ=14
 ICtDFT=  3500011 ScaDFX=  1.000000  1.000000  1.000000  1.000000
 FoFCou: FMM=F IPFlag=           0 FMFlag=      100000 FMFlg1=           0
         NFxFlg=           0 DoJE=T BraDBF=F KetDBF=T FulRan=T
         wScrn=  0.000000 ICntrl=       500 IOpCl=  0 I1Cent=   200000004 NGrid=           0
         NMat0=    1 NMatS0=      1 NMatT0=    0 NMatD0=    1 NMtDS0=    0 NMtDT0=    0
 Symmetry not used in FoFCou.
 Initial guess <Sx>= 0.0000 <Sy>= 0.0000 <Sz>= 1.0000 <S**2>= 2.0000 S= 1.0000
 Requested convergence on RMS density matrix=1.00D-08 within  64 cycles.
 Requested convergence on MAX density matrix=1.00D-06.
 Requested convergence on             energy=1.00D-06.
 No special actions if energy rises.
 Integral accuracy reduced to 1.0D-05 until final iterations.
