
                                 *****************
                                 * O   R   C   A *
                                 *****************

                                            #,                                       
                                            ###                                      
                                            ####                                     
                                            #####                                    
                                            ######                                   
                                           ########,                                 
                                     ,,################,,,,,                         
                               ,,#################################,,                 
                          ,,##########################################,,             
                       ,#########################################, ''#####,          
                    ,#############################################,,   '####,        
                  ,##################################################,,,,####,       
                ,###########''''           ''''###############################       
              ,#####''   ,,,,##########,,,,          '''####'''          '####       
            ,##' ,,,,###########################,,,                        '##       
           ' ,,###''''                  '''############,,,                           
         ,,##''                                '''############,,,,        ,,,,,,###''
      ,#''                                            '''#######################'''  
     '                                                          ''''####''''         
             ,#######,   #######,   ,#######,      ##                                
            ,#'     '#,  ##    ##  ,#'     '#,    #''#        ######   ,####,        
            ##       ##  ##   ,#'  ##            #'  '#       #        #'  '#        
            ##       ##  #######   ##           ,######,      #####,   #    #        
            '#,     ,#'  ##    ##  '#,     ,#' ,#      #,         ##   #,  ,#        
             '#######'   ##     ##  '#######'  #'      '#     #####' # '####'        



                  #######################################################
                  #                        -***-                        #
                  #          Department of theory and spectroscopy      #
                  #    Directorship and core code : Frank Neese         #
                  #        Max Planck Institute fuer Kohlenforschung    #
                  #                Kaiser Wilhelm Platz 1               #
                  #                 D-45470 Muelheim/Ruhr               #
                  #                      Germany                        #
                  #                                                     #
                  #                  All rights reserved                #
                  #                        -***-                        #
                  #######################################################


                         Program Version 5.0.1 -  RELEASE  -


 With contributions from (in alphabetic order):
   Daniel Aravena         : Magnetic Suceptibility
   Michael Atanasov       : Ab Initio Ligand Field Theory (pilot matlab implementation)
   Alexander A. Auer      : GIAO ZORA, VPT2 properties, NMR spectrum
   Ute Becker             : Parallelization
   Giovanni Bistoni       : ED, misc. LED, open-shell LED, HFLD
   Martin Brehm           : Molecular dynamics
   Dmytro Bykov           : SCF Hessian
   Vijay G. Chilkuri      : MRCI spin determinant printing, contributions to CSF-ICE
   Dipayan Datta          : RHF DLPNO-CCSD density
   Achintya Kumar Dutta   : EOM-CC, STEOM-CC
   Dmitry Ganyushin       : Spin-Orbit,Spin-Spin,Magnetic field MRCI
   Miquel Garcia          : C-PCM and meta-GGA Hessian, CC/C-PCM, Gaussian charge scheme
   Yang Guo               : DLPNO-NEVPT2, F12-NEVPT2, CIM, IAO-localization
   Andreas Hansen         : Spin unrestricted coupled pair/coupled cluster methods
   Benjamin Helmich-Paris : MC-RPA, TRAH-SCF, COSX integrals
   Lee Huntington         : MR-EOM, pCC
   Robert Izsak           : Overlap fitted RIJCOSX, COSX-SCS-MP3, EOM
   Marcus Kettner         : VPT2
   Christian Kollmar      : KDIIS, OOCD, Brueckner-CCSD(T), CCSD density, CASPT2, CASPT2-K
   Simone Kossmann        : Meta GGA functionals, TD-DFT gradient, OOMP2, MP2 Hessian
   Martin Krupicka        : Initial AUTO-CI
   Lucas Lang             : DCDCAS
   Marvin Lechner         : AUTO-CI (C++ implementation), FIC-MRCC
   Dagmar Lenk            : GEPOL surface, SMD
   Dimitrios Liakos       : Extrapolation schemes; Compound Job, initial MDCI parallelization
   Dimitrios Manganas     : Further ROCIS development; embedding schemes
   Dimitrios Pantazis     : SARC Basis sets
   Anastasios Papadopoulos: AUTO-CI, single reference methods and gradients
   Taras Petrenko         : DFT Hessian,TD-DFT gradient, ASA, ECA, R-Raman, ABS, FL, XAS/XES, NRVS
   Peter Pinski           : DLPNO-MP2, DLPNO-MP2 Gradient
   Christoph Reimann      : Effective Core Potentials
   Marius Retegan         : Local ZFS, SOC
   Christoph Riplinger    : Optimizer, TS searches, QM/MM, DLPNO-CCSD(T), (RO)-DLPNO pert. Triples
   Tobias Risthaus        : Range-separated hybrids, TD-DFT gradient, RPA, STAB
   Michael Roemelt        : Original ROCIS implementation
   Masaaki Saitow         : Open-shell DLPNO-CCSD energy and density
   Barbara Sandhoefer     : DKH picture change effects
   Avijit Sen             : IP-ROCIS
   Kantharuban Sivalingam : CASSCF convergence, NEVPT2, FIC-MRCI
   Bernardo de Souza      : ESD, SOC TD-DFT
   Georgi Stoychev        : AutoAux, RI-MP2 NMR, DLPNO-MP2 response
   Willem Van den Heuvel  : Paramagnetic NMR
   Boris Wezisla          : Elementary symmetry handling
   Frank Wennmohs         : Technical directorship


 We gratefully acknowledge several colleagues who have allowed us to
 interface, adapt or use parts of their codes:
   Stefan Grimme, W. Hujo, H. Kruse, P. Pracht,  : VdW corrections, initial TS optimization,
                  C. Bannwarth, S. Ehlert          DFT functionals, gCP, sTDA/sTD-DF
   Ed Valeev, F. Pavosevic, A. Kumar             : LibInt (2-el integral package), F12 methods
   Garnet Chan, S. Sharma, J. Yang, R. Olivares  : DMRG
   Ulf Ekstrom                                   : XCFun DFT Library
   Mihaly Kallay                                 : mrcc  (arbitrary order and MRCC methods)
   Jiri Pittner, Ondrej Demel                    : Mk-CCSD
   Frank Weinhold                                : gennbo (NPA and NBO analysis)
   Christopher J. Cramer and Donald G. Truhlar   : smd solvation model
   Lars Goerigk                                  : TD-DFT with DH, B97 family of functionals
   V. Asgeirsson, H. Jonsson                     : NEB implementation
   FAccTs GmbH                                   : IRC, NEB, NEB-TS, DLPNO-Multilevel, CI-OPT
                                                   MM, QMMM, 2- and 3-layer-ONIOM, Crystal-QMMM,
                                                   LR-CPCM, SF, NACMEs, symmetry and pop. for TD-DFT,
                                                   nearIR, NL-DFT gradient (VV10), updates on ESD,
                                                   ML-optimized integration grids
   S Lehtola, MJT Oliveira, MAL Marques          : LibXC Library
   Liviu Ungur et al                             : ANISO software


 Your calculation uses the libint2 library for the computation of 2-el integrals
 For citations please refer to: http://libint.valeyev.net

 Your ORCA version has been built with support for libXC version: 5.1.0
 For citations please refer to: https://tddft.org/programs/libxc/

 This ORCA versions uses:
   CBLAS   interface :  Fast vector & matrix operations
   LAPACKE interface :  Fast linear algebra routines
   SCALAPACK package :  Parallel linear algebra routines
   Shared memory     :  Shared parallel matrices
   BLAS/LAPACK       :  OpenBLAS 0.3.15  USE64BITINT DYNAMIC_ARCH NO_AFFINITY Zen SINGLE_THREADED
        Core in use  :  Zen
   Copyright (c) 2011-2014, The OpenBLAS Project


================================================================================

----- Orbital basis set information -----
Your calculation utilizes the basis: 6-31G(d)
   H-He, Li-Ne : W. J. Hehre, R. Ditchfield and J.A. Pople, J. Chem. Phys. 56, 2257 (1972).
                 Note: He and Ne are unpublished basis sets taken from the Gaussian program.
                 Note: Li and B from J. D. Dill and J. A. Pople, J. Chem. Phys. 62, 2921 (1975).
   Na - Ar     : M. M. Francl, W. J. Pietro, W. J. Hehre, J. S. Binkley, M. S. Gordon, 
                 D. J. DeFrees and J. A. Pople, J. Chem. Phys. 77, 3654 (1982).
   K - Zn      : V. A. Rassolov, J. A. Pople, M. A. Ratner, and T. L. Windus, J. Chem. Phys. 109, 1223 (1998).

----- AuxJ basis set information -----
Your calculation utilizes the auxiliary basis: def2/J
   F. Weigend, Phys. Chem. Chem. Phys. 8, 1057 (2006).

================================================================================
                                        WARNINGS
                       Please study these warnings very carefully!
================================================================================


WARNING: your system is open-shell and RHF/RKS was chosen
  ===> : WILL SWITCH to UHF/UKS

INFO   : Checking CIS options ...

WARNING: CIS/ROCIS methods need fully converged wavefunctions
  ===> : Setting SCFConvForced true
         You can overwrite this default with %scf ConvForced false 


INFO   : the flag for use of the SHARK integral package has been found!

================================================================================
                                       INPUT FILE
================================================================================
NAME = JOBS/7_B.inp
|  1> %pal nprocs 28 end
|  2> %maxcore 1000 
|  3> ! b3lyp 6-31g(d) engrad 
|  4> !moread 
|  5>  %moinp "JOBS/b.gbw"
|  6>  
|  7> 
|  8>  *xyz 0 3
|  9> c  1.526680316320647  0.529596863537013  -1.009634373979764e-08
| 10> h  1.6206766456829864  -0.6642200705878063  3.168588741263706e-08
| 11> h  0.36947460755088285  0.23112315346199386  2.9085610315522252e-08
| 12> *
| 13> %tddft sf true
| 14> nroots 2
| 15> iroot 1
| 16> end
| 17> 
| 18> 
| 19>                          ****END OF INPUT****
================================================================================

                     *******************************
                     * Energy+Gradient Calculation *
                     *******************************

---------------------------------
CARTESIAN COORDINATES (ANGSTROEM)
---------------------------------
  C      1.526680    0.529597   -0.000000
  H      1.620677   -0.664220    0.000000
  H      0.369475    0.231123    0.000000

----------------------------
CARTESIAN COORDINATES (A.U.)
----------------------------
  NO LB      ZA    FRAG     MASS         X           Y           Z
   0 C     6.0000    0    12.011    2.885008    1.000793   -0.000000
   1 H     1.0000    0     1.008    3.062635   -1.255194    0.000000
   2 H     1.0000    0     1.008    0.698206    0.436759    0.000000

--------------------------------
INTERNAL COORDINATES (ANGSTROEM)
--------------------------------
 C      0   0   0     0.000000000000     0.00000000     0.00000000
 H      1   0   0     1.197511662631     0.00000000     0.00000000
 H      1   2   0     1.195078076117    80.03908525     0.00000000

---------------------------
INTERNAL COORDINATES (A.U.)
---------------------------
 C      0   0   0     0.000000000000     0.00000000     0.00000000
 H      1   0   0     2.262969084549     0.00000000     0.00000000
 H      1   2   0     2.258370272514    80.03908525     0.00000000

---------------------
BASIS SET INFORMATION
---------------------
There are 2 groups of distinct atoms

 Group   1 Type C   : 10s4p1d contracted to 3s2p1d pattern {631/31/1}
 Group   2 Type H   : 4s contracted to 2s pattern {31}

Atom   0C    basis set group =>   1
Atom   1H    basis set group =>   2
Atom   2H    basis set group =>   2
---------------------------------
AUXILIARY/J BASIS SET INFORMATION
---------------------------------
There are 2 groups of distinct atoms

 Group   1 Type C   : 12s5p4d2f1g contracted to 6s4p3d1f1g pattern {711111/2111/211/2/1}
 Group   2 Type H   : 5s2p1d contracted to 3s1p1d pattern {311/2/1}

Atom   0C    basis set group =>   1
Atom   1H    basis set group =>   2
Atom   2H    basis set group =>   2


           ************************************************************
           *        Program running with 28 parallel MPI-processes    *
           *              working on a common directory               *
           ************************************************************
------------------------------------------------------------------------------
                           ORCA GTO INTEGRAL CALCULATION
                           -- RI-GTO INTEGRALS CHOSEN --
------------------------------------------------------------------------------
------------------------------------------------------------------------------
                   ___                                                        
                  /   \      - P O W E R E D   B Y -                         
                 /     \                                                     
                 |  |  |   _    _      __       _____    __    __             
                 |  |  |  | |  | |    /  \     |  _  \  |  |  /  |          
                  \  \/   | |  | |   /    \    | | | |  |  | /  /          
                 / \  \   | |__| |  /  /\  \   | |_| |  |  |/  /          
                |  |  |   |  __  | /  /__\  \  |    /   |      \           
                |  |  |   | |  | | |   __   |  |    \   |  |\   \          
                \     /   | |  | | |  |  |  |  | |\  \  |  | \   \       
                 \___/    |_|  |_| |__|  |__|  |_| \__\ |__|  \__/        
                                                                              
                      - O R C A' S   B I G   F R I E N D -                    
                                      &                                       
                       - I N T E G R A L  F E E D E R -                       
                                                                              
 v1 FN, 2020, v2 2021                                                         
------------------------------------------------------------------------------


Reading SHARK input file JOBS/7_B.SHARKINP.tmp ... ok
----------------------
SHARK INTEGRAL PACKAGE
----------------------

Number of atoms                             ...      3
Number of basis functions                   ...     18
Number of shells                            ...     10
Maximum angular momentum                    ...      2
Integral batch strategy                     ... SHARK/LIBINT Hybrid
RI-J (if used) integral strategy            ... SPLIT-RIJ (Revised 2003 algorithm where possible)
Printlevel                                  ...      1
Contraction scheme used                     ... SEGMENTED contraction
Coulomb Range Separation                    ... NOT USED
Exchange Range Separation                   ... NOT USED
Finite Nucleus Model                        ... NOT USED
Auxiliary Coulomb fitting basis             ... AVAILABLE
   # of basis functions in Aux-J            ...     71
   # of shells in Aux-J                     ...     25
   Maximum angular momentum in Aux-J        ...      4
Auxiliary J/K fitting basis                 ... NOT available
Auxiliary Correlation fitting basis         ... NOT available
Auxiliary 'external' fitting basis          ... NOT available
Integral threshold                          ...     2.500000e-11
Primitive cut-off                           ...     2.500000e-12
Primitive pair pre-selection threshold      ...     2.500000e-12

Calculating pre-screening integrals         ... done (  0.0 sec) Dimension = 10
Organizing shell pair data                  ... done (  0.0 sec)
Shell pair information
Total number of shell pairs                 ...        55
Shell pairs after pre-screening             ...        55
Total number of primitive shell pairs       ...       303
Primitive shell pairs kept                  ...       288
          la=0 lb=0:     28 shell pairs
          la=1 lb=0:     14 shell pairs
          la=1 lb=1:      3 shell pairs
          la=2 lb=0:      7 shell pairs
          la=2 lb=1:      2 shell pairs
          la=2 lb=2:      1 shell pairs

Calculating one electron integrals          ... done (  0.0 sec)
Calculating RI/J V-Matrix + Cholesky decomp.... done (  0.0 sec)
Calculating Nuclear repulsion               ... done (  0.0 sec) ENN=      5.652111788795 Eh

SHARK setup successfully completed in   0.1 seconds

Maximum memory used throughout the entire GTOINT-calculation: 9.5 MB


           ************************************************************
           *        Program running with 28 parallel MPI-processes    *
           *              working on a common directory               *
           ************************************************************
-------------------------------------------------------------------------------
                                 ORCA SCF
-------------------------------------------------------------------------------

------------
SCF SETTINGS
------------
Hamiltonian:
 Density Functional     Method          .... DFT(GTOs)
 Exchange Functional    Exchange        .... B88
   X-Alpha parameter    XAlpha          ....  0.666667
   Becke's b parameter  XBeta           ....  0.004200
 Correlation Functional Correlation     .... LYP
 LDA part of GGA corr.  LDAOpt          .... VWN-5
 Gradients option       PostSCFGGA      .... off
 Hybrid DFT is turned on
   Fraction HF Exchange ScalHFX         ....  0.200000
   Scaling of DF-GGA-X  ScalDFX         ....  0.720000
   Scaling of DF-GGA-C  ScalDFC         ....  0.810000
   Scaling of DF-LDA-C  ScalLDAC        ....  1.000000
   Perturbative correction              ....  0.000000
   Density functional embedding theory  .... OFF
   NL short-range parameter             ....  4.800000
 RI-approximation to the Coulomb term is turned on
   Number of AuxJ basis functions       .... 71
   RIJ-COSX (HFX calculated with COS-X)).... on


General Settings:
 Integral files         IntName         .... JOBS/7_B
 Hartree-Fock type      HFTyp           .... UHF
 Total Charge           Charge          ....    0
 Multiplicity           Mult            ....    3
 Number of Electrons    NEL             ....    8
 Basis Dimension        Dim             ....   18
 Nuclear Repulsion      ENuc            ....      5.6521117888 Eh

Convergence Acceleration:
 DIIS                   CNVDIIS         .... on
   Start iteration      DIISMaxIt       ....    12
   Startup error        DIISStart       ....  0.200000
   # of expansion vecs  DIISMaxEq       ....     5
   Bias factor          DIISBfac        ....   1.050
   Max. coefficient     DIISMaxC        ....  10.000
 Trust-Rad. Augm. Hess. CNVTRAH         .... auto
   Auto Start mean grad. ratio tolernc. ....  1.125000
   Auto Start start iteration           ....     1
   Auto Start num. interpolation iter.  ....    10
   Max. Number of Micro iterations      ....    16
   Max. Number of Macro iterations      .... Maxiter - #DIIS iter
   Number of Davidson start vectors     ....     2
   Converg. threshold I  (grad. norm)   ....   1.000e-05
   Converg. threshold II (energy diff.) ....   1.000e-08
   Grad. Scal. Fac. for Micro threshold ....   0.100
   Minimum threshold for Micro iter.    ....   0.010
   NR start threshold (gradient norm)   ....   0.001
   Initial trust radius                 ....   0.400
   Minimum AH scaling param. (alpha)    ....   1.000
   Maximum AH scaling param. (alpha)    .... 1000.000
   Orbital update algorithm             .... Taylor
   White noise on init. David. guess    .... on
   Maximum white noise                  ....   0.010
   Quad. conv. algorithm                .... NR
 SOSCF                  CNVSOSCF        .... off
 Level Shifting         CNVShift        .... on
   Level shift para.    LevelShift      ....    0.2500
   Turn off err/grad.   ShiftErr        ....    0.0010
 Zerner damping         CNVZerner       .... off
 Static damping         CNVDamp         .... on
   Fraction old density DampFac         ....    0.7000
   Max. Damping (<1)    DampMax         ....    0.9800
   Min. Damping (>=0)   DampMin         ....    0.0000
   Turn off err/grad.   DampErr         ....    0.1000
 Fernandez-Rico         CNVRico         .... off

SCF Procedure:
 Maximum # iterations   MaxIter         ....   125
 SCF integral mode      SCFMode         .... Direct
   Integral package                     .... SHARK and LIBINT hybrid scheme
 Reset frequency        DirectResetFreq ....    20
 Integral Threshold     Thresh          ....  2.500e-11 Eh
 Primitive CutOff       TCut            ....  2.500e-12 Eh

Convergence Tolerance:
 Convergence Check Mode ConvCheckMode   .... Total+1el-Energy
 Convergence forced     ConvForced      .... 1
 Energy Change          TolE            ....  1.000e-08 Eh
 1-El. energy change                    ....  1.000e-05 Eh
 DIIS Error             TolErr          ....  5.000e-07


Diagonalization of the overlap matrix:
Smallest eigenvalue                        ... 3.912e-02
Time for diagonalization                   ...    0.000 sec
Threshold for overlap eigenvalues          ... 1.000e-08
Number of eigenvalues below threshold      ... 0
Time for construction of square roots      ...    0.000 sec
Total time needed                          ...    0.001 sec

---------------------
INITIAL GUESS: MOREAD
---------------------
Guess MOs are being read from file: JOBS/b.gbw
Input geometry compatible with but different from current geometry
Input basis set matches current basis set (good)
MOs were renormalized
MOs were reorthogonalized (Cholesky)
                      ------------------
                      INITIAL GUESS DONE (   0.0 sec)
                      ------------------
-------------------
DFT GRID GENERATION
-------------------

General Integration Accuracy     IntAcc      ... 4.388
Radial Grid Type                 RadialGrid  ... OptM3 with GC (2021)
Angular Grid (max. ang.)         AngularGrid ... 4 (Lebedev-302)
Angular grid pruning method      GridPruning ... 4 (adaptive)
Weight generation scheme         WeightScheme... Becke
Basis function cutoff            BFCut       ... 1.0000e-11
Integration weight cutoff        WCut        ... 1.0000e-14
Angular grids for H and He will be reduced by one unit
Partially contracted basis set               ... off
Rotationally invariant grid construction     ... off

Total number of grid points                  ...    12760
Total number of batches                      ...      201
Average number of points per batch           ...       63
Average number of grid points per atom       ...     4253
Time for grid setup =    0.047 sec

--------------------
COSX GRID GENERATION
--------------------

GRIDX 1
-------
General Integration Accuracy     IntAcc      ... 3.816
Radial Grid Type                 RadialGrid  ... OptM3 with GC (2021)
Angular Grid (max. ang.)         AngularGrid ... 1 (Lebedev-50)
Angular grid pruning method      GridPruning ... 4 (adaptive)
Weight generation scheme         WeightScheme... Becke
Basis function cutoff            BFCut       ... 1.0000e-11
Integration weight cutoff        WCut        ... 1.0000e-14
Angular grids for H and He will be reduced by one unit
Partially contracted basis set               ... on
Rotationally invariant grid construction     ... off

Total number of grid points                  ...     1655
Total number of batches                      ...       27
Average number of points per batch           ...       61
Average number of grid points per atom       ...      552
UseSFitting                                  ... on

GRIDX 2
-------
General Integration Accuracy     IntAcc      ... 4.020
Radial Grid Type                 RadialGrid  ... OptM3 with GC (2021)
Angular Grid (max. ang.)         AngularGrid ... 2 (Lebedev-110)
Angular grid pruning method      GridPruning ... 4 (adaptive)
Weight generation scheme         WeightScheme... Becke
Basis function cutoff            BFCut       ... 1.0000e-11
Integration weight cutoff        WCut        ... 1.0000e-14
Angular grids for H and He will be reduced by one unit
Partially contracted basis set               ... on
Rotationally invariant grid construction     ... off

Total number of grid points                  ...     3504
Total number of batches                      ...       56
Average number of points per batch           ...       62
Average number of grid points per atom       ...     1168
UseSFitting                                  ... on

GRIDX 3
-------
General Integration Accuracy     IntAcc      ... 4.338
Radial Grid Type                 RadialGrid  ... OptM3 with GC (2021)
Angular Grid (max. ang.)         AngularGrid ... 3 (Lebedev-194)
Angular grid pruning method      GridPruning ... 4 (adaptive)
Weight generation scheme         WeightScheme... Becke
Basis function cutoff            BFCut       ... 1.0000e-11
Integration weight cutoff        WCut        ... 1.0000e-14
Angular grids for H and He will be reduced by one unit
Partially contracted basis set               ... on
Rotationally invariant grid construction     ... off

Total number of grid points                  ...     7788
Total number of batches                      ...      124
Average number of points per batch           ...       62
Average number of grid points per atom       ...     2596
UseSFitting                                  ... on

Time for X-Grid setup             =    0.028 sec

--------------
SCF ITERATIONS
--------------
ITER       Energy         Delta-E        Max-DP      RMS-DP      [F,P]     Damp
               ***  Starting incremental Fock matrix formation  ***
  0    -39.0571172447   0.000000000000 0.00032563  0.00003926  0.0020126 0.7000
  1    -39.0571214512  -0.000004206456 0.00030592  0.00003741  0.0016286 0.7000
                               ***Turning on DIIS***
  2    -39.0571246742  -0.000003223045 0.00080112  0.00009943  0.0012819 0.0000
  3    -39.0571329084  -0.000008234138 0.00038158  0.00004867  0.0003419 0.0000
               *** Restarting incremental Fock matrix formation ***
                                   *** Resetting DIIS ***
  4    -39.0571333689  -0.000000460493 0.00025018  0.00003344  0.0002644 0.0000
  5    -39.0571335137  -0.000000144776 0.00013781  0.00001676  0.0002534 0.0000
  6    -39.0571336425  -0.000000128824 0.00007030  0.00000979  0.0000429 0.0000
  7    -39.0571336774  -0.000000034908 0.00005042  0.00000653  0.0000171 0.0000
                 **** Energy Check signals convergence ****

               *****************************************************
               *                     SUCCESS                       *
               *           SCF CONVERGED AFTER   8 CYCLES          *
               *****************************************************

Old exchange energy                            =     -1.157511944 Eh
New exchange energy                            =     -1.157504645 Eh
Exchange energy change after final integration =      0.000007300 Eh
Total energy after final integration           =    -39.057126387 Eh
Final COS-X integration done in                =     0.021 sec

----------------
TOTAL SCF ENERGY
----------------

Total Energy       :          -39.05712639 Eh           -1062.79844 eV

Components:
Nuclear Repulsion  :            5.65211179 Eh             153.80178 eV
Electronic Energy  :          -44.70923818 Eh           -1216.60022 eV
One Electron Energy:          -62.93849753 Eh           -1712.64359 eV
Two Electron Energy:           18.22925936 Eh             496.04337 eV
Max COSX asymmetry :            0.00000017 Eh               0.00000 eV

Virial components:
Potential Energy   :          -77.77729642 Eh           -2116.42783 eV
Kinetic Energy     :           38.72017003 Eh            1053.62939 eV
Virial Ratio       :            2.00870235


DFT components:
N(Alpha)           :        4.999999956113 electrons
N(Beta)            :        2.999999901841 electrons
N(Total)           :        7.999999857954 electrons
E(X)               :       -4.583979248837 Eh       
E(C)               :       -0.256473068605 Eh       
E(XC)              :       -4.840452317441 Eh       
DFET-embed. en.    :        0.000000000000 Eh       

---------------
SCF CONVERGENCE
---------------

  Last Energy change         ...   -9.4500e-09  Tolerance :   1.0000e-08
  Last MAX-Density change    ...    0.0000e+00  Tolerance :   1.0000e-07
  Last RMS-Density change    ...    0.0000e+00  Tolerance :   5.0000e-09
  Last DIIS Error            ...    3.0117e-06  Tolerance :   5.0000e-07

             **** THE GBW FILE WAS UPDATED (JOBS/7_B.gbw) ****
             **** DENSITY JOBS/7_B.scfp WAS UPDATED ****
             **** ENERGY FILE WAS UPDATED (JOBS/7_B.en.tmp) ****
----------------------
UHF SPIN CONTAMINATION
----------------------

Warning: in a DFT calculation there is little theoretical justification to 
         calculate <S**2> as in Hartree-Fock theory. We will do it anyways
         but you should keep in mind that the values have only limited relevance

Expectation value of <S**2>     :     2.004726
Ideal value S*(S+1) for S=1.0   :     2.000000
Deviation                       :     0.004726

             **** THE GBW FILE WAS UPDATED (JOBS/7_B.gbw) ****
             **** DENSITY JOBS/7_B.scfp WAS UPDATED ****
----------------
ORBITAL ENERGIES
----------------
                 SPIN UP ORBITALS
  NO   OCC          E(Eh)            E(eV) 
   0   1.0000     -10.248886      -278.8864 
   1   1.0000      -0.667650       -18.1677 
   2   1.0000      -0.352039        -9.5795 
   3   1.0000      -0.348393        -9.4803 
   4   1.0000      -0.243940        -6.6380 
   5   0.0000       0.098770         2.6877 
   6   0.0000       0.107709         2.9309 
   7   0.0000       0.519287        14.1305 
   8   0.0000       0.528553        14.3827 
   9   0.0000       0.545281        14.8378 
  10   0.0000       0.780089        21.2273 
  11   0.0000       0.818842        22.2818 
  12   0.0000       0.852122        23.1874 
  13   0.0000       1.624219        44.1972 
  14   0.0000       1.643570        44.7238 
  15   0.0000       1.654587        45.0236 
  16   0.0000       1.924353        52.3643 
  17   0.0000       2.028886        55.2088 

                 SPIN DOWN ORBITALS
  NO   OCC          E(Eh)            E(eV) 
   0   1.0000     -10.217955      -278.0447 
   1   1.0000      -0.599876       -16.3235 
   2   1.0000      -0.321097        -8.7375 
   3   0.0000      -0.144671        -3.9367 
   4   0.0000      -0.037188        -1.0119 
   5   0.0000       0.126057         3.4302 
   6   0.0000       0.141745         3.8571 
   7   0.0000       0.562573        15.3084 
   8   0.0000       0.612198        16.6588 
   9   0.0000       0.618051        16.8180 
  10   0.0000       0.804501        21.8916 
  11   0.0000       0.860362        23.4116 
  12   0.0000       0.891427        24.2570 
  13   0.0000       1.718521        46.7633 
  14   0.0000       1.750146        47.6239 
  15   0.0000       1.768276        48.1172 
  16   0.0000       2.052559        55.8530 
  17   0.0000       2.096642        57.0525 

                    ********************************
                    * MULLIKEN POPULATION ANALYSIS *
                    ********************************

--------------------------------------------
MULLIKEN ATOMIC CHARGES AND SPIN POPULATIONS
--------------------------------------------
   0 C :   -0.281737    2.006080
   1 H :    0.140452   -0.003023
   2 H :    0.141284   -0.003057
Sum of atomic charges         :   -0.0000000
Sum of atomic spin populations:    2.0000000

-----------------------------------------------------
MULLIKEN REDUCED ORBITAL CHARGES AND SPIN POPULATIONS
-----------------------------------------------------
CHARGE
  0 C s       :     3.459347  s :     3.459347
      pz      :     0.999999  p :     2.806002
      px      :     0.948915
      py      :     0.857089
      dz2     :     0.003624  d :     0.016387
      dxz     :     0.000001
      dyz     :     0.000001
      dx2y2   :     0.011054
      dxy     :     0.001708
  1 H s       :     0.859548  s :     0.859548
  2 H s       :     0.858716  s :     0.858716

SPIN
  0 C s       :     0.355658  s :     0.355658
      pz      :     0.999999  p :     1.654218
      px      :     0.243543
      py      :     0.410677
      dz2     :    -0.001005  d :    -0.003796
      dxz     :     0.000001
      dyz     :     0.000001
      dx2y2   :    -0.002733
      dxy     :    -0.000060
  1 H s       :    -0.003023  s :    -0.003023
  2 H s       :    -0.003057  s :    -0.003057


                     *******************************
                     * LOEWDIN POPULATION ANALYSIS *
                     *******************************

-------------------------------------------
LOEWDIN ATOMIC CHARGES AND SPIN POPULATIONS
-------------------------------------------
   0 C :   -0.247853    1.998482
   1 H :    0.123786    0.000753
   2 H :    0.124067    0.000766

----------------------------------------------------
LOEWDIN REDUCED ORBITAL CHARGES AND SPIN POPULATIONS
----------------------------------------------------
CHARGE
  0 C s       :     3.285677  s :     3.285677
      pz      :     0.999999  p :     2.936666
      px      :     1.025424
      py      :     0.911244
      dz2     :     0.004543  d :     0.025510
      dxz     :     0.000001
      dyz     :     0.000001
      dx2y2   :     0.018351
      dxy     :     0.002614
  1 H s       :     0.876214  s :     0.876214
  2 H s       :     0.875933  s :     0.875933

SPIN
  0 C s       :     0.317533  s :     0.317533
      pz      :     0.999999  p :     1.684648
      px      :     0.248524
      py      :     0.436126
      dz2     :    -0.000209  d :    -0.003699
      dxz     :     0.000001
      dyz     :     0.000001
      dx2y2   :    -0.003351
      dxy     :    -0.000140
  1 H s       :     0.000753  s :     0.000753
  2 H s       :     0.000766  s :     0.000766


                      *****************************
                      * MAYER POPULATION ANALYSIS *
                      *****************************

  NA   - Mulliken gross atomic population
  ZA   - Total nuclear charge
  QA   - Mulliken gross atomic charge
  VA   - Mayer's total valence
  BVA  - Mayer's bonded valence
  FA   - Mayer's free valence

  ATOM       NA         ZA         QA         VA         BVA        FA
  0 C      6.2817     6.0000    -0.2817     3.7309     1.9065     1.8244
  1 H      0.8595     1.0000     0.1405     0.9309     0.9303     0.0006
  2 H      0.8587     1.0000     0.1413     0.9304     0.9298     0.0006

  Mayer bond orders larger than 0.100000
B(  0-C ,  1-H ) :   0.9535 B(  0-C ,  2-H ) :   0.9530 

-------
TIMINGS
-------

Total SCF time: 0 days 0 hours 0 min 0 sec 

Total time                  ....       0.508 sec
Sum of individual times     ....       0.455 sec  ( 89.6%)

Fock matrix formation       ....       0.309 sec  ( 60.8%)
  Split-RI-J                ....       0.105 sec  ( 34.2% of F)
  Chain of spheres X        ....       0.154 sec  ( 49.9% of F)
  XC integration            ....       0.029 sec  (  9.2% of F)
    Basis function eval.    ....       0.002 sec  (  6.9% of XC)
    Density eval.           ....       0.002 sec  (  6.8% of XC)
    XC-Functional eval.     ....       0.003 sec  (  9.6% of XC)
    XC-Potential eval.      ....       0.001 sec  (  3.4% of XC)
Diagonalization             ....       0.028 sec  (  5.4%)
Density matrix formation    ....       0.001 sec  (  0.1%)
Population analysis         ....       0.003 sec  (  0.5%)
Initial guess               ....       0.002 sec  (  0.4%)
Orbital Transformation      ....       0.000 sec  (  0.0%)
Orbital Orthonormalization  ....       0.000 sec  (  0.0%)
DIIS solution               ....       0.038 sec  (  7.5%)
Grid generation             ....       0.075 sec  ( 14.8%)

Maximum memory used throughout the entire SCF-calculation: 43.0 MB


           ************************************************************
           *        Program running with 28 parallel MPI-processes    *
           *              working on a common directory               *
           ************************************************************
------------------------------------------------------------------------------
                        ORCA TD-DFT/TDA CALCULATION
------------------------------------------------------------------------------

Input orbitals are from        ... JOBS/7_B.gbw
CI-vector output               ... JOBS/7_B.cis
Tamm-Dancoff approximation     ... operative
CIS-Integral strategy          ... AO-integrals
Integral handling              ... AO integral Direct
Max. core memory used          ... 1000 MB
Reference state                ... UHF
Follow IRoot                   ... off
Number of operators            ... 2
Orbital ranges used for CIS calculation:
 Operator 0:  Orbitals   1...  4  to   3... 17

-------------------
XC-INTEGRATION GRID
-------------------

General Integration Accuracy     IntAcc      ... 3.467
Radial Grid Type                 RadialGrid  ... OptM3 with GC (2021)
Angular Grid (max. ang.)         AngularGrid ... 1 (Lebedev-50)
Angular grid pruning method      GridPruning ... 4 (adaptive)
Weight generation scheme         WeightScheme... Becke
Basis function cutoff            BFCut       ... 1.0000e-11
Integration weight cutoff        WCut        ... 1.0000e-14
Angular grids for H and He will be reduced by one unit
Partially contracted basis set               ... off
Rotationally invariant grid construction     ... off

Total number of grid points                  ...     1834
Total number of batches                      ...       30
Average number of points per batch           ...       61
Average number of grid points per atom       ...      611

---------------------
COSX-INTEGRATION GRID
---------------------

General Integration Accuracy     IntAcc      ... 3.067
Radial Grid Type                 RadialGrid  ... OptM3 with GC (2021)
Angular Grid (max. ang.)         AngularGrid ... 1 (Lebedev-50)
Angular grid pruning method      GridPruning ... 4 (adaptive)
Weight generation scheme         WeightScheme... Becke
Basis function cutoff            BFCut       ... 1.0000e-11
Integration weight cutoff        WCut        ... 1.0000e-14
Angular grids for H and He will be reduced by one unit
Partially contracted basis set               ... on
Rotationally invariant grid construction     ... off

Total number of grid points                  ...      841
Total number of batches                      ...       14
Average number of points per batch           ...       60
Average number of grid points per atom       ...      280

---------------
TD-DFT XC SETUP
---------------

DFT calculation                         ... on
Name of the grid file                   ... JOBS/7_B.grid_cis.tmp
Exchange functional (TD-DFT)            ... B88
   X-Alpha parameter    XAlpha (TD-DFT) ...  0.666667
   Becke's b parameter  XBeta (TD-DFT)  ...  0.004200
Correlation functional (TD-DFT)         ... LYP
 LDA part of GGA corr.  LDAOpt (TD-DFT) ... VWN-5
Hybrid DFT                              ... on
   Exchange mixing (TD-DFT)             ...  0.200
   GGA exch. scaling (TD-DFT)           ...  0.720
   GGA corr. scaling (TD-DFT)           ...  0.810

Building densities             ... done
Calculating rho(r) on the grid ... done
Building xc-kernel on the grid ... done
                    *** TD-DFT CALCULATION INITIALIZED ***

------------------------
DAVIDSON-DIAGONALIZATION
------------------------

Dimension of the eigenvalue problem            ...     60
Number of roots to be determined               ...      2
Maximum size of the expansion space            ...     20
Maximum number of iterations                   ...    100
Convergence tolerance for the residual         ...    2.500e-07
Convergence tolerance for the energies         ...    2.500e-07
Orthogonality tolerance                        ...    1.000e-14
Level Shift                                    ...    0.000e+00
Constructing the preconditioner                ... o.k.
Building the initial guess                     ... o.k.
Number of trial vectors determined             ...     20


                       ****Iteration    0****
                <<< Spin-flip sigma vectors requested >>>

   Memory handling for direct AO based CIS:
   Memory per vector needed      ...     1 MB
   Memory needed                 ...     0 MB
   Memory available              ...  1000 MB
   Number of vectors per batch   ...  1000
   Number of batches             ...     1
   Time for densities:            0.000
   Time for K (COSX):             0.020
   Time for Sigma-Completion:     0.000
   Size of expansion space: 6
   Lowest Energy          :     0.001661960058
   Maximum Energy change  :     0.090510070426 (vector 1)
   Maximum residual norm  :     0.001631477396

                       ****Iteration    1****
   Time for densities:            0.000
   Time for K (COSX):             0.017
   Time for Sigma-Completion:     0.000
   Size of expansion space: 8
   Lowest Energy          :     0.000295098019
   Maximum Energy change  :     0.002761619759 (vector 1)
   Maximum residual norm  :     0.000012791894

                       ****Iteration    2****
   Time for densities:            0.000
   Time for K (COSX):             0.014
   Time for Sigma-Completion:     0.000
   Size of expansion space: 10
   Lowest Energy          :     0.000291995412
   Maximum Energy change  :     0.000017442491 (vector 1)
   Maximum residual norm  :     0.000000102770

      *** CONVERGENCE OF RESIDUAL NORM REACHED ***

Storing the converged CI vectors               ... JOBS/7_B.cis3

                 *** DAVIDSON DONE ***

Total time for solving the CIS problem:     0.054sec

---------------------
SF-TDA EXCITED STATES
---------------------

the weight of the individual excitations are printed if larger than 1.0e-02

(SPIN-FLIP GROUND STATE)
STATE  1:  E=   0.000292 au      0.008 eV       64.1 cm**-1 <S**2> =   0.012620
     4a ->   3b  :     0.996016 (c=  0.99800596)

STATE  2:  E=   0.087731 au      2.387 eV    19254.7 cm**-1 <S**2> =   1.996969
     2a ->   3b  :     0.466812 (c=  0.68323633)
     4a ->   4b  :     0.526861 (c= -0.72585185)


-----------------------------
TD-DFT/TDA-EXCITATION SPECTRA
-----------------------------

Center of mass = (  2.7406,  0.7981, -0.0000)
Calculating the Dipole integrals                  ... done
Transforming integrals                            ... done
Calculating the Linear Momentum integrals         ... done
Transforming integrals                            ... done
Calculating angular momentum integrals            ... done
Transforming integrals                            ... done

-----------------------------------------------------------------------------
         ABSORPTION SPECTRUM VIA TRANSITION ELECTRIC DIPOLE MOMENTS
-----------------------------------------------------------------------------
State   Energy    Wavelength  fosc         T2        TX        TY        TZ  
        (cm-1)      (nm)                 (au**2)    (au)      (au)      (au) 
-----------------------------------------------------------------------------
   2   19190.6    521.1   0.000348932   0.00599   0.00000   0.00000   0.07737

-----------------------------------------------------------------------------
         ABSORPTION SPECTRUM VIA TRANSITION VELOCITY DIPOLE MOMENTS
-----------------------------------------------------------------------------
State   Energy    Wavelength   fosc        P2         PX        PY        PZ  
        (cm-1)      (nm)                 (au**2)     (au)      (au)      (au) 
-----------------------------------------------------------------------------
   2   19190.6    521.1   0.002972428   0.00039  -0.00000  -0.00000  -0.01974

-------------------------------------------------------------------
                             CD SPECTRUM
-------------------------------------------------------------------
State  Energy     Wavelength     R         MX        MY        MZ   
       (cm-1)       (nm)     (1e40*cgs)   (au)      (au)      (au)  
-------------------------------------------------------------------
   2   19190.6    521.1      0.00000   0.00328  -0.00341   0.00000

Total run time:        0.272 sec

           *** ORCA-CIS/TD-DFT FINISHED WITHOUT ERROR ***

Maximum memory used throughout the entire CIS-calculation: 43.9 MB

-----------------------
CIS/TD-DFT TOTAL ENERGY
-----------------------

    E(SCF)  =    -39.057126387 Eh
    DE(CIS) =      0.000291995 Eh (Root  1)
    ----------------------------- ---------
    E(tot)  =    -39.056834392 Eh


-------------------------   --------------------
FINAL SINGLE POINT ENERGY       -39.056834391899
-------------------------   --------------------



           ************************************************************
           *        Program running with 28 parallel MPI-processes    *
           *              working on a common directory               *
           ************************************************************
------------------------------------------------------------------------------
                         ORCA SCF GRADIENT CALCULATION
------------------------------------------------------------------------------


------------------------
TD-DFT GRADIENT XC SETUP
------------------------

Building densities                     ... done
Calculating rho(r) on the grid         ... done
Building xc-kernel on the grid         ... done
Building xc 3rd derivative on the grid      ... done
                *** TD-DFT GRADIENT CALCULATION INITIALIZED ***

-------------------
TD-DFT/TDA GRADIENT
-------------------

Reference wavefunction             ... UHF
State of interest                  ... 1
Basis dimension                    ... 18
DFT-XC contribution needed         ... YES
RI-approximation                   ... ON
CIS-vectors being read from        ... JOBS/7_B.cis

 => Number of Vectors found: 2
 => Orbital Window: 1...4 -> 5...17
                    1...2 -> 3...17

Reading the CIS file                     ... done
Norm of the CI vector                    ... 1.000000000
Making the CIS (pseudo)densities         ... done
Making operators G(D) and Q(T)           ... done
Transforming the Fock operators          ... done
Making the frozen-core relaxed density   ... done
Constructing the G(H) operator           ... done
Transforming the G(H) operator           ... done
Calculating the CIS Lagrangian           ... done
Solving the Z-vector equations           ... done
Finalizing the relaxed density           ... done
Storing the relaxed density              ... done
Constructing the G(Z) operator           ... done
Transforming the G(Z) operator           ... done
Making the W-matrix                      ... done
Finalizing the W-matrix                  ... done
Transforming the W-matrix                ... done
Nuclear repulsion gradient               ... done
One-Electron gradient                    ... done
Prescreening matrices                    ... done
COSX-gradient                            ... done
Coulomb gradient (RI)                    ... done
Exchange-Correlation gradient            ... done

                 ---------------------------
                 EXCITED STATE GRADIENT DONE
                 ---------------------------

------------------
CARTESIAN GRADIENT
------------------

   1   C   :    0.040937883    0.057352044   -0.000000012
   2   H   :   -0.027871293   -0.024103171    0.000000005
   3   H   :   -0.013018801   -0.033934330    0.000000004

Difference to translation invariance:
           :    0.0000477892   -0.0006854570   -0.0000000031

Difference to rotation invariance:
           :   -0.0000000114    0.0000000144   -0.0023194192

Norm of the cartesian gradient     ...    0.0874297833
RMS gradient                       ...    0.0291432611
MAX gradient                       ...    0.0573520440

------------------------------------------------------------------------------
                  RELAXED CIS/TDA DENSITY POPULATION ANALYSIS
                                   IROOT 1
------------------------------------------------------------------------------
------------------------------------------------------------------------------
                           ORCA POPULATION ANALYSIS
------------------------------------------------------------------------------
Input electron density              ... JOBS/7_B.cisp
Input spin density                  ... JOBS/7_B.cisr
BaseName (.gbw .S,...)              ... JOBS/7_B

                    ********************************
                    * MULLIKEN POPULATION ANALYSIS *
                    ********************************

------------------------------------------
MULLIKEN ATOMIC CHARGES AND SPIN DENSITIES
------------------------------------------
   0 C :   -0.228354    0.001460
   1 H :    0.114167    0.000314
   2 H :    0.114187   -0.001774
Sum of atomic charges       :    0.0000000
Sum of atomic spin densities:   -0.0000000

---------------------------------------------------
MULLIKEN REDUCED ORBITAL CHARGES AND SPIN DENSITIES
---------------------------------------------------
CHARGE
  0 C s       :     3.961756  s :     3.961756
      pz      :     0.004230  p :     2.243025
      px      :     1.092859
      py      :     1.145936
      dz2     :     0.004517  d :     0.023572
      dxz     :     0.000031
      dyz     :     0.000055
      dx2y2   :     0.015283
      dxy     :     0.003687
  1 H s       :     0.885833  s :     0.885833
  2 H s       :     0.885813  s :     0.885813

SPIN
  0 C s       :    -0.059770  s :    -0.059770
      pz      :    -0.000009  p :     0.060979
      px      :     0.019083
      py      :     0.041905
      dz2     :     0.000543  d :     0.000251
      dxz     :     0.000003
      dyz     :     0.000007
      dx2y2   :     0.000387
      dxy     :    -0.000688
  1 H s       :     0.000314  s :     0.000314
  2 H s       :    -0.001774  s :    -0.001774


                     *******************************
                     * LOEWDIN POPULATION ANALYSIS *
                     *******************************

-----------------------------------------
LOEWDIN ATOMIC CHARGES AND SPIN DENSITIES
-----------------------------------------
   0 C :   -0.212683   -0.007109
   1 H :    0.106523    0.004313
   2 H :    0.106160    0.002796

--------------------------------------------------
LOEWDIN REDUCED ORBITAL CHARGES AND SPIN DENSITIES
--------------------------------------------------
CHARGE
  0 C s       :     3.707913  s :     3.707913
      pz      :     0.004230  p :     2.471307
      px      :     1.204576
      py      :     1.262501
      dz2     :     0.006384  d :     0.033464
      dxz     :     0.000031
      dyz     :     0.000055
      dx2y2   :     0.022404
      dxy     :     0.004590
  1 H s       :     0.893477  s :     0.893477
  2 H s       :     0.893840  s :     0.893840

SPIN
  0 C s       :    -0.053281  s :    -0.053281
      pz      :    -0.000009  p :     0.046021
      px      :     0.013213
      py      :     0.032817
      dz2     :     0.000603  d :     0.000151
      dxz     :     0.000003
      dyz     :     0.000007
      dx2y2   :     0.000248
      dxy     :    -0.000709
  1 H s       :     0.004313  s :     0.004313
  2 H s       :     0.002796  s :     0.002796


                      *****************************
                      * MAYER POPULATION ANALYSIS *
                      *****************************

  NA   - Mulliken gross atomic population
  ZA   - Total nuclear charge
  QA   - Mulliken gross atomic charge
  VA   - Mayer's total valence
  BVA  - Mayer's bonded valence
  FA   - Mayer's free valence

  ATOM       NA         ZA         QA         VA         BVA        FA
  0 C      6.2284     6.0000    -0.2284     1.7185     1.8043    -0.0858
  1 H      0.8858     1.0000     0.1142     0.9157     0.8818     0.0338
  2 H      0.8858     1.0000     0.1142     0.9151     0.8839     0.0312

  Mayer bond orders larger than 0.100000
B(  0-C ,  1-H ) :   0.9011 B(  0-C ,  2-H ) :   0.9032 


-------
TIMINGS
-------

Total TD-DFT gradient time         ...        1.334 sec

Fock matrix formation       ....       0.289 sec  ( 21.7%)
  Coulomb formation         ....       0.286 sec  ( 98.9% of F)
  RI-J                      ....       0.237 sec  ( 82.2% of F)
  Chain of spheres X        ....       0.048 sec  ( 16.7% of F)
  XC integration            ....       0.003 sec  (  1.1% of F)
Z-vector equation           ....       0.685 sec  ( 51.4%)
One electron gradient       ....       0.001 sec  (  0.1%)
Prescreening matrices       ....       0.017 sec  (  1.3%)
RI-J Coulomb gradient       ....       0.081 sec  (  6.1%)
COSX gradient               ....       0.029 sec  (  2.2%)
XC gradient                 ....       0.005 sec  (  0.4%)

Maximum memory used throughout the entire SCFGRAD-calculation: 97.1 MB

                            ***************************************
                            *     ORCA property calculations      *
                            ***************************************

                                    ---------------------
                                    Active property flags
                                    ---------------------
   (+) Dipole Moment


------------------------------------------------------------------------------
                       ORCA ELECTRIC PROPERTIES CALCULATION
------------------------------------------------------------------------------

Dipole Moment Calculation                       ... on
Quadrupole Moment Calculation                   ... off
Polarizability Calculation                      ... off
GBWName                                         ... JOBS/7_B.gbw
Electron density                                ... JOBS/7_B.scfp
The origin for moment calculation is the CENTER OF MASS  = ( 2.740626,  0.798142 -0.000000)

-------------
DIPOLE MOMENT
-------------
                                X             Y             Z
Electronic contribution:      0.67007       0.94278      -0.00000
Nuclear contribution   :     -0.85412      -1.19882       0.00000
                        -----------------------------------------
Total Dipole Moment    :     -0.18405      -0.25603       0.00000
                        -----------------------------------------
Magnitude (a.u.)       :      0.31532
Magnitude (Debye)      :      0.80148



--------------------
Rotational spectrum 
--------------------
 
Rotational constants in cm-1:    14.130314    11.634489     6.380758 
Rotational constants in MHz : 423616.148364 348793.206327 191290.322602 

 Dipole components along the rotational axes: 
x,y,z [a.u.] :    -0.315290    -0.004364    -0.000000 
x,y,z [Debye]:    -0.801403    -0.011092    -0.000000 

 

                        *** CIS RELAXED DENSITY ***

------------------------------------------------------------------------------
                       ORCA ELECTRIC PROPERTIES CALCULATION
------------------------------------------------------------------------------

Dipole Moment Calculation                       ... on
Quadrupole Moment Calculation                   ... off
Polarizability Calculation                      ... off
GBWName                                         ... JOBS/7_B.gbw
Electron density                                ... JOBS/7_B.cisp
The origin for moment calculation is the CENTER OF MASS  = ( 2.740626,  0.798142 -0.000000)

-------------
DIPOLE MOMENT
-------------
                                X             Y             Z
Electronic contribution:      0.43012       0.60721      -0.00000
Nuclear contribution   :     -0.85412      -1.19882       0.00000
                        -----------------------------------------
Total Dipole Moment    :     -0.42400      -0.59161       0.00000
                        -----------------------------------------
Magnitude (a.u.)       :      0.72786
Magnitude (Debye)      :      1.85007



--------------------
Rotational spectrum 
--------------------
 
Rotational constants in cm-1:    14.130314    11.634489     6.380758 
Rotational constants in MHz : 423616.148364 348793.206327 191290.322602 

 Dipole components along the rotational axes: 
x,y,z [a.u.] :    -0.727802    -0.009042     0.000000 
x,y,z [Debye]:    -1.849927    -0.022982     0.000000 

 

Timings for individual modules:

Sum of individual times         ...        3.286 sec (=   0.055 min)
GTO integral calculation        ...        0.293 sec (=   0.005 min)   8.9 %
SCF iterations                  ...        0.775 sec (=   0.013 min)  23.6 %
CIS module                      ...        0.550 sec (=   0.009 min)  16.7 %
SCF Gradient evaluation         ...        1.668 sec (=   0.028 min)  50.8 %
                             ****ORCA TERMINATED NORMALLY****
TOTAL RUN TIME: 0 days 0 hours 0 minutes 3 seconds 667 msec
