
                                 *****************
                                 * O   R   C   A *
                                 *****************

                                            #,                                       
                                            ###                                      
                                            ####                                     
                                            #####                                    
                                            ######                                   
                                           ########,                                 
                                     ,,################,,,,,                         
                               ,,#################################,,                 
                          ,,##########################################,,             
                       ,#########################################, ''#####,          
                    ,#############################################,,   '####,        
                  ,##################################################,,,,####,       
                ,###########''''           ''''###############################       
              ,#####''   ,,,,##########,,,,          '''####'''          '####       
            ,##' ,,,,###########################,,,                        '##       
           ' ,,###''''                  '''############,,,                           
         ,,##''                                '''############,,,,        ,,,,,,###''
      ,#''                                            '''#######################'''  
     '                                                          ''''####''''         
             ,#######,   #######,   ,#######,      ##                                
            ,#'     '#,  ##    ##  ,#'     '#,    #''#        ######   ,####,        
            ##       ##  ##   ,#'  ##            #'  '#       #        #'  '#        
            ##       ##  #######   ##           ,######,      #####,   #    #        
            '#,     ,#'  ##    ##  '#,     ,#' ,#      #,         ##   #,  ,#        
             '#######'   ##     ##  '#######'  #'      '#     #####' # '####'        



                  #######################################################
                  #                        -***-                        #
                  #          Department of theory and spectroscopy      #
                  #    Directorship and core code : Frank Neese         #
                  #        Max Planck Institute fuer Kohlenforschung    #
                  #                Kaiser Wilhelm Platz 1               #
                  #                 D-45470 Muelheim/Ruhr               #
                  #                      Germany                        #
                  #                                                     #
                  #                  All rights reserved                #
                  #                        -***-                        #
                  #######################################################


                         Program Version 5.0.1 -  RELEASE  -


 With contributions from (in alphabetic order):
   Daniel Aravena         : Magnetic Suceptibility
   Michael Atanasov       : Ab Initio Ligand Field Theory (pilot matlab implementation)
   Alexander A. Auer      : GIAO ZORA, VPT2 properties, NMR spectrum
   Ute Becker             : Parallelization
   Giovanni Bistoni       : ED, misc. LED, open-shell LED, HFLD
   Martin Brehm           : Molecular dynamics
   Dmytro Bykov           : SCF Hessian
   Vijay G. Chilkuri      : MRCI spin determinant printing, contributions to CSF-ICE
   Dipayan Datta          : RHF DLPNO-CCSD density
   Achintya Kumar Dutta   : EOM-CC, STEOM-CC
   Dmitry Ganyushin       : Spin-Orbit,Spin-Spin,Magnetic field MRCI
   Miquel Garcia          : C-PCM and meta-GGA Hessian, CC/C-PCM, Gaussian charge scheme
   Yang Guo               : DLPNO-NEVPT2, F12-NEVPT2, CIM, IAO-localization
   Andreas Hansen         : Spin unrestricted coupled pair/coupled cluster methods
   Benjamin Helmich-Paris : MC-RPA, TRAH-SCF, COSX integrals
   Lee Huntington         : MR-EOM, pCC
   Robert Izsak           : Overlap fitted RIJCOSX, COSX-SCS-MP3, EOM
   Marcus Kettner         : VPT2
   Christian Kollmar      : KDIIS, OOCD, Brueckner-CCSD(T), CCSD density, CASPT2, CASPT2-K
   Simone Kossmann        : Meta GGA functionals, TD-DFT gradient, OOMP2, MP2 Hessian
   Martin Krupicka        : Initial AUTO-CI
   Lucas Lang             : DCDCAS
   Marvin Lechner         : AUTO-CI (C++ implementation), FIC-MRCC
   Dagmar Lenk            : GEPOL surface, SMD
   Dimitrios Liakos       : Extrapolation schemes; Compound Job, initial MDCI parallelization
   Dimitrios Manganas     : Further ROCIS development; embedding schemes
   Dimitrios Pantazis     : SARC Basis sets
   Anastasios Papadopoulos: AUTO-CI, single reference methods and gradients
   Taras Petrenko         : DFT Hessian,TD-DFT gradient, ASA, ECA, R-Raman, ABS, FL, XAS/XES, NRVS
   Peter Pinski           : DLPNO-MP2, DLPNO-MP2 Gradient
   Christoph Reimann      : Effective Core Potentials
   Marius Retegan         : Local ZFS, SOC
   Christoph Riplinger    : Optimizer, TS searches, QM/MM, DLPNO-CCSD(T), (RO)-DLPNO pert. Triples
   Tobias Risthaus        : Range-separated hybrids, TD-DFT gradient, RPA, STAB
   Michael Roemelt        : Original ROCIS implementation
   Masaaki Saitow         : Open-shell DLPNO-CCSD energy and density
   Barbara Sandhoefer     : DKH picture change effects
   Avijit Sen             : IP-ROCIS
   Kantharuban Sivalingam : CASSCF convergence, NEVPT2, FIC-MRCI
   Bernardo de Souza      : ESD, SOC TD-DFT
   Georgi Stoychev        : AutoAux, RI-MP2 NMR, DLPNO-MP2 response
   Willem Van den Heuvel  : Paramagnetic NMR
   Boris Wezisla          : Elementary symmetry handling
   Frank Wennmohs         : Technical directorship


 We gratefully acknowledge several colleagues who have allowed us to
 interface, adapt or use parts of their codes:
   Stefan Grimme, W. Hujo, H. Kruse, P. Pracht,  : VdW corrections, initial TS optimization,
                  C. Bannwarth, S. Ehlert          DFT functionals, gCP, sTDA/sTD-DF
   Ed Valeev, F. Pavosevic, A. Kumar             : LibInt (2-el integral package), F12 methods
   Garnet Chan, S. Sharma, J. Yang, R. Olivares  : DMRG
   Ulf Ekstrom                                   : XCFun DFT Library
   Mihaly Kallay                                 : mrcc  (arbitrary order and MRCC methods)
   Jiri Pittner, Ondrej Demel                    : Mk-CCSD
   Frank Weinhold                                : gennbo (NPA and NBO analysis)
   Christopher J. Cramer and Donald G. Truhlar   : smd solvation model
   Lars Goerigk                                  : TD-DFT with DH, B97 family of functionals
   V. Asgeirsson, H. Jonsson                     : NEB implementation
   FAccTs GmbH                                   : IRC, NEB, NEB-TS, DLPNO-Multilevel, CI-OPT
                                                   MM, QMMM, 2- and 3-layer-ONIOM, Crystal-QMMM,
                                                   LR-CPCM, SF, NACMEs, symmetry and pop. for TD-DFT,
                                                   nearIR, NL-DFT gradient (VV10), updates on ESD,
                                                   ML-optimized integration grids
   S Lehtola, MJT Oliveira, MAL Marques          : LibXC Library
   Liviu Ungur et al                             : ANISO software


 Your calculation uses the libint2 library for the computation of 2-el integrals
 For citations please refer to: http://libint.valeyev.net

 Your ORCA version has been built with support for libXC version: 5.1.0
 For citations please refer to: https://tddft.org/programs/libxc/

 This ORCA versions uses:
   CBLAS   interface :  Fast vector & matrix operations
   LAPACKE interface :  Fast linear algebra routines
   SCALAPACK package :  Parallel linear algebra routines
   Shared memory     :  Shared parallel matrices
   BLAS/LAPACK       :  OpenBLAS 0.3.15  USE64BITINT DYNAMIC_ARCH NO_AFFINITY Zen SINGLE_THREADED
        Core in use  :  Zen
   Copyright (c) 2011-2014, The OpenBLAS Project


================================================================================

----- Orbital basis set information -----
Your calculation utilizes the basis: 6-31G(d)
   H-He, Li-Ne : W. J. Hehre, R. Ditchfield and J.A. Pople, J. Chem. Phys. 56, 2257 (1972).
                 Note: He and Ne are unpublished basis sets taken from the Gaussian program.
                 Note: Li and B from J. D. Dill and J. A. Pople, J. Chem. Phys. 62, 2921 (1975).
   Na - Ar     : M. M. Francl, W. J. Pietro, W. J. Hehre, J. S. Binkley, M. S. Gordon, 
                 D. J. DeFrees and J. A. Pople, J. Chem. Phys. 77, 3654 (1982).
   K - Zn      : V. A. Rassolov, J. A. Pople, M. A. Ratner, and T. L. Windus, J. Chem. Phys. 109, 1223 (1998).

----- AuxJ basis set information -----
Your calculation utilizes the auxiliary basis: def2/J
   F. Weigend, Phys. Chem. Chem. Phys. 8, 1057 (2006).

================================================================================
                                        WARNINGS
                       Please study these warnings very carefully!
================================================================================


WARNING: your system is open-shell and RHF/RKS was chosen
  ===> : WILL SWITCH to UHF/UKS

INFO   : Checking CIS options ...

WARNING: CIS/ROCIS methods need fully converged wavefunctions
  ===> : Setting SCFConvForced true
         You can overwrite this default with %scf ConvForced false 


INFO   : the flag for use of the SHARK integral package has been found!

================================================================================
                                       INPUT FILE
================================================================================
NAME = JOBS/8_B.inp
|  1> %pal nprocs 28 end
|  2> %maxcore 1000 
|  3> ! b3lyp 6-31g(d) engrad 
|  4> !moread 
|  5>  %moinp "JOBS/b.gbw"
|  6>  
|  7> 
|  8>  *xyz 0 3
|  9> c  1.494867515172804  0.5882012387430908  -5.546845450574267e-08
| 10> h  1.645742885133846  -0.5949403503998096  -1.8504444741172467e-07
| 11> h  0.3584565640696953  0.23314295990292713  -1.6293031396422148e-07
| 12> *
| 13> %tddft sf true
| 14> nroots 2
| 15> iroot 1
| 16> end
| 17> 
| 18> 
| 19>                          ****END OF INPUT****
================================================================================

                     *******************************
                     * Energy+Gradient Calculation *
                     *******************************

---------------------------------
CARTESIAN COORDINATES (ANGSTROEM)
---------------------------------
  C      1.494868    0.588201   -0.000000
  H      1.645743   -0.594940   -0.000000
  H      0.358457    0.233143   -0.000000

----------------------------
CARTESIAN COORDINATES (A.U.)
----------------------------
  NO LB      ZA    FRAG     MASS         X           Y           Z
   0 C     6.0000    0    12.011    2.824890    1.111539   -0.000000
   1 H     1.0000    0     1.008    3.110003   -1.124274   -0.000000
   2 H     1.0000    0     1.008    0.677385    0.440576   -0.000000

--------------------------------
INTERNAL COORDINATES (ANGSTROEM)
--------------------------------
 C      0   0   0     0.000000000000     0.00000000     0.00000000
 H      1   0   0     1.192722682446     0.00000000     0.00000000
 H      1   2   0     1.190586507214    79.91638833     0.00000000

---------------------------
INTERNAL COORDINATES (A.U.)
---------------------------
 C      0   0   0     0.000000000000     0.00000000     0.00000000
 H      1   0   0     2.253919223538     0.00000000     0.00000000
 H      1   2   0     2.249882437376    79.91638833     0.00000000

---------------------
BASIS SET INFORMATION
---------------------
There are 2 groups of distinct atoms

 Group   1 Type C   : 10s4p1d contracted to 3s2p1d pattern {631/31/1}
 Group   2 Type H   : 4s contracted to 2s pattern {31}

Atom   0C    basis set group =>   1
Atom   1H    basis set group =>   2
Atom   2H    basis set group =>   2
---------------------------------
AUXILIARY/J BASIS SET INFORMATION
---------------------------------
There are 2 groups of distinct atoms

 Group   1 Type C   : 12s5p4d2f1g contracted to 6s4p3d1f1g pattern {711111/2111/211/2/1}
 Group   2 Type H   : 5s2p1d contracted to 3s1p1d pattern {311/2/1}

Atom   0C    basis set group =>   1
Atom   1H    basis set group =>   2
Atom   2H    basis set group =>   2


           ************************************************************
           *        Program running with 28 parallel MPI-processes    *
           *              working on a common directory               *
           ************************************************************
------------------------------------------------------------------------------
                           ORCA GTO INTEGRAL CALCULATION
                           -- RI-GTO INTEGRALS CHOSEN --
------------------------------------------------------------------------------
------------------------------------------------------------------------------
                   ___                                                        
                  /   \      - P O W E R E D   B Y -                         
                 /     \                                                     
                 |  |  |   _    _      __       _____    __    __             
                 |  |  |  | |  | |    /  \     |  _  \  |  |  /  |          
                  \  \/   | |  | |   /    \    | | | |  |  | /  /          
                 / \  \   | |__| |  /  /\  \   | |_| |  |  |/  /          
                |  |  |   |  __  | /  /__\  \  |    /   |      \           
                |  |  |   | |  | | |   __   |  |    \   |  |\   \          
                \     /   | |  | | |  |  |  |  | |\  \  |  | \   \       
                 \___/    |_|  |_| |__|  |__|  |_| \__\ |__|  \__/        
                                                                              
                      - O R C A' S   B I G   F R I E N D -                    
                                      &                                       
                       - I N T E G R A L  F E E D E R -                       
                                                                              
 v1 FN, 2020, v2 2021                                                         
------------------------------------------------------------------------------


Reading SHARK input file JOBS/8_B.SHARKINP.tmp ... ok
----------------------
SHARK INTEGRAL PACKAGE
----------------------

Number of atoms                             ...      3
Number of basis functions                   ...     18
Number of shells                            ...     10
Maximum angular momentum                    ...      2
Integral batch strategy                     ... SHARK/LIBINT Hybrid
RI-J (if used) integral strategy            ... SPLIT-RIJ (Revised 2003 algorithm where possible)
Printlevel                                  ...      1
Contraction scheme used                     ... SEGMENTED contraction
Coulomb Range Separation                    ... NOT USED
Exchange Range Separation                   ... NOT USED
Finite Nucleus Model                        ... NOT USED
Auxiliary Coulomb fitting basis             ... AVAILABLE
   # of basis functions in Aux-J            ...     71
   # of shells in Aux-J                     ...     25
   Maximum angular momentum in Aux-J        ...      4
Auxiliary J/K fitting basis                 ... NOT available
Auxiliary Correlation fitting basis         ... NOT available
Auxiliary 'external' fitting basis          ... NOT available
Integral threshold                          ...     2.500000e-11
Primitive cut-off                           ...     2.500000e-12
Primitive pair pre-selection threshold      ...     2.500000e-12

Calculating pre-screening integrals         ... done (  0.0 sec) Dimension = 10
Organizing shell pair data                  ... done (  0.0 sec)
Shell pair information
Total number of shell pairs                 ...        55
Shell pairs after pre-screening             ...        55
Total number of primitive shell pairs       ...       303
Primitive shell pairs kept                  ...       288
          la=0 lb=0:     28 shell pairs
          la=1 lb=0:     14 shell pairs
          la=1 lb=1:      3 shell pairs
          la=2 lb=0:      7 shell pairs
          la=2 lb=1:      2 shell pairs
          la=2 lb=2:      1 shell pairs

Calculating one electron integrals          ... done (  0.0 sec)
Calculating RI/J V-Matrix + Cholesky decomp.... done (  0.0 sec)
Calculating Nuclear repulsion               ... done (  0.0 sec) ENN=      5.674560855878 Eh

SHARK setup successfully completed in   0.1 seconds

Maximum memory used throughout the entire GTOINT-calculation: 9.5 MB


           ************************************************************
           *        Program running with 28 parallel MPI-processes    *
           *              working on a common directory               *
           ************************************************************
-------------------------------------------------------------------------------
                                 ORCA SCF
-------------------------------------------------------------------------------

------------
SCF SETTINGS
------------
Hamiltonian:
 Density Functional     Method          .... DFT(GTOs)
 Exchange Functional    Exchange        .... B88
   X-Alpha parameter    XAlpha          ....  0.666667
   Becke's b parameter  XBeta           ....  0.004200
 Correlation Functional Correlation     .... LYP
 LDA part of GGA corr.  LDAOpt          .... VWN-5
 Gradients option       PostSCFGGA      .... off
 Hybrid DFT is turned on
   Fraction HF Exchange ScalHFX         ....  0.200000
   Scaling of DF-GGA-X  ScalDFX         ....  0.720000
   Scaling of DF-GGA-C  ScalDFC         ....  0.810000
   Scaling of DF-LDA-C  ScalLDAC        ....  1.000000
   Perturbative correction              ....  0.000000
   Density functional embedding theory  .... OFF
   NL short-range parameter             ....  4.800000
 RI-approximation to the Coulomb term is turned on
   Number of AuxJ basis functions       .... 71
   RIJ-COSX (HFX calculated with COS-X)).... on


General Settings:
 Integral files         IntName         .... JOBS/8_B
 Hartree-Fock type      HFTyp           .... UHF
 Total Charge           Charge          ....    0
 Multiplicity           Mult            ....    3
 Number of Electrons    NEL             ....    8
 Basis Dimension        Dim             ....   18
 Nuclear Repulsion      ENuc            ....      5.6745608559 Eh

Convergence Acceleration:
 DIIS                   CNVDIIS         .... on
   Start iteration      DIISMaxIt       ....    12
   Startup error        DIISStart       ....  0.200000
   # of expansion vecs  DIISMaxEq       ....     5
   Bias factor          DIISBfac        ....   1.050
   Max. coefficient     DIISMaxC        ....  10.000
 Trust-Rad. Augm. Hess. CNVTRAH         .... auto
   Auto Start mean grad. ratio tolernc. ....  1.125000
   Auto Start start iteration           ....     1
   Auto Start num. interpolation iter.  ....    10
   Max. Number of Micro iterations      ....    16
   Max. Number of Macro iterations      .... Maxiter - #DIIS iter
   Number of Davidson start vectors     ....     2
   Converg. threshold I  (grad. norm)   ....   1.000e-05
   Converg. threshold II (energy diff.) ....   1.000e-08
   Grad. Scal. Fac. for Micro threshold ....   0.100
   Minimum threshold for Micro iter.    ....   0.010
   NR start threshold (gradient norm)   ....   0.001
   Initial trust radius                 ....   0.400
   Minimum AH scaling param. (alpha)    ....   1.000
   Maximum AH scaling param. (alpha)    .... 1000.000
   Orbital update algorithm             .... Taylor
   White noise on init. David. guess    .... on
   Maximum white noise                  ....   0.010
   Quad. conv. algorithm                .... NR
 SOSCF                  CNVSOSCF        .... off
 Level Shifting         CNVShift        .... on
   Level shift para.    LevelShift      ....    0.2500
   Turn off err/grad.   ShiftErr        ....    0.0010
 Zerner damping         CNVZerner       .... off
 Static damping         CNVDamp         .... on
   Fraction old density DampFac         ....    0.7000
   Max. Damping (<1)    DampMax         ....    0.9800
   Min. Damping (>=0)   DampMin         ....    0.0000
   Turn off err/grad.   DampErr         ....    0.1000
 Fernandez-Rico         CNVRico         .... off

SCF Procedure:
 Maximum # iterations   MaxIter         ....   125
 SCF integral mode      SCFMode         .... Direct
   Integral package                     .... SHARK and LIBINT hybrid scheme
 Reset frequency        DirectResetFreq ....    20
 Integral Threshold     Thresh          ....  2.500e-11 Eh
 Primitive CutOff       TCut            ....  2.500e-12 Eh

Convergence Tolerance:
 Convergence Check Mode ConvCheckMode   .... Total+1el-Energy
 Convergence forced     ConvForced      .... 1
 Energy Change          TolE            ....  1.000e-08 Eh
 1-El. energy change                    ....  1.000e-05 Eh
 DIIS Error             TolErr          ....  5.000e-07


Diagonalization of the overlap matrix:
Smallest eigenvalue                        ... 3.867e-02
Time for diagonalization                   ...    0.000 sec
Threshold for overlap eigenvalues          ... 1.000e-08
Number of eigenvalues below threshold      ... 0
Time for construction of square roots      ...    0.000 sec
Total time needed                          ...    0.005 sec

---------------------
INITIAL GUESS: MOREAD
---------------------
Guess MOs are being read from file: JOBS/b.gbw
Input geometry compatible with but different from current geometry
Input basis set matches current basis set (good)
MOs were renormalized
MOs were reorthogonalized (Cholesky)
                      ------------------
                      INITIAL GUESS DONE (   0.0 sec)
                      ------------------
-------------------
DFT GRID GENERATION
-------------------

General Integration Accuracy     IntAcc      ... 4.388
Radial Grid Type                 RadialGrid  ... OptM3 with GC (2021)
Angular Grid (max. ang.)         AngularGrid ... 4 (Lebedev-302)
Angular grid pruning method      GridPruning ... 4 (adaptive)
Weight generation scheme         WeightScheme... Becke
Basis function cutoff            BFCut       ... 1.0000e-11
Integration weight cutoff        WCut        ... 1.0000e-14
Angular grids for H and He will be reduced by one unit
Partially contracted basis set               ... off
Rotationally invariant grid construction     ... off

Total number of grid points                  ...    12763
Total number of batches                      ...      201
Average number of points per batch           ...       63
Average number of grid points per atom       ...     4254
Time for grid setup =    0.047 sec

--------------------
COSX GRID GENERATION
--------------------

GRIDX 1
-------
General Integration Accuracy     IntAcc      ... 3.816
Radial Grid Type                 RadialGrid  ... OptM3 with GC (2021)
Angular Grid (max. ang.)         AngularGrid ... 1 (Lebedev-50)
Angular grid pruning method      GridPruning ... 4 (adaptive)
Weight generation scheme         WeightScheme... Becke
Basis function cutoff            BFCut       ... 1.0000e-11
Integration weight cutoff        WCut        ... 1.0000e-14
Angular grids for H and He will be reduced by one unit
Partially contracted basis set               ... on
Rotationally invariant grid construction     ... off

Total number of grid points                  ...     1664
Total number of batches                      ...       27
Average number of points per batch           ...       61
Average number of grid points per atom       ...      555
UseSFitting                                  ... on

GRIDX 2
-------
General Integration Accuracy     IntAcc      ... 4.020
Radial Grid Type                 RadialGrid  ... OptM3 with GC (2021)
Angular Grid (max. ang.)         AngularGrid ... 2 (Lebedev-110)
Angular grid pruning method      GridPruning ... 4 (adaptive)
Weight generation scheme         WeightScheme... Becke
Basis function cutoff            BFCut       ... 1.0000e-11
Integration weight cutoff        WCut        ... 1.0000e-14
Angular grids for H and He will be reduced by one unit
Partially contracted basis set               ... on
Rotationally invariant grid construction     ... off

Total number of grid points                  ...     3517
Total number of batches                      ...       57
Average number of points per batch           ...       61
Average number of grid points per atom       ...     1172
UseSFitting                                  ... on

GRIDX 3
-------
General Integration Accuracy     IntAcc      ... 4.338
Radial Grid Type                 RadialGrid  ... OptM3 with GC (2021)
Angular Grid (max. ang.)         AngularGrid ... 3 (Lebedev-194)
Angular grid pruning method      GridPruning ... 4 (adaptive)
Weight generation scheme         WeightScheme... Becke
Basis function cutoff            BFCut       ... 1.0000e-11
Integration weight cutoff        WCut        ... 1.0000e-14
Angular grids for H and He will be reduced by one unit
Partially contracted basis set               ... on
Rotationally invariant grid construction     ... off

Total number of grid points                  ...     7799
Total number of batches                      ...      124
Average number of points per batch           ...       62
Average number of grid points per atom       ...     2600
UseSFitting                                  ... on

Time for X-Grid setup             =    0.028 sec

--------------
SCF ITERATIONS
--------------
ITER       Energy         Delta-E        Max-DP      RMS-DP      [F,P]     Damp
               ***  Starting incremental Fock matrix formation  ***
  0    -39.0571692812   0.000000000000 0.00153123  0.00015040  0.0110407 0.7000
  1    -39.0572525110  -0.000083229834 0.00143660  0.00015562  0.0089165 0.7000
                               ***Turning on DIIS***
  2    -39.0573213339  -0.000068822910 0.00376510  0.00044643  0.0070150 0.0000
  3    -39.0575096718  -0.000188337817 0.00087516  0.00012041  0.0018651 0.0000
  4    -39.0575215910  -0.000011919207 0.00058640  0.00007660  0.0010059 0.0000
  5    -39.0575269708  -0.000005379830 0.00107152  0.00014510  0.0006016 0.0000
               *** Restarting incremental Fock matrix formation ***
                                   *** Resetting DIIS ***
  6    -39.0575335552  -0.000006584375 0.00033425  0.00004592  0.0003208 0.0000
  7    -39.0575343545  -0.000000799357 0.00016928  0.00002329  0.0002243 0.0000
  8    -39.0575346005  -0.000000245934 0.00023929  0.00002955  0.0001175 0.0000
  9    -39.0575348033  -0.000000202817 0.00010051  0.00001240  0.0000291 0.0000
 10    -39.0575348237  -0.000000020435 0.00000545  0.00000064  0.0000019 0.0000
                 **** Energy Check signals convergence ****

               *****************************************************
               *                     SUCCESS                       *
               *           SCF CONVERGED AFTER  11 CYCLES          *
               *****************************************************

Old exchange energy                            =     -1.158144518 Eh
New exchange energy                            =     -1.158132761 Eh
Exchange energy change after final integration =      0.000011757 Eh
Total energy after final integration           =    -39.057523066 Eh
Final COS-X integration done in                =     0.019 sec

----------------
TOTAL SCF ENERGY
----------------

Total Energy       :          -39.05752307 Eh           -1062.80923 eV

Components:
Nuclear Repulsion  :            5.67456086 Eh             154.41265 eV
Electronic Energy  :          -44.73208392 Eh           -1217.22189 eV
One Electron Energy:          -62.98066744 Eh           -1713.79109 eV
Two Electron Energy:           18.24858352 Eh             496.56920 eV
Max COSX asymmetry :            0.00000017 Eh               0.00000 eV

Virial components:
Potential Energy   :          -77.78627145 Eh           -2116.67206 eV
Kinetic Energy     :           38.72874838 Eh            1053.86282 eV
Virial Ratio       :            2.00848916


DFT components:
N(Alpha)           :        5.000001381713 electrons
N(Beta)            :        3.000000275295 electrons
N(Total)           :        8.000001657008 electrons
E(X)               :       -4.586151399524 Eh       
E(C)               :       -0.256564944530 Eh       
E(XC)              :       -4.842716344054 Eh       
DFET-embed. en.    :        0.000000000000 Eh       

---------------
SCF CONVERGENCE
---------------

  Last Energy change         ...   -1.1684e-10  Tolerance :   1.0000e-08
  Last MAX-Density change    ...    0.0000e+00  Tolerance :   1.0000e-07
  Last RMS-Density change    ...    0.0000e+00  Tolerance :   5.0000e-09
  Last DIIS Error            ...    4.6403e-07  Tolerance :   5.0000e-07

             **** THE GBW FILE WAS UPDATED (JOBS/8_B.gbw) ****
             **** DENSITY JOBS/8_B.scfp WAS UPDATED ****
             **** ENERGY FILE WAS UPDATED (JOBS/8_B.en.tmp) ****
----------------------
UHF SPIN CONTAMINATION
----------------------

Warning: in a DFT calculation there is little theoretical justification to 
         calculate <S**2> as in Hartree-Fock theory. We will do it anyways
         but you should keep in mind that the values have only limited relevance

Expectation value of <S**2>     :     2.004729
Ideal value S*(S+1) for S=1.0   :     2.000000
Deviation                       :     0.004729

             **** THE GBW FILE WAS UPDATED (JOBS/8_B.gbw) ****
             **** DENSITY JOBS/8_B.scfp WAS UPDATED ****
----------------
ORBITAL ENERGIES
----------------
                 SPIN UP ORBITALS
  NO   OCC          E(Eh)            E(eV) 
   0   1.0000     -10.248085      -278.8646 
   1   1.0000      -0.668883       -18.2012 
   2   1.0000      -0.352330        -9.5874 
   3   1.0000      -0.348683        -9.4881 
   4   1.0000      -0.243927        -6.6376 
   5   0.0000       0.099903         2.7185 
   6   0.0000       0.109365         2.9760 
   7   0.0000       0.519441        14.1347 
   8   0.0000       0.528567        14.3830 
   9   0.0000       0.544230        14.8093 
  10   0.0000       0.781683        21.2707 
  11   0.0000       0.819528        22.3005 
  12   0.0000       0.853869        23.2350 
  13   0.0000       1.623831        44.1867 
  14   0.0000       1.643214        44.7141 
  15   0.0000       1.654458        45.0201 
  16   0.0000       1.928924        52.4887 
  17   0.0000       2.033562        55.3360 

                 SPIN DOWN ORBITALS
  NO   OCC          E(Eh)            E(eV) 
   0   1.0000     -10.217128      -278.0222 
   1   1.0000      -0.601394       -16.3648 
   2   1.0000      -0.321363        -8.7447 
   3   0.0000      -0.144412        -3.9297 
   4   0.0000      -0.037154        -1.0110 
   5   0.0000       0.126918         3.4536 
   6   0.0000       0.143273         3.8987 
   7   0.0000       0.561467        15.2783 
   8   0.0000       0.612403        16.6643 
   9   0.0000       0.618014        16.8170 
  10   0.0000       0.806254        21.9393 
  11   0.0000       0.862697        23.4752 
  12   0.0000       0.892132        24.2762 
  13   0.0000       1.718239        46.7557 
  14   0.0000       1.750053        47.6214 
  15   0.0000       1.768001        48.1097 
  16   0.0000       2.057006        55.9740 
  17   0.0000       2.101359        57.1809 

                    ********************************
                    * MULLIKEN POPULATION ANALYSIS *
                    ********************************

--------------------------------------------
MULLIKEN ATOMIC CHARGES AND SPIN POPULATIONS
--------------------------------------------
   0 C :   -0.282823    2.008091
   1 H :    0.141044   -0.004077
   2 H :    0.141780   -0.004014
Sum of atomic charges         :   -0.0000000
Sum of atomic spin populations:    2.0000000

-----------------------------------------------------
MULLIKEN REDUCED ORBITAL CHARGES AND SPIN POPULATIONS
-----------------------------------------------------
CHARGE
  0 C s       :     3.456488  s :     3.456488
      pz      :     0.999998  p :     2.809783
      px      :     0.963756
      py      :     0.846029
      dz2     :     0.003661  d :     0.016552
      dxz     :     0.000001
      dyz     :     0.000001
      dx2y2   :     0.010343
      dxy     :     0.002547
  1 H s       :     0.858956  s :     0.858956
  2 H s       :     0.858220  s :     0.858220

SPIN
  0 C s       :     0.357413  s :     0.357413
      pz      :     0.999998  p :     1.654502
      px      :     0.220086
      py      :     0.434418
      dz2     :    -0.001012  d :    -0.003824
      dxz     :     0.000001
      dyz     :     0.000001
      dx2y2   :    -0.002524
      dxy     :    -0.000289
  1 H s       :    -0.004077  s :    -0.004077
  2 H s       :    -0.004014  s :    -0.004014


                     *******************************
                     * LOEWDIN POPULATION ANALYSIS *
                     *******************************

-------------------------------------------
LOEWDIN ATOMIC CHARGES AND SPIN POPULATIONS
-------------------------------------------
   0 C :   -0.248686    1.999626
   1 H :    0.124220    0.000150
   2 H :    0.124466    0.000225

----------------------------------------------------
LOEWDIN REDUCED ORBITAL CHARGES AND SPIN POPULATIONS
----------------------------------------------------
CHARGE
  0 C s       :     3.281988  s :     3.281988
      pz      :     0.999998  p :     2.940920
      px      :     1.043649
      py      :     0.897272
      dz2     :     0.004600  d :     0.025778
      dxz     :     0.000001
      dyz     :     0.000001
      dx2y2   :     0.017157
      dxy     :     0.004019
  1 H s       :     0.875780  s :     0.875780
  2 H s       :     0.875534  s :     0.875534

SPIN
  0 C s       :     0.318401  s :     0.318401
      pz      :     0.999998  p :     1.684962
      px      :     0.222123
      py      :     0.462841
      dz2     :    -0.000215  d :    -0.003738
      dxz     :     0.000001
      dyz     :     0.000001
      dx2y2   :    -0.003107
      dxy     :    -0.000418
  1 H s       :     0.000150  s :     0.000150
  2 H s       :     0.000225  s :     0.000225


                      *****************************
                      * MAYER POPULATION ANALYSIS *
                      *****************************

  NA   - Mulliken gross atomic population
  ZA   - Total nuclear charge
  QA   - Mulliken gross atomic charge
  VA   - Mayer's total valence
  BVA  - Mayer's bonded valence
  FA   - Mayer's free valence

  ATOM       NA         ZA         QA         VA         BVA        FA
  0 C      6.2828     6.0000    -0.2828     3.7340     1.9068     1.8272
  1 H      0.8590     1.0000     0.1410     0.9303     0.9297     0.0006
  2 H      0.8582     1.0000     0.1418     0.9298     0.9292     0.0006

  Mayer bond orders larger than 0.100000
B(  0-C ,  1-H ) :   0.9536 B(  0-C ,  2-H ) :   0.9532 

-------
TIMINGS
-------

Total SCF time: 0 days 0 hours 0 min 0 sec 

Total time                  ....       0.626 sec
Sum of individual times     ....       0.565 sec  ( 90.3%)

Fock matrix formation       ....       0.392 sec  ( 62.7%)
  Split-RI-J                ....       0.110 sec  ( 28.0% of F)
  Chain of spheres X        ....       0.216 sec  ( 55.0% of F)
  XC integration            ....       0.037 sec  (  9.5% of F)
    Basis function eval.    ....       0.003 sec  (  7.1% of XC)
    Density eval.           ....       0.003 sec  (  6.8% of XC)
    XC-Functional eval.     ....       0.004 sec  ( 10.0% of XC)
    XC-Potential eval.      ....       0.001 sec  (  3.4% of XC)
Diagonalization             ....       0.038 sec  (  6.0%)
Density matrix formation    ....       0.001 sec  (  0.2%)
Population analysis         ....       0.003 sec  (  0.4%)
Initial guess               ....       0.002 sec  (  0.4%)
Orbital Transformation      ....       0.000 sec  (  0.0%)
Orbital Orthonormalization  ....       0.000 sec  (  0.0%)
DIIS solution               ....       0.054 sec  (  8.7%)
Grid generation             ....       0.075 sec  ( 12.0%)

Maximum memory used throughout the entire SCF-calculation: 43.0 MB


           ************************************************************
           *        Program running with 28 parallel MPI-processes    *
           *              working on a common directory               *
           ************************************************************
------------------------------------------------------------------------------
                        ORCA TD-DFT/TDA CALCULATION
------------------------------------------------------------------------------

Input orbitals are from        ... JOBS/8_B.gbw
CI-vector output               ... JOBS/8_B.cis
Tamm-Dancoff approximation     ... operative
CIS-Integral strategy          ... AO-integrals
Integral handling              ... AO integral Direct
Max. core memory used          ... 1000 MB
Reference state                ... UHF
Follow IRoot                   ... off
Number of operators            ... 2
Orbital ranges used for CIS calculation:
 Operator 0:  Orbitals   1...  4  to   3... 17

-------------------
XC-INTEGRATION GRID
-------------------

General Integration Accuracy     IntAcc      ... 3.467
Radial Grid Type                 RadialGrid  ... OptM3 with GC (2021)
Angular Grid (max. ang.)         AngularGrid ... 1 (Lebedev-50)
Angular grid pruning method      GridPruning ... 4 (adaptive)
Weight generation scheme         WeightScheme... Becke
Basis function cutoff            BFCut       ... 1.0000e-11
Integration weight cutoff        WCut        ... 1.0000e-14
Angular grids for H and He will be reduced by one unit
Partially contracted basis set               ... off
Rotationally invariant grid construction     ... off

Total number of grid points                  ...     1846
Total number of batches                      ...       30
Average number of points per batch           ...       61
Average number of grid points per atom       ...      615

---------------------
COSX-INTEGRATION GRID
---------------------

General Integration Accuracy     IntAcc      ... 3.067
Radial Grid Type                 RadialGrid  ... OptM3 with GC (2021)
Angular Grid (max. ang.)         AngularGrid ... 1 (Lebedev-50)
Angular grid pruning method      GridPruning ... 4 (adaptive)
Weight generation scheme         WeightScheme... Becke
Basis function cutoff            BFCut       ... 1.0000e-11
Integration weight cutoff        WCut        ... 1.0000e-14
Angular grids for H and He will be reduced by one unit
Partially contracted basis set               ... on
Rotationally invariant grid construction     ... off

Total number of grid points                  ...      845
Total number of batches                      ...       14
Average number of points per batch           ...       60
Average number of grid points per atom       ...      282

---------------
TD-DFT XC SETUP
---------------

DFT calculation                         ... on
Name of the grid file                   ... JOBS/8_B.grid_cis.tmp
Exchange functional (TD-DFT)            ... B88
   X-Alpha parameter    XAlpha (TD-DFT) ...  0.666667
   Becke's b parameter  XBeta (TD-DFT)  ...  0.004200
Correlation functional (TD-DFT)         ... LYP
 LDA part of GGA corr.  LDAOpt (TD-DFT) ... VWN-5
Hybrid DFT                              ... on
   Exchange mixing (TD-DFT)             ...  0.200
   GGA exch. scaling (TD-DFT)           ...  0.720
   GGA corr. scaling (TD-DFT)           ...  0.810

Building densities             ... done
Calculating rho(r) on the grid ... done
Building xc-kernel on the grid ... done
                    *** TD-DFT CALCULATION INITIALIZED ***

------------------------
DAVIDSON-DIAGONALIZATION
------------------------

Dimension of the eigenvalue problem            ...     60
Number of roots to be determined               ...      2
Maximum size of the expansion space            ...     20
Maximum number of iterations                   ...    100
Convergence tolerance for the residual         ...    2.500e-07
Convergence tolerance for the energies         ...    2.500e-07
Orthogonality tolerance                        ...    1.000e-14
Level Shift                                    ...    0.000e+00
Constructing the preconditioner                ... o.k.
Building the initial guess                     ... o.k.
Number of trial vectors determined             ...     20


                       ****Iteration    0****
                <<< Spin-flip sigma vectors requested >>>

   Memory handling for direct AO based CIS:
   Memory per vector needed      ...     1 MB
   Memory needed                 ...     0 MB
   Memory available              ...  1000 MB
   Number of vectors per batch   ...  1000
   Number of batches             ...     1
   Time for densities:            0.000
   Time for K (COSX):             0.017
   Time for Sigma-Completion:     0.000
   Size of expansion space: 6
   Lowest Energy          :     0.001815758547
   Maximum Energy change  :     0.090639089738 (vector 1)
   Maximum residual norm  :     0.001631301952

                       ****Iteration    1****
   Time for densities:            0.000
   Time for K (COSX):             0.020
   Time for Sigma-Completion:     0.000
   Size of expansion space: 8
   Lowest Energy          :     0.000454877062
   Maximum Energy change  :     0.002750241652 (vector 1)
   Maximum residual norm  :     0.000012650485

                       ****Iteration    2****
   Time for densities:            0.000
   Time for K (COSX):             0.014
   Time for Sigma-Completion:     0.000
   Size of expansion space: 10
   Lowest Energy          :     0.000451851790
   Maximum Energy change  :     0.000017195928 (vector 1)
   Maximum residual norm  :     0.000000101993

      *** CONVERGENCE OF RESIDUAL NORM REACHED ***

Storing the converged CI vectors               ... JOBS/8_B.cis3

                 *** DAVIDSON DONE ***

Total time for solving the CIS problem:     0.054sec

---------------------
SF-TDA EXCITED STATES
---------------------

the weight of the individual excitations are printed if larger than 1.0e-02

(SPIN-FLIP GROUND STATE)
STATE  1:  E=   0.000452 au      0.012 eV       99.2 cm**-1 <S**2> =   0.012580
     4a ->   3b  :     0.996031 (c=  0.99801349)

STATE  2:  E=   0.087872 au      2.391 eV    19285.6 cm**-1 <S**2> =   1.996129
     2a ->   3b  :     0.459416 (c=  0.67780197)
     4a ->   4b  :     0.534359 (c=  0.73099858)


-----------------------------
TD-DFT/TDA-EXCITATION SPECTRA
-----------------------------

Center of mass = (  2.6911,  0.9027, -0.0000)
Calculating the Dipole integrals                  ... done
Transforming integrals                            ... done
Calculating the Linear Momentum integrals         ... done
Transforming integrals                            ... done
Calculating angular momentum integrals            ... done
Transforming integrals                            ... done

-----------------------------------------------------------------------------
         ABSORPTION SPECTRUM VIA TRANSITION ELECTRIC DIPOLE MOMENTS
-----------------------------------------------------------------------------
State   Energy    Wavelength  fosc         T2        TX        TY        TZ  
        (cm-1)      (nm)                 (au**2)    (au)      (au)      (au) 
-----------------------------------------------------------------------------
   2   19186.4    521.2   0.000387168   0.00664   0.00000   0.00000  -0.08151

-----------------------------------------------------------------------------
         ABSORPTION SPECTRUM VIA TRANSITION VELOCITY DIPOLE MOMENTS
-----------------------------------------------------------------------------
State   Energy    Wavelength   fosc        P2         PX        PY        PZ  
        (cm-1)      (nm)                 (au**2)     (au)      (au)      (au) 
-----------------------------------------------------------------------------
   2   19186.4    521.2   0.003241969   0.00043  -0.00000  -0.00000   0.02062

-------------------------------------------------------------------
                             CD SPECTRUM
-------------------------------------------------------------------
State  Energy     Wavelength     R         MX        MY        MZ   
       (cm-1)       (nm)     (1e40*cgs)   (au)      (au)      (au)  
-------------------------------------------------------------------
   2   19186.4    521.2     -0.00000  -0.00767   0.00601   0.00000

Total run time:        0.268 sec

           *** ORCA-CIS/TD-DFT FINISHED WITHOUT ERROR ***

Maximum memory used throughout the entire CIS-calculation: 43.9 MB

-----------------------
CIS/TD-DFT TOTAL ENERGY
-----------------------

    E(SCF)  =    -39.057523066 Eh
    DE(CIS) =      0.000451852 Eh (Root  1)
    ----------------------------- ---------
    E(tot)  =    -39.057071215 Eh


-------------------------   --------------------
FINAL SINGLE POINT ENERGY       -39.057071214559
-------------------------   --------------------



           ************************************************************
           *        Program running with 28 parallel MPI-processes    *
           *              working on a common directory               *
           ************************************************************
------------------------------------------------------------------------------
                         ORCA SCF GRADIENT CALCULATION
------------------------------------------------------------------------------


------------------------
TD-DFT GRADIENT XC SETUP
------------------------

Building densities                     ... done
Calculating rho(r) on the grid         ... done
Building xc-kernel on the grid         ... done
Building xc 3rd derivative on the grid      ... done
                *** TD-DFT GRADIENT CALCULATION INITIALIZED ***

-------------------
TD-DFT/TDA GRADIENT
-------------------

Reference wavefunction             ... UHF
State of interest                  ... 1
Basis dimension                    ... 18
DFT-XC contribution needed         ... YES
RI-approximation                   ... ON
CIS-vectors being read from        ... JOBS/8_B.cis

 => Number of Vectors found: 2
 => Orbital Window: 1...4 -> 5...17
                    1...2 -> 3...17

Reading the CIS file                     ... done
Norm of the CI vector                    ... 1.000000000
Making the CIS (pseudo)densities         ... done
Making operators G(D) and Q(T)           ... done
Transforming the Fock operators          ... done
Making the frozen-core relaxed density   ... done
Constructing the G(H) operator           ... done
Transforming the G(H) operator           ... done
Calculating the CIS Lagrangian           ... done
Solving the Z-vector equations           ... done
Finalizing the relaxed density           ... done
Storing the relaxed density              ... done
Constructing the G(Z) operator           ... done
Transforming the G(Z) operator           ... done
Making the W-matrix                      ... done
Finalizing the W-matrix                  ... done
Transforming the W-matrix                ... done
Nuclear repulsion gradient               ... done
One-Electron gradient                    ... done
Prescreening matrices                    ... done
COSX-gradient                            ... done
Coulomb gradient (RI)                    ... done
Exchange-Correlation gradient            ... done

                 ---------------------------
                 EXCITED STATE GRADIENT DONE
                 ---------------------------

------------------
CARTESIAN GRADIENT
------------------

   1   C   :    0.036722402    0.057921338    0.000000032
   2   H   :   -0.027412852   -0.023768238   -0.000000012
   3   H   :   -0.009474069   -0.034653665   -0.000000011

Difference to translation invariance:
           :   -0.0001645192   -0.0005005653    0.0000000087

Difference to rotation invariance:
           :    0.0000000315   -0.0000000371   -0.0012356496

Norm of the cartesian gradient     ...    0.0855011360
RMS gradient                       ...    0.0285003787
MAX gradient                       ...    0.0579213380

------------------------------------------------------------------------------
                  RELAXED CIS/TDA DENSITY POPULATION ANALYSIS
                                   IROOT 1
------------------------------------------------------------------------------
------------------------------------------------------------------------------
                           ORCA POPULATION ANALYSIS
------------------------------------------------------------------------------
Input electron density              ... JOBS/8_B.cisp
Input spin density                  ... JOBS/8_B.cisr
BaseName (.gbw .S,...)              ... JOBS/8_B

                    ********************************
                    * MULLIKEN POPULATION ANALYSIS *
                    ********************************

------------------------------------------
MULLIKEN ATOMIC CHARGES AND SPIN DENSITIES
------------------------------------------
   0 C :   -0.229955    0.001082
   1 H :    0.114614   -0.000420
   2 H :    0.115341   -0.000662
Sum of atomic charges       :   -0.0000000
Sum of atomic spin densities:    0.0000000

---------------------------------------------------
MULLIKEN REDUCED ORBITAL CHARGES AND SPIN DENSITIES
---------------------------------------------------
CHARGE
  0 C s       :     3.960124  s :     3.960124
      pz      :     0.004238  p :     2.246015
      px      :     1.084508
      py      :     1.157269
      dz2     :     0.004567  d :     0.023817
      dxz     :     0.000029
      dyz     :     0.000063
      dx2y2   :     0.014390
      dxy     :     0.004766
  1 H s       :     0.885386  s :     0.885386
  2 H s       :     0.884659  s :     0.884659

SPIN
  0 C s       :    -0.059192  s :    -0.059192
      pz      :    -0.000016  p :     0.060006
      px      :     0.017279
      py      :     0.042743
      dz2     :     0.000537  d :     0.000269
      dxz     :     0.000004
      dyz     :     0.000012
      dx2y2   :     0.000319
      dxy     :    -0.000603
  1 H s       :    -0.000420  s :    -0.000420
  2 H s       :    -0.000662  s :    -0.000662


                     *******************************
                     * LOEWDIN POPULATION ANALYSIS *
                     *******************************

-----------------------------------------
LOEWDIN ATOMIC CHARGES AND SPIN DENSITIES
-----------------------------------------
   0 C :   -0.213723   -0.007373
   1 H :    0.106727    0.003762
   2 H :    0.106996    0.003611

--------------------------------------------------
LOEWDIN REDUCED ORBITAL CHARGES AND SPIN DENSITIES
--------------------------------------------------
CHARGE
  0 C s       :     3.704265  s :     3.704265
      pz      :     0.004238  p :     2.475622
      px      :     1.195970
      py      :     1.275414
      dz2     :     0.006459  d :     0.033836
      dxz     :     0.000029
      dyz     :     0.000063
      dx2y2   :     0.021059
      dxy     :     0.006226
  1 H s       :     0.893273  s :     0.893273
  2 H s       :     0.893004  s :     0.893004

SPIN
  0 C s       :    -0.052745  s :    -0.052745
      pz      :    -0.000016  p :     0.045201
      px      :     0.012154
      py      :     0.033063
      dz2     :     0.000601  d :     0.000171
      dxz     :     0.000004
      dyz     :     0.000012
      dx2y2   :     0.000188
      dxy     :    -0.000633
  1 H s       :     0.003762  s :     0.003762
  2 H s       :     0.003611  s :     0.003611


                      *****************************
                      * MAYER POPULATION ANALYSIS *
                      *****************************

  NA   - Mulliken gross atomic population
  ZA   - Total nuclear charge
  QA   - Mulliken gross atomic charge
  VA   - Mayer's total valence
  BVA  - Mayer's bonded valence
  FA   - Mayer's free valence

  ATOM       NA         ZA         QA         VA         BVA        FA
  0 C      6.2300     6.0000    -0.2300     1.7190     1.8040    -0.0850
  1 H      0.8854     1.0000     0.1146     0.9148     0.8825     0.0323
  2 H      0.8847     1.0000     0.1153     0.9142     0.8821     0.0321

  Mayer bond orders larger than 0.100000
B(  0-C ,  1-H ) :   0.9022 B(  0-C ,  2-H ) :   0.9018 


-------
TIMINGS
-------

Total TD-DFT gradient time         ...        1.334 sec

Fock matrix formation       ....       0.288 sec  ( 21.6%)
  Coulomb formation         ....       0.285 sec  ( 98.9% of F)
  RI-J                      ....       0.238 sec  ( 82.5% of F)
  Chain of spheres X        ....       0.047 sec  ( 16.3% of F)
  XC integration            ....       0.003 sec  (  1.1% of F)
Z-vector equation           ....       0.684 sec  ( 51.2%)
One electron gradient       ....       0.001 sec  (  0.1%)
Prescreening matrices       ....       0.017 sec  (  1.3%)
RI-J Coulomb gradient       ....       0.082 sec  (  6.2%)
COSX gradient               ....       0.029 sec  (  2.2%)
XC gradient                 ....       0.005 sec  (  0.4%)

Maximum memory used throughout the entire SCFGRAD-calculation: 97.1 MB

                            ***************************************
                            *     ORCA property calculations      *
                            ***************************************

                                    ---------------------
                                    Active property flags
                                    ---------------------
   (+) Dipole Moment


------------------------------------------------------------------------------
                       ORCA ELECTRIC PROPERTIES CALCULATION
------------------------------------------------------------------------------

Dipole Moment Calculation                       ... on
Quadrupole Moment Calculation                   ... off
Polarizability Calculation                      ... off
GBWName                                         ... JOBS/8_B.gbw
Electron density                                ... JOBS/8_B.scfp
The origin for moment calculation is the CENTER OF MASS  = ( 2.691056,  0.902654 -0.000000)

-------------
DIPOLE MOMENT
-------------
                                X             Y             Z
Electronic contribution:      0.62039       0.97044       0.00000
Nuclear contribution   :     -0.79172      -1.23570      -0.00000
                        -----------------------------------------
Total Dipole Moment    :     -0.17133      -0.26525      -0.00000
                        -----------------------------------------
Magnitude (a.u.)       :      0.31577
Magnitude (Debye)      :      0.80263



--------------------
Rotational spectrum 
--------------------
 
Rotational constants in cm-1:    14.276901    11.704290     6.431614 
Rotational constants in MHz : 428010.718022 350885.801614 192814.937680 

 Dipole components along the rotational axes: 
x,y,z [a.u.] :    -0.315750    -0.003775     0.000000 
x,y,z [Debye]:    -0.802572    -0.009595     0.000000 

 

                        *** CIS RELAXED DENSITY ***

------------------------------------------------------------------------------
                       ORCA ELECTRIC PROPERTIES CALCULATION
------------------------------------------------------------------------------

Dipole Moment Calculation                       ... on
Quadrupole Moment Calculation                   ... off
Polarizability Calculation                      ... off
GBWName                                         ... JOBS/8_B.gbw
Electron density                                ... JOBS/8_B.cisp
The origin for moment calculation is the CENTER OF MASS  = ( 2.691056,  0.902654 -0.000000)

-------------
DIPOLE MOMENT
-------------
                                X             Y             Z
Electronic contribution:      0.39510       0.62034       0.00000
Nuclear contribution   :     -0.79172      -1.23570      -0.00000
                        -----------------------------------------
Total Dipole Moment    :     -0.39662      -0.61535      -0.00000
                        -----------------------------------------
Magnitude (a.u.)       :      0.73210
Magnitude (Debye)      :      1.86084



--------------------
Rotational spectrum 
--------------------
 
Rotational constants in cm-1:    14.276901    11.704290     6.431614 
Rotational constants in MHz : 428010.718022 350885.801614 192814.937680 

 Dipole components along the rotational axes: 
x,y,z [a.u.] :    -0.732053    -0.008054    -0.000000 
x,y,z [Debye]:    -1.860732    -0.020472    -0.000000 

 

Timings for individual modules:

Sum of individual times         ...        3.434 sec (=   0.057 min)
GTO integral calculation        ...        0.310 sec (=   0.005 min)   9.0 %
SCF iterations                  ...        0.918 sec (=   0.015 min)  26.7 %
CIS module                      ...        0.536 sec (=   0.009 min)  15.6 %
SCF Gradient evaluation         ...        1.671 sec (=   0.028 min)  48.7 %
                             ****ORCA TERMINATED NORMALLY****
TOTAL RUN TIME: 0 days 0 hours 0 minutes 3 seconds 815 msec
