
                                 *****************
                                 * O   R   C   A *
                                 *****************

                                            #,                                       
                                            ###                                      
                                            ####                                     
                                            #####                                    
                                            ######                                   
                                           ########,                                 
                                     ,,################,,,,,                         
                               ,,#################################,,                 
                          ,,##########################################,,             
                       ,#########################################, ''#####,          
                    ,#############################################,,   '####,        
                  ,##################################################,,,,####,       
                ,###########''''           ''''###############################       
              ,#####''   ,,,,##########,,,,          '''####'''          '####       
            ,##' ,,,,###########################,,,                        '##       
           ' ,,###''''                  '''############,,,                           
         ,,##''                                '''############,,,,        ,,,,,,###''
      ,#''                                            '''#######################'''  
     '                                                          ''''####''''         
             ,#######,   #######,   ,#######,      ##                                
            ,#'     '#,  ##    ##  ,#'     '#,    #''#        ######   ,####,        
            ##       ##  ##   ,#'  ##            #'  '#       #        #'  '#        
            ##       ##  #######   ##           ,######,      #####,   #    #        
            '#,     ,#'  ##    ##  '#,     ,#' ,#      #,         ##   #,  ,#        
             '#######'   ##     ##  '#######'  #'      '#     #####' # '####'        



                  #######################################################
                  #                        -***-                        #
                  #          Department of theory and spectroscopy      #
                  #    Directorship and core code : Frank Neese         #
                  #        Max Planck Institute fuer Kohlenforschung    #
                  #                Kaiser Wilhelm Platz 1               #
                  #                 D-45470 Muelheim/Ruhr               #
                  #                      Germany                        #
                  #                                                     #
                  #                  All rights reserved                #
                  #                        -***-                        #
                  #######################################################


                         Program Version 5.0.1 -  RELEASE  -


 With contributions from (in alphabetic order):
   Daniel Aravena         : Magnetic Suceptibility
   Michael Atanasov       : Ab Initio Ligand Field Theory (pilot matlab implementation)
   Alexander A. Auer      : GIAO ZORA, VPT2 properties, NMR spectrum
   Ute Becker             : Parallelization
   Giovanni Bistoni       : ED, misc. LED, open-shell LED, HFLD
   Martin Brehm           : Molecular dynamics
   Dmytro Bykov           : SCF Hessian
   Vijay G. Chilkuri      : MRCI spin determinant printing, contributions to CSF-ICE
   Dipayan Datta          : RHF DLPNO-CCSD density
   Achintya Kumar Dutta   : EOM-CC, STEOM-CC
   Dmitry Ganyushin       : Spin-Orbit,Spin-Spin,Magnetic field MRCI
   Miquel Garcia          : C-PCM and meta-GGA Hessian, CC/C-PCM, Gaussian charge scheme
   Yang Guo               : DLPNO-NEVPT2, F12-NEVPT2, CIM, IAO-localization
   Andreas Hansen         : Spin unrestricted coupled pair/coupled cluster methods
   Benjamin Helmich-Paris : MC-RPA, TRAH-SCF, COSX integrals
   Lee Huntington         : MR-EOM, pCC
   Robert Izsak           : Overlap fitted RIJCOSX, COSX-SCS-MP3, EOM
   Marcus Kettner         : VPT2
   Christian Kollmar      : KDIIS, OOCD, Brueckner-CCSD(T), CCSD density, CASPT2, CASPT2-K
   Simone Kossmann        : Meta GGA functionals, TD-DFT gradient, OOMP2, MP2 Hessian
   Martin Krupicka        : Initial AUTO-CI
   Lucas Lang             : DCDCAS
   Marvin Lechner         : AUTO-CI (C++ implementation), FIC-MRCC
   Dagmar Lenk            : GEPOL surface, SMD
   Dimitrios Liakos       : Extrapolation schemes; Compound Job, initial MDCI parallelization
   Dimitrios Manganas     : Further ROCIS development; embedding schemes
   Dimitrios Pantazis     : SARC Basis sets
   Anastasios Papadopoulos: AUTO-CI, single reference methods and gradients
   Taras Petrenko         : DFT Hessian,TD-DFT gradient, ASA, ECA, R-Raman, ABS, FL, XAS/XES, NRVS
   Peter Pinski           : DLPNO-MP2, DLPNO-MP2 Gradient
   Christoph Reimann      : Effective Core Potentials
   Marius Retegan         : Local ZFS, SOC
   Christoph Riplinger    : Optimizer, TS searches, QM/MM, DLPNO-CCSD(T), (RO)-DLPNO pert. Triples
   Tobias Risthaus        : Range-separated hybrids, TD-DFT gradient, RPA, STAB
   Michael Roemelt        : Original ROCIS implementation
   Masaaki Saitow         : Open-shell DLPNO-CCSD energy and density
   Barbara Sandhoefer     : DKH picture change effects
   Avijit Sen             : IP-ROCIS
   Kantharuban Sivalingam : CASSCF convergence, NEVPT2, FIC-MRCI
   Bernardo de Souza      : ESD, SOC TD-DFT
   Georgi Stoychev        : AutoAux, RI-MP2 NMR, DLPNO-MP2 response
   Willem Van den Heuvel  : Paramagnetic NMR
   Boris Wezisla          : Elementary symmetry handling
   Frank Wennmohs         : Technical directorship


 We gratefully acknowledge several colleagues who have allowed us to
 interface, adapt or use parts of their codes:
   Stefan Grimme, W. Hujo, H. Kruse, P. Pracht,  : VdW corrections, initial TS optimization,
                  C. Bannwarth, S. Ehlert          DFT functionals, gCP, sTDA/sTD-DF
   Ed Valeev, F. Pavosevic, A. Kumar             : LibInt (2-el integral package), F12 methods
   Garnet Chan, S. Sharma, J. Yang, R. Olivares  : DMRG
   Ulf Ekstrom                                   : XCFun DFT Library
   Mihaly Kallay                                 : mrcc  (arbitrary order and MRCC methods)
   Jiri Pittner, Ondrej Demel                    : Mk-CCSD
   Frank Weinhold                                : gennbo (NPA and NBO analysis)
   Christopher J. Cramer and Donald G. Truhlar   : smd solvation model
   Lars Goerigk                                  : TD-DFT with DH, B97 family of functionals
   V. Asgeirsson, H. Jonsson                     : NEB implementation
   FAccTs GmbH                                   : IRC, NEB, NEB-TS, DLPNO-Multilevel, CI-OPT
                                                   MM, QMMM, 2- and 3-layer-ONIOM, Crystal-QMMM,
                                                   LR-CPCM, SF, NACMEs, symmetry and pop. for TD-DFT,
                                                   nearIR, NL-DFT gradient (VV10), updates on ESD,
                                                   ML-optimized integration grids
   S Lehtola, MJT Oliveira, MAL Marques          : LibXC Library
   Liviu Ungur et al                             : ANISO software


 Your calculation uses the libint2 library for the computation of 2-el integrals
 For citations please refer to: http://libint.valeyev.net

 Your ORCA version has been built with support for libXC version: 5.1.0
 For citations please refer to: https://tddft.org/programs/libxc/

 This ORCA versions uses:
   CBLAS   interface :  Fast vector & matrix operations
   LAPACKE interface :  Fast linear algebra routines
   SCALAPACK package :  Parallel linear algebra routines
   Shared memory     :  Shared parallel matrices
   BLAS/LAPACK       :  OpenBLAS 0.3.15  USE64BITINT DYNAMIC_ARCH NO_AFFINITY Zen SINGLE_THREADED
        Core in use  :  Zen
   Copyright (c) 2011-2014, The OpenBLAS Project


================================================================================

----- Orbital basis set information -----
Your calculation utilizes the basis: 3-21G
   H-Ne       : J. S. Binkley, J. A. Pople and W. J. Hehre, J. Am. Chem. Soc. 102 939 (1980).
   Na-Ar      : M. S. Gordon, J. S. Binkley, J. A. Pople, W. J. Pietro and W.J. Hehre, J. Am. Chem. Soc. 104, 2797 (1983).
   K-Ca, Ga-Kr: K. D. Dobbs and W. J. Hehre, J. Comput. Chem. 7, 359 (1986).
   Sc-Zn      : K. D. Dobbs and W. J. Hehre, J. Comput. Chem. 8, 861 (1987).
   Y-Cd       : K. D. Dobbs and W. J. Hehre, J. Comput. Chem. 8, 880 (1987).

================================================================================
                                        WARNINGS
                       Please study these warnings very carefully!
================================================================================


INFO   : the flag for use of the SHARK integral package has been found!

================================================================================
                                       INPUT FILE
================================================================================
NAME = JOBS/11_B.inp
|  1> %pal nprocs 28 end
|  2> %maxcore 1000 
|  3> ! hf 3-21g engrad 
|  4> !moread 
|  5>  %moinp "JOBS/b.gbw"
|  6>  
|  7> 
|  8>  *xyz 0 1
|  9> c  1.2767728296814205  0.18440297038773748  -6.272867966931257e-07
| 10> h  1.9648130396675128  -0.637812456874498  3.136358944020387e-07
| 11> h  0.27224315124955134  0.559045350621249  3.1367069127188227e-07
| 12> *
| 13> % casscf nel 2 norb 2 nroots 2 weights[0] = 0,1
| 14> maxiter 200
| 15> orbstep superci_pt 
| 16> switchstep diis 
| 17> shiftup 2.0 
| 18> shiftdn 2.0 
| 19> minshift 0.6 
| 20> end
| 21> 
| 22> 
| 23>                          ****END OF INPUT****
================================================================================

                     *******************************
                     * Energy+Gradient Calculation *
                     *******************************

---------------------------------
CARTESIAN COORDINATES (ANGSTROEM)
---------------------------------
  C      1.276773    0.184403   -0.000001
  H      1.964813   -0.637812    0.000000
  H      0.272243    0.559045    0.000000

----------------------------
CARTESIAN COORDINATES (A.U.)
----------------------------
  NO LB      ZA    FRAG     MASS         X           Y           Z
   0 C     6.0000    0    12.011    2.412751    0.348471   -0.000001
   1 H     1.0000    0     1.008    3.712959   -1.205291    0.000001
   2 H     1.0000    0     1.008    0.514465    1.056443    0.000001

--------------------------------
INTERNAL COORDINATES (ANGSTROEM)
--------------------------------
 C      0   0   0     0.000000000000     0.00000000     0.00000000
 H      1   0   0     1.072118248789     0.00000000     0.00000000
 H      1   2   0     1.072117898329   150.37616926     0.00000000

---------------------------
INTERNAL COORDINATES (A.U.)
---------------------------
 C      0   0   0     0.000000000000     0.00000000     0.00000000
 H      1   0   0     2.026009873391     0.00000000     0.00000000
 H      1   2   0     2.026009211118   150.37616926     0.00000000

---------------------
BASIS SET INFORMATION
---------------------
There are 2 groups of distinct atoms

 Group   1 Type C   : 6s3p contracted to 3s2p pattern {321/21}
 Group   2 Type H   : 3s contracted to 2s pattern {21}

Atom   0C    basis set group =>   1
Atom   1H    basis set group =>   2
Atom   2H    basis set group =>   2


           ************************************************************
           *        Program running with 28 parallel MPI-processes    *
           *              working on a common directory               *
           ************************************************************
------------------------------------------------------------------------------
                           ORCA GTO INTEGRAL CALCULATION
------------------------------------------------------------------------------
------------------------------------------------------------------------------
                   ___                                                        
                  /   \      - P O W E R E D   B Y -                         
                 /     \                                                     
                 |  |  |   _    _      __       _____    __    __             
                 |  |  |  | |  | |    /  \     |  _  \  |  |  /  |          
                  \  \/   | |  | |   /    \    | | | |  |  | /  /          
                 / \  \   | |__| |  /  /\  \   | |_| |  |  |/  /          
                |  |  |   |  __  | /  /__\  \  |    /   |      \           
                |  |  |   | |  | | |   __   |  |    \   |  |\   \          
                \     /   | |  | | |  |  |  |  | |\  \  |  | \   \       
                 \___/    |_|  |_| |__|  |__|  |_| \__\ |__|  \__/        
                                                                              
                      - O R C A' S   B I G   F R I E N D -                    
                                      &                                       
                       - I N T E G R A L  F E E D E R -                       
                                                                              
 v1 FN, 2020, v2 2021                                                         
------------------------------------------------------------------------------


Reading SHARK input file JOBS/11_B.SHARKINP.tmp ... ok
----------------------
SHARK INTEGRAL PACKAGE
----------------------

Number of atoms                             ...      3
Number of basis functions                   ...     13
Number of shells                            ...      9
Maximum angular momentum                    ...      1
Integral batch strategy                     ... SHARK/LIBINT Hybrid
RI-J (if used) integral strategy            ... SPLIT-RIJ (Revised 2003 algorithm where possible)
Printlevel                                  ...      1
Contraction scheme used                     ... SEGMENTED contraction
Coulomb Range Separation                    ... NOT USED
Exchange Range Separation                   ... NOT USED
Finite Nucleus Model                        ... NOT USED
Auxiliary Coulomb fitting basis             ... NOT available
Auxiliary J/K fitting basis                 ... NOT available
Auxiliary Correlation fitting basis         ... NOT available
Auxiliary 'external' fitting basis          ... NOT available
Integral threshold                          ...     2.500000e-11
Primitive cut-off                           ...     2.500000e-12
Primitive pair pre-selection threshold      ...     2.500000e-12

Calculating pre-screening integrals         ... done (  0.0 sec) Dimension = 9
Organizing shell pair data                  ... done (  0.0 sec)
Shell pair information
Total number of shell pairs                 ...        45
Shell pairs after pre-screening             ...        45
Total number of primitive shell pairs       ...       127
Primitive shell pairs kept                  ...       126
          la=0 lb=0:     28 shell pairs
          la=1 lb=0:     14 shell pairs
          la=1 lb=1:      3 shell pairs

Calculating one electron integrals          ... done (  0.0 sec)
Calculating Nuclear repulsion               ... done (  0.0 sec) ENN=      6.178246302403 Eh

SHARK setup successfully completed in   0.0 seconds

Maximum memory used throughout the entire GTOINT-calculation: 3.8 MB


           ************************************************************
           *        Program running with 28 parallel MPI-processes    *
           *              working on a common directory               *
           ************************************************************
-------------------------------------------------------------------------------
                                 ORCA SCF
-------------------------------------------------------------------------------

------------
SCF SETTINGS
------------
Hamiltonian:
 Ab initio Hamiltonian  Method          .... Hartree-Fock(GTOs)


General Settings:
 Integral files         IntName         .... JOBS/11_B
 Hartree-Fock type      HFTyp           .... CASSCF
 Total Charge           Charge          ....    0
 Multiplicity           Mult            ....    1
 Number of Electrons    NEL             ....    8
 Basis Dimension        Dim             ....   13
 Nuclear Repulsion      ENuc            ....      6.1782463024 Eh


Diagonalization of the overlap matrix:
Smallest eigenvalue                        ... 5.142e-02
Time for diagonalization                   ...    0.000 sec
Threshold for overlap eigenvalues          ... 1.000e-08
Number of eigenvalues below threshold      ... 0
Time for construction of square roots      ...    0.000 sec
Total time needed                          ...    0.001 sec

---------------------
INITIAL GUESS: MOREAD
---------------------
Guess MOs are being read from file: JOBS/b.gbw
Input geometry compatible with but different from current geometry
Input basis set matches current basis set (good)
MOs were renormalized
Gram-Schmidt orthogonalization of all MOs with pivot on actives
                      ------------------
                      INITIAL GUESS DONE (   0.0 sec)
                      ------------------


 ... the calculation is a CASSCF calculation -I'm leaving here GOOD LUCK!!!



           ************************************************************
           *        Program running with 28 parallel MPI-processes    *
           *              working on a common directory               *
           ************************************************************
-------------------------------------------------------------------------------
                              ORCA-CASSCF
-------------------------------------------------------------------------------

Setting up the integral package       ... done
Building the CAS space                ... done (3 configurations for Mult=1)

SYSTEM-SPECIFIC SETTINGS:
Number of active electrons          ...    2
Number of active orbitals           ...    2
Total number of electrons           ...    8
Total number of orbitals            ...   13

Determined orbital ranges:
   Internal       0 -    2 (   3 orbitals)
   Active         3 -    4 (   2 orbitals)
   External       5 -   12 (   8 orbitals)
Number of rotation parameters      ...     46

CI-STEP:
CI strategy                         ... General CI
Number of multiplicity blocks       ...    1
BLOCK  1 WEIGHT=   1.0000
  Multiplicity                      ...    1
  #(Configurations)                 ...    3
  #(CSFs)                           ...    3
  #(Roots)                          ...    2
    ROOT=0 WEIGHT=    0.000000
    ROOT=1 WEIGHT=    1.000000

  PrintLevel                        ...    1
  N(GuessMat)                       ...       512
  MaxDim(CI)                        ...        10
  MaxIter(CI)                       ...        64
  Energy Tolerance CI               ...  2.50e-09
  Residual Tolerance CI             ...  2.50e-09
  Shift(CI)                         ...  1.00e-04

INTEGRAL-TRANSFORMATION-STEP:
  Algorithm                         ... EXACT

ORBITAL-IMPROVEMENT-STEP:
  Algorithm                         ... SuperCI(PT)
  Default Parametrization           ... CAYLEY
  Act-Act rotations                 ... depends on algorithm used
  FreezeIE                          ... 95.00% of ||g||
  Until reaching FreezeIE rotations with active orbitals are damped. 

  Approx. Fock at                   ... 0.000000e+00 density convergence
  Upward level shift                ...  2.00e+00 
  Downward level shift              ...  2.00e+00 

  Note: SuperCI(PT) will ignore FreezeIE, FreezeAct and FreezeGrad. In general Default settings are encouraged.
        In conjunction with ShiftUp, ShiftDn or GradScaling the performance of SuperCI(PT) is less optimal.  

  MaxRot                            ... 2.00e-01 
  Max. no of vectors (DIIS)         ... 15
  DThresh (cut-off) metric          ... 1.00e-06
  Switch step at gradient           ...  3.00e-02 
  Switch step at iteration          ...        50   
  Switch step to                    ... DIIS    

SCF-SETTINGS:
  Incremental                       ... on
  RIJCOSX approximation             ... off
  RI-JK approximation               ... off
  AO integral handling              ... DIRECT
  Integral Neglect Thresh           ...  2.50e-11
  Primitive cutoff TCut             ...  2.50e-12
  Energy convergence tolerance      ...  2.50e-08
  Orbital gradient convergence      ...  2.50e-04
  Max. number of iterations         ...       200  


FINAL ORBITALS:
  Active   Orbitals                 ... natural 
  Internal Orbitals                 ... canonical 
  External Orbitals                 ... canonical 

------------------
CAS-SCF ITERATIONS
------------------


MACRO-ITERATION   1: 
   --- Inactive Energy E0 = -37.42926279 Eh
CI-ITERATION   0: 
   -38.632277379   0.000000000000 (    0.00)
   -38.628563377   0.000000000000
   CI-PROBLEM SOLVED
   DENSITIES MADE

                 <<<<<<<<<<<<<<<<<<INITIAL CI STATE CHECK>>>>>>>>>>>>>>>>>>

BLOCK  1 MULT= 1 NROOTS= 2 
ROOT   0:  E=     -38.6322773785 Eh
      0.94803 [     1]: 11
      0.02765 [     0]: 20
      0.02432 [     2]: 02
ROOT   1:  E=     -38.6285633771 Eh  0.101 eV    815.1 cm**-1
      0.49997 [     0]: 20
      0.49997 [     2]: 02

                 <<<<<<<<<<<<<<<<<<INITIAL CI STATE CHECK>>>>>>>>>>>>>>>>>>

   E(CAS)=   -38.628563377 Eh DE=    0.000000e+00
   --- Energy gap subspaces: Ext-Act = 0.374   Act-Int = 0.516
   N(occ)=  1.00000 1.00000
   ||g|| =     1.051255e-01 Max(G)=   -4.111378e-02 Rot=9,1
   --- Orbital Update [SuperCI(PT)]
   --- Canonicalize Internal Space
   --- Canonicalize External Space
   --- SX_PT (Skipped TA=0 IT=0): ||X|| =      0.039214961 Max(X)(3,1) =      0.020860635 
   --- SFit(Active Orbitals)

MACRO-ITERATION   2: 
   --- Inactive Energy E0 = -37.42322465 Eh
CI-ITERATION   0: 
   -38.634909150   0.000000000000 (    0.00)
   -38.630840268   0.000000000000
   CI-PROBLEM SOLVED
   DENSITIES MADE
   E(CAS)=   -38.630840268 Eh DE=   -2.276891e-03
   --- Energy gap subspaces: Ext-Act = 0.377   Act-Int = 0.513
   N(occ)=  1.00000 1.00000
   ||g|| =     3.009738e-02 Max(G)=    1.312123e-02 Rot=3,1
   --- Orbital Update [SuperCI(PT)]
   --- Canonicalize Internal Space
   --- Canonicalize External Space
   --- SX_PT (Skipped TA=0 IT=0): ||X|| =      0.014964601 Max(X)(5,3) =     -0.006989693 
   --- SFit(Active Orbitals)

MACRO-ITERATION   3: 
   --- Inactive Energy E0 = -37.42247287 Eh
CI-ITERATION   0: 
   -38.635559767   0.000000000000 (    0.00)
   -38.631172926   0.000000000000
   CI-PROBLEM SOLVED
   DENSITIES MADE
   E(CAS)=   -38.631172926 Eh DE=   -3.326580e-04
   --- Energy gap subspaces: Ext-Act = 0.378   Act-Int = 0.513
   N(occ)=  1.00000 1.00000
   ||g|| =     6.080147e-03 Max(G)=   -2.833486e-03 Rot=5,3
   --- Orbital Update [SuperCI(PT)]
   --- Canonicalize Internal Space
   --- Canonicalize External Space
   --- SX_PT (Skipped TA=0 IT=0): ||X|| =      0.003360143 Max(X)(5,3) =     -0.002286092 
   --- SFit(Active Orbitals)

MACRO-ITERATION   4: 
   ===>>> Convergence to 3.0e-02 achieved - switching to Step=DIIS
   --- Inactive Energy E0 = -37.42164712 Eh
CI-ITERATION   0: 
   -38.635613916   0.000000000000 (    0.00)
   -38.631186288   0.000000000000
   CI-PROBLEM SOLVED
   DENSITIES MADE
   E(CAS)=   -38.631186288 Eh DE=   -1.336210e-05
   --- Energy gap subspaces: Ext-Act = 0.379   Act-Int = 0.512
   N(occ)=  1.00000 1.00000
   ||g|| =     2.412668e-03 Max(G)=    9.190774e-04 Rot=12,1
   --- Orbital Update [      DIIS]
   --- SFit(Active Orbitals)

MACRO-ITERATION   5: 
   --- Inactive Energy E0 = -37.42192070 Eh
CI-ITERATION   0: 
   -38.635614036   0.000000000000 (    0.00)
   -38.631187037   0.000000000000
   CI-PROBLEM SOLVED
   DENSITIES MADE
   E(CAS)=   -38.631187037 Eh DE=   -7.494988e-07
   --- Energy gap subspaces: Ext-Act = 0.378   Act-Int = 0.512
   N(occ)=  1.00000 1.00000
   ||g|| =     1.265133e-03 Max(G)=    6.086516e-04 Rot=12,0
   --- Orbital Update [      DIIS]
   --- SFit(Active Orbitals)

MACRO-ITERATION   6: 
   --- Inactive Energy E0 = -37.42194209 Eh
CI-ITERATION   0: 
   -38.635614245   0.000000000000 (    0.00)
   -38.631187260   0.000000000000
   CI-PROBLEM SOLVED
   DENSITIES MADE
   E(CAS)=   -38.631187260 Eh DE=   -2.226325e-07
   --- Energy gap subspaces: Ext-Act = 0.378   Act-Int = 0.512
   N(occ)=  1.00000 1.00000
   ||g|| =     9.418165e-04 Max(G)=    4.666659e-04 Rot=12,0
   --- Orbital Update [      DIIS]
   --- SFit(Active Orbitals)

MACRO-ITERATION   7: 
   --- Inactive Energy E0 = -37.42197423 Eh
CI-ITERATION   0: 
   -38.635615476   0.000000000000 (    0.00)
   -38.631187421   0.000000000000
   CI-PROBLEM SOLVED
   DENSITIES MADE
   E(CAS)=   -38.631187421 Eh DE=   -1.607101e-07
   --- Energy gap subspaces: Ext-Act = 0.378   Act-Int = 0.512
   N(occ)=  1.00000 1.00000
   ||g|| =     4.575789e-04 Max(G)=    2.892882e-04 Rot=5,3
   --- Orbital Update [      DIIS]
   --- SFit(Active Orbitals)

MACRO-ITERATION   8: 
   --- Inactive Energy E0 = -37.42202103 Eh
CI-ITERATION   0: 
   -38.635617607   0.000000000000 (    0.00)
   -38.631187544   0.000000000000
   CI-PROBLEM SOLVED
   DENSITIES MADE
   E(CAS)=   -38.631187544 Eh DE=   -1.236662e-07
   --- Energy gap subspaces: Ext-Act = 0.378   Act-Int = 0.512
   N(occ)=  1.00000 1.00000
   ||g|| =     1.574819e-04 Max(G)=   -8.198950e-05 Rot=5,3
                     ---- THE CAS-SCF GRADIENT HAS CONVERGED ----
                            --- FINALIZING ORBITALS ---
                    ---- DOING ONE FINAL ITERATION FOR PRINTING ----
   --- Forming Natural Orbitals
   --- Canonicalize Internal Space
   --- Canonicalize External Space

MACRO-ITERATION   9: 
   --- Inactive Energy E0 = -37.42202103 Eh
   --- All densities will be recomputed
CI-ITERATION   0: 
   -38.635617607   0.000000000000 (    0.00)
   -38.631187544   0.000000000000
   CI-PROBLEM SOLVED
   DENSITIES MADE
   E(CAS)=   -38.631187544 Eh DE=   -2.131628e-14
   --- Energy gap subspaces: Ext-Act = 0.377   Act-Int = 0.512
   N(occ)=  1.00000 1.00000
   ||g|| =     1.574819e-04 Max(G)=   -8.101989e-05 Rot=5,3
--------------
CASSCF RESULTS
--------------

Final CASSCF energy       : -38.631187544 Eh   -1051.2081 eV

----------------
ORBITAL ENERGIES
----------------

  NO   OCC          E(Eh)            E(eV) 
   0   2.0000     -11.183194      -304.3102 
   1   2.0000      -0.850113       -23.1327 
   2   2.0000      -0.620451       -16.8833 
   3   1.0000      -0.107959        -2.9377 
   4   1.0000      -0.107959        -2.9377 
   5   0.0000       0.269199         7.3253 
   6   0.0000       0.382960        10.4209 
   7   0.0000       0.955663        26.0049 
   8   0.0000       1.000441        27.2234 
   9   0.0000       1.052743        28.6466 
  10   0.0000       1.109285        30.1852 
  11   0.0000       1.399222        38.0748 
  12   0.0000       1.618868        44.0516 


---------------------------------------------
CAS-SCF STATES FOR BLOCK  1 MULT= 1 NROOTS= 2
---------------------------------------------

ROOT   0:  E=     -38.6356176071 Eh
      0.94867 [     1]: 11
      0.02566 [     2]: 02
      0.02566 [     0]: 20
ROOT   1:  E=     -38.6311875444 Eh  0.121 eV    972.3 cm**-1
      0.50000 [     0]: 20
      0.50000 [     2]: 02


--------------
DENSITY MATRIX
--------------

                  0          1    
      0       1.000000   0.000000
      1       0.000000   1.000000
Trace of the electron density:  2.000000

-----------------
ENERGY COMPONENTS
-----------------

One electron energy          :    -63.630760456 Eh       -1731.4810 eV
Two electron energy          :     18.821326609 Eh         512.1543 eV
Nuclear repulsion energy     :      6.178246302 Eh         168.1186 eV
                               ----------------
                                  -38.631187544

Kinetic energy               :     38.521253704 Eh        1048.2166 eV
Potential energy             :    -77.152441249 Eh       -2099.4247 eV
Virial ratio                 :     -2.002853849 
                               ----------------
                                  -38.631187544

Core energy                  :    -37.422021027 Eh    -1018.3050 eV


----------------------------
LOEWDIN ORBITAL-COMPOSITIONS
----------------------------

                      0         1         2         3         4         5   
                 -11.18319  -0.85011  -0.62045  -0.10796  -0.10796   0.26920
                   2.00000   2.00000   2.00000   1.00000   1.00000   0.00000
                  --------  --------  --------  --------  --------  --------
 0 C  s              99.8      58.2       0.0       2.2       2.2      36.8
 0 C  pz              0.0       0.0       0.0      50.0      50.0       0.0
 0 C  px              0.0       0.3      36.9      15.6      15.6       1.5
 0 C  py              0.0       0.5      18.5      31.2      31.2       3.0
 1 H  s               0.1      20.5      22.3       0.5       0.5      29.4
 2 H  s               0.1      20.5      22.3       0.5       0.5      29.4

                      6         7         8         9        10        11   
                   0.38296   0.95566   1.00044   1.05274   1.10928   1.39922
                   0.00000   0.00000   0.00000   0.00000   0.00000   0.00000
                  --------  --------  --------  --------  --------  --------
 0 C  s               0.0       4.1       0.0       8.3       0.0       0.0
 0 C  pz              0.0       0.0     100.0       0.0       0.0       0.0
 0 C  px             19.8      17.9       0.0      15.6      56.9      19.7
 0 C  py              9.9      35.9       0.0      31.2      28.4       9.9
 1 H  s              35.2      21.1       0.0      22.5       7.4      35.2
 2 H  s              35.2      21.1       0.0      22.5       7.4      35.2

                     12   
                   1.61887
                   0.00000
                  --------
 0 C  s              88.4
 0 C  px              0.1
 0 C  py              0.3
 1 H  s               5.6
 2 H  s               5.6

----------------------------
LOEWDIN REDUCED ACTIVE MOs  
----------------------------

                      0         1         2         3         4         5   
                 -11.18319  -0.85011  -0.62045  -0.10796  -0.10796   0.26920
                   2.00000   2.00000   2.00000   1.00000   1.00000   0.00000
                  --------  --------  --------  --------  --------  --------
 0 C  s              99.8      58.2       0.0       2.2       2.2      36.8
 0 C  pz              0.0       0.0       0.0      50.0      50.0       0.0
 0 C  px              0.0       0.3      36.9      15.6      15.6       1.5
 0 C  py              0.0       0.5      18.5      31.2      31.2       3.0
 1 H  s               0.1      20.5      22.3       0.5       0.5      29.4
 2 H  s               0.1      20.5      22.3       0.5       0.5      29.4

------------------------------------------------------------------------------
                           ORCA POPULATION ANALYSIS
------------------------------------------------------------------------------
Input electron density              ... JOBS/11_B.scfp
BaseName (.gbw .S,...)              ... JOBS/11_B

                    ********************************
                    * MULLIKEN POPULATION ANALYSIS *
                    ********************************

-----------------------
MULLIKEN ATOMIC CHARGES
-----------------------
   0 C :   -0.509413
   1 H :    0.254706
   2 H :    0.254706
Sum of atomic charges:   -0.0000000

--------------------------------
MULLIKEN REDUCED ORBITAL CHARGES
--------------------------------
  0 C s       :     3.466287  s :     3.466287
      pz      :     1.000000  p :     3.043125
      px      :     1.044910
      py      :     0.998216
  1 H s       :     0.745294  s :     0.745294
  2 H s       :     0.745294  s :     0.745294


                     *******************************
                     * LOEWDIN POPULATION ANALYSIS *
                     *******************************

----------------------
LOEWDIN ATOMIC CHARGES
----------------------
   0 C :   -0.265795
   1 H :    0.132897
   2 H :    0.132897

-------------------------------
LOEWDIN REDUCED ORBITAL CHARGES
-------------------------------
  0 C s       :     3.204239  s :     3.204239
      pz      :     1.000000  p :     3.061555
      px      :     1.056563
      py      :     1.004992
  1 H s       :     0.867103  s :     0.867103
  2 H s       :     0.867103  s :     0.867103


                      *****************************
                      * MAYER POPULATION ANALYSIS *
                      *****************************

  NA   - Mulliken gross atomic population
  ZA   - Total nuclear charge
  QA   - Mulliken gross atomic charge
  VA   - Mayer's total valence
  BVA  - Mayer's bonded valence
  FA   - Mayer's free valence

  ATOM       NA         ZA         QA         VA         BVA        FA
  0 C      6.5094     6.0000    -0.5094     3.7702     1.7915     1.9787
  1 H      0.7453     1.0000     0.2547     0.9187     0.9081     0.0106
  2 H      0.7453     1.0000     0.2547     0.9187     0.9081     0.0106

  Mayer bond orders larger than 0.100000
B(  0-C ,  1-H ) :   0.8958 B(  0-C ,  2-H ) :   0.8958 


-------------------------------------------------------------
 Forming the transition density       ... done in 0.000275 sec
-------------------------------------------------------------



==========================================
CASSCF UV, CD spectra and dipole moments
==========================================
-------------------
ABSORPTION SPECTRUM
-------------------

Center of mass           = (  2.3698,  0.2877, -0.0000)
Nuclear contribution to the dipole moment =    -0.254248,   -0.359553,    0.000002 au

Calculating the Dipole integrals                  ... done
Transforming integrals                            ... done
Calculating the Linear Momentum integrals         ... done
Transforming integrals                            ... done
Calculating the Angular Momentum integrals        ... done
Transforming integrals                            ... done

------------------------------------------------------------------------------------------
                                ABSORPTION SPECTRUM
------------------------------------------------------------------------------------------
  States           Energy   Wavelength   fosc          T2        TX         TY        TZ  
                   (cm-1)     (nm)                   (D**2)      (D)        (D)       (D) 
------------------------------------------------------------------------------------------
  0( 0)-> 1( 0) 1     972.3   10285.0   0.000020229   0.04418   0.00000   0.00000   0.21019
------------------------------------------------------------------------------------------



------------------------------------------------------------------------------
                             CD SPECTRUM
------------------------------------------------------------------------------
      States        Energy   Wavelength   R*T        RX        RY        RZ   
                    (cm-1)      (nm)   (1e40*sgs)   (au)      (au)      (au)  
------------------------------------------------------------------------------
  0( 0)-> 1( 0) 1     972.3   10285.0     0.00000  -0.78206   0.55301   0.00000
------------------------------------------------------------------------------

------------------------------------------------------------------------------
                                 DIPOLE MOMENTS
------------------------------------------------------------------------------
  Root  Block           TX        TY        TZ           |T|
                      (Debye)   (Debye)   (Debye)      (Debye)
------------------------------------------------------------------------------
    0    0           -0.67439  -0.95371   0.00000      1.16806

--------------
CASSCF TIMINGS
--------------

Total time                       ...        0.2 sec
Sum of individual times          ...        0.1 sec ( 40.7%)

Calculation of AO operators
   F(Core) operator              ...        0.0 sec (  1.8%)
   G(Act) operator               ...        0.0 sec (  1.4%)
   J(AO) operators               ...        0.0 sec (  0.0%)
Calculation of MO transformed quantities
   J(MO) operators               ...        0.1 sec ( 27.1%)
   (pq|rs) integrals             ...        0.0 sec (  0.0%)
   AO->MO one electron integrals ...        0.0 sec (  0.0%)
Configuration interaction steps
   CI-setup phase                ...        0.0 sec (  0.1%)
   CI-solution phase             ...        0.0 sec (  8.7%)
   Generation of densities       ...        0.0 sec (  0.3%)
Orbital improvement steps
   Orbital gradient              ...        0.0 sec (  0.4%)
   O(1) converger                ...        0.0 sec (  0.7%)
Properties                       ...        0.0 sec (  0.1%)
   SOC integral calculation      ...        0.0 sec (  0.0%)
   SSC RMEs (incl. integrals)    ...        0.0 sec (  0.0%)
   SOC RMEs                      ...        0.0 sec (  0.0%)

Maximum memory used throughout the entire CASSCF-calculation: 58.3 MB

-------------------------   --------------------
FINAL SINGLE POINT ENERGY       -38.631187544418
-------------------------   --------------------



           ************************************************************
           *        Program running with 28 parallel MPI-processes    *
           *              working on a common directory               *
           ************************************************************
------------------------------------------------------------------------------
                         ORCA SCF GRADIENT CALCULATION
------------------------------------------------------------------------------

Gradient of the Hartree-Fock SCF energy:
Hartree-Fock type                ... CASSCF
Number of electrons in CAS       ... 2
Number of orbitals in CAS        ... 2
File with 1- and 2el densities   ... JOBS/11_B.casp.tmp
Number of operators              ...    1
Number of atoms                  ...    3
Basis set dimensions             ...   13
Integral neglect threshold       ... 2.5e-11
Integral primitive cutoff        ... 2.5e-12
SHARK Integral package           ... ON

Nuc. rep. gradient       (SHARK) ... done (  0.0 sec)
HCore & Overlap gradient (SHARK) ... done (  0.0 sec)
Two-Electron gradient    (SHARK) ... done (  0.0 sec)

------------------
CARTESIAN GRADIENT
------------------

   1   C   :    0.000503158    0.000712015   -0.000000010
   2   H   :    0.005884460   -0.004694994    0.000000005
   3   H   :   -0.006387618    0.003982979    0.000000005

Difference to translation invariance:
           :    0.0000000000   -0.0000000000   -0.0000000000

Difference to rotation invariance:
           :   -0.0000000029    0.0000000021    0.0000000014

Norm of the cartesian gradient     ...    0.0106815612
RMS gradient                       ...    0.0035605204
MAX gradient                       ...    0.0063876176

-------
TIMINGS
-------

Total SCF gradient time            ...        0.024 sec

One electron gradient       ....       0.001 sec  (  4.5%)
Two electron gradient       ....       0.001 sec  (  5.2%)

Maximum memory used throughout the entire SCFGRAD-calculation: 6.2 MB

                            ***************************************
                            *     ORCA property calculations      *
                            ***************************************

                                    ---------------------
                                    Active property flags
                                    ---------------------
   (+) Dipole Moment


------------------------------------------------------------------------------
                       ORCA ELECTRIC PROPERTIES CALCULATION
------------------------------------------------------------------------------

Dipole Moment Calculation                       ... on
Quadrupole Moment Calculation                   ... off
Polarizability Calculation                      ... off
GBWName                                         ... JOBS/11_B.gbw
Electron density                                ... JOBS/11_B.scfp
The origin for moment calculation is the CENTER OF MASS  = ( 2.369772,  0.287691 -0.000001)

-------------
DIPOLE MOMENT
-------------
                                X             Y             Z
Electronic contribution:      0.07445       0.10528      -0.00000
Nuclear contribution   :     -0.25425      -0.35955       0.00000
                        -----------------------------------------
Total Dipole Moment    :     -0.17980      -0.25427       0.00000
                        -----------------------------------------
Magnitude (a.u.)       :      0.31142
Magnitude (Debye)      :      0.79157



--------------------
Rotational spectrum 
--------------------
 
Rotational constants in cm-1:   129.994804     7.783494     7.343782 
Rotational constants in MHz : 3897146.190377 233343.276227 220161.040804 

 Dipole components along the rotational axes: 
x,y,z [a.u.] :     0.000000    -0.311421    -0.000000 
x,y,z [Debye]:     0.000000    -0.791571    -0.000000 

 

Timings for individual modules:

Sum of individual times         ...        4.000 sec (=   0.067 min)
GTO integral calculation        ...        0.261 sec (=   0.004 min)   6.5 %
SCF iterations                  ...        0.287 sec (=   0.005 min)   7.2 %
CASSCF iterations               ...        3.181 sec (=   0.053 min)  79.5 %
SCF Gradient evaluation         ...        0.272 sec (=   0.005 min)   6.8 %
                             ****ORCA TERMINATED NORMALLY****
TOTAL RUN TIME: 0 days 0 hours 0 minutes 4 seconds 300 msec
