
                                 *****************
                                 * O   R   C   A *
                                 *****************

                                            #,                                       
                                            ###                                      
                                            ####                                     
                                            #####                                    
                                            ######                                   
                                           ########,                                 
                                     ,,################,,,,,                         
                               ,,#################################,,                 
                          ,,##########################################,,             
                       ,#########################################, ''#####,          
                    ,#############################################,,   '####,        
                  ,##################################################,,,,####,       
                ,###########''''           ''''###############################       
              ,#####''   ,,,,##########,,,,          '''####'''          '####       
            ,##' ,,,,###########################,,,                        '##       
           ' ,,###''''                  '''############,,,                           
         ,,##''                                '''############,,,,        ,,,,,,###''
      ,#''                                            '''#######################'''  
     '                                                          ''''####''''         
             ,#######,   #######,   ,#######,      ##                                
            ,#'     '#,  ##    ##  ,#'     '#,    #''#        ######   ,####,        
            ##       ##  ##   ,#'  ##            #'  '#       #        #'  '#        
            ##       ##  #######   ##           ,######,      #####,   #    #        
            '#,     ,#'  ##    ##  '#,     ,#' ,#      #,         ##   #,  ,#        
             '#######'   ##     ##  '#######'  #'      '#     #####' # '####'        



                  #######################################################
                  #                        -***-                        #
                  #          Department of theory and spectroscopy      #
                  #    Directorship and core code : Frank Neese         #
                  #        Max Planck Institute fuer Kohlenforschung    #
                  #                Kaiser Wilhelm Platz 1               #
                  #                 D-45470 Muelheim/Ruhr               #
                  #                      Germany                        #
                  #                                                     #
                  #                  All rights reserved                #
                  #                        -***-                        #
                  #######################################################


                         Program Version 5.0.1 -  RELEASE  -


 With contributions from (in alphabetic order):
   Daniel Aravena         : Magnetic Suceptibility
   Michael Atanasov       : Ab Initio Ligand Field Theory (pilot matlab implementation)
   Alexander A. Auer      : GIAO ZORA, VPT2 properties, NMR spectrum
   Ute Becker             : Parallelization
   Giovanni Bistoni       : ED, misc. LED, open-shell LED, HFLD
   Martin Brehm           : Molecular dynamics
   Dmytro Bykov           : SCF Hessian
   Vijay G. Chilkuri      : MRCI spin determinant printing, contributions to CSF-ICE
   Dipayan Datta          : RHF DLPNO-CCSD density
   Achintya Kumar Dutta   : EOM-CC, STEOM-CC
   Dmitry Ganyushin       : Spin-Orbit,Spin-Spin,Magnetic field MRCI
   Miquel Garcia          : C-PCM and meta-GGA Hessian, CC/C-PCM, Gaussian charge scheme
   Yang Guo               : DLPNO-NEVPT2, F12-NEVPT2, CIM, IAO-localization
   Andreas Hansen         : Spin unrestricted coupled pair/coupled cluster methods
   Benjamin Helmich-Paris : MC-RPA, TRAH-SCF, COSX integrals
   Lee Huntington         : MR-EOM, pCC
   Robert Izsak           : Overlap fitted RIJCOSX, COSX-SCS-MP3, EOM
   Marcus Kettner         : VPT2
   Christian Kollmar      : KDIIS, OOCD, Brueckner-CCSD(T), CCSD density, CASPT2, CASPT2-K
   Simone Kossmann        : Meta GGA functionals, TD-DFT gradient, OOMP2, MP2 Hessian
   Martin Krupicka        : Initial AUTO-CI
   Lucas Lang             : DCDCAS
   Marvin Lechner         : AUTO-CI (C++ implementation), FIC-MRCC
   Dagmar Lenk            : GEPOL surface, SMD
   Dimitrios Liakos       : Extrapolation schemes; Compound Job, initial MDCI parallelization
   Dimitrios Manganas     : Further ROCIS development; embedding schemes
   Dimitrios Pantazis     : SARC Basis sets
   Anastasios Papadopoulos: AUTO-CI, single reference methods and gradients
   Taras Petrenko         : DFT Hessian,TD-DFT gradient, ASA, ECA, R-Raman, ABS, FL, XAS/XES, NRVS
   Peter Pinski           : DLPNO-MP2, DLPNO-MP2 Gradient
   Christoph Reimann      : Effective Core Potentials
   Marius Retegan         : Local ZFS, SOC
   Christoph Riplinger    : Optimizer, TS searches, QM/MM, DLPNO-CCSD(T), (RO)-DLPNO pert. Triples
   Tobias Risthaus        : Range-separated hybrids, TD-DFT gradient, RPA, STAB
   Michael Roemelt        : Original ROCIS implementation
   Masaaki Saitow         : Open-shell DLPNO-CCSD energy and density
   Barbara Sandhoefer     : DKH picture change effects
   Avijit Sen             : IP-ROCIS
   Kantharuban Sivalingam : CASSCF convergence, NEVPT2, FIC-MRCI
   Bernardo de Souza      : ESD, SOC TD-DFT
   Georgi Stoychev        : AutoAux, RI-MP2 NMR, DLPNO-MP2 response
   Willem Van den Heuvel  : Paramagnetic NMR
   Boris Wezisla          : Elementary symmetry handling
   Frank Wennmohs         : Technical directorship


 We gratefully acknowledge several colleagues who have allowed us to
 interface, adapt or use parts of their codes:
   Stefan Grimme, W. Hujo, H. Kruse, P. Pracht,  : VdW corrections, initial TS optimization,
                  C. Bannwarth, S. Ehlert          DFT functionals, gCP, sTDA/sTD-DF
   Ed Valeev, F. Pavosevic, A. Kumar             : LibInt (2-el integral package), F12 methods
   Garnet Chan, S. Sharma, J. Yang, R. Olivares  : DMRG
   Ulf Ekstrom                                   : XCFun DFT Library
   Mihaly Kallay                                 : mrcc  (arbitrary order and MRCC methods)
   Jiri Pittner, Ondrej Demel                    : Mk-CCSD
   Frank Weinhold                                : gennbo (NPA and NBO analysis)
   Christopher J. Cramer and Donald G. Truhlar   : smd solvation model
   Lars Goerigk                                  : TD-DFT with DH, B97 family of functionals
   V. Asgeirsson, H. Jonsson                     : NEB implementation
   FAccTs GmbH                                   : IRC, NEB, NEB-TS, DLPNO-Multilevel, CI-OPT
                                                   MM, QMMM, 2- and 3-layer-ONIOM, Crystal-QMMM,
                                                   LR-CPCM, SF, NACMEs, symmetry and pop. for TD-DFT,
                                                   nearIR, NL-DFT gradient (VV10), updates on ESD,
                                                   ML-optimized integration grids
   S Lehtola, MJT Oliveira, MAL Marques          : LibXC Library
   Liviu Ungur et al                             : ANISO software


 Your calculation uses the libint2 library for the computation of 2-el integrals
 For citations please refer to: http://libint.valeyev.net

 Your ORCA version has been built with support for libXC version: 5.1.0
 For citations please refer to: https://tddft.org/programs/libxc/

 This ORCA versions uses:
   CBLAS   interface :  Fast vector & matrix operations
   LAPACKE interface :  Fast linear algebra routines
   SCALAPACK package :  Parallel linear algebra routines
   Shared memory     :  Shared parallel matrices
   BLAS/LAPACK       :  OpenBLAS 0.3.15  USE64BITINT DYNAMIC_ARCH NO_AFFINITY Zen SINGLE_THREADED
        Core in use  :  Zen
   Copyright (c) 2011-2014, The OpenBLAS Project


================================================================================

----- Orbital basis set information -----
Your calculation utilizes the basis: 3-21G
   H-Ne       : J. S. Binkley, J. A. Pople and W. J. Hehre, J. Am. Chem. Soc. 102 939 (1980).
   Na-Ar      : M. S. Gordon, J. S. Binkley, J. A. Pople, W. J. Pietro and W.J. Hehre, J. Am. Chem. Soc. 104, 2797 (1983).
   K-Ca, Ga-Kr: K. D. Dobbs and W. J. Hehre, J. Comput. Chem. 7, 359 (1986).
   Sc-Zn      : K. D. Dobbs and W. J. Hehre, J. Comput. Chem. 8, 861 (1987).
   Y-Cd       : K. D. Dobbs and W. J. Hehre, J. Comput. Chem. 8, 880 (1987).

================================================================================
                                        WARNINGS
                       Please study these warnings very carefully!
================================================================================


INFO   : the flag for use of the SHARK integral package has been found!

================================================================================
                                       INPUT FILE
================================================================================
NAME = JOBS/16_A.inp
|  1> %pal nprocs 28 end
|  2> %maxcore 1000 
|  3> ! hf 3-21g engrad 
|  4> !moread 
|  5>  %moinp "JOBS/a.gbw"
|  6>  
|  7> 
|  8>  *xyz 0 1
|  9> c  1.219376636675013  0.10323348283309358  2.1157327002784514e-06
| 10> h  2.005228743291535  -0.6055140155824995  -1.0578717443888079e-06
| 11> h  0.2892236406459443  0.6079163968959969  -1.0578392155831973e-06
| 12> *
| 13> % casscf nel 2 norb 2 nroots 2 weights[0] = 1,0
| 14> maxiter 200
| 15> orbstep superci_pt 
| 16> switchstep diis 
| 17> shiftup 2.0 
| 18> shiftdn 2.0 
| 19> minshift 0.6 
| 20> end
| 21> 
| 22> 
| 23>                          ****END OF INPUT****
================================================================================

                     *******************************
                     * Energy+Gradient Calculation *
                     *******************************

---------------------------------
CARTESIAN COORDINATES (ANGSTROEM)
---------------------------------
  C      1.219377    0.103233    0.000002
  H      2.005229   -0.605514   -0.000001
  H      0.289224    0.607916   -0.000001

----------------------------
CARTESIAN COORDINATES (A.U.)
----------------------------
  NO LB      ZA    FRAG     MASS         X           Y           Z
   0 C     6.0000    0    12.011    2.304288    0.195083    0.000004
   1 H     1.0000    0     1.008    3.789333   -1.144256   -0.000002
   2 H     1.0000    0     1.008    0.546553    1.148796   -0.000002

--------------------------------
INTERNAL COORDINATES (ANGSTROEM)
--------------------------------
 C      0   0   0     0.000000000000     0.00000000     0.00000000
 H      1   0   0     1.058246922979     0.00000000     0.00000000
 H      1   2   0     1.058248288342   166.43659908     0.00000000

---------------------------
INTERNAL COORDINATES (A.U.)
---------------------------
 C      0   0   0     0.000000000000     0.00000000     0.00000000
 H      1   0   0     1.999796866495     0.00000000     0.00000000
 H      1   2   0     1.999799446657   166.43659908     0.00000000

---------------------
BASIS SET INFORMATION
---------------------
There are 2 groups of distinct atoms

 Group   1 Type C   : 6s3p contracted to 3s2p pattern {321/21}
 Group   2 Type H   : 3s contracted to 2s pattern {21}

Atom   0C    basis set group =>   1
Atom   1H    basis set group =>   2
Atom   2H    basis set group =>   2


           ************************************************************
           *        Program running with 28 parallel MPI-processes    *
           *              working on a common directory               *
           ************************************************************
------------------------------------------------------------------------------
                           ORCA GTO INTEGRAL CALCULATION
------------------------------------------------------------------------------
------------------------------------------------------------------------------
                   ___                                                        
                  /   \      - P O W E R E D   B Y -                         
                 /     \                                                     
                 |  |  |   _    _      __       _____    __    __             
                 |  |  |  | |  | |    /  \     |  _  \  |  |  /  |          
                  \  \/   | |  | |   /    \    | | | |  |  | /  /          
                 / \  \   | |__| |  /  /\  \   | |_| |  |  |/  /          
                |  |  |   |  __  | /  /__\  \  |    /   |      \           
                |  |  |   | |  | | |   __   |  |    \   |  |\   \          
                \     /   | |  | | |  |  |  |  | |\  \  |  | \   \       
                 \___/    |_|  |_| |__|  |__|  |_| \__\ |__|  \__/        
                                                                              
                      - O R C A' S   B I G   F R I E N D -                    
                                      &                                       
                       - I N T E G R A L  F E E D E R -                       
                                                                              
 v1 FN, 2020, v2 2021                                                         
------------------------------------------------------------------------------


Reading SHARK input file JOBS/16_A.SHARKINP.tmp ... ok
----------------------
SHARK INTEGRAL PACKAGE
----------------------

Number of atoms                             ...      3
Number of basis functions                   ...     13
Number of shells                            ...      9
Maximum angular momentum                    ...      1
Integral batch strategy                     ... SHARK/LIBINT Hybrid
RI-J (if used) integral strategy            ... SPLIT-RIJ (Revised 2003 algorithm where possible)
Printlevel                                  ...      1
Contraction scheme used                     ... SEGMENTED contraction
Coulomb Range Separation                    ... NOT USED
Exchange Range Separation                   ... NOT USED
Finite Nucleus Model                        ... NOT USED
Auxiliary Coulomb fitting basis             ... NOT available
Auxiliary J/K fitting basis                 ... NOT available
Auxiliary Correlation fitting basis         ... NOT available
Auxiliary 'external' fitting basis          ... NOT available
Integral threshold                          ...     2.500000e-11
Primitive cut-off                           ...     2.500000e-12
Primitive pair pre-selection threshold      ...     2.500000e-12

Calculating pre-screening integrals         ... done (  0.0 sec) Dimension = 9
Organizing shell pair data                  ... done (  0.0 sec)
Shell pair information
Total number of shell pairs                 ...        45
Shell pairs after pre-screening             ...        45
Total number of primitive shell pairs       ...       127
Primitive shell pairs kept                  ...       126
          la=0 lb=0:     28 shell pairs
          la=1 lb=0:     14 shell pairs
          la=1 lb=1:      3 shell pairs

Calculating one electron integrals          ... done (  0.0 sec)
Calculating Nuclear repulsion               ... done (  0.0 sec) ENN=      6.252392508391 Eh

SHARK setup successfully completed in   0.0 seconds

Maximum memory used throughout the entire GTOINT-calculation: 3.8 MB


           ************************************************************
           *        Program running with 28 parallel MPI-processes    *
           *              working on a common directory               *
           ************************************************************
-------------------------------------------------------------------------------
                                 ORCA SCF
-------------------------------------------------------------------------------

------------
SCF SETTINGS
------------
Hamiltonian:
 Ab initio Hamiltonian  Method          .... Hartree-Fock(GTOs)


General Settings:
 Integral files         IntName         .... JOBS/16_A
 Hartree-Fock type      HFTyp           .... CASSCF
 Total Charge           Charge          ....    0
 Multiplicity           Mult            ....    1
 Number of Electrons    NEL             ....    8
 Basis Dimension        Dim             ....   13
 Nuclear Repulsion      ENuc            ....      6.2523925084 Eh


Diagonalization of the overlap matrix:
Smallest eigenvalue                        ... 3.893e-02
Time for diagonalization                   ...    0.000 sec
Threshold for overlap eigenvalues          ... 1.000e-08
Number of eigenvalues below threshold      ... 0
Time for construction of square roots      ...    0.000 sec
Total time needed                          ...    0.001 sec

---------------------
INITIAL GUESS: MOREAD
---------------------
Guess MOs are being read from file: JOBS/a.gbw
Input geometry compatible with but different from current geometry
Input basis set matches current basis set (good)
MOs were renormalized
Gram-Schmidt orthogonalization of all MOs with pivot on actives
                      ------------------
                      INITIAL GUESS DONE (   0.0 sec)
                      ------------------


 ... the calculation is a CASSCF calculation -I'm leaving here GOOD LUCK!!!



           ************************************************************
           *        Program running with 28 parallel MPI-processes    *
           *              working on a common directory               *
           ************************************************************
-------------------------------------------------------------------------------
                              ORCA-CASSCF
-------------------------------------------------------------------------------

Setting up the integral package       ... done
Building the CAS space                ... done (3 configurations for Mult=1)

SYSTEM-SPECIFIC SETTINGS:
Number of active electrons          ...    2
Number of active orbitals           ...    2
Total number of electrons           ...    8
Total number of orbitals            ...   13

Determined orbital ranges:
   Internal       0 -    2 (   3 orbitals)
   Active         3 -    4 (   2 orbitals)
   External       5 -   12 (   8 orbitals)
Number of rotation parameters      ...     46

CI-STEP:
CI strategy                         ... General CI
Number of multiplicity blocks       ...    1
BLOCK  1 WEIGHT=   1.0000
  Multiplicity                      ...    1
  #(Configurations)                 ...    3
  #(CSFs)                           ...    3
  #(Roots)                          ...    2
    ROOT=0 WEIGHT=    1.000000
    ROOT=1 WEIGHT=    0.000000

  PrintLevel                        ...    1
  N(GuessMat)                       ...       512
  MaxDim(CI)                        ...        10
  MaxIter(CI)                       ...        64
  Energy Tolerance CI               ...  2.50e-09
  Residual Tolerance CI             ...  2.50e-09
  Shift(CI)                         ...  1.00e-04

INTEGRAL-TRANSFORMATION-STEP:
  Algorithm                         ... EXACT

ORBITAL-IMPROVEMENT-STEP:
  Algorithm                         ... SuperCI(PT)
  Default Parametrization           ... CAYLEY
  Act-Act rotations                 ... depends on algorithm used
  FreezeIE                          ... 95.00% of ||g||
  Until reaching FreezeIE rotations with active orbitals are damped. 

  Approx. Fock at                   ... 0.000000e+00 density convergence
  Upward level shift                ...  2.00e+00 
  Downward level shift              ...  2.00e+00 

  Note: SuperCI(PT) will ignore FreezeIE, FreezeAct and FreezeGrad. In general Default settings are encouraged.
        In conjunction with ShiftUp, ShiftDn or GradScaling the performance of SuperCI(PT) is less optimal.  

  MaxRot                            ... 2.00e-01 
  Max. no of vectors (DIIS)         ... 15
  DThresh (cut-off) metric          ... 1.00e-06
  Switch step at gradient           ...  3.00e-02 
  Switch step at iteration          ...        50   
  Switch step to                    ... DIIS    

SCF-SETTINGS:
  Incremental                       ... on
  RIJCOSX approximation             ... off
  RI-JK approximation               ... off
  AO integral handling              ... DIRECT
  Integral Neglect Thresh           ...  2.50e-11
  Primitive cutoff TCut             ...  2.50e-12
  Energy convergence tolerance      ...  2.50e-08
  Orbital gradient convergence      ...  2.50e-04
  Max. number of iterations         ...       200  


FINAL ORBITALS:
  Active   Orbitals                 ... natural 
  Internal Orbitals                 ... canonical 
  External Orbitals                 ... canonical 

------------------
CAS-SCF ITERATIONS
------------------


MACRO-ITERATION   1: 
   --- Inactive Energy E0 = -37.43651329 Eh
CI-ITERATION   0: 
   -38.630088515   0.000000000000 (    0.00)
   -38.629822415   0.000000000000
   CI-PROBLEM SOLVED
   DENSITIES MADE

                 <<<<<<<<<<<<<<<<<<INITIAL CI STATE CHECK>>>>>>>>>>>>>>>>>>

BLOCK  1 MULT= 1 NROOTS= 2 
ROOT   0:  E=     -38.6300885152 Eh
      0.55851 [     0]: 20
      0.44149 [     2]: 02
ROOT   1:  E=     -38.6298224148 Eh  0.007 eV     58.4 cm**-1
      1.00000 [     1]: 11

                 <<<<<<<<<<<<<<<<<<INITIAL CI STATE CHECK>>>>>>>>>>>>>>>>>>

   E(CAS)=   -38.630088515 Eh DE=    0.000000e+00
   --- Energy gap subspaces: Ext-Act = 0.336   Act-Int = 0.509
   N(occ)=  1.11703 0.88297
   ||g|| =     5.923006e-03 Max(G)=    3.148445e-03 Rot=3,1
   --- Orbital Update [SuperCI(PT)]
   --- Canonicalize Internal Space
   --- Canonicalize External Space
   --- SX_PT (Skipped TA=0 IT=0): ||X|| =      0.002366205 Max(X)(3,1) =     -0.001812039 
   --- SFit(Active Orbitals)

MACRO-ITERATION   2: 
   ===>>> Convergence to 3.0e-02 achieved - switching to Step=DIIS
   --- Inactive Energy E0 = -37.43668650 Eh
CI-ITERATION   0: 
   -38.630096536   0.000000000000 (    0.00)
   -38.629838057   0.000000000000
   CI-PROBLEM SOLVED
   DENSITIES MADE
   E(CAS)=   -38.630096536 Eh DE=   -8.020795e-06
   --- Energy gap subspaces: Ext-Act = 0.336   Act-Int = 0.509
   N(occ)=  1.11612 0.88388
   ||g|| =     1.930213e-03 Max(G)=    1.237015e-03 Rot=3,1
   --- Orbital Update [      DIIS]
   --- Forming Natural Orbitals

MACRO-ITERATION   3: 
   --- Inactive Energy E0 = -37.43671674 Eh
CI-ITERATION   0: 
   -38.630097580   0.000000000000 (    0.00)
   -38.629841048   0.000000000000
   CI-PROBLEM SOLVED
   DENSITIES MADE
   E(CAS)=   -38.630097580 Eh DE=   -1.043566e-06
   --- Energy gap subspaces: Ext-Act = 0.336   Act-Int = 0.509
   N(occ)=  1.11593 0.88407
   ||g|| =     1.163178e-03 Max(G)=   -7.846629e-04 Rot=5,3
   --- Orbital Update [      DIIS]
   --- SFit(Active Orbitals)

MACRO-ITERATION   4: 
   --- Inactive Energy E0 = -37.43676491 Eh
CI-ITERATION   0: 
   -38.630098276   0.000000000000 (    0.00)
   -38.629844102   0.000000000000
   CI-PROBLEM SOLVED
   DENSITIES MADE
   E(CAS)=   -38.630098276 Eh DE=   -6.969356e-07
   --- Energy gap subspaces: Ext-Act = 0.336   Act-Int = 0.509
   N(occ)=  1.11573 0.88427
   ||g|| =     5.019579e-04 Max(G)=    4.496696e-04 Rot=5,3
   --- Orbital Update [      DIIS]
   --- SFit(Active Orbitals)

MACRO-ITERATION   5: 
   --- Inactive Energy E0 = -37.43677604 Eh
CI-ITERATION   0: 
   -38.630098415   0.000000000000 (    0.00)
   -38.629844962   0.000000000000
   CI-PROBLEM SOLVED
   DENSITIES MADE
   E(CAS)=   -38.630098415 Eh DE=   -1.385788e-07
   --- Energy gap subspaces: Ext-Act = 0.336   Act-Int = 0.509
   N(occ)=  1.11571 0.88429
   ||g|| =     3.265162e-04 Max(G)=   -2.301598e-04 Rot=5,3
   --- Orbital Update [      DIIS]
   --- SFit(Active Orbitals)

MACRO-ITERATION   6: 
   --- Inactive Energy E0 = -37.43677846 Eh
CI-ITERATION   0: 
   -38.630098447   0.000000000000 (    0.00)
   -38.629845236   0.000000000000
   CI-PROBLEM SOLVED
   DENSITIES MADE
   E(CAS)=   -38.630098447 Eh DE=   -3.164158e-08
   --- Energy gap subspaces: Ext-Act = 0.336   Act-Int = 0.509
   N(occ)=  1.11572 0.88428
   ||g|| =     1.576089e-04 Max(G)=    1.193692e-04 Rot=5,3
                     ---- THE CAS-SCF GRADIENT HAS CONVERGED ----
                            --- FINALIZING ORBITALS ---
                    ---- DOING ONE FINAL ITERATION FOR PRINTING ----
   --- Forming Natural Orbitals
   --- Canonicalize Internal Space
   --- Canonicalize External Space

MACRO-ITERATION   7: 
   --- Inactive Energy E0 = -37.43677846 Eh
   --- All densities will be recomputed
CI-ITERATION   0: 
   -38.630098447   0.000000000000 (    0.00)
   -38.629845236   0.000000000000
   CI-PROBLEM SOLVED
   DENSITIES MADE
   E(CAS)=   -38.630098447 Eh DE=    1.804779e-12
   --- Energy gap subspaces: Ext-Act = 0.336   Act-Int = 0.509
   N(occ)=  1.11572 0.88428
   ||g|| =     1.576089e-04 Max(G)=    1.193811e-04 Rot=5,3
--------------
CASSCF RESULTS
--------------

Final CASSCF energy       : -38.630098447 Eh   -1051.1784 eV

----------------
ORBITAL ENERGIES
----------------

  NO   OCC          E(Eh)            E(eV) 
   0   2.0000     -11.176647      -304.1320 
   1   2.0000      -0.848259       -23.0823 
   2   2.0000      -0.634109       -17.2550 
   3   1.1157      -0.124867        -3.3978 
   4   0.8843      -0.074102        -2.0164 
   5   0.0000       0.262148         7.1334 
   6   0.0000       0.389447        10.5974 
   7   0.0000       0.962799        26.1991 
   8   0.0000       1.003573        27.3086 
   9   0.0000       1.019385        27.7389 
  10   0.0000       1.215350        33.0714 
  11   0.0000       1.435990        39.0753 
  12   0.0000       1.623810        44.1861 


---------------------------------------------
CAS-SCF STATES FOR BLOCK  1 MULT= 1 NROOTS= 2
---------------------------------------------

ROOT   0:  E=     -38.6300984467 Eh
      0.55786 [     0]: 20
      0.44214 [     2]: 02
ROOT   1:  E=     -38.6298452357 Eh  0.007 eV     55.6 cm**-1
      1.00000 [     1]: 11


--------------
DENSITY MATRIX
--------------

                  0          1    
      0       1.115716   0.000000
      1       0.000000   0.884284
Trace of the electron density:  2.000000

-----------------
ENERGY COMPONENTS
-----------------

One electron energy          :    -63.780195355 Eh       -1735.5473 eV
Two electron energy          :     18.897704400 Eh         514.2327 eV
Nuclear repulsion energy     :      6.252392508 Eh         170.1362 eV
                               ----------------
                                  -38.630098447

Kinetic energy               :     38.545805790 Eh        1048.8847 eV
Potential energy             :    -77.175904236 Eh       -2100.0631 eV
Virial ratio                 :     -2.002186818 
                               ----------------
                                  -38.630098447

Core energy                  :    -37.436778459 Eh    -1018.7065 eV


----------------------------
LOEWDIN ORBITAL-COMPOSITIONS
----------------------------

                      0         1         2         3         4         5   
                 -11.17665  -0.84826  -0.63411  -0.12487  -0.07410   0.26215
                   2.00000   2.00000   2.00000   1.11572   0.88428   0.00000
                  --------  --------  --------  --------  --------  --------
 0 C  s              99.8      58.3       0.0       1.2       0.0      40.0
 0 C  pz              0.0       0.0       0.0       0.0     100.0       0.0
 0 C  px              0.0       0.1      37.5      32.8       0.0       0.4
 0 C  py              0.0       0.1      18.7      65.6       0.0       0.8
 1 H  s               0.1      20.7      21.9       0.2       0.0      29.4
 2 H  s               0.1      20.7      21.9       0.2       0.0      29.4

                      6         7         8         9        10        11   
                   0.38945   0.96280   1.00357   1.01939   1.21535   1.43599
                   0.00000   0.00000   0.00000   0.00000   0.00000   0.00000
                  --------  --------  --------  --------  --------  --------
 0 C  s               0.0       8.5       0.0       4.6       0.0       0.0
 0 C  pz              0.0       0.0     100.0       0.0       0.0       0.0
 0 C  px             18.2      10.0       0.0      23.4      60.3      17.3
 0 C  py              9.1      19.9       0.0      46.8      30.2       8.7
 1 H  s              36.3      30.8       0.0      12.6       4.8      37.0
 2 H  s              36.3      30.8       0.0      12.6       4.8      37.0

                     12   
                   1.62381
                   0.00000
                  --------
 0 C  s              87.6
 1 H  s               6.1
 2 H  s               6.1

----------------------------
LOEWDIN REDUCED ACTIVE MOs  
----------------------------

                      0         1         2         3         4         5   
                 -11.17665  -0.84826  -0.63411  -0.12487  -0.07410   0.26215
                   2.00000   2.00000   2.00000   1.11572   0.88428   0.00000
                  --------  --------  --------  --------  --------  --------
 0 C  s              99.8      58.3       0.0       1.2       0.0      40.0
 0 C  pz              0.0       0.0       0.0       0.0     100.0       0.0
 0 C  px              0.0       0.1      37.5      32.8       0.0       0.4
 0 C  py              0.0       0.1      18.7      65.6       0.0       0.8
 1 H  s               0.1      20.7      21.9       0.2       0.0      29.4
 2 H  s               0.1      20.7      21.9       0.2       0.0      29.4

------------------------------------------------------------------------------
                           ORCA POPULATION ANALYSIS
------------------------------------------------------------------------------
Input electron density              ... JOBS/16_A.scfp
BaseName (.gbw .S,...)              ... JOBS/16_A

                    ********************************
                    * MULLIKEN POPULATION ANALYSIS *
                    ********************************

-----------------------
MULLIKEN ATOMIC CHARGES
-----------------------
   0 C :   -0.563957
   1 H :    0.281979
   2 H :    0.281979
Sum of atomic charges:    0.0000000

--------------------------------
MULLIKEN REDUCED ORBITAL CHARGES
--------------------------------
  0 C s       :     3.433487  s :     3.433487
      pz      :     0.884284  p :     3.130471
      px      :     1.130351
      py      :     1.115835
  1 H s       :     0.718021  s :     0.718021
  2 H s       :     0.718021  s :     0.718021


                     *******************************
                     * LOEWDIN POPULATION ANALYSIS *
                     *******************************

----------------------
LOEWDIN ATOMIC CHARGES
----------------------
   0 C :   -0.286790
   1 H :    0.143395
   2 H :    0.143395

-------------------------------
LOEWDIN REDUCED ORBITAL CHARGES
-------------------------------
  0 C s       :     3.176058  s :     3.176058
      pz      :     0.884284  p :     3.110731
      px      :     1.116889
      py      :     1.109558
  1 H s       :     0.856605  s :     0.856605
  2 H s       :     0.856605  s :     0.856605


                      *****************************
                      * MAYER POPULATION ANALYSIS *
                      *****************************

  NA   - Mulliken gross atomic population
  ZA   - Total nuclear charge
  QA   - Mulliken gross atomic charge
  VA   - Mayer's total valence
  BVA  - Mayer's bonded valence
  FA   - Mayer's free valence

  ATOM       NA         ZA         QA         VA         BVA        FA
  0 C      6.5640     6.0000    -0.5640     3.7668     1.7985     1.9683
  1 H      0.7180     1.0000     0.2820     0.9114     0.9089     0.0025
  2 H      0.7180     1.0000     0.2820     0.9114     0.9089     0.0025

  Mayer bond orders larger than 0.100000
B(  0-C ,  1-H ) :   0.8993 B(  0-C ,  2-H ) :   0.8993 


-------------------------------------------------------------
 Forming the transition density       ... done in 0.000313 sec
-------------------------------------------------------------



==========================================
CASSCF UV, CD spectra and dipole moments
==========================================
-------------------
ABSORPTION SPECTRUM
-------------------

Center of mass           = (  2.2847,  0.1674,  0.0000)
Nuclear contribution to the dipole moment =    -0.115923,   -0.163933,   -0.000005 au

Calculating the Dipole integrals                  ... done
Transforming integrals                            ... done
Calculating the Linear Momentum integrals         ... done
Transforming integrals                            ... done
Calculating the Angular Momentum integrals        ... done
Transforming integrals                            ... done

------------------------------------------------------------------------------------------
                                ABSORPTION SPECTRUM
------------------------------------------------------------------------------------------
  States           Energy   Wavelength   fosc          T2        TX         TY        TZ  
                   (cm-1)     (nm)                   (D**2)      (D)        (D)       (D) 
------------------------------------------------------------------------------------------
  0( 0)-> 1( 0) 1      55.6   179942.3   0.000000020   0.00076   0.00000   0.00000  -0.02757
------------------------------------------------------------------------------------------



------------------------------------------------------------------------------
                             CD SPECTRUM
------------------------------------------------------------------------------
      States        Energy   Wavelength   R*T        RX        RY        RZ   
                    (cm-1)      (nm)   (1e40*sgs)   (au)      (au)      (au)  
------------------------------------------------------------------------------
  0( 0)-> 1( 0) 1      55.6   179942.3     0.00000   0.81146  -0.57381  -0.00000
------------------------------------------------------------------------------

------------------------------------------------------------------------------
                                 DIPOLE MOMENTS
------------------------------------------------------------------------------
  Root  Block           TX        TY        TZ           |T|
                      (Debye)   (Debye)   (Debye)      (Debye)
------------------------------------------------------------------------------
    0    0           -0.26747  -0.37825  -0.00001      0.46326

--------------
CASSCF TIMINGS
--------------

Total time                       ...        0.2 sec
Sum of individual times          ...        0.1 sec ( 34.5%)

Calculation of AO operators
   F(Core) operator              ...        0.0 sec (  1.6%)
   G(Act) operator               ...        0.0 sec (  1.1%)
   J(AO) operators               ...        0.0 sec (  0.0%)
Calculation of MO transformed quantities
   J(MO) operators               ...        0.0 sec ( 23.0%)
   (pq|rs) integrals             ...        0.0 sec (  0.0%)
   AO->MO one electron integrals ...        0.0 sec (  0.0%)
Configuration interaction steps
   CI-setup phase                ...        0.0 sec (  0.2%)
   CI-solution phase             ...        0.0 sec (  7.4%)
   Generation of densities       ...        0.0 sec (  0.3%)
Orbital improvement steps
   Orbital gradient              ...        0.0 sec (  0.3%)
   O(1) converger                ...        0.0 sec (  0.5%)
Properties                       ...        0.0 sec (  0.2%)
   SOC integral calculation      ...        0.0 sec (  0.0%)
   SSC RMEs (incl. integrals)    ...        0.0 sec (  0.0%)
   SOC RMEs                      ...        0.0 sec (  0.0%)

Maximum memory used throughout the entire CASSCF-calculation: 58.3 MB

-------------------------   --------------------
FINAL SINGLE POINT ENERGY       -38.630098446674
-------------------------   --------------------



           ************************************************************
           *        Program running with 28 parallel MPI-processes    *
           *              working on a common directory               *
           ************************************************************
------------------------------------------------------------------------------
                         ORCA SCF GRADIENT CALCULATION
------------------------------------------------------------------------------

Gradient of the Hartree-Fock SCF energy:
Hartree-Fock type                ... CASSCF
Number of electrons in CAS       ... 2
Number of orbitals in CAS        ... 2
File with 1- and 2el densities   ... JOBS/16_A.casp.tmp
Number of operators              ...    1
Number of atoms                  ...    3
Basis set dimensions             ...   13
Integral neglect threshold       ... 2.5e-11
Integral primitive cutoff        ... 2.5e-12
SHARK Integral package           ... ON

Nuc. rep. gradient       (SHARK) ... done (  0.0 sec)
HCore & Overlap gradient (SHARK) ... done (  0.0 sec)
Two-Electron gradient    (SHARK) ... done (  0.0 sec)

------------------
CARTESIAN GRADIENT
------------------

   1   C   :   -0.005540351   -0.007837037   -0.000000244
   2   H   :    0.003514667    0.003392157    0.000000122
   3   H   :    0.002025684    0.004444879    0.000000122

Difference to translation invariance:
           :    0.0000000000    0.0000000000   -0.0000000000

Difference to rotation invariance:
           :   -0.0000000001    0.0000000000   -0.0000000018

Norm of the cartesian gradient     ...    0.0118251677
RMS gradient                       ...    0.0039417226
MAX gradient                       ...    0.0078370366

-------
TIMINGS
-------

Total SCF gradient time            ...        0.028 sec

One electron gradient       ....       0.001 sec  (  4.0%)
Two electron gradient       ....       0.001 sec  (  5.0%)

Maximum memory used throughout the entire SCFGRAD-calculation: 6.2 MB

                            ***************************************
                            *     ORCA property calculations      *
                            ***************************************

                                    ---------------------
                                    Active property flags
                                    ---------------------
   (+) Dipole Moment


------------------------------------------------------------------------------
                       ORCA ELECTRIC PROPERTIES CALCULATION
------------------------------------------------------------------------------

Dipole Moment Calculation                       ... on
Quadrupole Moment Calculation                   ... off
Polarizability Calculation                      ... off
GBWName                                         ... JOBS/16_A.gbw
Electron density                                ... JOBS/16_A.scfp
The origin for moment calculation is the CENTER OF MASS  = ( 2.284692,  0.167371  0.000003)

-------------
DIPOLE MOMENT
-------------
                                X             Y             Z
Electronic contribution:      0.01069       0.01512       0.00000
Nuclear contribution   :     -0.11592      -0.16393      -0.00001
                        -----------------------------------------
Total Dipole Moment    :     -0.10523      -0.14881      -0.00000
                        -----------------------------------------
Magnitude (a.u.)       :      0.18226
Magnitude (Debye)      :      0.46326



--------------------
Rotational spectrum 
--------------------
 
Rotational constants in cm-1:   625.337605     7.572346     7.481747 
Rotational constants in MHz : 18747149.764934 227013.208143 224297.146478 

 Dipole components along the rotational axes: 
x,y,z [a.u.] :    -0.000000    -0.182257    -0.000000 
x,y,z [Debye]:    -0.000001    -0.463261    -0.000000 

 

Timings for individual modules:

Sum of individual times         ...        4.036 sec (=   0.067 min)
GTO integral calculation        ...        0.269 sec (=   0.004 min)   6.7 %
SCF iterations                  ...        0.256 sec (=   0.004 min)   6.4 %
CASSCF iterations               ...        3.218 sec (=   0.054 min)  79.7 %
SCF Gradient evaluation         ...        0.293 sec (=   0.005 min)   7.3 %
                             ****ORCA TERMINATED NORMALLY****
TOTAL RUN TIME: 0 days 0 hours 0 minutes 4 seconds 340 msec
