
                                 *****************
                                 * O   R   C   A *
                                 *****************

                                            #,                                       
                                            ###                                      
                                            ####                                     
                                            #####                                    
                                            ######                                   
                                           ########,                                 
                                     ,,################,,,,,                         
                               ,,#################################,,                 
                          ,,##########################################,,             
                       ,#########################################, ''#####,          
                    ,#############################################,,   '####,        
                  ,##################################################,,,,####,       
                ,###########''''           ''''###############################       
              ,#####''   ,,,,##########,,,,          '''####'''          '####       
            ,##' ,,,,###########################,,,                        '##       
           ' ,,###''''                  '''############,,,                           
         ,,##''                                '''############,,,,        ,,,,,,###''
      ,#''                                            '''#######################'''  
     '                                                          ''''####''''         
             ,#######,   #######,   ,#######,      ##                                
            ,#'     '#,  ##    ##  ,#'     '#,    #''#        ######   ,####,        
            ##       ##  ##   ,#'  ##            #'  '#       #        #'  '#        
            ##       ##  #######   ##           ,######,      #####,   #    #        
            '#,     ,#'  ##    ##  '#,     ,#' ,#      #,         ##   #,  ,#        
             '#######'   ##     ##  '#######'  #'      '#     #####' # '####'        



                  #######################################################
                  #                        -***-                        #
                  #          Department of theory and spectroscopy      #
                  #    Directorship and core code : Frank Neese         #
                  #        Max Planck Institute fuer Kohlenforschung    #
                  #                Kaiser Wilhelm Platz 1               #
                  #                 D-45470 Muelheim/Ruhr               #
                  #                      Germany                        #
                  #                                                     #
                  #                  All rights reserved                #
                  #                        -***-                        #
                  #######################################################


                         Program Version 5.0.1 -  RELEASE  -


 With contributions from (in alphabetic order):
   Daniel Aravena         : Magnetic Suceptibility
   Michael Atanasov       : Ab Initio Ligand Field Theory (pilot matlab implementation)
   Alexander A. Auer      : GIAO ZORA, VPT2 properties, NMR spectrum
   Ute Becker             : Parallelization
   Giovanni Bistoni       : ED, misc. LED, open-shell LED, HFLD
   Martin Brehm           : Molecular dynamics
   Dmytro Bykov           : SCF Hessian
   Vijay G. Chilkuri      : MRCI spin determinant printing, contributions to CSF-ICE
   Dipayan Datta          : RHF DLPNO-CCSD density
   Achintya Kumar Dutta   : EOM-CC, STEOM-CC
   Dmitry Ganyushin       : Spin-Orbit,Spin-Spin,Magnetic field MRCI
   Miquel Garcia          : C-PCM and meta-GGA Hessian, CC/C-PCM, Gaussian charge scheme
   Yang Guo               : DLPNO-NEVPT2, F12-NEVPT2, CIM, IAO-localization
   Andreas Hansen         : Spin unrestricted coupled pair/coupled cluster methods
   Benjamin Helmich-Paris : MC-RPA, TRAH-SCF, COSX integrals
   Lee Huntington         : MR-EOM, pCC
   Robert Izsak           : Overlap fitted RIJCOSX, COSX-SCS-MP3, EOM
   Marcus Kettner         : VPT2
   Christian Kollmar      : KDIIS, OOCD, Brueckner-CCSD(T), CCSD density, CASPT2, CASPT2-K
   Simone Kossmann        : Meta GGA functionals, TD-DFT gradient, OOMP2, MP2 Hessian
   Martin Krupicka        : Initial AUTO-CI
   Lucas Lang             : DCDCAS
   Marvin Lechner         : AUTO-CI (C++ implementation), FIC-MRCC
   Dagmar Lenk            : GEPOL surface, SMD
   Dimitrios Liakos       : Extrapolation schemes; Compound Job, initial MDCI parallelization
   Dimitrios Manganas     : Further ROCIS development; embedding schemes
   Dimitrios Pantazis     : SARC Basis sets
   Anastasios Papadopoulos: AUTO-CI, single reference methods and gradients
   Taras Petrenko         : DFT Hessian,TD-DFT gradient, ASA, ECA, R-Raman, ABS, FL, XAS/XES, NRVS
   Peter Pinski           : DLPNO-MP2, DLPNO-MP2 Gradient
   Christoph Reimann      : Effective Core Potentials
   Marius Retegan         : Local ZFS, SOC
   Christoph Riplinger    : Optimizer, TS searches, QM/MM, DLPNO-CCSD(T), (RO)-DLPNO pert. Triples
   Tobias Risthaus        : Range-separated hybrids, TD-DFT gradient, RPA, STAB
   Michael Roemelt        : Original ROCIS implementation
   Masaaki Saitow         : Open-shell DLPNO-CCSD energy and density
   Barbara Sandhoefer     : DKH picture change effects
   Avijit Sen             : IP-ROCIS
   Kantharuban Sivalingam : CASSCF convergence, NEVPT2, FIC-MRCI
   Bernardo de Souza      : ESD, SOC TD-DFT
   Georgi Stoychev        : AutoAux, RI-MP2 NMR, DLPNO-MP2 response
   Willem Van den Heuvel  : Paramagnetic NMR
   Boris Wezisla          : Elementary symmetry handling
   Frank Wennmohs         : Technical directorship


 We gratefully acknowledge several colleagues who have allowed us to
 interface, adapt or use parts of their codes:
   Stefan Grimme, W. Hujo, H. Kruse, P. Pracht,  : VdW corrections, initial TS optimization,
                  C. Bannwarth, S. Ehlert          DFT functionals, gCP, sTDA/sTD-DF
   Ed Valeev, F. Pavosevic, A. Kumar             : LibInt (2-el integral package), F12 methods
   Garnet Chan, S. Sharma, J. Yang, R. Olivares  : DMRG
   Ulf Ekstrom                                   : XCFun DFT Library
   Mihaly Kallay                                 : mrcc  (arbitrary order and MRCC methods)
   Jiri Pittner, Ondrej Demel                    : Mk-CCSD
   Frank Weinhold                                : gennbo (NPA and NBO analysis)
   Christopher J. Cramer and Donald G. Truhlar   : smd solvation model
   Lars Goerigk                                  : TD-DFT with DH, B97 family of functionals
   V. Asgeirsson, H. Jonsson                     : NEB implementation
   FAccTs GmbH                                   : IRC, NEB, NEB-TS, DLPNO-Multilevel, CI-OPT
                                                   MM, QMMM, 2- and 3-layer-ONIOM, Crystal-QMMM,
                                                   LR-CPCM, SF, NACMEs, symmetry and pop. for TD-DFT,
                                                   nearIR, NL-DFT gradient (VV10), updates on ESD,
                                                   ML-optimized integration grids
   S Lehtola, MJT Oliveira, MAL Marques          : LibXC Library
   Liviu Ungur et al                             : ANISO software


 Your calculation uses the libint2 library for the computation of 2-el integrals
 For citations please refer to: http://libint.valeyev.net

 Your ORCA version has been built with support for libXC version: 5.1.0
 For citations please refer to: https://tddft.org/programs/libxc/

 This ORCA versions uses:
   CBLAS   interface :  Fast vector & matrix operations
   LAPACKE interface :  Fast linear algebra routines
   SCALAPACK package :  Parallel linear algebra routines
   Shared memory     :  Shared parallel matrices
   BLAS/LAPACK       :  OpenBLAS 0.3.15  USE64BITINT DYNAMIC_ARCH NO_AFFINITY Zen SINGLE_THREADED
        Core in use  :  Zen
   Copyright (c) 2011-2014, The OpenBLAS Project


================================================================================

----- Orbital basis set information -----
Your calculation utilizes the basis: 3-21G
   H-Ne       : J. S. Binkley, J. A. Pople and W. J. Hehre, J. Am. Chem. Soc. 102 939 (1980).
   Na-Ar      : M. S. Gordon, J. S. Binkley, J. A. Pople, W. J. Pietro and W.J. Hehre, J. Am. Chem. Soc. 104, 2797 (1983).
   K-Ca, Ga-Kr: K. D. Dobbs and W. J. Hehre, J. Comput. Chem. 7, 359 (1986).
   Sc-Zn      : K. D. Dobbs and W. J. Hehre, J. Comput. Chem. 8, 861 (1987).
   Y-Cd       : K. D. Dobbs and W. J. Hehre, J. Comput. Chem. 8, 880 (1987).

================================================================================
                                        WARNINGS
                       Please study these warnings very carefully!
================================================================================


INFO   : the flag for use of the SHARK integral package has been found!

================================================================================
                                       INPUT FILE
================================================================================
NAME = JOBS/21_A.inp
|  1> %pal nprocs 28 end
|  2> %maxcore 1000 
|  3> ! hf 3-21g engrad 
|  4> !moread 
|  5>  %moinp "JOBS/a.gbw"
|  6>  
|  7> 
|  8>  *xyz 0 1
|  9> c  1.1958355090704071  0.069942953231235  5.2512937213176446e-06
| 10> h  2.0203367887974872  -0.5912288014246473  -2.6256364900606576e-06
| 11> h  0.29765672264449616  0.6269217121942237  -2.6256416828105382e-06
| 12> *
| 13> % casscf nel 2 norb 2 nroots 2 weights[0] = 1,0
| 14> maxiter 200
| 15> orbstep superci_pt 
| 16> switchstep diis 
| 17> shiftup 2.0 
| 18> shiftdn 2.0 
| 19> minshift 0.6 
| 20> end
| 21> 
| 22> 
| 23>                          ****END OF INPUT****
================================================================================

                     *******************************
                     * Energy+Gradient Calculation *
                     *******************************

---------------------------------
CARTESIAN COORDINATES (ANGSTROEM)
---------------------------------
  C      1.195836    0.069943    0.000005
  H      2.020337   -0.591229   -0.000003
  H      0.297657    0.626922   -0.000003

----------------------------
CARTESIAN COORDINATES (A.U.)
----------------------------
  NO LB      ZA    FRAG     MASS         X           Y           Z
   0 C     6.0000    0    12.011    2.259802    0.132173    0.000010
   1 H     1.0000    0     1.008    3.817883   -1.117261   -0.000005
   2 H     1.0000    0     1.008    0.562490    1.184710   -0.000005

--------------------------------
INTERNAL COORDINATES (ANGSTROEM)
--------------------------------
 C      0   0   0     0.000000000000     0.00000000     0.00000000
 H      1   0   0     1.056858765157     0.00000000     0.00000000
 H      1   2   0     1.056858775042   173.07758216     0.00000000

---------------------------
INTERNAL COORDINATES (A.U.)
---------------------------
 C      0   0   0     0.000000000000     0.00000000     0.00000000
 H      1   0   0     1.997173628380     0.00000000     0.00000000
 H      1   2   0     1.997173647061   173.07758216     0.00000000

---------------------
BASIS SET INFORMATION
---------------------
There are 2 groups of distinct atoms

 Group   1 Type C   : 6s3p contracted to 3s2p pattern {321/21}
 Group   2 Type H   : 3s contracted to 2s pattern {21}

Atom   0C    basis set group =>   1
Atom   1H    basis set group =>   2
Atom   2H    basis set group =>   2


           ************************************************************
           *        Program running with 28 parallel MPI-processes    *
           *              working on a common directory               *
           ************************************************************
------------------------------------------------------------------------------
                           ORCA GTO INTEGRAL CALCULATION
------------------------------------------------------------------------------
------------------------------------------------------------------------------
                   ___                                                        
                  /   \      - P O W E R E D   B Y -                         
                 /     \                                                     
                 |  |  |   _    _      __       _____    __    __             
                 |  |  |  | |  | |    /  \     |  _  \  |  |  /  |          
                  \  \/   | |  | |   /    \    | | | |  |  | /  /          
                 / \  \   | |__| |  /  /\  \   | |_| |  |  |/  /          
                |  |  |   |  __  | /  /__\  \  |    /   |      \           
                |  |  |   | |  | | |   __   |  |    \   |  |\   \          
                \     /   | |  | | |  |  |  |  | |\  \  |  | \   \       
                 \___/    |_|  |_| |__|  |__|  |_| \__\ |__|  \__/        
                                                                              
                      - O R C A' S   B I G   F R I E N D -                    
                                      &                                       
                       - I N T E G R A L  F E E D E R -                       
                                                                              
 v1 FN, 2020, v2 2021                                                         
------------------------------------------------------------------------------


Reading SHARK input file JOBS/21_A.SHARKINP.tmp ... ok
----------------------
SHARK INTEGRAL PACKAGE
----------------------

Number of atoms                             ...      3
Number of basis functions                   ...     13
Number of shells                            ...      9
Maximum angular momentum                    ...      1
Integral batch strategy                     ... SHARK/LIBINT Hybrid
RI-J (if used) integral strategy            ... SPLIT-RIJ (Revised 2003 algorithm where possible)
Printlevel                                  ...      1
Contraction scheme used                     ... SEGMENTED contraction
Coulomb Range Separation                    ... NOT USED
Exchange Range Separation                   ... NOT USED
Finite Nucleus Model                        ... NOT USED
Auxiliary Coulomb fitting basis             ... NOT available
Auxiliary J/K fitting basis                 ... NOT available
Auxiliary Correlation fitting basis         ... NOT available
Auxiliary 'external' fitting basis          ... NOT available
Integral threshold                          ...     2.500000e-11
Primitive cut-off                           ...     2.500000e-12
Primitive pair pre-selection threshold      ...     2.500000e-12

Calculating pre-screening integrals         ... done (  0.0 sec) Dimension = 9
Organizing shell pair data                  ... done (  0.0 sec)
Shell pair information
Total number of shell pairs                 ...        45
Shell pairs after pre-screening             ...        45
Total number of primitive shell pairs       ...       127
Primitive shell pairs kept                  ...       126
          la=0 lb=0:     28 shell pairs
          la=1 lb=0:     14 shell pairs
          la=1 lb=1:      3 shell pairs

Calculating one electron integrals          ... done (  0.0 sec)
Calculating Nuclear repulsion               ... done (  0.0 sec) ENN=      6.259302386064 Eh

SHARK setup successfully completed in   0.0 seconds

Maximum memory used throughout the entire GTOINT-calculation: 3.8 MB


           ************************************************************
           *        Program running with 28 parallel MPI-processes    *
           *              working on a common directory               *
           ************************************************************
-------------------------------------------------------------------------------
                                 ORCA SCF
-------------------------------------------------------------------------------

------------
SCF SETTINGS
------------
Hamiltonian:
 Ab initio Hamiltonian  Method          .... Hartree-Fock(GTOs)


General Settings:
 Integral files         IntName         .... JOBS/21_A
 Hartree-Fock type      HFTyp           .... CASSCF
 Total Charge           Charge          ....    0
 Multiplicity           Mult            ....    1
 Number of Electrons    NEL             ....    8
 Basis Dimension        Dim             ....   13
 Nuclear Repulsion      ENuc            ....      6.2593023861 Eh


Diagonalization of the overlap matrix:
Smallest eigenvalue                        ... 3.653e-02
Time for diagonalization                   ...    0.000 sec
Threshold for overlap eigenvalues          ... 1.000e-08
Number of eigenvalues below threshold      ... 0
Time for construction of square roots      ...    0.000 sec
Total time needed                          ...    0.001 sec

---------------------
INITIAL GUESS: MOREAD
---------------------
Guess MOs are being read from file: JOBS/a.gbw
Input geometry compatible with but different from current geometry
Input basis set matches current basis set (good)
MOs were renormalized
Gram-Schmidt orthogonalization of all MOs with pivot on actives
                      ------------------
                      INITIAL GUESS DONE (   0.0 sec)
                      ------------------


 ... the calculation is a CASSCF calculation -I'm leaving here GOOD LUCK!!!



           ************************************************************
           *        Program running with 28 parallel MPI-processes    *
           *              working on a common directory               *
           ************************************************************
-------------------------------------------------------------------------------
                              ORCA-CASSCF
-------------------------------------------------------------------------------

Setting up the integral package       ... done
Building the CAS space                ... done (3 configurations for Mult=1)

SYSTEM-SPECIFIC SETTINGS:
Number of active electrons          ...    2
Number of active orbitals           ...    2
Total number of electrons           ...    8
Total number of orbitals            ...   13

Determined orbital ranges:
   Internal       0 -    2 (   3 orbitals)
   Active         3 -    4 (   2 orbitals)
   External       5 -   12 (   8 orbitals)
Number of rotation parameters      ...     46

CI-STEP:
CI strategy                         ... General CI
Number of multiplicity blocks       ...    1
BLOCK  1 WEIGHT=   1.0000
  Multiplicity                      ...    1
  #(Configurations)                 ...    3
  #(CSFs)                           ...    3
  #(Roots)                          ...    2
    ROOT=0 WEIGHT=    1.000000
    ROOT=1 WEIGHT=    0.000000

  PrintLevel                        ...    1
  N(GuessMat)                       ...       512
  MaxDim(CI)                        ...        10
  MaxIter(CI)                       ...        64
  Energy Tolerance CI               ...  2.50e-09
  Residual Tolerance CI             ...  2.50e-09
  Shift(CI)                         ...  1.00e-04

INTEGRAL-TRANSFORMATION-STEP:
  Algorithm                         ... EXACT

ORBITAL-IMPROVEMENT-STEP:
  Algorithm                         ... SuperCI(PT)
  Default Parametrization           ... CAYLEY
  Act-Act rotations                 ... depends on algorithm used
  FreezeIE                          ... 95.00% of ||g||
  Until reaching FreezeIE rotations with active orbitals are damped. 

  Approx. Fock at                   ... 0.000000e+00 density convergence
  Upward level shift                ...  2.00e+00 
  Downward level shift              ...  2.00e+00 

  Note: SuperCI(PT) will ignore FreezeIE, FreezeAct and FreezeGrad. In general Default settings are encouraged.
        In conjunction with ShiftUp, ShiftDn or GradScaling the performance of SuperCI(PT) is less optimal.  

  MaxRot                            ... 2.00e-01 
  Max. no of vectors (DIIS)         ... 15
  DThresh (cut-off) metric          ... 1.00e-06
  Switch step at gradient           ...  3.00e-02 
  Switch step at iteration          ...        50   
  Switch step to                    ... DIIS    

SCF-SETTINGS:
  Incremental                       ... on
  RIJCOSX approximation             ... off
  RI-JK approximation               ... off
  AO integral handling              ... DIRECT
  Integral Neglect Thresh           ...  2.50e-11
  Primitive cutoff TCut             ...  2.50e-12
  Energy convergence tolerance      ...  2.50e-08
  Orbital gradient convergence      ...  2.50e-04
  Max. number of iterations         ...       200  


FINAL ORBITALS:
  Active   Orbitals                 ... natural 
  Internal Orbitals                 ... canonical 
  External Orbitals                 ... canonical 

------------------
CAS-SCF ITERATIONS
------------------


MACRO-ITERATION   1: 
   --- Inactive Energy E0 = -37.43924917 Eh
CI-ITERATION   0: 
   -38.628163012   0.000000000000 (    0.00)
   -38.628149151   0.000000000000
   CI-PROBLEM SOLVED
   DENSITIES MADE

                 <<<<<<<<<<<<<<<<<<INITIAL CI STATE CHECK>>>>>>>>>>>>>>>>>>

BLOCK  1 MULT= 1 NROOTS= 2 
ROOT   0:  E=     -38.6281630116 Eh
      0.51559 [     0]: 20
      0.48437 [     2]: 02
ROOT   1:  E=     -38.6281491507 Eh  0.000 eV      3.0 cm**-1
      0.99997 [     1]: 11

                 <<<<<<<<<<<<<<<<<<INITIAL CI STATE CHECK>>>>>>>>>>>>>>>>>>

   E(CAS)=   -38.628163012 Eh DE=    0.000000e+00
   --- Energy gap subspaces: Ext-Act = 0.351   Act-Int = 0.532
   N(occ)=  1.03122 0.96878
   ||g|| =     6.268356e-02 Max(G)=    3.738703e-02 Rot=3,1
   --- Orbital Update [SuperCI(PT)]
   --- Canonicalize Internal Space
   --- Canonicalize External Space
   --- SX_PT (Skipped TA=0 IT=0): ||X|| =      0.025843308 Max(X)(3,1) =     -0.019622425 
   --- SFit(Active Orbitals)

MACRO-ITERATION   2: 
   --- Inactive Energy E0 = -37.44002916 Eh
CI-ITERATION   0: 
   -38.629115698   0.000000000000 (    0.00)
   -38.629103535   0.000000000000
   CI-PROBLEM SOLVED
   DENSITIES MADE
   E(CAS)=   -38.629115698 Eh DE=   -9.526868e-04
   --- Energy gap subspaces: Ext-Act = 0.352   Act-Int = 0.532
   N(occ)=  1.02851 0.97149
   ||g|| =     2.052483e-02 Max(G)=    1.405598e-02 Rot=3,1
   --- Orbital Update [SuperCI(PT)]
   --- Canonicalize Internal Space
   --- Canonicalize External Space
   --- SX_PT (Skipped TA=0 IT=0): ||X|| =      0.011563966 Max(X)(5,3) =      0.008093141 
   --- SFit(Active Orbitals)

MACRO-ITERATION   3: 
   ===>>> Convergence to 3.0e-02 achieved - switching to Step=DIIS
   --- Inactive Energy E0 = -37.44003876 Eh
CI-ITERATION   0: 
   -38.629322085   0.000000000000 (    0.00)
   -38.629305594   0.000000000000
   CI-PROBLEM SOLVED
   DENSITIES MADE
   E(CAS)=   -38.629322085 Eh DE=   -2.063867e-04
   --- Energy gap subspaces: Ext-Act = 0.351   Act-Int = 0.532
   N(occ)=  1.03087 0.96913
   ||g|| =     4.280748e-03 Max(G)=   -3.528151e-03 Rot=5,3
   --- Orbital Update [      DIIS]
   --- SFit(Active Orbitals)

MACRO-ITERATION   4: 
   --- Inactive Energy E0 = -37.44004594 Eh
CI-ITERATION   0: 
   -38.629327307   0.000000000000 (    0.00)
   -38.629310565   0.000000000000
   CI-PROBLEM SOLVED
   DENSITIES MADE
   E(CAS)=   -38.629327307 Eh DE=   -5.222233e-06
   --- Energy gap subspaces: Ext-Act = 0.351   Act-Int = 0.532
   N(occ)=  1.03093 0.96907
   ||g|| =     2.846991e-03 Max(G)=   -2.681227e-03 Rot=5,3
   --- Orbital Update [      DIIS]
   --- SFit(Active Orbitals)

MACRO-ITERATION   5: 
   --- Inactive Energy E0 = -37.44005271 Eh
CI-ITERATION   0: 
   -38.629332597   0.000000000000 (    0.00)
   -38.629315436   0.000000000000
   CI-PROBLEM SOLVED
   DENSITIES MADE
   E(CAS)=   -38.629332597 Eh DE=   -5.289526e-06
   --- Energy gap subspaces: Ext-Act = 0.351   Act-Int = 0.532
   N(occ)=  1.03093 0.96907
   ||g|| =     1.323507e-03 Max(G)=    1.159394e-03 Rot=5,3
   --- Orbital Update [      DIIS]
   --- SFit(Active Orbitals)

MACRO-ITERATION   6: 
   --- Inactive Energy E0 = -37.44005912 Eh
CI-ITERATION   0: 
   -38.629333684   0.000000000000 (    0.00)
   -38.629316341   0.000000000000
   CI-PROBLEM SOLVED
   DENSITIES MADE
   E(CAS)=   -38.629333684 Eh DE=   -1.086687e-06
   --- Energy gap subspaces: Ext-Act = 0.352   Act-Int = 0.532
   N(occ)=  1.03087 0.96913
   ||g|| =     9.016460e-04 Max(G)=    7.101894e-04 Rot=9,0
   --- Orbital Update [      DIIS]
   --- SFit(Active Orbitals)

MACRO-ITERATION   7: 
   --- Inactive Energy E0 = -37.44005998 Eh
CI-ITERATION   0: 
   -38.629333840   0.000000000000 (    0.00)
   -38.629316397   0.000000000000
   CI-PROBLEM SOLVED
   DENSITIES MADE
   E(CAS)=   -38.629333840 Eh DE=   -1.560874e-07
   --- Energy gap subspaces: Ext-Act = 0.352   Act-Int = 0.532
   N(occ)=  1.03084 0.96916
   ||g|| =     1.703214e-04 Max(G)=   -1.361200e-04 Rot=9,0
                     ---- THE CAS-SCF GRADIENT HAS CONVERGED ----
                            --- FINALIZING ORBITALS ---
                    ---- DOING ONE FINAL ITERATION FOR PRINTING ----
   --- Forming Natural Orbitals
   --- Canonicalize Internal Space
   --- Canonicalize External Space

MACRO-ITERATION   8: 
   --- Inactive Energy E0 = -37.44005998 Eh
   --- All densities will be recomputed
CI-ITERATION   0: 
   -38.629333840   0.000000000000 (    0.00)
   -38.629316397   0.000000000000
   CI-PROBLEM SOLVED
   DENSITIES MADE
   E(CAS)=   -38.629333840 Eh DE=    1.662670e-12
   --- Energy gap subspaces: Ext-Act = 0.351   Act-Int = 0.532
   N(occ)=  1.03084 0.96916
   ||g|| =     1.703214e-04 Max(G)=    1.282987e-04 Rot=9,0
--------------
CASSCF RESULTS
--------------

Final CASSCF energy       : -38.629333840 Eh   -1051.1576 eV

----------------
ORBITAL ENERGIES
----------------

  NO   OCC          E(Eh)            E(eV) 
   0   2.0000     -11.175273      -304.0947 
   1   2.0000      -0.846962       -23.0470 
   2   2.0000      -0.636126       -17.3099 
   3   1.0308      -0.104463        -2.8426 
   4   0.9692      -0.090906        -2.4737 
   5   0.0000       0.260091         7.0774 
   6   0.0000       0.390467        10.6251 
   7   0.0000       0.969668        26.3860 
   8   0.0000       1.003843        27.3160 
   9   0.0000       1.008785        27.4504 
  10   0.0000       1.245381        33.8885 
  11   0.0000       1.443674        39.2844 
  12   0.0000       1.624245        44.1980 


---------------------------------------------
CAS-SCF STATES FOR BLOCK  1 MULT= 1 NROOTS= 2
---------------------------------------------

ROOT   0:  E=     -38.6293338396 Eh
      0.51542 [     0]: 20
      0.48458 [     2]: 02
ROOT   1:  E=     -38.6293163965 Eh  0.000 eV      3.8 cm**-1
      1.00000 [     1]: 11


--------------
DENSITY MATRIX
--------------

                  0          1    
      0       1.030839  -0.000000
      1      -0.000000   0.969161
Trace of the electron density:  2.000000

-----------------
ENERGY COMPONENTS
-----------------

One electron energy          :    -63.796909980 Eh       -1736.0022 eV
Two electron energy          :     18.908273754 Eh         514.5203 eV
Nuclear repulsion energy     :      6.259302386 Eh         170.3243 eV
                               ----------------
                                  -38.629333840

Kinetic energy               :     38.544919323 Eh        1048.8606 eV
Potential energy             :    -77.174253162 Eh       -2100.0182 eV
Virial ratio                 :     -2.002190030 
                               ----------------
                                  -38.629333840

Core energy                  :    -37.440059980 Eh    -1018.7958 eV


----------------------------
LOEWDIN ORBITAL-COMPOSITIONS
----------------------------

                      0         1         2         3         4         5   
                 -11.17527  -0.84696  -0.63613  -0.10446  -0.09091   0.26009
                   2.00000   2.00000   2.00000   1.03084   0.96916   0.00000
                  --------  --------  --------  --------  --------  --------
 0 C  s              99.8      58.5       0.0       0.3       0.0      40.8
 0 C  pz              0.0       0.0       0.0       0.0     100.0       0.0
 0 C  px              0.0       0.0      37.6      33.2       0.0       0.1
 0 C  py              0.0       0.0      18.8      66.4       0.0       0.2
 1 H  s               0.1      20.7      21.8       0.1       0.0      29.5
 2 H  s               0.1      20.7      21.8       0.1       0.0      29.5

                      6         7         8         9        10        11   
                   0.39047   0.96967   1.00384   1.00878   1.24538   1.44367
                   0.00000   0.00000   0.00000   0.00000   0.00000   0.00000
                  --------  --------  --------  --------  --------  --------
 0 C  s               0.0      11.0       0.0       2.0       0.0       0.0
 0 C  pz              0.0       0.0     100.0       0.0       0.0       0.0
 0 C  px             18.0       4.5       0.0      28.9      61.3      16.5
 0 C  py              9.0       8.9       0.0      57.7      30.6       8.2
 1 H  s              36.5      37.8       0.0       5.7       4.1      37.6
 2 H  s              36.5      37.8       0.0       5.7       4.1      37.6

                     12   
                   1.62424
                   0.00000
                  --------
 0 C  s              87.6
 1 H  s               6.2
 2 H  s               6.2

----------------------------
LOEWDIN REDUCED ACTIVE MOs  
----------------------------

                      0         1         2         3         4         5   
                 -11.17527  -0.84696  -0.63613  -0.10446  -0.09091   0.26009
                   2.00000   2.00000   2.00000   1.03084   0.96916   0.00000
                  --------  --------  --------  --------  --------  --------
 0 C  s              99.8      58.5       0.0       0.3       0.0      40.8
 0 C  pz              0.0       0.0       0.0       0.0     100.0       0.0
 0 C  px              0.0       0.0      37.6      33.2       0.0       0.1
 0 C  py              0.0       0.0      18.8      66.4       0.0       0.2
 1 H  s               0.1      20.7      21.8       0.1       0.0      29.5
 2 H  s               0.1      20.7      21.8       0.1       0.0      29.5

------------------------------------------------------------------------------
                           ORCA POPULATION ANALYSIS
------------------------------------------------------------------------------
Input electron density              ... JOBS/21_A.scfp
BaseName (.gbw .S,...)              ... JOBS/21_A

                    ********************************
                    * MULLIKEN POPULATION ANALYSIS *
                    ********************************

-----------------------
MULLIKEN ATOMIC CHARGES
-----------------------
   0 C :   -0.581237
   1 H :    0.290618
   2 H :    0.290618
Sum of atomic charges:   -0.0000000

--------------------------------
MULLIKEN REDUCED ORBITAL CHARGES
--------------------------------
  0 C s       :     3.424358  s :     3.424358
      pz      :     0.969161  p :     3.156878
      px      :     1.116020
      py      :     1.071697
  1 H s       :     0.709382  s :     0.709382
  2 H s       :     0.709382  s :     0.709382


                     *******************************
                     * LOEWDIN POPULATION ANALYSIS *
                     *******************************

----------------------
LOEWDIN ATOMIC CHARGES
----------------------
   0 C :   -0.293523
   1 H :    0.146761
   2 H :    0.146761

-------------------------------
LOEWDIN REDUCED ORBITAL CHARGES
-------------------------------
  0 C s       :     3.168756  s :     3.168756
      pz      :     0.969161  p :     3.124767
      px      :     1.094545
      py      :     1.061061
  1 H s       :     0.853239  s :     0.853239
  2 H s       :     0.853239  s :     0.853239


                      *****************************
                      * MAYER POPULATION ANALYSIS *
                      *****************************

  NA   - Mulliken gross atomic population
  ZA   - Total nuclear charge
  QA   - Mulliken gross atomic charge
  VA   - Mayer's total valence
  BVA  - Mayer's bonded valence
  FA   - Mayer's free valence

  ATOM       NA         ZA         QA         VA         BVA        FA
  0 C      6.5812     6.0000    -0.5812     3.7942     1.7975     1.9967
  1 H      0.7094     1.0000     0.2906     0.9088     0.9081     0.0007
  2 H      0.7094     1.0000     0.2906     0.9088     0.9081     0.0007

  Mayer bond orders larger than 0.100000
B(  0-C ,  1-H ) :   0.8987 B(  0-C ,  2-H ) :   0.8987 


-------------------------------------------------------------
 Forming the transition density       ... done in 0.000397 sec
-------------------------------------------------------------



==========================================
CASSCF UV, CD spectra and dipole moments
==========================================
-------------------
ABSORPTION SPECTRUM
-------------------

Center of mass           = (  2.2498,  0.1180,  0.0000)
Nuclear contribution to the dipole moment =    -0.059188,   -0.083702,   -0.000013 au

Calculating the Dipole integrals                  ... done
Transforming integrals                            ... done
Calculating the Linear Momentum integrals         ... done
Transforming integrals                            ... done
Calculating the Angular Momentum integrals        ... done
Transforming integrals                            ... done

------------------------------------------------------------------------------------------
                                ABSORPTION SPECTRUM
------------------------------------------------------------------------------------------
  States           Energy   Wavelength   fosc          T2        TX         TY        TZ  
                   (cm-1)     (nm)                   (D**2)      (D)        (D)       (D) 
------------------------------------------------------------------------------------------
  0( 0)-> 1( 0) 1       3.8   2612113.3   0.000000000   0.00001  -0.00000  -0.00000   0.00374
------------------------------------------------------------------------------------------



------------------------------------------------------------------------------
                             CD SPECTRUM
------------------------------------------------------------------------------
      States        Energy   Wavelength   R*T        RX        RY        RZ   
                    (cm-1)      (nm)   (1e40*sgs)   (au)      (au)      (au)  
------------------------------------------------------------------------------
  0( 0)-> 1( 0) 1       3.8   2612113.3     0.00000  -0.81543   0.57661  -0.00000
------------------------------------------------------------------------------

------------------------------------------------------------------------------
                                 DIPOLE MOMENTS
------------------------------------------------------------------------------
  Root  Block           TX        TY        TZ           |T|
                      (Debye)   (Debye)   (Debye)      (Debye)
------------------------------------------------------------------------------
    0    0           -0.13106  -0.18534  -0.00003      0.22699

--------------
CASSCF TIMINGS
--------------

Total time                       ...        0.2 sec
Sum of individual times          ...        0.1 sec ( 38.2%)

Calculation of AO operators
   F(Core) operator              ...        0.0 sec (  1.7%)
   G(Act) operator               ...        0.0 sec (  1.1%)
   J(AO) operators               ...        0.0 sec (  0.0%)
Calculation of MO transformed quantities
   J(MO) operators               ...        0.0 sec ( 26.0%)
   (pq|rs) integrals             ...        0.0 sec (  0.0%)
   AO->MO one electron integrals ...        0.0 sec (  0.0%)
Configuration interaction steps
   CI-setup phase                ...        0.0 sec (  0.2%)
   CI-solution phase             ...        0.0 sec (  7.8%)
   Generation of densities       ...        0.0 sec (  0.3%)
Orbital improvement steps
   Orbital gradient              ...        0.0 sec (  0.4%)
   O(1) converger                ...        0.0 sec (  0.5%)
Properties                       ...        0.0 sec (  0.2%)
   SOC integral calculation      ...        0.0 sec (  0.0%)
   SSC RMEs (incl. integrals)    ...        0.0 sec (  0.0%)
   SOC RMEs                      ...        0.0 sec (  0.0%)

Maximum memory used throughout the entire CASSCF-calculation: 58.3 MB

-------------------------   --------------------
FINAL SINGLE POINT ENERGY       -38.629333839629
-------------------------   --------------------



           ************************************************************
           *        Program running with 28 parallel MPI-processes    *
           *              working on a common directory               *
           ************************************************************
------------------------------------------------------------------------------
                         ORCA SCF GRADIENT CALCULATION
------------------------------------------------------------------------------

Gradient of the Hartree-Fock SCF energy:
Hartree-Fock type                ... CASSCF
Number of electrons in CAS       ... 2
Number of orbitals in CAS        ... 2
File with 1- and 2el densities   ... JOBS/21_A.casp.tmp
Number of operators              ...    1
Number of atoms                  ...    3
Basis set dimensions             ...   13
Integral neglect threshold       ... 2.5e-11
Integral primitive cutoff        ... 2.5e-12
SHARK Integral package           ... ON

Nuc. rep. gradient       (SHARK) ... done (  0.0 sec)
HCore & Overlap gradient (SHARK) ... done (  0.0 sec)
Two-Electron gradient    (SHARK) ... done (  0.0 sec)

------------------
CARTESIAN GRADIENT
------------------

   1   C   :   -0.002256764   -0.003191478   -0.000000439
   2   H   :    0.001416079    0.001392302    0.000000220
   3   H   :    0.000840685    0.001799176    0.000000220

Difference to translation invariance:
           :   -0.0000000000    0.0000000000    0.0000000000

Difference to rotation invariance:
           :    0.0000000042   -0.0000000030    0.0000000004

Norm of the cartesian gradient     ...    0.0048131159
RMS gradient                       ...    0.0016043720
MAX gradient                       ...    0.0031914778

-------
TIMINGS
-------

Total SCF gradient time            ...        0.021 sec

One electron gradient       ....       0.001 sec  (  4.9%)
Two electron gradient       ....       0.001 sec  (  5.3%)

Maximum memory used throughout the entire SCFGRAD-calculation: 6.2 MB

                            ***************************************
                            *     ORCA property calculations      *
                            ***************************************

                                    ---------------------
                                    Active property flags
                                    ---------------------
   (+) Dipole Moment


------------------------------------------------------------------------------
                       ORCA ELECTRIC PROPERTIES CALCULATION
------------------------------------------------------------------------------

Dipole Moment Calculation                       ... on
Quadrupole Moment Calculation                   ... off
Polarizability Calculation                      ... off
GBWName                                         ... JOBS/21_A.gbw
Electron density                                ... JOBS/21_A.scfp
The origin for moment calculation is the CENTER OF MASS  = ( 2.249796,  0.118024  0.000008)

-------------
DIPOLE MOMENT
-------------
                                X             Y             Z
Electronic contribution:      0.00763       0.01079       0.00000
Nuclear contribution   :     -0.05919      -0.08370      -0.00001
                        -----------------------------------------
Total Dipole Moment    :     -0.05156      -0.07292      -0.00001
                        -----------------------------------------
Magnitude (a.u.)       :      0.08930
Magnitude (Debye)      :      0.22699



--------------------
Rotational spectrum 
--------------------
 
Rotational constants in cm-1:  2398.700819     7.513777     7.490314 
Rotational constants in MHz : 71911241.462193 225257.367065 224553.966121 

 Dipole components along the rotational axes: 
x,y,z [a.u.] :    -0.000000    -0.089304     0.000000 
x,y,z [Debye]:    -0.000000    -0.226994     0.000000 

 

Timings for individual modules:

Sum of individual times         ...        3.908 sec (=   0.065 min)
GTO integral calculation        ...        0.267 sec (=   0.004 min)   6.8 %
SCF iterations                  ...        0.280 sec (=   0.005 min)   7.2 %
CASSCF iterations               ...        3.086 sec (=   0.051 min)  79.0 %
SCF Gradient evaluation         ...        0.274 sec (=   0.005 min)   7.0 %
                             ****ORCA TERMINATED NORMALLY****
TOTAL RUN TIME: 0 days 0 hours 0 minutes 4 seconds 226 msec
