
                                 *****************
                                 * O   R   C   A *
                                 *****************

                                            #,                                       
                                            ###                                      
                                            ####                                     
                                            #####                                    
                                            ######                                   
                                           ########,                                 
                                     ,,################,,,,,                         
                               ,,#################################,,                 
                          ,,##########################################,,             
                       ,#########################################, ''#####,          
                    ,#############################################,,   '####,        
                  ,##################################################,,,,####,       
                ,###########''''           ''''###############################       
              ,#####''   ,,,,##########,,,,          '''####'''          '####       
            ,##' ,,,,###########################,,,                        '##       
           ' ,,###''''                  '''############,,,                           
         ,,##''                                '''############,,,,        ,,,,,,###''
      ,#''                                            '''#######################'''  
     '                                                          ''''####''''         
             ,#######,   #######,   ,#######,      ##                                
            ,#'     '#,  ##    ##  ,#'     '#,    #''#        ######   ,####,        
            ##       ##  ##   ,#'  ##            #'  '#       #        #'  '#        
            ##       ##  #######   ##           ,######,      #####,   #    #        
            '#,     ,#'  ##    ##  '#,     ,#' ,#      #,         ##   #,  ,#        
             '#######'   ##     ##  '#######'  #'      '#     #####' # '####'        



                  #######################################################
                  #                        -***-                        #
                  #          Department of theory and spectroscopy      #
                  #    Directorship and core code : Frank Neese         #
                  #        Max Planck Institute fuer Kohlenforschung    #
                  #                Kaiser Wilhelm Platz 1               #
                  #                 D-45470 Muelheim/Ruhr               #
                  #                      Germany                        #
                  #                                                     #
                  #                  All rights reserved                #
                  #                        -***-                        #
                  #######################################################


                         Program Version 5.0.1 -  RELEASE  -


 With contributions from (in alphabetic order):
   Daniel Aravena         : Magnetic Suceptibility
   Michael Atanasov       : Ab Initio Ligand Field Theory (pilot matlab implementation)
   Alexander A. Auer      : GIAO ZORA, VPT2 properties, NMR spectrum
   Ute Becker             : Parallelization
   Giovanni Bistoni       : ED, misc. LED, open-shell LED, HFLD
   Martin Brehm           : Molecular dynamics
   Dmytro Bykov           : SCF Hessian
   Vijay G. Chilkuri      : MRCI spin determinant printing, contributions to CSF-ICE
   Dipayan Datta          : RHF DLPNO-CCSD density
   Achintya Kumar Dutta   : EOM-CC, STEOM-CC
   Dmitry Ganyushin       : Spin-Orbit,Spin-Spin,Magnetic field MRCI
   Miquel Garcia          : C-PCM and meta-GGA Hessian, CC/C-PCM, Gaussian charge scheme
   Yang Guo               : DLPNO-NEVPT2, F12-NEVPT2, CIM, IAO-localization
   Andreas Hansen         : Spin unrestricted coupled pair/coupled cluster methods
   Benjamin Helmich-Paris : MC-RPA, TRAH-SCF, COSX integrals
   Lee Huntington         : MR-EOM, pCC
   Robert Izsak           : Overlap fitted RIJCOSX, COSX-SCS-MP3, EOM
   Marcus Kettner         : VPT2
   Christian Kollmar      : KDIIS, OOCD, Brueckner-CCSD(T), CCSD density, CASPT2, CASPT2-K
   Simone Kossmann        : Meta GGA functionals, TD-DFT gradient, OOMP2, MP2 Hessian
   Martin Krupicka        : Initial AUTO-CI
   Lucas Lang             : DCDCAS
   Marvin Lechner         : AUTO-CI (C++ implementation), FIC-MRCC
   Dagmar Lenk            : GEPOL surface, SMD
   Dimitrios Liakos       : Extrapolation schemes; Compound Job, initial MDCI parallelization
   Dimitrios Manganas     : Further ROCIS development; embedding schemes
   Dimitrios Pantazis     : SARC Basis sets
   Anastasios Papadopoulos: AUTO-CI, single reference methods and gradients
   Taras Petrenko         : DFT Hessian,TD-DFT gradient, ASA, ECA, R-Raman, ABS, FL, XAS/XES, NRVS
   Peter Pinski           : DLPNO-MP2, DLPNO-MP2 Gradient
   Christoph Reimann      : Effective Core Potentials
   Marius Retegan         : Local ZFS, SOC
   Christoph Riplinger    : Optimizer, TS searches, QM/MM, DLPNO-CCSD(T), (RO)-DLPNO pert. Triples
   Tobias Risthaus        : Range-separated hybrids, TD-DFT gradient, RPA, STAB
   Michael Roemelt        : Original ROCIS implementation
   Masaaki Saitow         : Open-shell DLPNO-CCSD energy and density
   Barbara Sandhoefer     : DKH picture change effects
   Avijit Sen             : IP-ROCIS
   Kantharuban Sivalingam : CASSCF convergence, NEVPT2, FIC-MRCI
   Bernardo de Souza      : ESD, SOC TD-DFT
   Georgi Stoychev        : AutoAux, RI-MP2 NMR, DLPNO-MP2 response
   Willem Van den Heuvel  : Paramagnetic NMR
   Boris Wezisla          : Elementary symmetry handling
   Frank Wennmohs         : Technical directorship


 We gratefully acknowledge several colleagues who have allowed us to
 interface, adapt or use parts of their codes:
   Stefan Grimme, W. Hujo, H. Kruse, P. Pracht,  : VdW corrections, initial TS optimization,
                  C. Bannwarth, S. Ehlert          DFT functionals, gCP, sTDA/sTD-DF
   Ed Valeev, F. Pavosevic, A. Kumar             : LibInt (2-el integral package), F12 methods
   Garnet Chan, S. Sharma, J. Yang, R. Olivares  : DMRG
   Ulf Ekstrom                                   : XCFun DFT Library
   Mihaly Kallay                                 : mrcc  (arbitrary order and MRCC methods)
   Jiri Pittner, Ondrej Demel                    : Mk-CCSD
   Frank Weinhold                                : gennbo (NPA and NBO analysis)
   Christopher J. Cramer and Donald G. Truhlar   : smd solvation model
   Lars Goerigk                                  : TD-DFT with DH, B97 family of functionals
   V. Asgeirsson, H. Jonsson                     : NEB implementation
   FAccTs GmbH                                   : IRC, NEB, NEB-TS, DLPNO-Multilevel, CI-OPT
                                                   MM, QMMM, 2- and 3-layer-ONIOM, Crystal-QMMM,
                                                   LR-CPCM, SF, NACMEs, symmetry and pop. for TD-DFT,
                                                   nearIR, NL-DFT gradient (VV10), updates on ESD,
                                                   ML-optimized integration grids
   S Lehtola, MJT Oliveira, MAL Marques          : LibXC Library
   Liviu Ungur et al                             : ANISO software


 Your calculation uses the libint2 library for the computation of 2-el integrals
 For citations please refer to: http://libint.valeyev.net

 Your ORCA version has been built with support for libXC version: 5.1.0
 For citations please refer to: https://tddft.org/programs/libxc/

 This ORCA versions uses:
   CBLAS   interface :  Fast vector & matrix operations
   LAPACKE interface :  Fast linear algebra routines
   SCALAPACK package :  Parallel linear algebra routines
   Shared memory     :  Shared parallel matrices
   BLAS/LAPACK       :  OpenBLAS 0.3.15  USE64BITINT DYNAMIC_ARCH NO_AFFINITY Zen SINGLE_THREADED
        Core in use  :  Zen
   Copyright (c) 2011-2014, The OpenBLAS Project


================================================================================

----- Orbital basis set information -----
Your calculation utilizes the basis: 3-21G
   H-Ne       : J. S. Binkley, J. A. Pople and W. J. Hehre, J. Am. Chem. Soc. 102 939 (1980).
   Na-Ar      : M. S. Gordon, J. S. Binkley, J. A. Pople, W. J. Pietro and W.J. Hehre, J. Am. Chem. Soc. 104, 2797 (1983).
   K-Ca, Ga-Kr: K. D. Dobbs and W. J. Hehre, J. Comput. Chem. 7, 359 (1986).
   Sc-Zn      : K. D. Dobbs and W. J. Hehre, J. Comput. Chem. 8, 861 (1987).
   Y-Cd       : K. D. Dobbs and W. J. Hehre, J. Comput. Chem. 8, 880 (1987).

================================================================================
                                        WARNINGS
                       Please study these warnings very carefully!
================================================================================


INFO   : the flag for use of the SHARK integral package has been found!

================================================================================
                                       INPUT FILE
================================================================================
NAME = JOBS/2_A.inp
|  1> %pal nprocs 28 end
|  2> %maxcore 1000 
|  3> ! hf 3-21g engrad 
|  4> !moread 
|  5>  %moinp "JOBS/a.gbw"
|  6>  
|  7> 
|  8>  *xyz 0 1
|  9> c  1.339211791287375  0.27270240454983263  -1.6079308872422925e-08
| 10> h  1.878062445301543  -0.6426949767042951  8.03833955994945e-09
| 11> h  0.2965547840190929  0.4756284362784625  8.039660697780921e-09
| 12> *
| 13> % casscf nel 2 norb 2 nroots 2 weights[0] = 1,0
| 14> maxiter 200
| 15> orbstep superci_pt 
| 16> switchstep diis 
| 17> shiftup 2.0 
| 18> shiftdn 2.0 
| 19> minshift 0.6 
| 20> end
| 21> 
| 22> 
| 23>                          ****END OF INPUT****
================================================================================

                     *******************************
                     * Energy+Gradient Calculation *
                     *******************************

---------------------------------
CARTESIAN COORDINATES (ANGSTROEM)
---------------------------------
  C      1.339212    0.272702   -0.000000
  H      1.878062   -0.642695    0.000000
  H      0.296555    0.475628    0.000000

----------------------------
CARTESIAN COORDINATES (A.U.)
----------------------------
  NO LB      ZA    FRAG     MASS         X           Y           Z
   0 C     6.0000    0    12.011    2.530744    0.515333   -0.000000
   1 H     1.0000    0     1.008    3.549024   -1.214517    0.000000
   2 H     1.0000    0     1.008    0.560407    0.898807    0.000000

--------------------------------
INTERNAL COORDINATES (ANGSTROEM)
--------------------------------
 C      0   0   0     0.000000000000     0.00000000     0.00000000
 H      1   0   0     1.062220501091     0.00000000     0.00000000
 H      1   2   0     1.062220602869   131.49673779     0.00000000

---------------------------
INTERNAL COORDINATES (A.U.)
---------------------------
 C      0   0   0     0.000000000000     0.00000000     0.00000000
 H      1   0   0     2.007305840899     0.00000000     0.00000000
 H      1   2   0     2.007306033231   131.49673779     0.00000000

---------------------
BASIS SET INFORMATION
---------------------
There are 2 groups of distinct atoms

 Group   1 Type C   : 6s3p contracted to 3s2p pattern {321/21}
 Group   2 Type H   : 3s contracted to 2s pattern {21}

Atom   0C    basis set group =>   1
Atom   1H    basis set group =>   2
Atom   2H    basis set group =>   2


           ************************************************************
           *        Program running with 28 parallel MPI-processes    *
           *              working on a common directory               *
           ************************************************************
------------------------------------------------------------------------------
                           ORCA GTO INTEGRAL CALCULATION
------------------------------------------------------------------------------
------------------------------------------------------------------------------
                   ___                                                        
                  /   \      - P O W E R E D   B Y -                         
                 /     \                                                     
                 |  |  |   _    _      __       _____    __    __             
                 |  |  |  | |  | |    /  \     |  _  \  |  |  /  |          
                  \  \/   | |  | |   /    \    | | | |  |  | /  /          
                 / \  \   | |__| |  /  /\  \   | |_| |  |  |/  /          
                |  |  |   |  __  | /  /__\  \  |    /   |      \           
                |  |  |   | |  | | |   __   |  |    \   |  |\   \          
                \     /   | |  | | |  |  |  |  | |\  \  |  | \   \       
                 \___/    |_|  |_| |__|  |__|  |_| \__\ |__|  \__/        
                                                                              
                      - O R C A' S   B I G   F R I E N D -                    
                                      &                                       
                       - I N T E G R A L  F E E D E R -                       
                                                                              
 v1 FN, 2020, v2 2021                                                         
------------------------------------------------------------------------------


Reading SHARK input file JOBS/2_A.SHARKINP.tmp ... ok
----------------------
SHARK INTEGRAL PACKAGE
----------------------

Number of atoms                             ...      3
Number of basis functions                   ...     13
Number of shells                            ...      9
Maximum angular momentum                    ...      1
Integral batch strategy                     ... SHARK/LIBINT Hybrid
RI-J (if used) integral strategy            ... SPLIT-RIJ (Revised 2003 algorithm where possible)
Printlevel                                  ...      1
Contraction scheme used                     ... SEGMENTED contraction
Coulomb Range Separation                    ... NOT USED
Exchange Range Separation                   ... NOT USED
Finite Nucleus Model                        ... NOT USED
Auxiliary Coulomb fitting basis             ... NOT available
Auxiliary J/K fitting basis                 ... NOT available
Auxiliary Correlation fitting basis         ... NOT available
Auxiliary 'external' fitting basis          ... NOT available
Integral threshold                          ...     2.500000e-11
Primitive cut-off                           ...     2.500000e-12
Primitive pair pre-selection threshold      ...     2.500000e-12

Calculating pre-screening integrals         ... done (  0.0 sec) Dimension = 9
Organizing shell pair data                  ... done (  0.0 sec)
Shell pair information
Total number of shell pairs                 ...        45
Shell pairs after pre-screening             ...        45
Total number of primitive shell pairs       ...       127
Primitive shell pairs kept                  ...       126
          la=0 lb=0:     28 shell pairs
          la=1 lb=0:     14 shell pairs
          la=1 lb=1:      3 shell pairs

Calculating one electron integrals          ... done (  0.0 sec)
Calculating Nuclear repulsion               ... done (  0.0 sec) ENN=      6.251361837356 Eh

SHARK setup successfully completed in   0.0 seconds

Maximum memory used throughout the entire GTOINT-calculation: 3.8 MB


           ************************************************************
           *        Program running with 28 parallel MPI-processes    *
           *              working on a common directory               *
           ************************************************************
-------------------------------------------------------------------------------
                                 ORCA SCF
-------------------------------------------------------------------------------

------------
SCF SETTINGS
------------
Hamiltonian:
 Ab initio Hamiltonian  Method          .... Hartree-Fock(GTOs)


General Settings:
 Integral files         IntName         .... JOBS/2_A
 Hartree-Fock type      HFTyp           .... CASSCF
 Total Charge           Charge          ....    0
 Multiplicity           Mult            ....    1
 Number of Electrons    NEL             ....    8
 Basis Dimension        Dim             ....   13
 Nuclear Repulsion      ENuc            ....      6.2513618374 Eh


Diagonalization of the overlap matrix:
Smallest eigenvalue                        ... 5.685e-02
Time for diagonalization                   ...    0.000 sec
Threshold for overlap eigenvalues          ... 1.000e-08
Number of eigenvalues below threshold      ... 0
Time for construction of square roots      ...    0.000 sec
Total time needed                          ...    0.001 sec

---------------------
INITIAL GUESS: MOREAD
---------------------
Guess MOs are being read from file: JOBS/a.gbw
Input geometry compatible with but different from current geometry
Input basis set matches current basis set (good)
MOs were renormalized
Gram-Schmidt orthogonalization of all MOs with pivot on actives
                      ------------------
                      INITIAL GUESS DONE (   0.0 sec)
                      ------------------


 ... the calculation is a CASSCF calculation -I'm leaving here GOOD LUCK!!!



           ************************************************************
           *        Program running with 28 parallel MPI-processes    *
           *              working on a common directory               *
           ************************************************************
-------------------------------------------------------------------------------
                              ORCA-CASSCF
-------------------------------------------------------------------------------

Setting up the integral package       ... done
Building the CAS space                ... done (3 configurations for Mult=1)

SYSTEM-SPECIFIC SETTINGS:
Number of active electrons          ...    2
Number of active orbitals           ...    2
Total number of electrons           ...    8
Total number of orbitals            ...   13

Determined orbital ranges:
   Internal       0 -    2 (   3 orbitals)
   Active         3 -    4 (   2 orbitals)
   External       5 -   12 (   8 orbitals)
Number of rotation parameters      ...     46

CI-STEP:
CI strategy                         ... General CI
Number of multiplicity blocks       ...    1
BLOCK  1 WEIGHT=   1.0000
  Multiplicity                      ...    1
  #(Configurations)                 ...    3
  #(CSFs)                           ...    3
  #(Roots)                          ...    2
    ROOT=0 WEIGHT=    1.000000
    ROOT=1 WEIGHT=    0.000000

  PrintLevel                        ...    1
  N(GuessMat)                       ...       512
  MaxDim(CI)                        ...        10
  MaxIter(CI)                       ...        64
  Energy Tolerance CI               ...  2.50e-09
  Residual Tolerance CI             ...  2.50e-09
  Shift(CI)                         ...  1.00e-04

INTEGRAL-TRANSFORMATION-STEP:
  Algorithm                         ... EXACT

ORBITAL-IMPROVEMENT-STEP:
  Algorithm                         ... SuperCI(PT)
  Default Parametrization           ... CAYLEY
  Act-Act rotations                 ... depends on algorithm used
  FreezeIE                          ... 95.00% of ||g||
  Until reaching FreezeIE rotations with active orbitals are damped. 

  Approx. Fock at                   ... 0.000000e+00 density convergence
  Upward level shift                ...  2.00e+00 
  Downward level shift              ...  2.00e+00 

  Note: SuperCI(PT) will ignore FreezeIE, FreezeAct and FreezeGrad. In general Default settings are encouraged.
        In conjunction with ShiftUp, ShiftDn or GradScaling the performance of SuperCI(PT) is less optimal.  

  MaxRot                            ... 2.00e-01 
  Max. no of vectors (DIIS)         ... 15
  DThresh (cut-off) metric          ... 1.00e-06
  Switch step at gradient           ...  3.00e-02 
  Switch step at iteration          ...        50   
  Switch step to                    ... DIIS    

SCF-SETTINGS:
  Incremental                       ... on
  RIJCOSX approximation             ... off
  RI-JK approximation               ... off
  AO integral handling              ... DIRECT
  Integral Neglect Thresh           ...  2.50e-11
  Primitive cutoff TCut             ...  2.50e-12
  Energy convergence tolerance      ...  2.50e-08
  Orbital gradient convergence      ...  2.50e-04
  Max. number of iterations         ...       200  


FINAL ORBITALS:
  Active   Orbitals                 ... natural 
  Internal Orbitals                 ... canonical 
  External Orbitals                 ... canonical 

------------------
CAS-SCF ITERATIONS
------------------


MACRO-ITERATION   1: 
   --- Inactive Energy E0 = -37.26982410 Eh
CI-ITERATION   0: 
   -38.648372500   0.000000000000 (    0.00)
   -38.575382348   0.000000000000
   CI-PROBLEM SOLVED
   DENSITIES MADE

                 <<<<<<<<<<<<<<<<<<INITIAL CI STATE CHECK>>>>>>>>>>>>>>>>>>

BLOCK  1 MULT= 1 NROOTS= 2 
ROOT   0:  E=     -38.6483724997 Eh
      0.92821 [     0]: 20
      0.07179 [     2]: 02
ROOT   1:  E=     -38.5753823484 Eh  1.986 eV  16019.5 cm**-1
      1.00000 [     1]: 11

                 <<<<<<<<<<<<<<<<<<INITIAL CI STATE CHECK>>>>>>>>>>>>>>>>>>

   E(CAS)=   -38.648372500 Eh DE=    0.000000e+00
   --- Energy gap subspaces: Ext-Act = 0.212   Act-Int = 0.272
   N(occ)=  1.85642 0.14358
   ||g|| =     1.092011e-01 Max(G)=    5.383761e-02 Rot=10,3
   --- Orbital Update [SuperCI(PT)]
   --- Canonicalize Internal Space
   --- Canonicalize External Space
   --- SX_PT (Skipped TA=0 IT=0): ||X|| =      0.032648888 Max(X)(3,1) =      0.025964422 
   --- SFit(Active Orbitals)

MACRO-ITERATION   2: 
   --- Inactive Energy E0 = -37.28910002 Eh
CI-ITERATION   0: 
   -38.649744846   0.000000000000 (    0.00)
   -38.585930107   0.000000000000
   CI-PROBLEM SOLVED
   DENSITIES MADE
   E(CAS)=   -38.649744846 Eh DE=   -1.372346e-03
   --- Energy gap subspaces: Ext-Act = 0.215   Act-Int = 0.281
   N(occ)=  1.84745 0.15255
   ||g|| =     3.051158e-02 Max(G)=    1.609764e-02 Rot=10,3
   --- Orbital Update [SuperCI(PT)]
   --- Canonicalize Internal Space
   --- Canonicalize External Space
   --- SX_PT (Skipped TA=0 IT=0): ||X|| =      0.025376622 Max(X)(3,1) =      0.024048568 
   --- SFit(Active Orbitals)

MACRO-ITERATION   3: 
   --- Inactive Energy E0 = -37.31564621 Eh
CI-ITERATION   0: 
   -38.650208877   0.000000000000 (    0.00)
   -38.598299245   0.000000000000
   CI-PROBLEM SOLVED
   DENSITIES MADE
   E(CAS)=   -38.650208877 Eh DE=   -4.640310e-04
   --- Energy gap subspaces: Ext-Act = 0.220   Act-Int = 0.294
   N(occ)=  1.82717 0.17283
   ||g|| =     9.349511e-03 Max(G)=   -7.140150e-03 Rot=3,1
   --- Orbital Update [SuperCI(PT)]
   --- Canonicalize Internal Space
   --- Canonicalize External Space
   --- SX_PT (Skipped TA=0 IT=0): ||X|| =      0.020501384 Max(X)(3,1) =      0.020051317 
   --- SFit(Active Orbitals)

MACRO-ITERATION   4: 
   ===>>> Convergence to 3.0e-02 achieved - switching to Step=DIIS
   --- Inactive Energy E0 = -37.37267687 Eh
CI-ITERATION   0: 
   -38.650552278   0.000000000000 (    0.00)
   -38.622887642   0.000000000000
   CI-PROBLEM SOLVED
   DENSITIES MADE
   E(CAS)=   -38.650552278 Eh DE=   -3.434013e-04
   --- Energy gap subspaces: Ext-Act = 0.241   Act-Int = 0.323
   N(occ)=  1.75121 0.24879
   ||g|| =     1.223628e-02 Max(G)=   -5.918655e-03 Rot=12,1
   --- Orbital Update [      DIIS]
   --- SFit(Active Orbitals)

MACRO-ITERATION   5: 
   --- Inactive Energy E0 = -37.37163420 Eh
CI-ITERATION   0: 
   -38.650586478   0.000000000000 (    0.00)
   -38.622363393   0.000000000000
   CI-PROBLEM SOLVED
   DENSITIES MADE
   E(CAS)=   -38.650586478 Eh DE=   -3.420012e-05
   --- Energy gap subspaces: Ext-Act = 0.240   Act-Int = 0.322
   N(occ)=  1.75298 0.24702
   ||g|| =     7.508635e-03 Max(G)=    4.122892e-03 Rot=3,1
   --- Orbital Update [      DIIS]
   --- SFit(Active Orbitals)

MACRO-ITERATION   6: 
   --- Inactive Energy E0 = -37.36989668 Eh
CI-ITERATION   0: 
   -38.650607502   0.000000000000 (    0.00)
   -38.621837013   0.000000000000
   CI-PROBLEM SOLVED
   DENSITIES MADE
   E(CAS)=   -38.650607502 Eh DE=   -2.102360e-05
   --- Energy gap subspaces: Ext-Act = 0.239   Act-Int = 0.321
   N(occ)=  1.75483 0.24517
   ||g|| =     6.626862e-03 Max(G)=   -3.616857e-03 Rot=12,0
   --- Orbital Update [      DIIS]
   --- SFit(Active Orbitals)

MACRO-ITERATION   7: 
   --- Inactive Energy E0 = -37.36789189 Eh
CI-ITERATION   0: 
   -38.650627000   0.000000000000 (    0.00)
   -38.621141908   0.000000000000
   CI-PROBLEM SOLVED
   DENSITIES MADE
   E(CAS)=   -38.650627000 Eh DE=   -1.949819e-05
   --- Energy gap subspaces: Ext-Act = 0.238   Act-Int = 0.321
   N(occ)=  1.75727 0.24273
   ||g|| =     4.178145e-03 Max(G)=    2.758413e-03 Rot=3,1
   --- Orbital Update [      DIIS]
   --- SFit(Active Orbitals)

MACRO-ITERATION   8: 
   --- Inactive Energy E0 = -37.36456063 Eh
CI-ITERATION   0: 
   -38.650645347   0.000000000000 (    0.00)
   -38.619891864   0.000000000000
   CI-PROBLEM SOLVED
   DENSITIES MADE
   E(CAS)=   -38.650645347 Eh DE=   -1.834714e-05
   --- Energy gap subspaces: Ext-Act = 0.237   Act-Int = 0.319
   N(occ)=  1.76177 0.23823
   ||g|| =     2.071092e-03 Max(G)=   -1.485630e-03 Rot=3,1
   --- Orbital Update [      DIIS]
   --- SFit(Active Orbitals)

MACRO-ITERATION   9: 
   --- Inactive Energy E0 = -37.36253774 Eh
CI-ITERATION   0: 
   -38.650650733   0.000000000000 (    0.00)
   -38.619079437   0.000000000000
   CI-PROBLEM SOLVED
   DENSITIES MADE
   E(CAS)=   -38.650650733 Eh DE=   -5.386179e-06
   --- Energy gap subspaces: Ext-Act = 0.236   Act-Int = 0.318
   N(occ)=  1.76491 0.23509
   ||g|| =     1.517786e-03 Max(G)=   -8.980549e-04 Rot=5,3
   --- Orbital Update [      DIIS]
   --- SFit(Active Orbitals)

MACRO-ITERATION  10: 
   --- Inactive Energy E0 = -37.36161389 Eh
CI-ITERATION   0: 
   -38.650652207   0.000000000000 (    0.00)
   -38.618671946   0.000000000000
   CI-PROBLEM SOLVED
   DENSITIES MADE
   E(CAS)=   -38.650652207 Eh DE=   -1.473118e-06
   --- Energy gap subspaces: Ext-Act = 0.236   Act-Int = 0.317
   N(occ)=  1.76663 0.23337
   ||g|| =     1.344061e-03 Max(G)=   -9.643356e-04 Rot=5,0
   --- Orbital Update [      DIIS]
   --- SFit(Active Orbitals)

MACRO-ITERATION  11: 
   --- Inactive Energy E0 = -37.36129223 Eh
CI-ITERATION   0: 
   -38.650652398   0.000000000000 (    0.00)
   -38.618532687   0.000000000000
   CI-PROBLEM SOLVED
   DENSITIES MADE
   E(CAS)=   -38.650652398 Eh DE=   -1.919577e-07
   --- Energy gap subspaces: Ext-Act = 0.236   Act-Int = 0.317
   N(occ)=  1.76726 0.23274
   ||g|| =     2.782816e-04 Max(G)=   -1.883092e-04 Rot=5,3
   --- Orbital Update [      DIIS]
   --- SFit(Active Orbitals)

MACRO-ITERATION  12: 
   --- Inactive Energy E0 = -37.36124581 Eh
CI-ITERATION   0: 
   -38.650652416   0.000000000000 (    0.00)
   -38.618525058   0.000000000000
   CI-PROBLEM SOLVED
   DENSITIES MADE
   E(CAS)=   -38.650652416 Eh DE=   -1.722151e-08
   --- Energy gap subspaces: Ext-Act = 0.236   Act-Int = 0.317
   N(occ)=  1.76732 0.23268
   ||g|| =     1.255394e-04 Max(G)=   -7.913627e-05 Rot=5,3
                     ---- THE CAS-SCF ENERGY   HAS CONVERGED ----
                     ---- THE CAS-SCF GRADIENT HAS CONVERGED ----
                            --- FINALIZING ORBITALS ---
                    ---- DOING ONE FINAL ITERATION FOR PRINTING ----
   --- Forming Natural Orbitals
   --- Canonicalize Internal Space
   --- Canonicalize External Space

MACRO-ITERATION  13: 
   --- Inactive Energy E0 = -37.36124581 Eh
   --- All densities will be recomputed
CI-ITERATION   0: 
   -38.650652416   0.000000000000 (    0.00)
   -38.618525058   0.000000000000
   CI-PROBLEM SOLVED
   DENSITIES MADE
   E(CAS)=   -38.650652416 Eh DE=   -2.131628e-14
   --- Energy gap subspaces: Ext-Act = 0.235   Act-Int = 0.317
   N(occ)=  1.76732 0.23268
   ||g|| =     1.255394e-04 Max(G)=   -7.989440e-05 Rot=5,3
--------------
CASSCF RESULTS
--------------

Final CASSCF energy       : -38.650652416 Eh   -1051.7377 eV

----------------
ORBITAL ENERGIES
----------------

  NO   OCC          E(Eh)            E(eV) 
   0   2.0000     -11.195536      -304.6460 
   1   2.0000      -0.872830       -23.7509 
   2   2.0000      -0.612053       -16.6548 
   3   1.7673      -0.294896        -8.0245 
   4   0.2327       0.053541         1.4569 
   5   0.0000       0.288422         7.8484 
   6   0.0000       0.374684        10.1957 
   7   0.0000       0.947682        25.7877 
   8   0.0000       0.989216        26.9179 
   9   0.0000       0.993934        27.0463 
  10   0.0000       1.106759        30.1164 
  11   0.0000       1.386767        37.7358 
  12   0.0000       1.629362        44.3372 


---------------------------------------------
CAS-SCF STATES FOR BLOCK  1 MULT= 1 NROOTS= 2
---------------------------------------------

ROOT   0:  E=     -38.6506524157 Eh
      0.88366 [     0]: 20
      0.11634 [     2]: 02
ROOT   1:  E=     -38.6185250575 Eh  0.874 eV   7051.1 cm**-1
      1.00000 [     1]: 11


--------------
DENSITY MATRIX
--------------

                  0          1    
      0       1.767317   0.000000
      1       0.000000   0.232683
Trace of the electron density:  2.000000

-----------------
ENERGY COMPONENTS
-----------------

One electron energy          :    -63.720687169 Eh       -1733.9280 eV
Two electron energy          :     18.818672916 Eh         512.0821 eV
Nuclear repulsion energy     :      6.251361837 Eh         170.1082 eV
                               ----------------
                                  -38.650652416

Kinetic energy               :     38.623382950 Eh        1050.9957 eV
Potential energy             :    -77.274035365 Eh       -2102.7334 eV
Virial ratio                 :     -2.000706035 
                               ----------------
                                  -38.650652416

Core energy                  :    -37.361245812 Eh    -1016.6512 eV


----------------------------
LOEWDIN ORBITAL-COMPOSITIONS
----------------------------

                      0         1         2         3         4         5   
                 -11.19554  -0.87283  -0.61205  -0.29490   0.05354   0.28842
                   2.00000   2.00000   2.00000   1.76732   0.23268   0.00000
                  --------  --------  --------  --------  --------  --------
 0 C  s              99.8      51.2       0.0      16.2       0.0      31.3
 0 C  pz              0.0       0.0       0.0       0.0     100.0       0.0
 0 C  px              0.0       1.9      36.0      27.3       0.0       3.2
 0 C  py              0.0       3.9      18.0      54.6       0.0       6.4
 1 H  s               0.1      21.5      23.0       1.0       0.0      29.6
 2 H  s               0.1      21.5      23.0       1.0       0.0      29.6

                      6         7         8         9        10        11   
                   0.37468   0.94768   0.98922   0.99393   1.10676   1.38677
                   0.00000   0.00000   0.00000   0.00000   0.00000   0.00000
                  --------  --------  --------  --------  --------  --------
 0 C  s               0.0       2.6       0.0       0.0      10.3       0.0
 0 C  pz              0.0       0.0       0.0     100.0       0.0       0.0
 0 C  px             22.0      23.1      52.4       0.0      10.9      22.9
 0 C  py             11.0      46.3      26.2       0.0      21.8      11.5
 1 H  s              33.5      14.0      10.7       0.0      28.5      32.8
 2 H  s              33.5      14.0      10.7       0.0      28.5      32.8

                     12   
                   1.62936
                   0.00000
                  --------
 0 C  s              88.5
 0 C  px              0.2
 0 C  py              0.4
 1 H  s               5.4
 2 H  s               5.4

----------------------------
LOEWDIN REDUCED ACTIVE MOs  
----------------------------

                      0         1         2         3         4         5   
                 -11.19554  -0.87283  -0.61205  -0.29490   0.05354   0.28842
                   2.00000   2.00000   2.00000   1.76732   0.23268   0.00000
                  --------  --------  --------  --------  --------  --------
 0 C  s              99.8      51.2       0.0      16.2       0.0      31.3
 0 C  pz              0.0       0.0       0.0       0.0     100.0       0.0
 0 C  px              0.0       1.9      36.0      27.3       0.0       3.2
 0 C  py              0.0       3.9      18.0      54.6       0.0       6.4
 1 H  s               0.1      21.5      23.0       1.0       0.0      29.6
 2 H  s               0.1      21.5      23.0       1.0       0.0      29.6

------------------------------------------------------------------------------
                           ORCA POPULATION ANALYSIS
------------------------------------------------------------------------------
Input electron density              ... JOBS/2_A.scfp
BaseName (.gbw .S,...)              ... JOBS/2_A

                    ********************************
                    * MULLIKEN POPULATION ANALYSIS *
                    ********************************

-----------------------
MULLIKEN ATOMIC CHARGES
-----------------------
   0 C :   -0.387007
   1 H :    0.193504
   2 H :    0.193504
Sum of atomic charges:    0.0000000

--------------------------------
MULLIKEN REDUCED ORBITAL CHARGES
--------------------------------
  0 C s       :     3.602512  s :     3.602512
      pz      :     0.232683  p :     2.784495
      px      :     1.186930
      py      :     1.364882
  1 H s       :     0.806496  s :     0.806496
  2 H s       :     0.806496  s :     0.806496


                     *******************************
                     * LOEWDIN POPULATION ANALYSIS *
                     *******************************

----------------------
LOEWDIN ATOMIC CHARGES
----------------------
   0 C :   -0.179662
   1 H :    0.089831
   2 H :    0.089831

-------------------------------
LOEWDIN REDUCED ORBITAL CHARGES
-------------------------------
  0 C s       :     3.305490  s :     3.305490
      pz      :     0.232683  p :     2.874173
      px      :     1.240051
      py      :     1.401439
  1 H s       :     0.910169  s :     0.910169
  2 H s       :     0.910169  s :     0.910169


                      *****************************
                      * MAYER POPULATION ANALYSIS *
                      *****************************

  NA   - Mulliken gross atomic population
  ZA   - Total nuclear charge
  QA   - Mulliken gross atomic charge
  VA   - Mayer's total valence
  BVA  - Mayer's bonded valence
  FA   - Mayer's free valence

  ATOM       NA         ZA         QA         VA         BVA        FA
  0 C      6.3870     6.0000    -0.3870     2.6332     1.8182     0.8149
  1 H      0.8065     1.0000     0.1935     0.9242     0.9204     0.0038
  2 H      0.8065     1.0000     0.1935     0.9242     0.9204     0.0038

  Mayer bond orders larger than 0.100000
B(  0-C ,  1-H ) :   0.9091 B(  0-C ,  2-H ) :   0.9091 


-------------------------------------------------------------
 Forming the transition density       ... done in 0.000342 sec
-------------------------------------------------------------



==========================================
CASSCF UV, CD spectra and dipole moments
==========================================
-------------------
ABSORPTION SPECTRUM
-------------------

Center of mass           = (  2.4623,  0.4186, -0.0000)
Nuclear contribution to the dipole moment =    -0.404727,   -0.572356,    0.000000 au

Calculating the Dipole integrals                  ... done
Transforming integrals                            ... done
Calculating the Linear Momentum integrals         ... done
Transforming integrals                            ... done
Calculating the Angular Momentum integrals        ... done
Transforming integrals                            ... done

------------------------------------------------------------------------------------------
                                ABSORPTION SPECTRUM
------------------------------------------------------------------------------------------
  States           Energy   Wavelength   fosc          T2        TX         TY        TZ  
                   (cm-1)     (nm)                   (D**2)      (D)        (D)       (D) 
------------------------------------------------------------------------------------------
  0( 0)-> 1( 0) 1    7051.1   1418.2   0.002077638   0.62570  -0.00000  -0.00000  -0.79101
------------------------------------------------------------------------------------------



------------------------------------------------------------------------------
                             CD SPECTRUM
------------------------------------------------------------------------------
      States        Energy   Wavelength   R*T        RX        RY        RZ   
                    (cm-1)      (nm)   (1e40*sgs)   (au)      (au)      (au)  
------------------------------------------------------------------------------
  0( 0)-> 1( 0) 1    7051.1   1418.2     0.00000   0.69214  -0.48943  -0.00000
------------------------------------------------------------------------------

------------------------------------------------------------------------------
                                 DIPOLE MOMENTS
------------------------------------------------------------------------------
  Root  Block           TX        TY        TZ           |T|
                      (Debye)   (Debye)   (Debye)      (Debye)
------------------------------------------------------------------------------
    0    0           -0.99267  -1.40382   0.00000      1.71933

--------------
CASSCF TIMINGS
--------------

Total time                       ...        0.2 sec
Sum of individual times          ...        0.1 sec ( 48.5%)

Calculation of AO operators
   F(Core) operator              ...        0.0 sec (  2.1%)
   G(Act) operator               ...        0.0 sec (  1.8%)
   J(AO) operators               ...        0.0 sec (  0.0%)
Calculation of MO transformed quantities
   J(MO) operators               ...        0.1 sec ( 32.0%)
   (pq|rs) integrals             ...        0.0 sec (  0.0%)
   AO->MO one electron integrals ...        0.0 sec (  0.1%)
Configuration interaction steps
   CI-setup phase                ...        0.0 sec (  0.1%)
   CI-solution phase             ...        0.0 sec ( 10.4%)
   Generation of densities       ...        0.0 sec (  0.4%)
Orbital improvement steps
   Orbital gradient              ...        0.0 sec (  0.4%)
   O(1) converger                ...        0.0 sec (  1.1%)
Properties                       ...        0.0 sec (  0.2%)
   SOC integral calculation      ...        0.0 sec (  0.0%)
   SSC RMEs (incl. integrals)    ...        0.0 sec (  0.0%)
   SOC RMEs                      ...        0.0 sec (  0.0%)

Maximum memory used throughout the entire CASSCF-calculation: 58.3 MB

-------------------------   --------------------
FINAL SINGLE POINT ENERGY       -38.650652415715
-------------------------   --------------------



           ************************************************************
           *        Program running with 28 parallel MPI-processes    *
           *              working on a common directory               *
           ************************************************************
------------------------------------------------------------------------------
                         ORCA SCF GRADIENT CALCULATION
------------------------------------------------------------------------------

Gradient of the Hartree-Fock SCF energy:
Hartree-Fock type                ... CASSCF
Number of electrons in CAS       ... 2
Number of orbitals in CAS        ... 2
File with 1- and 2el densities   ... JOBS/2_A.casp.tmp
Number of operators              ...    1
Number of atoms                  ...    3
Basis set dimensions             ...   13
Integral neglect threshold       ... 2.5e-11
Integral primitive cutoff        ... 2.5e-12
SHARK Integral package           ... ON

Nuc. rep. gradient       (SHARK) ... done (  0.0 sec)
HCore & Overlap gradient (SHARK) ... done (  0.0 sec)
Two-Electron gradient    (SHARK) ... done (  0.0 sec)

------------------
CARTESIAN GRADIENT
------------------

   1   C   :   -0.031366521   -0.044357951    0.000000003
   2   H   :    0.014717545    0.022861879   -0.000000002
   3   H   :    0.016648976    0.021496072   -0.000000002

Difference to translation invariance:
           :    0.0000000000   -0.0000000000   -0.0000000000

Difference to rotation invariance:
           :    0.0000000001   -0.0000000001    0.0000000000

Norm of the cartesian gradient     ...    0.0665584526
RMS gradient                       ...    0.0221861509
MAX gradient                       ...    0.0443579511

-------
TIMINGS
-------

Total SCF gradient time            ...        0.023 sec

One electron gradient       ....       0.001 sec  (  4.5%)
Two electron gradient       ....       0.001 sec  (  4.7%)

Maximum memory used throughout the entire SCFGRAD-calculation: 6.2 MB

                            ***************************************
                            *     ORCA property calculations      *
                            ***************************************

                                    ---------------------
                                    Active property flags
                                    ---------------------
   (+) Dipole Moment


------------------------------------------------------------------------------
                       ORCA ELECTRIC PROPERTIES CALCULATION
------------------------------------------------------------------------------

Dipole Moment Calculation                       ... on
Quadrupole Moment Calculation                   ... off
Polarizability Calculation                      ... off
GBWName                                         ... JOBS/2_A.gbw
Electron density                                ... JOBS/2_A.scfp
The origin for moment calculation is the CENTER OF MASS  = ( 2.462327,  0.418580 -0.000000)

-------------
DIPOLE MOMENT
-------------
                                X             Y             Z
Electronic contribution:      0.01419       0.02006      -0.00000
Nuclear contribution   :     -0.40473      -0.57236       0.00000
                        -----------------------------------------
Total Dipole Moment    :     -0.39054      -0.55229       0.00000
                        -----------------------------------------
Magnitude (a.u.)       :      0.67642
Magnitude (Debye)      :      1.71933



--------------------
Rotational spectrum 
--------------------
 
Rotational constants in cm-1:    51.300127     8.915077     7.595168 
Rotational constants in MHz : 1537939.105939 267267.282628 227697.402521 

 Dipole components along the rotational axes: 
x,y,z [a.u.] :    -0.000000    -0.676424    -0.000000 
x,y,z [Debye]:    -0.000000    -1.719333    -0.000000 

 

Timings for individual modules:

Sum of individual times         ...        4.008 sec (=   0.067 min)
GTO integral calculation        ...        0.274 sec (=   0.005 min)   6.8 %
SCF iterations                  ...        0.262 sec (=   0.004 min)   6.5 %
CASSCF iterations               ...        3.196 sec (=   0.053 min)  79.7 %
SCF Gradient evaluation         ...        0.275 sec (=   0.005 min)   6.9 %
                             ****ORCA TERMINATED NORMALLY****
TOTAL RUN TIME: 0 days 0 hours 0 minutes 4 seconds 317 msec
