
                                 *****************
                                 * O   R   C   A *
                                 *****************

                                            #,                                       
                                            ###                                      
                                            ####                                     
                                            #####                                    
                                            ######                                   
                                           ########,                                 
                                     ,,################,,,,,                         
                               ,,#################################,,                 
                          ,,##########################################,,             
                       ,#########################################, ''#####,          
                    ,#############################################,,   '####,        
                  ,##################################################,,,,####,       
                ,###########''''           ''''###############################       
              ,#####''   ,,,,##########,,,,          '''####'''          '####       
            ,##' ,,,,###########################,,,                        '##       
           ' ,,###''''                  '''############,,,                           
         ,,##''                                '''############,,,,        ,,,,,,###''
      ,#''                                            '''#######################'''  
     '                                                          ''''####''''         
             ,#######,   #######,   ,#######,      ##                                
            ,#'     '#,  ##    ##  ,#'     '#,    #''#        ######   ,####,        
            ##       ##  ##   ,#'  ##            #'  '#       #        #'  '#        
            ##       ##  #######   ##           ,######,      #####,   #    #        
            '#,     ,#'  ##    ##  '#,     ,#' ,#      #,         ##   #,  ,#        
             '#######'   ##     ##  '#######'  #'      '#     #####' # '####'        



                  #######################################################
                  #                        -***-                        #
                  #          Department of theory and spectroscopy      #
                  #    Directorship and core code : Frank Neese         #
                  #        Max Planck Institute fuer Kohlenforschung    #
                  #                Kaiser Wilhelm Platz 1               #
                  #                 D-45470 Muelheim/Ruhr               #
                  #                      Germany                        #
                  #                                                     #
                  #                  All rights reserved                #
                  #                        -***-                        #
                  #######################################################


                         Program Version 5.0.1 -  RELEASE  -


 With contributions from (in alphabetic order):
   Daniel Aravena         : Magnetic Suceptibility
   Michael Atanasov       : Ab Initio Ligand Field Theory (pilot matlab implementation)
   Alexander A. Auer      : GIAO ZORA, VPT2 properties, NMR spectrum
   Ute Becker             : Parallelization
   Giovanni Bistoni       : ED, misc. LED, open-shell LED, HFLD
   Martin Brehm           : Molecular dynamics
   Dmytro Bykov           : SCF Hessian
   Vijay G. Chilkuri      : MRCI spin determinant printing, contributions to CSF-ICE
   Dipayan Datta          : RHF DLPNO-CCSD density
   Achintya Kumar Dutta   : EOM-CC, STEOM-CC
   Dmitry Ganyushin       : Spin-Orbit,Spin-Spin,Magnetic field MRCI
   Miquel Garcia          : C-PCM and meta-GGA Hessian, CC/C-PCM, Gaussian charge scheme
   Yang Guo               : DLPNO-NEVPT2, F12-NEVPT2, CIM, IAO-localization
   Andreas Hansen         : Spin unrestricted coupled pair/coupled cluster methods
   Benjamin Helmich-Paris : MC-RPA, TRAH-SCF, COSX integrals
   Lee Huntington         : MR-EOM, pCC
   Robert Izsak           : Overlap fitted RIJCOSX, COSX-SCS-MP3, EOM
   Marcus Kettner         : VPT2
   Christian Kollmar      : KDIIS, OOCD, Brueckner-CCSD(T), CCSD density, CASPT2, CASPT2-K
   Simone Kossmann        : Meta GGA functionals, TD-DFT gradient, OOMP2, MP2 Hessian
   Martin Krupicka        : Initial AUTO-CI
   Lucas Lang             : DCDCAS
   Marvin Lechner         : AUTO-CI (C++ implementation), FIC-MRCC
   Dagmar Lenk            : GEPOL surface, SMD
   Dimitrios Liakos       : Extrapolation schemes; Compound Job, initial MDCI parallelization
   Dimitrios Manganas     : Further ROCIS development; embedding schemes
   Dimitrios Pantazis     : SARC Basis sets
   Anastasios Papadopoulos: AUTO-CI, single reference methods and gradients
   Taras Petrenko         : DFT Hessian,TD-DFT gradient, ASA, ECA, R-Raman, ABS, FL, XAS/XES, NRVS
   Peter Pinski           : DLPNO-MP2, DLPNO-MP2 Gradient
   Christoph Reimann      : Effective Core Potentials
   Marius Retegan         : Local ZFS, SOC
   Christoph Riplinger    : Optimizer, TS searches, QM/MM, DLPNO-CCSD(T), (RO)-DLPNO pert. Triples
   Tobias Risthaus        : Range-separated hybrids, TD-DFT gradient, RPA, STAB
   Michael Roemelt        : Original ROCIS implementation
   Masaaki Saitow         : Open-shell DLPNO-CCSD energy and density
   Barbara Sandhoefer     : DKH picture change effects
   Avijit Sen             : IP-ROCIS
   Kantharuban Sivalingam : CASSCF convergence, NEVPT2, FIC-MRCI
   Bernardo de Souza      : ESD, SOC TD-DFT
   Georgi Stoychev        : AutoAux, RI-MP2 NMR, DLPNO-MP2 response
   Willem Van den Heuvel  : Paramagnetic NMR
   Boris Wezisla          : Elementary symmetry handling
   Frank Wennmohs         : Technical directorship


 We gratefully acknowledge several colleagues who have allowed us to
 interface, adapt or use parts of their codes:
   Stefan Grimme, W. Hujo, H. Kruse, P. Pracht,  : VdW corrections, initial TS optimization,
                  C. Bannwarth, S. Ehlert          DFT functionals, gCP, sTDA/sTD-DF
   Ed Valeev, F. Pavosevic, A. Kumar             : LibInt (2-el integral package), F12 methods
   Garnet Chan, S. Sharma, J. Yang, R. Olivares  : DMRG
   Ulf Ekstrom                                   : XCFun DFT Library
   Mihaly Kallay                                 : mrcc  (arbitrary order and MRCC methods)
   Jiri Pittner, Ondrej Demel                    : Mk-CCSD
   Frank Weinhold                                : gennbo (NPA and NBO analysis)
   Christopher J. Cramer and Donald G. Truhlar   : smd solvation model
   Lars Goerigk                                  : TD-DFT with DH, B97 family of functionals
   V. Asgeirsson, H. Jonsson                     : NEB implementation
   FAccTs GmbH                                   : IRC, NEB, NEB-TS, DLPNO-Multilevel, CI-OPT
                                                   MM, QMMM, 2- and 3-layer-ONIOM, Crystal-QMMM,
                                                   LR-CPCM, SF, NACMEs, symmetry and pop. for TD-DFT,
                                                   nearIR, NL-DFT gradient (VV10), updates on ESD,
                                                   ML-optimized integration grids
   S Lehtola, MJT Oliveira, MAL Marques          : LibXC Library
   Liviu Ungur et al                             : ANISO software


 Your calculation uses the libint2 library for the computation of 2-el integrals
 For citations please refer to: http://libint.valeyev.net

 Your ORCA version has been built with support for libXC version: 5.1.0
 For citations please refer to: https://tddft.org/programs/libxc/

 This ORCA versions uses:
   CBLAS   interface :  Fast vector & matrix operations
   LAPACKE interface :  Fast linear algebra routines
   SCALAPACK package :  Parallel linear algebra routines
   Shared memory     :  Shared parallel matrices
   BLAS/LAPACK       :  OpenBLAS 0.3.15  USE64BITINT DYNAMIC_ARCH NO_AFFINITY Zen SINGLE_THREADED
        Core in use  :  Zen
   Copyright (c) 2011-2014, The OpenBLAS Project


================================================================================

----- Orbital basis set information -----
Your calculation utilizes the basis: 3-21G
   H-Ne       : J. S. Binkley, J. A. Pople and W. J. Hehre, J. Am. Chem. Soc. 102 939 (1980).
   Na-Ar      : M. S. Gordon, J. S. Binkley, J. A. Pople, W. J. Pietro and W.J. Hehre, J. Am. Chem. Soc. 104, 2797 (1983).
   K-Ca, Ga-Kr: K. D. Dobbs and W. J. Hehre, J. Comput. Chem. 7, 359 (1986).
   Sc-Zn      : K. D. Dobbs and W. J. Hehre, J. Comput. Chem. 8, 861 (1987).
   Y-Cd       : K. D. Dobbs and W. J. Hehre, J. Comput. Chem. 8, 880 (1987).

================================================================================
                                        WARNINGS
                       Please study these warnings very carefully!
================================================================================


INFO   : the flag for use of the SHARK integral package has been found!

================================================================================
                                       INPUT FILE
================================================================================
NAME = JOBS/3_B.inp
|  1> %pal nprocs 28 end
|  2> %maxcore 1000 
|  3> ! hf 3-21g engrad 
|  4> !moread 
|  5>  %moinp "JOBS/b.gbw"
|  6>  
|  7> 
|  8>  *xyz 0 1
|  9> c  1.302859673852051  0.22129431933042176  -1.0341946215447866e-08
| 10> h  1.9329968613138688  -0.6429836718877585  5.170271040163645e-09
| 11> h  0.27797248543966757  0.5273252166813368  5.171933818117666e-09
| 12> *
| 13> % casscf nel 2 norb 2 nroots 2 weights[0] = 0,1
| 14> maxiter 200
| 15> orbstep superci_pt 
| 16> switchstep diis 
| 17> shiftup 2.0 
| 18> shiftdn 2.0 
| 19> minshift 0.6 
| 20> end
| 21> 
| 22> 
| 23>                          ****END OF INPUT****
================================================================================

                     *******************************
                     * Energy+Gradient Calculation *
                     *******************************

---------------------------------
CARTESIAN COORDINATES (ANGSTROEM)
---------------------------------
  C      1.302860    0.221294   -0.000000
  H      1.932997   -0.642984    0.000000
  H      0.277972    0.527325    0.000000

----------------------------
CARTESIAN COORDINATES (A.U.)
----------------------------
  NO LB      ZA    FRAG     MASS         X           Y           Z
   0 C     6.0000    0    12.011    2.462048    0.418186   -0.000000
   1 H     1.0000    0     1.008    3.652835   -1.215063    0.000000
   2 H     1.0000    0     1.008    0.525292    0.996500    0.000000

--------------------------------
INTERNAL COORDINATES (ANGSTROEM)
--------------------------------
 C      0   0   0     0.000000000000     0.00000000     0.00000000
 H      1   0   0     1.069602412641     0.00000000     0.00000000
 H      1   2   0     1.069602103170   142.72105190     0.00000000

---------------------------
INTERNAL COORDINATES (A.U.)
---------------------------
 C      0   0   0     0.000000000000     0.00000000     0.00000000
 H      1   0   0     2.021255632072     0.00000000     0.00000000
 H      1   2   0     2.021255047257   142.72105190     0.00000000

---------------------
BASIS SET INFORMATION
---------------------
There are 2 groups of distinct atoms

 Group   1 Type C   : 6s3p contracted to 3s2p pattern {321/21}
 Group   2 Type H   : 3s contracted to 2s pattern {21}

Atom   0C    basis set group =>   1
Atom   1H    basis set group =>   2
Atom   2H    basis set group =>   2


           ************************************************************
           *        Program running with 28 parallel MPI-processes    *
           *              working on a common directory               *
           ************************************************************
------------------------------------------------------------------------------
                           ORCA GTO INTEGRAL CALCULATION
------------------------------------------------------------------------------
------------------------------------------------------------------------------
                   ___                                                        
                  /   \      - P O W E R E D   B Y -                         
                 /     \                                                     
                 |  |  |   _    _      __       _____    __    __             
                 |  |  |  | |  | |    /  \     |  _  \  |  |  /  |          
                  \  \/   | |  | |   /    \    | | | |  |  | /  /          
                 / \  \   | |__| |  /  /\  \   | |_| |  |  |/  /          
                |  |  |   |  __  | /  /__\  \  |    /   |      \           
                |  |  |   | |  | | |   __   |  |    \   |  |\   \          
                \     /   | |  | | |  |  |  |  | |\  \  |  | \   \       
                 \___/    |_|  |_| |__|  |__|  |_| \__\ |__|  \__/        
                                                                              
                      - O R C A' S   B I G   F R I E N D -                    
                                      &                                       
                       - I N T E G R A L  F E E D E R -                       
                                                                              
 v1 FN, 2020, v2 2021                                                         
------------------------------------------------------------------------------


Reading SHARK input file JOBS/3_B.SHARKINP.tmp ... ok
----------------------
SHARK INTEGRAL PACKAGE
----------------------

Number of atoms                             ...      3
Number of basis functions                   ...     13
Number of shells                            ...      9
Maximum angular momentum                    ...      1
Integral batch strategy                     ... SHARK/LIBINT Hybrid
RI-J (if used) integral strategy            ... SPLIT-RIJ (Revised 2003 algorithm where possible)
Printlevel                                  ...      1
Contraction scheme used                     ... SEGMENTED contraction
Coulomb Range Separation                    ... NOT USED
Exchange Range Separation                   ... NOT USED
Finite Nucleus Model                        ... NOT USED
Auxiliary Coulomb fitting basis             ... NOT available
Auxiliary J/K fitting basis                 ... NOT available
Auxiliary Correlation fitting basis         ... NOT available
Auxiliary 'external' fitting basis          ... NOT available
Integral threshold                          ...     2.500000e-11
Primitive cut-off                           ...     2.500000e-12
Primitive pair pre-selection threshold      ...     2.500000e-12

Calculating pre-screening integrals         ... done (  0.0 sec) Dimension = 9
Organizing shell pair data                  ... done (  0.0 sec)
Shell pair information
Total number of shell pairs                 ...        45
Shell pairs after pre-screening             ...        45
Total number of primitive shell pairs       ...       127
Primitive shell pairs kept                  ...       126
          la=0 lb=0:     28 shell pairs
          la=1 lb=0:     14 shell pairs
          la=1 lb=1:      3 shell pairs

Calculating one electron integrals          ... done (  0.0 sec)
Calculating Nuclear repulsion               ... done (  0.0 sec) ENN=      6.197968789050 Eh

SHARK setup successfully completed in   0.0 seconds

Maximum memory used throughout the entire GTOINT-calculation: 3.8 MB


           ************************************************************
           *        Program running with 28 parallel MPI-processes    *
           *              working on a common directory               *
           ************************************************************
-------------------------------------------------------------------------------
                                 ORCA SCF
-------------------------------------------------------------------------------

------------
SCF SETTINGS
------------
Hamiltonian:
 Ab initio Hamiltonian  Method          .... Hartree-Fock(GTOs)


General Settings:
 Integral files         IntName         .... JOBS/3_B
 Hartree-Fock type      HFTyp           .... CASSCF
 Total Charge           Charge          ....    0
 Multiplicity           Mult            ....    1
 Number of Electrons    NEL             ....    8
 Basis Dimension        Dim             ....   13
 Nuclear Repulsion      ENuc            ....      6.1979687891 Eh


Diagonalization of the overlap matrix:
Smallest eigenvalue                        ... 5.791e-02
Time for diagonalization                   ...    0.000 sec
Threshold for overlap eigenvalues          ... 1.000e-08
Number of eigenvalues below threshold      ... 0
Time for construction of square roots      ...    0.000 sec
Total time needed                          ...    0.001 sec

---------------------
INITIAL GUESS: MOREAD
---------------------
Guess MOs are being read from file: JOBS/b.gbw
Input geometry compatible with but different from current geometry
Input basis set matches current basis set (good)
MOs were renormalized
Gram-Schmidt orthogonalization of all MOs with pivot on actives
                      ------------------
                      INITIAL GUESS DONE (   0.0 sec)
                      ------------------


 ... the calculation is a CASSCF calculation -I'm leaving here GOOD LUCK!!!



           ************************************************************
           *        Program running with 28 parallel MPI-processes    *
           *              working on a common directory               *
           ************************************************************
-------------------------------------------------------------------------------
                              ORCA-CASSCF
-------------------------------------------------------------------------------

Setting up the integral package       ... done
Building the CAS space                ... done (3 configurations for Mult=1)

SYSTEM-SPECIFIC SETTINGS:
Number of active electrons          ...    2
Number of active orbitals           ...    2
Total number of electrons           ...    8
Total number of orbitals            ...   13

Determined orbital ranges:
   Internal       0 -    2 (   3 orbitals)
   Active         3 -    4 (   2 orbitals)
   External       5 -   12 (   8 orbitals)
Number of rotation parameters      ...     46

CI-STEP:
CI strategy                         ... General CI
Number of multiplicity blocks       ...    1
BLOCK  1 WEIGHT=   1.0000
  Multiplicity                      ...    1
  #(Configurations)                 ...    3
  #(CSFs)                           ...    3
  #(Roots)                          ...    2
    ROOT=0 WEIGHT=    0.000000
    ROOT=1 WEIGHT=    1.000000

  PrintLevel                        ...    1
  N(GuessMat)                       ...       512
  MaxDim(CI)                        ...        10
  MaxIter(CI)                       ...        64
  Energy Tolerance CI               ...  2.50e-09
  Residual Tolerance CI             ...  2.50e-09
  Shift(CI)                         ...  1.00e-04

INTEGRAL-TRANSFORMATION-STEP:
  Algorithm                         ... EXACT

ORBITAL-IMPROVEMENT-STEP:
  Algorithm                         ... SuperCI(PT)
  Default Parametrization           ... CAYLEY
  Act-Act rotations                 ... depends on algorithm used
  FreezeIE                          ... 95.00% of ||g||
  Until reaching FreezeIE rotations with active orbitals are damped. 

  Approx. Fock at                   ... 0.000000e+00 density convergence
  Upward level shift                ...  2.00e+00 
  Downward level shift              ...  2.00e+00 

  Note: SuperCI(PT) will ignore FreezeIE, FreezeAct and FreezeGrad. In general Default settings are encouraged.
        In conjunction with ShiftUp, ShiftDn or GradScaling the performance of SuperCI(PT) is less optimal.  

  MaxRot                            ... 2.00e-01 
  Max. no of vectors (DIIS)         ... 15
  DThresh (cut-off) metric          ... 1.00e-06
  Switch step at gradient           ...  3.00e-02 
  Switch step at iteration          ...        50   
  Switch step to                    ... DIIS    

SCF-SETTINGS:
  Incremental                       ... on
  RIJCOSX approximation             ... off
  RI-JK approximation               ... off
  AO integral handling              ... DIRECT
  Integral Neglect Thresh           ...  2.50e-11
  Primitive cutoff TCut             ...  2.50e-12
  Energy convergence tolerance      ...  2.50e-08
  Orbital gradient convergence      ...  2.50e-04
  Max. number of iterations         ...       200  


FINAL ORBITALS:
  Active   Orbitals                 ... natural 
  Internal Orbitals                 ... canonical 
  External Orbitals                 ... canonical 

------------------
CAS-SCF ITERATIONS
------------------


MACRO-ITERATION   1: 
   --- Inactive Energy E0 = -37.40225338 Eh
CI-ITERATION   0: 
   -38.640520652   0.000000000000 (    0.00)
   -38.629077715   0.000000000000
   CI-PROBLEM SOLVED
   DENSITIES MADE

                 <<<<<<<<<<<<<<<<<<INITIAL CI STATE CHECK>>>>>>>>>>>>>>>>>>

BLOCK  1 MULT= 1 NROOTS= 2 
ROOT   0:  E=     -38.6405206515 Eh
      0.90203 [     1]: 11
      0.05264 [     2]: 02
      0.04533 [     0]: 20
ROOT   1:  E=     -38.6290777149 Eh  0.311 eV   2511.4 cm**-1
      0.49992 [     0]: 20
      0.49992 [     2]: 02

                 <<<<<<<<<<<<<<<<<<INITIAL CI STATE CHECK>>>>>>>>>>>>>>>>>>

   E(CAS)=   -38.629077715 Eh DE=    0.000000e+00
   --- Energy gap subspaces: Ext-Act = 0.397   Act-Int = 0.497
   N(occ)=  1.00000 1.00000
   ||g|| =     1.056695e-01 Max(G)=   -4.258269e-02 Rot=7,0
   --- Orbital Update [SuperCI(PT)]
   --- Canonicalize Internal Space
   --- Canonicalize External Space
   --- SX_PT (Skipped TA=0 IT=0): ||X|| =      0.036229268 Max(X)(4,1) =      0.021463758 
   --- SFit(Active Orbitals)

MACRO-ITERATION   2: 
   --- Inactive Energy E0 = -37.40917153 Eh
CI-ITERATION   0: 
   -38.640793794   0.000000000000 (    0.00)
   -38.631014750   0.000000000000
   CI-PROBLEM SOLVED
   DENSITIES MADE
   E(CAS)=   -38.631014750 Eh DE=   -1.937035e-03
   --- Energy gap subspaces: Ext-Act = 0.395   Act-Int = 0.501
   N(occ)=  1.00000 1.00000
   ||g|| =     2.410067e-02 Max(G)=   -1.244111e-02 Rot=4,1
   --- Orbital Update [SuperCI(PT)]
   --- Canonicalize Internal Space
   --- Canonicalize External Space
   --- SX_PT (Skipped TA=0 IT=0): ||X|| =      0.011066700 Max(X)(4,1) =      0.006445555 
   --- SFit(Active Orbitals)

MACRO-ITERATION   3: 
   ===>>> Convergence to 3.0e-02 achieved - switching to Step=DIIS
   --- Inactive Energy E0 = -37.41106013 Eh
CI-ITERATION   0: 
   -38.640541864   0.000000000000 (    0.00)
   -38.631200495   0.000000000000
   CI-PROBLEM SOLVED
   DENSITIES MADE
   E(CAS)=   -38.631200495 Eh DE=   -1.857448e-04
   --- Energy gap subspaces: Ext-Act = 0.394   Act-Int = 0.502
   N(occ)=  1.00000 1.00000
   ||g|| =     3.697232e-03 Max(G)=    1.656331e-03 Rot=7,1
   --- Orbital Update [      DIIS]
   --- SFit(Active Orbitals)

MACRO-ITERATION   4: 
   --- Inactive Energy E0 = -37.41116792 Eh
CI-ITERATION   0: 
   -38.640546126   0.000000000000 (    0.00)
   -38.631203123   0.000000000000
   CI-PROBLEM SOLVED
   DENSITIES MADE
   E(CAS)=   -38.631203123 Eh DE=   -2.628666e-06
   --- Energy gap subspaces: Ext-Act = 0.394   Act-Int = 0.502
   N(occ)=  1.00000 1.00000
   ||g|| =     2.169226e-03 Max(G)=   -9.000777e-04 Rot=7,0
   --- Orbital Update [      DIIS]
   --- SFit(Active Orbitals)

MACRO-ITERATION   5: 
   --- Inactive Energy E0 = -37.41122390 Eh
CI-ITERATION   0: 
   -38.640541806   0.000000000000 (    0.00)
   -38.631204217   0.000000000000
   CI-PROBLEM SOLVED
   DENSITIES MADE
   E(CAS)=   -38.631204217 Eh DE=   -1.093462e-06
   --- Energy gap subspaces: Ext-Act = 0.394   Act-Int = 0.502
   N(occ)=  1.00000 1.00000
   ||g|| =     1.790050e-03 Max(G)=    1.237938e-03 Rot=7,0
   --- Orbital Update [      DIIS]
   --- SFit(Active Orbitals)

MACRO-ITERATION   6: 
   --- Inactive Energy E0 = -37.41125805 Eh
CI-ITERATION   0: 
   -38.640538613   0.000000000000 (    0.00)
   -38.631204715   0.000000000000
   CI-PROBLEM SOLVED
   DENSITIES MADE
   E(CAS)=   -38.631204715 Eh DE=   -4.987727e-07
   --- Energy gap subspaces: Ext-Act = 0.394   Act-Int = 0.502
   N(occ)=  1.00000 1.00000
   ||g|| =     5.074504e-04 Max(G)=   -2.795224e-04 Rot=5,4
   --- Orbital Update [      DIIS]
   --- SFit(Active Orbitals)

MACRO-ITERATION   7: 
   --- Inactive Energy E0 = -37.41124730 Eh
CI-ITERATION   0: 
   -38.640534434   0.000000000000 (    0.00)
   -38.631204809   0.000000000000
   CI-PROBLEM SOLVED
   DENSITIES MADE
   E(CAS)=   -38.631204809 Eh DE=   -9.324124e-08
   --- Energy gap subspaces: Ext-Act = 0.394   Act-Int = 0.502
   N(occ)=  1.00000 1.00000
   ||g|| =     2.813371e-04 Max(G)=    1.377566e-04 Rot=5,4
   --- Orbital Update [      DIIS]
   --- SFit(Active Orbitals)

MACRO-ITERATION   8: 
   --- Inactive Energy E0 = -37.41123415 Eh
CI-ITERATION   0: 
   -38.640531683   0.000000000000 (    0.00)
   -38.631204834   0.000000000000
   CI-PROBLEM SOLVED
   DENSITIES MADE
   E(CAS)=   -38.631204834 Eh DE=   -2.508258e-08
   --- Energy gap subspaces: Ext-Act = 0.394   Act-Int = 0.502
   N(occ)=  1.00000 1.00000
   ||g|| =     1.128811e-04 Max(G)=   -5.534241e-05 Rot=5,4
                     ---- THE CAS-SCF GRADIENT HAS CONVERGED ----
                            --- FINALIZING ORBITALS ---
                    ---- DOING ONE FINAL ITERATION FOR PRINTING ----
   --- Forming Natural Orbitals
   --- Canonicalize Internal Space
   --- Canonicalize External Space

MACRO-ITERATION   9: 
   --- Inactive Energy E0 = -37.41123415 Eh
   --- All densities will be recomputed
CI-ITERATION   0: 
   -38.640531683   0.000000000000 (    0.00)
   -38.631204834   0.000000000000
   CI-PROBLEM SOLVED
   DENSITIES MADE
   E(CAS)=   -38.631204834 Eh DE=    3.510081e-12
   --- Energy gap subspaces: Ext-Act = 0.392   Act-Int = 0.502
   N(occ)=  1.00000 1.00000
   ||g|| =     1.128811e-04 Max(G)=   -5.636788e-05 Rot=5,4
--------------
CASSCF RESULTS
--------------

Final CASSCF energy       : -38.631204834 Eh   -1051.2085 eV

----------------
ORBITAL ENERGIES
----------------

  NO   OCC          E(Eh)            E(eV) 
   0   2.0000     -11.185301      -304.3675 
   1   2.0000      -0.855066       -23.2675 
   2   2.0000      -0.615582       -16.7508 
   3   1.0000      -0.113539        -3.0895 
   4   1.0000      -0.113539        -3.0895 
   5   0.0000       0.278903         7.5893 
   6   0.0000       0.380145        10.3443 
   7   0.0000       0.953478        25.9455 
   8   0.0000       0.999175        27.1889 
   9   0.0000       1.055297        28.7161 
  10   0.0000       1.070987        29.1430 
  11   0.0000       1.394605        37.9491 
  12   0.0000       1.625106        44.2214 


---------------------------------------------
CAS-SCF STATES FOR BLOCK  1 MULT= 1 NROOTS= 2
---------------------------------------------

ROOT   0:  E=     -38.6405316831 Eh
      0.90538 [     1]: 11
      0.04731 [     2]: 02
      0.04731 [     0]: 20
ROOT   1:  E=     -38.6312048338 Eh  0.254 eV   2047.0 cm**-1
      0.50000 [     0]: 20
      0.50000 [     2]: 02


--------------
DENSITY MATRIX
--------------

                  0          1    
      0       1.000000  -0.000000
      1      -0.000000   1.000000
Trace of the electron density:  2.000000

-----------------
ENERGY COMPONENTS
-----------------

One electron energy          :    -63.656607313 Eh       -1732.1843 eV
Two electron energy          :     18.827433690 Eh         512.3205 eV
Nuclear repulsion energy     :      6.197968789 Eh         168.6553 eV
                               ----------------
                                  -38.631204834

Kinetic energy               :     38.538380407 Eh        1048.6826 eV
Potential energy             :    -77.169585241 Eh       -2099.8912 eV
Virial ratio                 :     -2.002408623 
                               ----------------
                                  -38.631204834

Core energy                  :    -37.411234151 Eh    -1018.0114 eV


----------------------------
LOEWDIN ORBITAL-COMPOSITIONS
----------------------------

                      0         1         2         3         4         5   
                 -11.18530  -0.85507  -0.61558  -0.11354  -0.11354   0.27890
                   2.00000   2.00000   2.00000   1.00000   1.00000   0.00000
                  --------  --------  --------  --------  --------  --------
 0 C  s              99.8      57.7       0.0       3.1       3.1      35.2
 0 C  pz              0.0       0.0       0.0      50.0      50.0       0.0
 0 C  px              0.0       0.4      36.7      15.2      15.2       2.0
 0 C  py              0.0       0.8      18.4      30.4      30.4       4.1
 1 H  s               0.1      20.6      22.5       0.6       0.6      29.4
 2 H  s               0.1      20.6      22.5       0.6       0.6      29.4

                      6         7         8         9        10        11   
                   0.38015   0.95348   0.99917   1.05530   1.07099   1.39461
                   0.00000   0.00000   0.00000   0.00000   0.00000   0.00000
                  --------  --------  --------  --------  --------  --------
 0 C  s               0.0       3.0       0.0       0.0       9.7       0.0
 0 C  pz              0.0       0.0     100.0       0.0       0.0       0.0
 0 C  px             20.5      20.3       0.0      55.1      13.3      21.0
 0 C  py             10.3      40.6       0.0      27.6      26.6      10.5
 1 H  s              34.6      18.0       0.0       8.7      25.2      34.2
 2 H  s              34.6      18.0       0.0       8.7      25.2      34.2

                     12   
                   1.62511
                   0.00000
                  --------
 0 C  s              88.3
 0 C  px              0.2
 0 C  py              0.4
 1 H  s               5.5
 2 H  s               5.5

----------------------------
LOEWDIN REDUCED ACTIVE MOs  
----------------------------

                      0         1         2         3         4         5   
                 -11.18530  -0.85507  -0.61558  -0.11354  -0.11354   0.27890
                   2.00000   2.00000   2.00000   1.00000   1.00000   0.00000
                  --------  --------  --------  --------  --------  --------
 0 C  s              99.8      57.7       0.0       3.1       3.1      35.2
 0 C  pz              0.0       0.0       0.0      50.0      50.0       0.0
 0 C  px              0.0       0.4      36.7      15.2      15.2       2.0
 0 C  py              0.0       0.8      18.4      30.4      30.4       4.1
 1 H  s               0.1      20.6      22.5       0.6       0.6      29.4
 2 H  s               0.1      20.6      22.5       0.6       0.6      29.4

------------------------------------------------------------------------------
                           ORCA POPULATION ANALYSIS
------------------------------------------------------------------------------
Input electron density              ... JOBS/3_B.scfp
BaseName (.gbw .S,...)              ... JOBS/3_B

                    ********************************
                    * MULLIKEN POPULATION ANALYSIS *
                    ********************************

-----------------------
MULLIKEN ATOMIC CHARGES
-----------------------
   0 C :   -0.484942
   1 H :    0.242471
   2 H :    0.242471
Sum of atomic charges:   -0.0000000

--------------------------------
MULLIKEN REDUCED ORBITAL CHARGES
--------------------------------
  0 C s       :     3.482427  s :     3.482427
      pz      :     1.000000  p :     3.002515
      px      :     1.023719
      py      :     0.978796
  1 H s       :     0.757529  s :     0.757529
  2 H s       :     0.757529  s :     0.757529


                     *******************************
                     * LOEWDIN POPULATION ANALYSIS *
                     *******************************

----------------------
LOEWDIN ATOMIC CHARGES
----------------------
   0 C :   -0.250010
   1 H :    0.125005
   2 H :    0.125005

-------------------------------
LOEWDIN REDUCED ORBITAL CHARGES
-------------------------------
  0 C s       :     3.213317  s :     3.213317
      pz      :     1.000000  p :     3.036692
      px      :     1.045931
      py      :     0.990761
  1 H s       :     0.874995  s :     0.874995
  2 H s       :     0.874995  s :     0.874995


                      *****************************
                      * MAYER POPULATION ANALYSIS *
                      *****************************

  NA   - Mulliken gross atomic population
  ZA   - Total nuclear charge
  QA   - Mulliken gross atomic charge
  VA   - Mayer's total valence
  BVA  - Mayer's bonded valence
  FA   - Mayer's free valence

  ATOM       NA         ZA         QA         VA         BVA        FA
  0 C      6.4849     6.0000    -0.4849     3.7567     1.7863     1.9704
  1 H      0.7575     1.0000     0.2425     0.9207     0.9059     0.0148
  2 H      0.7575     1.0000     0.2425     0.9207     0.9059     0.0148

  Mayer bond orders larger than 0.100000
B(  0-C ,  1-H ) :   0.8931 B(  0-C ,  2-H ) :   0.8931 


-------------------------------------------------------------
 Forming the transition density       ... done in 0.000340 sec
-------------------------------------------------------------



==========================================
CASSCF UV, CD spectra and dipole moments
==========================================
-------------------
ABSORPTION SPECTRUM
-------------------

Center of mass           = (  2.4084,  0.3424, -0.0000)
Nuclear contribution to the dipole moment =    -0.317118,   -0.448462,    0.000000 au

Calculating the Dipole integrals                  ... done
Transforming integrals                            ... done
Calculating the Linear Momentum integrals         ... done
Transforming integrals                            ... done
Calculating the Angular Momentum integrals        ... done
Transforming integrals                            ... done

------------------------------------------------------------------------------------------
                                ABSORPTION SPECTRUM
------------------------------------------------------------------------------------------
  States           Energy   Wavelength   fosc          T2        TX         TY        TZ  
                   (cm-1)     (nm)                   (D**2)      (D)        (D)       (D) 
------------------------------------------------------------------------------------------
  0( 0)-> 1( 0) 1    2047.0   4885.2   0.000112564   0.11677  -0.00000  -0.00000  -0.34172
------------------------------------------------------------------------------------------



------------------------------------------------------------------------------
                             CD SPECTRUM
------------------------------------------------------------------------------
      States        Energy   Wavelength   R*T        RX        RY        RZ   
                    (cm-1)      (nm)   (1e40*sgs)   (au)      (au)      (au)  
------------------------------------------------------------------------------
  0( 0)-> 1( 0) 1    2047.0   4885.2     0.00000   0.75914  -0.53680  -0.00000
------------------------------------------------------------------------------

------------------------------------------------------------------------------
                                 DIPOLE MOMENTS
------------------------------------------------------------------------------
  Root  Block           TX        TY        TZ           |T|
                      (Debye)   (Debye)   (Debye)      (Debye)
------------------------------------------------------------------------------
    0    0           -0.85620  -1.21082   0.00000      1.48295

--------------
CASSCF TIMINGS
--------------

Total time                       ...        0.2 sec
Sum of individual times          ...        0.1 sec ( 39.1%)

Calculation of AO operators
   F(Core) operator              ...        0.0 sec (  1.8%)
   G(Act) operator               ...        0.0 sec (  1.3%)
   J(AO) operators               ...        0.0 sec (  0.0%)
Calculation of MO transformed quantities
   J(MO) operators               ...        0.0 sec ( 26.0%)
   (pq|rs) integrals             ...        0.0 sec (  0.0%)
   AO->MO one electron integrals ...        0.0 sec (  0.0%)
Configuration interaction steps
   CI-setup phase                ...        0.0 sec (  0.1%)
   CI-solution phase             ...        0.0 sec (  8.3%)
   Generation of densities       ...        0.0 sec (  0.3%)
Orbital improvement steps
   Orbital gradient              ...        0.0 sec (  0.4%)
   O(1) converger                ...        0.0 sec (  0.7%)
Properties                       ...        0.0 sec (  0.2%)
   SOC integral calculation      ...        0.0 sec (  0.0%)
   SSC RMEs (incl. integrals)    ...        0.0 sec (  0.0%)
   SOC RMEs                      ...        0.0 sec (  0.0%)

Maximum memory used throughout the entire CASSCF-calculation: 58.3 MB

-------------------------   --------------------
FINAL SINGLE POINT ENERGY       -38.631204833806
-------------------------   --------------------



           ************************************************************
           *        Program running with 28 parallel MPI-processes    *
           *              working on a common directory               *
           ************************************************************
------------------------------------------------------------------------------
                         ORCA SCF GRADIENT CALCULATION
------------------------------------------------------------------------------

Gradient of the Hartree-Fock SCF energy:
Hartree-Fock type                ... CASSCF
Number of electrons in CAS       ... 2
Number of orbitals in CAS        ... 2
File with 1- and 2el densities   ... JOBS/3_B.casp.tmp
Number of operators              ...    1
Number of atoms                  ...    3
Basis set dimensions             ...   13
Integral neglect threshold       ... 2.5e-11
Integral primitive cutoff        ... 2.5e-12
SHARK Integral package           ... ON

Nuc. rep. gradient       (SHARK) ... done (  0.0 sec)
HCore & Overlap gradient (SHARK) ... done (  0.0 sec)
Two-Electron gradient    (SHARK) ... done (  0.0 sec)

------------------
CARTESIAN GRADIENT
------------------

   1   C   :    0.003440855    0.004866383    0.000000007
   2   H   :    0.000196417   -0.003788687   -0.000000003
   3   H   :   -0.003637272   -0.001077696   -0.000000003

Difference to translation invariance:
           :    0.0000000000    0.0000000000    0.0000000000

Difference to rotation invariance:
           :    0.0000000037   -0.0000000026    0.0000000009

Norm of the cartesian gradient     ...    0.0080190444
RMS gradient                       ...    0.0026730148
MAX gradient                       ...    0.0048663831

-------
TIMINGS
-------

Total SCF gradient time            ...        0.022 sec

One electron gradient       ....       0.001 sec  (  4.7%)
Two electron gradient       ....       0.001 sec  (  5.0%)

Maximum memory used throughout the entire SCFGRAD-calculation: 6.2 MB

                            ***************************************
                            *     ORCA property calculations      *
                            ***************************************

                                    ---------------------
                                    Active property flags
                                    ---------------------
   (+) Dipole Moment


------------------------------------------------------------------------------
                       ORCA ELECTRIC PROPERTIES CALCULATION
------------------------------------------------------------------------------

Dipole Moment Calculation                       ... on
Quadrupole Moment Calculation                   ... off
Polarizability Calculation                      ... off
GBWName                                         ... JOBS/3_B.gbw
Electron density                                ... JOBS/3_B.scfp
The origin for moment calculation is the CENTER OF MASS  = ( 2.408442,  0.342377 -0.000000)

-------------
DIPOLE MOMENT
-------------
                                X             Y             Z
Electronic contribution:      0.11097       0.15692      -0.00000
Nuclear contribution   :     -0.31712      -0.44846       0.00000
                        -----------------------------------------
Total Dipole Moment    :     -0.20615      -0.29154       0.00000
                        -----------------------------------------
Magnitude (a.u.)       :      0.35706
Magnitude (Debye)      :      0.90758



--------------------
Rotational spectrum 
--------------------
 
Rotational constants in cm-1:    83.560433     8.140647     7.417971 
Rotational constants in MHz : 2505078.764412 244050.451008 222385.182492 

 Dipole components along the rotational axes: 
x,y,z [a.u.] :     0.000000    -0.357061    -0.000000 
x,y,z [Debye]:     0.000000    -0.907578    -0.000000 

 

Timings for individual modules:

Sum of individual times         ...        3.932 sec (=   0.066 min)
GTO integral calculation        ...        0.266 sec (=   0.004 min)   6.8 %
SCF iterations                  ...        0.269 sec (=   0.004 min)   6.8 %
CASSCF iterations               ...        3.114 sec (=   0.052 min)  79.2 %
SCF Gradient evaluation         ...        0.284 sec (=   0.005 min)   7.2 %
                             ****ORCA TERMINATED NORMALLY****
TOTAL RUN TIME: 0 days 0 hours 0 minutes 4 seconds 243 msec
