 Entering Gaussian System, Link 0=g16
 Input=JOBS/41_B.gjf
 Output=JOBS/41_B.log
 Initial command:
 /data/app/gaussian/C01-avx2//g16/l1.exe "/tmp/Gau-2108300.inp" -scrdir="/tmp/"
 Entering Link 1 = /data/app/gaussian/C01-avx2//g16/l1.exe PID=   2108301.
  
 Copyright (c) 1988-2019, Gaussian, Inc.  All Rights Reserved.
  
 This is part of the Gaussian(R) 16 program.  It is based on
 the Gaussian(R) 09 system (copyright 2009, Gaussian, Inc.),
 the Gaussian(R) 03 system (copyright 2003, Gaussian, Inc.),
 the Gaussian(R) 98 system (copyright 1998, Gaussian, Inc.),
 the Gaussian(R) 94 system (copyright 1995, Gaussian, Inc.),
 the Gaussian 92(TM) system (copyright 1992, Gaussian, Inc.),
 the Gaussian 90(TM) system (copyright 1990, Gaussian, Inc.),
 the Gaussian 88(TM) system (copyright 1988, Gaussian, Inc.),
 the Gaussian 86(TM) system (copyright 1986, Carnegie Mellon
 University), and the Gaussian 82(TM) system (copyright 1983,
 Carnegie Mellon University). Gaussian is a federally registered
 trademark of Gaussian, Inc.
  
 This software contains proprietary and confidential information,
 including trade secrets, belonging to Gaussian, Inc.
  
 This software is provided under written license and may be
 used, copied, transmitted, or stored only in accord with that
 written license.
  
 The following legend is applicable only to US Government
 contracts under FAR:
  
                    RESTRICTED RIGHTS LEGEND
  
 Use, reproduction and disclosure by the US Government is
 subject to restrictions as set forth in subparagraphs (a)
 and (c) of the Commercial Computer Software - Restricted
 Rights clause in FAR 52.227-19.
  
 Gaussian, Inc.
 340 Quinnipiac St., Bldg. 40, Wallingford CT 06492
  
  
 ---------------------------------------------------------------
 Warning -- This program may not be used in any manner that
 competes with the business of Gaussian, Inc. or will provide
 assistance to any competitor of Gaussian, Inc.  The licensee
 of this program is prohibited from giving any competitor of
 Gaussian, Inc. access to this program.  By using this program,
 the user acknowledges that Gaussian, Inc. is engaged in the
 business of creating and licensing software in the field of
 computational chemistry and represents and warrants to the
 licensee that it is not a competitor of Gaussian, Inc. and that
 it will not use this program in any manner prohibited above.
 ---------------------------------------------------------------
  

 Cite this work as:
 Gaussian 16, Revision C.01,
 M. J. Frisch, G. W. Trucks, H. B. Schlegel, G. E. Scuseria, 
 M. A. Robb, J. R. Cheeseman, G. Scalmani, V. Barone, 
 G. A. Petersson, H. Nakatsuji, X. Li, M. Caricato, A. V. Marenich, 
 J. Bloino, B. G. Janesko, R. Gomperts, B. Mennucci, H. P. Hratchian, 
 J. V. Ortiz, A. F. Izmaylov, J. L. Sonnenberg, D. Williams-Young, 
 F. Ding, F. Lipparini, F. Egidi, J. Goings, B. Peng, A. Petrone, 
 T. Henderson, D. Ranasinghe, V. G. Zakrzewski, J. Gao, N. Rega, 
 G. Zheng, W. Liang, M. Hada, M. Ehara, K. Toyota, R. Fukuda, 
 J. Hasegawa, M. Ishida, T. Nakajima, Y. Honda, O. Kitao, H. Nakai, 
 T. Vreven, K. Throssell, J. A. Montgomery, Jr., J. E. Peralta, 
 F. Ogliaro, M. J. Bearpark, J. J. Heyd, E. N. Brothers, K. N. Kudin, 
 V. N. Staroverov, T. A. Keith, R. Kobayashi, J. Normand, 
 K. Raghavachari, A. P. Rendell, J. C. Burant, S. S. Iyengar, 
 J. Tomasi, M. Cossi, J. M. Millam, M. Klene, C. Adamo, R. Cammi, 
 J. W. Ochterski, R. L. Martin, K. Morokuma, O. Farkas, 
 J. B. Foresman, and D. J. Fox, Gaussian, Inc., Wallingford CT, 2019.
 
 ******************************************
 Gaussian 16:  ES64L-G16RevC.01  3-Jul-2019
                17-Jul-2024 
 ******************************************
 %chk=b.chk
 %nprocshared=56
 Will use up to   56 processors via shared memory.
 %mem=96gb
 ----------------------------------------------------------------------
 # pbe1pbe em=gd3bj genecp g09default scf=(xqc,maxcycle=64) force guess
 =read nosymm
 ----------------------------------------------------------------------
 1/10=7,30=1,38=1,158=3,167=1/1,3;
 2/12=2,15=1,17=6,18=5,40=1/2;
 3/5=7,11=2,16=1,17=8,25=1,27=10,30=1,71=1,74=-13,75=-4,116=-2,124=41,158=3/1,2,3;
 4/5=1,60=-1/1;
 5/5=2,7=64,8=3,13=1,38=6,87=10/2,8;
 6/7=2,8=2,9=2,10=2,28=1,87=10/1;
 7/29=1,30=1,87=10/1,2,3,16;
 1/10=7,30=1,158=3,167=1/3;
 99//99;
 Using 2006 physical constants.
 ----------
 Title Card
 ----------
 Symbolic Z-matrix:
 Charge =  0 Multiplicity = 3
 6                     0.00001   0.79955   0.00016 
 6                    -1.29025   1.35124   0.00005 
 6                    -1.24819   2.74684  -0.00001 
 6                    0.         3.38818  0. 
 6                     1.2482    2.74684   0.00002 
 6                     1.29024   1.35124   0.00007 
 1                    -2.15289   3.34143  -0.00005 
 1                     0.        4.47399  -0.00003 
 1                     2.15289   3.34143   0.00002 
 6                     3.71818   0.5853   -0.00004 
 6                     1.94293  -0.91445   0.00014 
 6                     4.21768  -0.73998  -0.00009 
 6                     4.58154   1.66466  -0.00008 
 6                     5.58625  -0.99291  -0.0002 
 6                     5.96593   1.40708  -0.00019 
 1                     4.22188   2.68646  -0.00002 
 6                     6.45324   0.10944  -0.00025 
 1                     5.97298  -2.0072   -0.00022 
 1                     6.65626   2.24467  -0.0002 
 1                     7.52638  -0.06096  -0.00033 
 6                    -3.71819   0.58536  -0.00005 
 6                    -1.94293  -0.91445   0.00011 
 6                    -4.21773  -0.74002  -0.00008 
 6                    -4.58153   1.6646   -0.00008 
 6                    -5.58622  -0.99287  -0.00011 
 6                    -5.9659    1.40712  -0.00012 
 1                    -4.22187   2.68648  -0.00003 
 6                    -6.45326   0.10938  -0.00014 
 1                    -5.97298  -2.00723  -0.00009 
 1                    -6.65626   2.24465  -0.00011 
 1                    -7.52637  -0.06097  -0.00015 
 7                    -2.32542   0.46972   0.00005 
 7                    -3.15123  -1.6047   -0.00003 
 7                     2.32544   0.46973   0.00009 
 7                     3.15125  -1.60469   0. 
 6                     3.23988  -3.03087   0.00002 
 1                     3.75816  -3.40523  -0.89245 
 1                     3.75758  -3.4053    0.8928 
 1                     2.2268   -3.44187  -0.00035 
 6                    -3.23987  -3.03087   0.00005 
 1                    -3.75749  -3.40527   0.89289 
 1                    -3.75822  -3.40527  -0.89235 
 1                    -2.22679  -3.44187  -0.00039 
 27                    0.       -1.25436   0.00011 
 

 GradGradGradGradGradGradGradGradGradGradGradGradGradGradGradGradGradGrad
 Berny optimization.
 Initialization pass.
 Trust Radius=3.00D-01 FncErr=1.00D-07 GrdErr=1.00D-07 EigMax=2.50D+02 EigMin=1.00D-04
 Number of steps in this run=      2 maximum allowed number of steps=      2.
 GradGradGradGradGradGradGradGradGradGradGradGradGradGradGradGradGradGrad

                          Input orientation:                          
 ---------------------------------------------------------------------
 Center     Atomic      Atomic             Coordinates (Angstroms)
 Number     Number       Type             X           Y           Z
 ---------------------------------------------------------------------
      1          6           0        0.000006    0.799554    0.000160
      2          6           0       -1.290249    1.351242    0.000046
      3          6           0       -1.248189    2.746838   -0.000014
      4          6           0       -0.000001    3.388176   -0.000002
      5          6           0        1.248199    2.746843    0.000020
      6          6           0        1.290243    1.351239    0.000072
      7          1           0       -2.152886    3.341427   -0.000051
      8          1           0        0.000003    4.473993   -0.000027
      9          1           0        2.152886    3.341427    0.000019
     10          6           0        3.718179    0.585300   -0.000041
     11          6           0        1.942932   -0.914449    0.000136
     12          6           0        4.217679   -0.739976   -0.000092
     13          6           0        4.581537    1.664664   -0.000084
     14          6           0        5.586254   -0.992905   -0.000200
     15          6           0        5.965930    1.407076   -0.000188
     16          1           0        4.221881    2.686463   -0.000015
     17          6           0        6.453243    0.109443   -0.000252
     18          1           0        5.972984   -2.007200   -0.000221
     19          1           0        6.656263    2.244672   -0.000201
     20          1           0        7.526379   -0.060961   -0.000326
     21          6           0       -3.718194    0.585361   -0.000051
     22          6           0       -1.942928   -0.914451    0.000110
     23          6           0       -4.217728   -0.740018   -0.000079
     24          6           0       -4.581535    1.664596   -0.000076
     25          6           0       -5.586216   -0.992872   -0.000114
     26          6           0       -5.965905    1.407123   -0.000118
     27          1           0       -4.221874    2.686476   -0.000033
     28          6           0       -6.453259    0.109376   -0.000137
     29          1           0       -5.972983   -2.007227   -0.000091
     30          1           0       -6.656255    2.244652   -0.000114
     31          1           0       -7.526366   -0.060968   -0.000151
     32          7           0       -2.325416    0.469722    0.000052
     33          7           0       -3.151228   -1.604699   -0.000027
     34          7           0        2.325436    0.469734    0.000094
     35          7           0        3.151254   -1.604692    0.000002
     36          6           0        3.239876   -3.030870    0.000016
     37          1           0        3.758155   -3.405229   -0.892447
     38          1           0        3.757576   -3.405298    0.892800
     39          1           0        2.226799   -3.441867   -0.000349
     40          6           0       -3.239873   -3.030872    0.000052
     41          1           0       -3.757491   -3.405268    0.892893
     42          1           0       -3.758222   -3.405266   -0.892353
     43          1           0       -2.226789   -3.441872   -0.000389
     44         27           0        0.000000   -1.254359    0.000108
 ---------------------------------------------------------------------
                    Distance matrix (angstroms):
                    1          2          3          4          5
     1  C    0.000000
     2  C    1.403252   0.000000
     3  C    2.312986   1.396230   0.000000
     4  C    2.588622   2.411190   1.403313   0.000000
     5  C    2.312989   2.896794   2.496388   1.403322   0.000000
     6  C    1.403235   2.580492   2.896780   2.411191   1.396237
     7  H    3.331075   2.169097   1.082595   2.153392   3.452666
     8  H    3.674439   3.378805   2.130973   1.085817   2.130972
     9  H    3.331068   3.976935   3.452658   2.153395   1.082585
    10  C    3.724341   5.066657   5.416370   4.656284   3.282236
    11  C    2.590901   3.948014   4.856776   4.720971   3.726621
    12  C    4.489869   5.891558   6.483332   5.901734   4.579926
    13  C    4.662493   5.880145   5.929318   4.894996   3.504605
    14  C    5.866778   7.265075   7.790719   7.099304   5.727516
    15  C    5.996777   7.256393   7.337471   6.286262   4.904280
    16  H    4.624355   5.671542   5.470403   4.279800   2.974295
    17  C    6.490033   7.842431   8.140511   7.238401   5.835098
    18  H    6.599571   8.002104   8.645589   8.049014   6.702575
    19  H    6.811323   7.996578   7.920387   6.753773   5.431329
    20  H    7.575407   8.929012   9.212860   8.279067   6.877450
    21  C    3.724364   2.545878   3.282210   4.656257   5.416369
    22  C    2.590908   2.357829   3.726621   4.720971   4.856785
    23  C    4.489940   3.597709   4.579992   5.901797   6.483406
    24  C    4.662490   3.306169   3.504631   4.895015   5.929338
    25  C    5.866742   4.893895   5.727470   7.099252   7.790680
    26  C    5.996768   4.675990   4.904251   6.286221   7.337448
    27  H    4.624364   3.221378   2.974297   4.279789   5.470406
    28  C    6.490068   5.310265   5.835149   7.238444   8.140558
    29  H    6.599592   5.762579   6.702597   8.049030   8.645614
    30  H    6.811323   5.439872   5.431332   6.753767   7.920391
    31  H    7.575406   6.394021   6.877448   8.279056   9.212860
    32  N    2.348697   1.359651   2.519063   3.731613   4.237453
    33  N    3.963673   3.492969   4.749466   5.904153   6.187961
    34  N    2.348703   3.721590   4.237452   3.731617   2.519060
    35  N    3.963680   5.335212   6.187965   5.904163   4.749471
    36  C    5.016863   6.302772   7.316054   7.190338   6.111362
    37  H    5.709697   6.993350   7.981720   7.814765   6.704056
    38  H    5.709371   6.993011   7.981452   7.814587   6.703943
    39  H    4.790434   5.945042   7.097578   7.183879   6.265603
    40  C    5.016869   4.796244   6.111361   7.190337   7.316063
    41  H    5.709316   5.432205   6.703901   7.814530   7.981392
    42  H    5.709760   5.432461   6.704097   7.814817   7.981793
    43  H    4.790439   4.883754   6.265604   7.183880   7.097586
    44  Co   2.053913   2.907559   4.191366   4.642534   4.191373
                    6          7          8          9         10
     6  C    0.000000
     7  H    3.976932   0.000000
     8  H    3.378804   2.432618   0.000000
     9  H    2.169102   4.305772   2.432615   0.000000
    10  C    2.545886   6.485803   5.380220   3.169602   0.000000
    11  C    2.357826   5.906624   5.728026   4.261051   2.323950
    12  C    3.597647   7.565841   6.706286   4.573972   1.416282
    13  C    3.306184   6.940028   5.374271   2.951250   1.382178
    14  C    4.893948   8.870216   7.816213   5.529417   2.445493
    15  C    4.676021   8.346070   6.708075   4.275630   2.393262
    16  H    3.221385   6.408325   4.584705   2.170188   2.160695
    17  C    5.310238   9.192996   7.790610   5.379479   2.776151
    18  H    5.762566   9.728184   8.813760   6.572743   3.435869
    19  H    5.439889   8.877160   7.019663   4.635005   3.374293
    20  H    6.394037  10.259845   8.787045   6.360085   3.862647
    21  C    5.066657   3.169557   5.380190   6.485791   7.436373
    22  C    3.948005   4.261055   5.728029   5.906623   5.856397
    23  C    5.891613   4.574033   6.706353   7.565905   8.045812
    24  C    5.880133   2.951288   5.374309   6.940042   8.369595
    25  C    7.265022   5.529368   7.816166   8.870166   9.437287
    26  C    7.256363   4.275588   6.708036   8.346035   9.718892
    27  H    5.671534   2.170179   4.584699   6.408317   8.213366
    28  C    7.842452   5.379533   7.790666   9.193035  10.182566
    29  H    8.002109   6.572766   8.813783   9.728199  10.031940
    30  H    7.996563   4.635003   7.019668   8.877156  10.506300
    31  H    8.928994   6.360078   8.787042  10.259836  11.263102
    32  N    3.721568   2.876884   4.630525   5.319952   6.044700
    33  N    5.335188   5.045875   6.846952   7.252433   7.210051
    34  N    1.359660   5.319961   4.630522   2.876873   1.397530
    35  N    3.492977   7.252447   6.846955   5.045873   2.262182
    36  C    4.796243   8.347937   8.174335   6.464342   3.647664
    37  H    5.432418   9.014108   8.775094   6.992192   4.089292
    38  H    5.432249   9.013825   8.774948   6.992166   4.089448
    39  H    4.883748   8.074325   8.223105   6.783696   4.294448
    40  C    6.302765   6.464344   8.174338   8.347937   7.841631
    41  H    6.992933   6.992139   8.774898   9.013750   8.521010
    42  H    6.993408   6.992222   8.775148   9.014177   8.521584
    43  H    5.945034   6.783702   8.223109   8.074323   7.180582
    44  Co   2.907553   5.075053   5.728352   5.075053   4.148396
                   11         12         13         14         15
    11  C    0.000000
    12  C    2.281428   0.000000
    13  C    3.689723   2.432013   0.000000
    14  C    3.644167   1.391751   2.841150   0.000000
    15  C    4.644781   2.768793   1.408153   2.429829   0.000000
    16  H    4.261475   3.426442   1.083248   3.924190   2.162993
    17  C    4.625069   2.391497   2.433515   1.402441   1.386119
    18  H    4.175574   2.164937   3.926667   1.085520   3.414284
    19  H    5.674110   3.854194   2.154274   3.409813   1.085415
    20  H    5.648303   3.377656   3.413192   2.152349   2.142461
    21  C    5.856431   8.045782   8.369614   9.437356   9.718924
    22  C    3.885860   6.163077   7.015731   7.529591   8.242544
    23  C    6.163129   8.435407   9.121928   9.807244  10.407541
    24  C    7.015706   9.121849   9.163072  10.509341  10.550608
    25  C    7.529556   9.807156  10.509315  11.172470  11.798806
    26  C    8.242535  10.407469  10.550585  11.798835  11.931835
    27  H    7.139432   9.108602   8.862514  10.475554  10.267824
    28  C    8.458383  10.704687  11.143862  12.089868  12.486805
    29  H    7.990987  10.269154  11.175003  11.603655  12.417533
    30  H    9.161110  11.276101  11.252749  12.663365  12.649945
    31  H    9.507683  11.763658  12.230255  13.145696  13.571928
    32  N    4.487174   6.653981   7.009557   8.045732   8.344163
    33  N    5.140711   7.419470   8.395498   8.758874   9.601737
    34  N    1.436060   2.245881   2.553009   3.573829   3.759230
    35  N    1.391574   1.372952   3.568529   2.510679   4.122275
    36  C    2.482197   2.490842   4.883451   3.107859   5.208333
    37  H    3.208696   2.847987   5.213261   3.155528   5.369235
    38  H    3.208443   2.848314   5.213508   3.156129   5.369656
    39  H    2.543309   3.356161   5.623295   4.157324   6.123181
    40  C    5.598278   7.801493   9.122638   9.058357  10.219697
    41  H    6.284586   8.456036   9.800052   9.691372  10.885825
    42  H    6.285210   8.456648   9.800608   9.691989  10.886401
    43  H    4.875904   6.987948   8.510583   8.187862   9.520134
    44  Co   1.972441   4.248930   5.432419   5.592369   6.532653
                   16         17         18         19         20
    16  H    0.000000
    17  C    3.408814   0.000000
    18  H    5.009674   2.170444   0.000000
    19  H    2.474145   2.144859   4.306424   0.000000
    20  H    4.297447   1.086581   2.490157   2.464356   0.000000
    21  C    8.213368  10.182565  10.031964  10.506315  11.263133
    22  C    7.139429   8.458371   7.990979   9.161121   9.507693
    23  C    9.108665  10.704729  10.269195  11.276172  11.763723
    24  C    8.862524  11.143824  11.174970  11.252758  12.230255
    25  C   10.475508  12.089817  11.603618  12.663332  13.145669
    26  C   10.267798  12.486761  12.417514  12.649925  13.571919
    27  H    8.443755  10.981768  11.223445  10.887105  12.065234
    28  C   10.981803  12.906502  12.605213  13.282284  13.980676
    29  H   11.223457  12.605213  11.945967  13.325783  13.638942
    30  H   10.887105  13.282246  13.325762  13.312518  14.368820
    31  H   12.065227  13.980648  13.638925  14.368818  15.052746
    32  N    6.912383   8.786049   8.660172   9.155381   9.866079
    33  N    8.530932   9.756236   9.133085  10.535868  10.788624
    34  N    2.917258   4.143501   4.409060   4.680435   5.227949
    35  N    4.422698   3.720402   2.850294   5.206025   4.639486
    36  C    5.801054   4.493027   2.918523   6.285144   5.214831
    37  H    6.174155   4.518012   2.766951   6.412216   5.116593
    38  H    6.174322   4.518580   2.767706   6.412643   5.117239
    39  H    6.444903   5.520383   4.011504   7.208111   6.286181
    40  C    9.400303  10.189116   9.269554  11.214494  11.168373
    41  H   10.078535  10.835590   9.870886  11.881318  11.802880
    42  H   10.079061  10.836191   9.871517  11.881886  11.803487
    43  H    8.896170   9.378422   8.324335  10.547293  10.322541
    44  Co   5.775322   6.595779   6.020241   7.519910   7.620405
                   21         22         23         24         25
    21  C    0.000000
    22  C    2.324007   0.000000
    23  C    1.416392   2.281479   0.000000
    24  C    1.382065   3.689679   2.431980   0.000000
    25  C    2.445471   3.644132   1.391651   2.841042   0.000000
    26  C    2.393218   4.644787   2.768814   1.408110   2.429843
    27  H    2.160642   4.261487   3.426496   1.083325   3.924160
    28  C    2.776174   4.625074   2.391457   2.433529   1.402396
    29  H    3.435926   4.175584   2.164887   3.926629   1.085590
    30  H    3.374233   5.674098   3.854176   2.154282   3.409772
    31  H    3.862631   5.648294   3.377602   3.413152   2.152354
    32  N    1.397570   1.436048   2.245955   2.552997   3.573792
    33  N    2.262259   1.391557   1.372988   3.568483   2.510677
    34  N    6.044736   4.487192   6.654058   7.009560   8.045710
    35  N    7.210107   5.140731   7.419539   8.395490   8.758864
    36  C    7.841675   5.598275   7.801530   9.122602   9.058330
    37  H    8.521560   6.285140   8.456618   9.800504   9.691904
    38  H    8.521131   6.284660   8.456147   9.800092   9.691416
    39  H    7.180635   4.875905   6.987984   8.510545   8.187844
    40  C    3.647730   2.482197   2.490826   4.883388   3.107856
    41  H    4.089501   3.208406   2.848294   5.213441   3.156161
    42  H    4.089365   3.208729   2.847954   5.213205   3.155518
    43  H    4.294519   2.543311   3.356166   5.623241   4.157325
    44  Co   4.148438   1.972437   4.248974   5.432381   5.592333
                   26         27         28         29         30
    26  C    0.000000
    27  H    2.162958   0.000000
    28  C    1.386240   3.408889   0.000000
    29  H    3.414357   5.009713   2.170408   0.000000
    30  H    1.085375   2.474150   2.144904   4.306429   0.000000
    31  H    2.142506   4.297455   1.086543   2.490165   2.464341
    32  N    3.759239   2.917285   4.143541   4.409083   4.680443
    33  N    4.122315   4.422721   3.720412   2.850322   5.206028
    34  N    8.344161   6.912395   8.786088   8.660201   9.155387
    35  N    9.601750   8.530952   9.756264   9.133112  10.535876
    36  C   10.219696   9.400307  10.189113   9.269554  11.214480
    37  H   10.886337  10.078995  10.836127   9.871462  11.881808
    38  H   10.885897  10.078615  10.835655   9.870949  11.881376
    39  H    9.520142   8.896177   9.378419   8.324340  10.547282
    40  C    5.208363   5.801068   4.492995   2.918517   6.285127
    41  H    5.369699   6.174327   4.518560   2.767733   6.412635
    42  H    5.369267   6.174182   4.517962   2.766914   6.412196
    43  H    6.123213   6.444921   5.520363   4.011506   7.208101
    44  Co   6.532649   5.775327   6.595781   6.020245   7.519895
                   31         32         33         34         35
    31  H    0.000000
    32  N    5.227955   0.000000
    33  N    4.639498   2.232753   0.000000
    34  N    9.866086   4.650852   5.856373   0.000000
    35  N   10.788635   5.856373   6.302481   2.232760   0.000000
    36  C   11.168362   6.574696   6.548295   3.618070   1.428929
    37  H   11.803419   7.267850   7.195686   4.226660   2.099221
    38  H   11.802934   7.267432   7.195197   4.226561   2.099260
    39  H   10.322535   6.001932   5.683165   3.912844   2.056654
    40  C    5.214821   3.618064   1.428925   6.574717   6.548319
    41  H    5.117254   4.226529   2.099265   7.267374   7.195143
    42  H    5.116567   4.226682   2.099221   7.267941   7.195778
    43  H    6.286178   3.912837   2.056645   6.001950   5.683183
    44  Co   7.620392   2.894826   3.170643   2.894848   3.170667
                   36         37         38         39         40
    36  C    0.000000
    37  H    1.097838   0.000000
    38  H    1.097848   1.785247   0.000000
    39  H    1.093272   1.772634   1.772661   0.000000
    40  C    6.479749   7.064637   7.064098   5.482100   0.000000
    41  H    7.064033   7.724790   7.515067   6.050699   1.097847
    42  H    7.064692   7.516377   7.724894   6.051239   1.097835
    43  H    5.482094   6.051171   6.050764   4.453589   1.093279
    44  Co   3.694968   4.421157   4.420725   3.121510   3.694967
                   41         42         43         44
    41  H    0.000000
    42  H    1.785247   0.000000
    43  H    1.772666   1.772632   0.000000
    44  Co   4.420659   4.421213   3.121507   0.000000
 Symmetry turned off by external request.
 Stoichiometry    C22H17CoN4(3)
 Framework group  C1[X(C22H17CoN4)]
 Deg. of freedom   126
 Full point group                 C1      NOp   1
 Rotational constants (GHZ):           0.4634541           0.0989900           0.0816525
 General basis read from cards:  (5D, 7F)
 ======================================================================================================
                                       Pseudopotential Parameters
 ======================================================================================================
  Center     Atomic      Valence      Angular      Power
  Number     Number     Electrons     Momentum     of R      Exponent        Coefficient   SO-Coeffient
 ======================================================================================================
    1          6
                                   No pseudopotential on this center.
    2          6
                                   No pseudopotential on this center.
    3          6
                                   No pseudopotential on this center.
    4          6
                                   No pseudopotential on this center.
    5          6
                                   No pseudopotential on this center.
    6          6
                                   No pseudopotential on this center.
    7          1
                                   No pseudopotential on this center.
    8          1
                                   No pseudopotential on this center.
    9          1
                                   No pseudopotential on this center.
   10          6
                                   No pseudopotential on this center.
   11          6
                                   No pseudopotential on this center.
   12          6
                                   No pseudopotential on this center.
   13          6
                                   No pseudopotential on this center.
   14          6
                                   No pseudopotential on this center.
   15          6
                                   No pseudopotential on this center.
   16          1
                                   No pseudopotential on this center.
   17          6
                                   No pseudopotential on this center.
   18          1
                                   No pseudopotential on this center.
   19          1
                                   No pseudopotential on this center.
   20          1
                                   No pseudopotential on this center.
   21          6
                                   No pseudopotential on this center.
   22          6
                                   No pseudopotential on this center.
   23          6
                                   No pseudopotential on this center.
   24          6
                                   No pseudopotential on this center.
   25          6
                                   No pseudopotential on this center.
   26          6
                                   No pseudopotential on this center.
   27          1
                                   No pseudopotential on this center.
   28          6
                                   No pseudopotential on this center.
   29          1
                                   No pseudopotential on this center.
   30          1
                                   No pseudopotential on this center.
   31          1
                                   No pseudopotential on this center.
   32          7
                                   No pseudopotential on this center.
   33          7
                                   No pseudopotential on this center.
   34          7
                                   No pseudopotential on this center.
   35          7
                                   No pseudopotential on this center.
   36          6
                                   No pseudopotential on this center.
   37          1
                                   No pseudopotential on this center.
   38          1
                                   No pseudopotential on this center.
   39          1
                                   No pseudopotential on this center.
   40          6
                                   No pseudopotential on this center.
   41          1
                                   No pseudopotential on this center.
   42          1
                                   No pseudopotential on this center.
   43          1
                                   No pseudopotential on this center.
   44         27           17
                                      F and up 
                                                     2        1.0000000        0.00000000    0.00000000
                                      S - F
                                                     2       23.6600000      283.96056600    0.00000000
                                                     2       10.6100000       47.15684600    0.00000000
                                      P - F
                                                     2       25.0400000      182.21223600    0.00000000
                                                     2       10.4400000       35.23335200    0.00000000
                                      D - F
                                                     2       29.5400000      -26.47533300    0.00000000
                                                     2       10.1800000       -1.82578700    0.00000000
 ======================================================================================================
   441 basis functions,   871 primitive gaussians,   473 cartesian basis functions
    98 alpha electrons       96 beta electrons
       nuclear repulsion energy      2475.6772587328 Hartrees.
 NAtoms=   44 NActive=   44 NUniq=   44 SFac= 1.00D+00 NAtFMM=   60 NAOKFM=F Big=F
 Integral buffers will be    131072 words long.
 Raffenetti 2 integral format.
 Two-electron integral symmetry is turned off.
 Nuclear repulsion after empirical dispersion term =     2475.6183556325 Hartrees.
 One-electron integrals computed using PRISM.
   1 Symmetry operations used in ECPInt.
 ECPInt:  NShTT=   11781 NPrTT=   71406 LenC2=    9480 LenP2D=   31901.
 LDataN:  DoStor=T MaxTD1= 6 Len=  172
 NBasis=   441 RedAO= T EigKep=  3.23D-04  NBF=   441
 NBsUse=   441 1.00D-06 EigRej= -1.00D+00 NBFU=   441
 Initial guess from the checkpoint file:  "b.chk"
 B after Tr=    -0.000000   -0.000024   -0.000005
         Rot=    1.000000   -0.000001    0.000000    0.000000 Ang=  -0.00 deg.
 Initial guess <Sx>= 0.0000 <Sy>= 0.0000 <Sz>= 1.0000 <S**2>= 2.3387 S= 1.1089
 Requested convergence on RMS density matrix=1.00D-08 within  64 cycles.
 Requested convergence on MAX density matrix=1.00D-06.
 Requested convergence on             energy=1.00D-06.
 No special actions if energy rises.
 Restarting incremental Fock formation.
 SCF Done:  E(UPBE1PBE) =  -1212.11131436     A.U. after   22 cycles
            NFock= 22  Conv=0.31D-08     -V/T= 2.0553
 <Sx>= 0.0000 <Sy>= 0.0000 <Sz>= 1.0000 <S**2>= 2.3410 S= 1.1097
 <L.S>=  0.00000000000    
 Annihilation of the first spin contaminant:
 S**2 before annihilation     2.3410,   after     2.0089
 QCSCF skips out because SCF is already converged.

 **********************************************************************

            Population analysis using the SCF Density.

 **********************************************************************

 Alpha  occ. eigenvalues --  -14.45310 -14.45310 -14.45175 -14.45174 -10.28171
 Alpha  occ. eigenvalues --  -10.28171 -10.27598 -10.27597 -10.27254 -10.27253
 Alpha  occ. eigenvalues --  -10.27242 -10.27242 -10.26758 -10.26757 -10.23690
 Alpha  occ. eigenvalues --  -10.23690 -10.23616 -10.23616 -10.23082 -10.23081
 Alpha  occ. eigenvalues --  -10.22979 -10.22978 -10.22400 -10.22388 -10.22289
 Alpha  occ. eigenvalues --  -10.21081  -3.93393  -2.45290  -2.43684  -2.43202
 Alpha  occ. eigenvalues --   -1.05540  -1.05464  -0.96981  -0.96596  -0.88000
 Alpha  occ. eigenvalues --   -0.87608  -0.85596  -0.80403  -0.78810  -0.77582
 Alpha  occ. eigenvalues --   -0.77571  -0.75530  -0.74803  -0.73217  -0.72290
 Alpha  occ. eigenvalues --   -0.66695  -0.65290  -0.64358  -0.64085  -0.62599
 Alpha  occ. eigenvalues --   -0.61269  -0.58910  -0.57579  -0.56562  -0.53935
 Alpha  occ. eigenvalues --   -0.53029  -0.52310  -0.49614  -0.49533  -0.49058
 Alpha  occ. eigenvalues --   -0.48589  -0.48072  -0.47265  -0.46757  -0.45847
 Alpha  occ. eigenvalues --   -0.45680  -0.45322  -0.44811  -0.44749  -0.44043
 Alpha  occ. eigenvalues --   -0.42743  -0.41858  -0.41255  -0.38903  -0.38515
 Alpha  occ. eigenvalues --   -0.38414  -0.37401  -0.37308  -0.37150  -0.36924
 Alpha  occ. eigenvalues --   -0.36325  -0.35093  -0.34550  -0.33932  -0.31949
 Alpha  occ. eigenvalues --   -0.31278  -0.30286  -0.26888  -0.26556  -0.26547
 Alpha  occ. eigenvalues --   -0.26202  -0.26008  -0.24511  -0.24189  -0.22915
 Alpha  occ. eigenvalues --   -0.20928  -0.20665  -0.10097
 Alpha virt. eigenvalues --   -0.06273  -0.03059  -0.00273  -0.00042   0.00315
 Alpha virt. eigenvalues --    0.02202   0.02731   0.03450   0.03843   0.05645
 Alpha virt. eigenvalues --    0.06122   0.07556   0.07608   0.09613   0.10166
 Alpha virt. eigenvalues --    0.12541   0.12986   0.13712   0.13980   0.14922
 Alpha virt. eigenvalues --    0.15148   0.15381   0.15680   0.15944   0.16512
 Alpha virt. eigenvalues --    0.16859   0.17650   0.17775   0.17833   0.18097
 Alpha virt. eigenvalues --    0.19329   0.19760   0.19802   0.19813   0.21039
 Alpha virt. eigenvalues --    0.21627   0.22012   0.22527   0.23631   0.25374
 Alpha virt. eigenvalues --    0.25506   0.25542   0.26098   0.27544   0.27735
 Alpha virt. eigenvalues --    0.27739   0.28524   0.29800   0.30359   0.31189
 Alpha virt. eigenvalues --    0.32788   0.32970   0.33780   0.34633   0.36189
 Alpha virt. eigenvalues --    0.37346   0.37452   0.39132   0.39203   0.41373
 Alpha virt. eigenvalues --    0.42113   0.44015   0.44051   0.45767   0.46572
 Alpha virt. eigenvalues --    0.47104   0.49180   0.51198   0.51639   0.52011
 Alpha virt. eigenvalues --    0.53795   0.53985   0.56095   0.56118   0.56283
 Alpha virt. eigenvalues --    0.56816   0.56966   0.57957   0.58287   0.58613
 Alpha virt. eigenvalues --    0.58620   0.59430   0.60225   0.61392   0.61496
 Alpha virt. eigenvalues --    0.61564   0.63001   0.63042   0.63188   0.63443
 Alpha virt. eigenvalues --    0.63512   0.63556   0.64111   0.64229   0.65065
 Alpha virt. eigenvalues --    0.65086   0.65746   0.65979   0.66965   0.67329
 Alpha virt. eigenvalues --    0.67852   0.68369   0.68919   0.70933   0.71899
 Alpha virt. eigenvalues --    0.71998   0.73359   0.75044   0.75492   0.76046
 Alpha virt. eigenvalues --    0.76901   0.77752   0.79260   0.79583   0.81044
 Alpha virt. eigenvalues --    0.81513   0.82152   0.82608   0.83544   0.84276
 Alpha virt. eigenvalues --    0.84469   0.84918   0.85881   0.86499   0.86573
 Alpha virt. eigenvalues --    0.87383   0.87624   0.89385   0.89467   0.90407
 Alpha virt. eigenvalues --    0.90758   0.91303   0.91562   0.92808   0.92985
 Alpha virt. eigenvalues --    0.93337   0.94583   0.94965   0.95076   0.95752
 Alpha virt. eigenvalues --    0.97035   0.97495   0.97521   0.98279   0.98307
 Alpha virt. eigenvalues --    0.99993   1.00100   1.01281   1.02085   1.02522
 Alpha virt. eigenvalues --    1.02671   1.03828   1.05981   1.06948   1.07857
 Alpha virt. eigenvalues --    1.08237   1.09349   1.09471   1.10184   1.13508
 Alpha virt. eigenvalues --    1.14723   1.15410   1.16267   1.18186   1.18385
 Alpha virt. eigenvalues --    1.19136   1.19442   1.23460   1.23705   1.24216
 Alpha virt. eigenvalues --    1.24499   1.25569   1.26278   1.26377   1.28886
 Alpha virt. eigenvalues --    1.28919   1.29292   1.31096   1.33357   1.33713
 Alpha virt. eigenvalues --    1.36028   1.36327   1.36455   1.38419   1.39297
 Alpha virt. eigenvalues --    1.41008   1.42025   1.42354   1.42571   1.45113
 Alpha virt. eigenvalues --    1.45280   1.45482   1.45631   1.47104   1.48159
 Alpha virt. eigenvalues --    1.49404   1.49996   1.50080   1.50326   1.50365
 Alpha virt. eigenvalues --    1.50467   1.51850   1.52081   1.56327   1.56457
 Alpha virt. eigenvalues --    1.57373   1.61693   1.64203   1.64720   1.65237
 Alpha virt. eigenvalues --    1.70006   1.72309   1.72547   1.76323   1.77055
 Alpha virt. eigenvalues --    1.77864   1.79393   1.79471   1.82003   1.82445
 Alpha virt. eigenvalues --    1.84662   1.86027   1.86602   1.87116   1.87806
 Alpha virt. eigenvalues --    1.87843   1.89454   1.90840   1.91257   1.92866
 Alpha virt. eigenvalues --    1.94722   1.94970   1.96338   1.96624   1.97620
 Alpha virt. eigenvalues --    1.97872   1.98226   1.98492   1.98811   1.99402
 Alpha virt. eigenvalues --    2.00251   2.01085   2.02424   2.02992   2.05760
 Alpha virt. eigenvalues --    2.05975   2.06592   2.09068   2.09409   2.11994
 Alpha virt. eigenvalues --    2.12447   2.14267   2.14837   2.15156   2.15849
 Alpha virt. eigenvalues --    2.16398   2.16573   2.18943   2.19600   2.20405
 Alpha virt. eigenvalues --    2.21152   2.21254   2.21570   2.23416   2.23816
 Alpha virt. eigenvalues --    2.24361   2.26246   2.27150   2.27278   2.27415
 Alpha virt. eigenvalues --    2.27760   2.28045   2.28241   2.28703   2.32439
 Alpha virt. eigenvalues --    2.34033   2.38152   2.38559   2.40189   2.40220
 Alpha virt. eigenvalues --    2.42531   2.43704   2.44152   2.44613   2.46513
 Alpha virt. eigenvalues --    2.51101   2.51277   2.56883   2.58123   2.58576
 Alpha virt. eigenvalues --    2.58921   2.59801   2.60064   2.61884   2.63600
 Alpha virt. eigenvalues --    2.65053   2.66544   2.67207   2.68353   2.68846
 Alpha virt. eigenvalues --    2.68981   2.70458   2.71975   2.74365   2.74407
 Alpha virt. eigenvalues --    2.74439   2.76134   2.77593   2.78659   2.79741
 Alpha virt. eigenvalues --    2.82067   2.84219   2.87432   2.88192   2.91678
 Alpha virt. eigenvalues --    2.93171   2.96076   2.98108   2.98597   2.99868
 Alpha virt. eigenvalues --    3.05251   3.06687   3.14254   3.17303   3.18425
 Alpha virt. eigenvalues --    3.28811   3.38290   3.45239   3.46409   3.51242
 Alpha virt. eigenvalues --    3.51448   3.55907   5.55369   5.56732   5.57153
 Alpha virt. eigenvalues --    5.59613   5.61037   5.61075   5.62541  45.70417
 Alpha virt. eigenvalues --   45.85002  45.90694  63.01201
  Beta  occ. eigenvalues --  -14.45185 -14.45184 -14.45151 -14.45150 -10.27941
  Beta  occ. eigenvalues --  -10.27941 -10.27599 -10.27599 -10.27291 -10.27290
  Beta  occ. eigenvalues --  -10.27251 -10.27251 -10.26643 -10.26642 -10.23630
  Beta  occ. eigenvalues --  -10.23630 -10.23595 -10.23595 -10.23091 -10.23090
  Beta  occ. eigenvalues --  -10.22944 -10.22944 -10.22490 -10.22486 -10.22185
  Beta  occ. eigenvalues --  -10.21675  -3.85580  -2.36891  -2.36218  -2.33888
  Beta  occ. eigenvalues --   -1.05339  -1.05258  -0.96819  -0.96397  -0.87999
  Beta  occ. eigenvalues --   -0.87538  -0.85708  -0.80345  -0.78790  -0.77521
  Beta  occ. eigenvalues --   -0.77515  -0.75400  -0.74601  -0.73225  -0.72544
  Beta  occ. eigenvalues --   -0.66733  -0.65206  -0.64109  -0.64072  -0.62596
  Beta  occ. eigenvalues --   -0.61171  -0.58905  -0.57682  -0.56559  -0.53918
  Beta  occ. eigenvalues --   -0.53014  -0.52292  -0.49157  -0.49091  -0.49038
  Beta  occ. eigenvalues --   -0.48614  -0.48220  -0.47243  -0.46754  -0.45816
  Beta  occ. eigenvalues --   -0.45682  -0.45291  -0.44818  -0.44400  -0.43733
  Beta  occ. eigenvalues --   -0.42787  -0.41835  -0.41268  -0.38636  -0.38553
  Beta  occ. eigenvalues --   -0.38532  -0.37302  -0.37256  -0.36523  -0.36439
  Beta  occ. eigenvalues --   -0.35611  -0.35171  -0.34012  -0.33292  -0.31617
  Beta  occ. eigenvalues --   -0.29713  -0.27421  -0.26544  -0.25905  -0.24757
  Beta  occ. eigenvalues --   -0.23769  -0.23265  -0.21944  -0.20724  -0.19835
  Beta  occ. eigenvalues --   -0.19533
  Beta virt. eigenvalues --   -0.04427  -0.03866  -0.00783  -0.00350  -0.00120
  Beta virt. eigenvalues --    0.01376   0.01723   0.02391   0.03484   0.05414
  Beta virt. eigenvalues --    0.05711   0.06035   0.07891   0.08625   0.09286
  Beta virt. eigenvalues --    0.10188   0.10574   0.12629   0.13089   0.13832
  Beta virt. eigenvalues --    0.14279   0.15284   0.15300   0.15991   0.16060
  Beta virt. eigenvalues --    0.16547   0.16656   0.16901   0.17739   0.17951
  Beta virt. eigenvalues --    0.18413   0.18671   0.19472   0.19883   0.19994
  Beta virt. eigenvalues --    0.21432   0.21743   0.22189   0.22511   0.22684
  Beta virt. eigenvalues --    0.23685   0.25556   0.25645   0.26084   0.27024
  Beta virt. eigenvalues --    0.27568   0.27830   0.29012   0.29150   0.30168
  Beta virt. eigenvalues --    0.30672   0.31303   0.32912   0.32950   0.34133
  Beta virt. eigenvalues --    0.34685   0.36300   0.37607   0.37738   0.39264
  Beta virt. eigenvalues --    0.39288   0.41331   0.42532   0.44226   0.44490
  Beta virt. eigenvalues --    0.45803   0.46988   0.47610   0.49498   0.51282
  Beta virt. eigenvalues --    0.51773   0.52019   0.53892   0.54121   0.56130
  Beta virt. eigenvalues --    0.56153   0.56487   0.56875   0.57026   0.58135
  Beta virt. eigenvalues --    0.58412   0.58663   0.58881   0.59485   0.60283
  Beta virt. eigenvalues --    0.61540   0.61551   0.61716   0.62918   0.63052
  Beta virt. eigenvalues --    0.63355   0.63480   0.63596   0.63690   0.64145
  Beta virt. eigenvalues --    0.64242   0.65055   0.65149   0.65806   0.66132
  Beta virt. eigenvalues --    0.67414   0.67614   0.67884   0.68599   0.68716
  Beta virt. eigenvalues --    0.70940   0.71850   0.72151   0.73670   0.75279
  Beta virt. eigenvalues --    0.75496   0.76173   0.76998   0.78255   0.79396
  Beta virt. eigenvalues --    0.80155   0.81233   0.81720   0.82357   0.82651
  Beta virt. eigenvalues --    0.83984   0.84369   0.84528   0.85173   0.85884
  Beta virt. eigenvalues --    0.86783   0.86944   0.87398   0.87630   0.89454
  Beta virt. eigenvalues --    0.89637   0.90471   0.91034   0.91330   0.91694
  Beta virt. eigenvalues --    0.92829   0.92984   0.93383   0.94998   0.95263
  Beta virt. eigenvalues --    0.96182   0.96335   0.97042   0.97574   0.97855
  Beta virt. eigenvalues --    0.98275   0.98363   1.00094   1.00108   1.01323
  Beta virt. eigenvalues --    1.02131   1.02559   1.02722   1.03906   1.06080
  Beta virt. eigenvalues --    1.06975   1.08314   1.09330   1.09346   1.10538
  Beta virt. eigenvalues --    1.13577   1.14829   1.15454   1.16293   1.16559
  Beta virt. eigenvalues --    1.18208   1.18417   1.19171   1.19551   1.23490
  Beta virt. eigenvalues --    1.23843   1.24427   1.24562   1.26187   1.26305
  Beta virt. eigenvalues --    1.26521   1.29071   1.29094   1.29443   1.31073
  Beta virt. eigenvalues --    1.33731   1.34016   1.36215   1.36586   1.36727
  Beta virt. eigenvalues --    1.38566   1.39579   1.41263   1.42382   1.42652
  Beta virt. eigenvalues --    1.42882   1.45073   1.45381   1.45671   1.45770
  Beta virt. eigenvalues --    1.47302   1.48274   1.49581   1.50094   1.50254
  Beta virt. eigenvalues --    1.50450   1.50480   1.50657   1.52545   1.53087
  Beta virt. eigenvalues --    1.56360   1.56571   1.58202   1.61863   1.64291
  Beta virt. eigenvalues --    1.65446   1.65478   1.70052   1.72688   1.72715
  Beta virt. eigenvalues --    1.76533   1.77020   1.78199   1.79356   1.79593
  Beta virt. eigenvalues --    1.82098   1.82527   1.84722   1.86153   1.86737
  Beta virt. eigenvalues --    1.87117   1.87641   1.87788   1.89653   1.90866
  Beta virt. eigenvalues --    1.91330   1.92899   1.94741   1.95024   1.96367
  Beta virt. eigenvalues --    1.96690   1.97760   1.97934   1.98242   1.98473
  Beta virt. eigenvalues --    1.98951   1.99637   2.00285   2.01137   2.02466
  Beta virt. eigenvalues --    2.03052   2.05846   2.06156   2.06847   2.09255
  Beta virt. eigenvalues --    2.09354   2.12152   2.12404   2.14596   2.14898
  Beta virt. eigenvalues --    2.15177   2.15916   2.16531   2.16593   2.19052
  Beta virt. eigenvalues --    2.19842   2.20518   2.21230   2.21348   2.21697
  Beta virt. eigenvalues --    2.23680   2.24146   2.24530   2.26454   2.27354
  Beta virt. eigenvalues --    2.27372   2.27387   2.27890   2.28284   2.28449
  Beta virt. eigenvalues --    2.28873   2.32558   2.34418   2.38295   2.38993
  Beta virt. eigenvalues --    2.40316   2.40396   2.44062   2.44449   2.44851
  Beta virt. eigenvalues --    2.46550   2.48468   2.51187   2.51341   2.57082
  Beta virt. eigenvalues --    2.58384   2.58621   2.58791   2.59980   2.60361
  Beta virt. eigenvalues --    2.61977   2.63799   2.65270   2.66658   2.67647
  Beta virt. eigenvalues --    2.68861   2.69009   2.69062   2.71559   2.72650
  Beta virt. eigenvalues --    2.74524   2.74545   2.74742   2.77219   2.77939
  Beta virt. eigenvalues --    2.79012   2.79880   2.82372   2.84470   2.87782
  Beta virt. eigenvalues --    2.88368   2.92586   2.93168   2.96363   2.98032
  Beta virt. eigenvalues --    2.99002   2.99904   3.05420   3.06888   3.14304
  Beta virt. eigenvalues --    3.17472   3.18587   3.28585   3.38313   3.45914
  Beta virt. eigenvalues --    3.46415   3.51343   3.51359   3.58960   5.61495
  Beta virt. eigenvalues --    5.63551   5.63737   5.63839   5.65477   5.68099
  Beta virt. eigenvalues --    5.69338  45.81195  45.93462  45.98967  63.07860
          Condensed to atoms (all electrons):
               1          2          3          4          5          6
     1  C    5.199028   0.501395  -0.060654  -0.056166  -0.060655   0.501402
     2  C    0.501395   4.564873   0.525639  -0.015496  -0.039562  -0.016903
     3  C   -0.060654   0.525639   5.044721   0.527863  -0.029867  -0.039563
     4  C   -0.056166  -0.015496   0.527863   4.908716   0.527862  -0.015496
     5  C   -0.060655  -0.039562  -0.029867   0.527862   5.044721   0.525637
     6  C    0.501402  -0.016903  -0.039563  -0.015496   0.525637   4.564876
     7  H    0.006099  -0.038486   0.345684  -0.039330   0.003907   0.000755
     8  H    0.001425   0.002633  -0.035622   0.366489  -0.035623   0.002633
     9  H    0.006099   0.000755   0.003907  -0.039330   0.345686  -0.038485
    10  C    0.005662  -0.000027   0.000002   0.000109  -0.004619  -0.043118
    11  C    0.006045   0.001831  -0.000040   0.000035   0.002481  -0.063514
    12  C   -0.000642   0.000001  -0.000000   0.000000   0.000098   0.007029
    13  C    0.000150   0.000000  -0.000001   0.000050   0.001727  -0.004081
    14  C    0.000001  -0.000000   0.000000  -0.000000   0.000001  -0.000042
    15  C    0.000001  -0.000000   0.000000  -0.000001   0.000065   0.000056
    16  H   -0.000021   0.000000   0.000001   0.000082   0.000038   0.000827
    17  C    0.000000   0.000000   0.000000   0.000000  -0.000000  -0.000001
    18  H   -0.000000   0.000000   0.000000   0.000000  -0.000000   0.000002
    19  H   -0.000000   0.000000  -0.000000   0.000000   0.000001  -0.000002
    20  H    0.000000  -0.000000   0.000000  -0.000000  -0.000000  -0.000000
    21  C    0.005662  -0.043118  -0.004620   0.000109   0.000002  -0.000027
    22  C    0.006044  -0.063517   0.002481   0.000035  -0.000040   0.001831
    23  C   -0.000642   0.007030   0.000098   0.000000  -0.000000   0.000001
    24  C    0.000150  -0.004082   0.001727   0.000050  -0.000001   0.000000
    25  C    0.000001  -0.000042   0.000001  -0.000000   0.000000  -0.000000
    26  C    0.000001   0.000056   0.000065  -0.000001   0.000000  -0.000000
    27  H   -0.000021   0.000828   0.000037   0.000082   0.000001   0.000000
    28  C    0.000000  -0.000001  -0.000000   0.000000   0.000000   0.000000
    29  H   -0.000000   0.000002  -0.000000   0.000000   0.000000   0.000000
    30  H   -0.000000  -0.000002   0.000001   0.000000  -0.000000   0.000000
    31  H    0.000000  -0.000000  -0.000000  -0.000000   0.000000  -0.000000
    32  N   -0.040465   0.270300  -0.070156   0.004629   0.000031   0.005859
    33  N    0.001199   0.005881  -0.000166   0.000001   0.000000  -0.000029
    34  N   -0.040465   0.005859   0.000031   0.004629  -0.070154   0.270298
    35  N    0.001199  -0.000029   0.000000   0.000001  -0.000166   0.005882
    36  C   -0.000007   0.000000   0.000000  -0.000000   0.000002  -0.000044
    37  H   -0.000000  -0.000000   0.000000   0.000000  -0.000000   0.000003
    38  H   -0.000000  -0.000000   0.000000   0.000000  -0.000000   0.000003
    39  H   -0.000021   0.000001   0.000000  -0.000000   0.000000  -0.000008
    40  C   -0.000007  -0.000044   0.000002  -0.000000   0.000000   0.000000
    41  H   -0.000000   0.000003  -0.000000   0.000000   0.000000  -0.000000
    42  H   -0.000000   0.000003  -0.000000   0.000000   0.000000  -0.000000
    43  H   -0.000021  -0.000008   0.000000  -0.000000   0.000000   0.000001
    44  Co   0.256528  -0.059482   0.004008   0.003568   0.004008  -0.059482
               7          8          9         10         11         12
     1  C    0.006099   0.001425   0.006099   0.005662   0.006045  -0.000642
     2  C   -0.038486   0.002633   0.000755  -0.000027   0.001831   0.000001
     3  C    0.345684  -0.035622   0.003907   0.000002  -0.000040  -0.000000
     4  C   -0.039330   0.366489  -0.039330   0.000109   0.000035   0.000000
     5  C    0.003907  -0.035623   0.345686  -0.004619   0.002481   0.000098
     6  C    0.000755   0.002633  -0.038485  -0.043118  -0.063514   0.007029
     7  H    0.555986  -0.004264  -0.000101  -0.000000  -0.000000   0.000000
     8  H   -0.004264   0.543383  -0.004264  -0.000002   0.000001  -0.000000
     9  H   -0.000101  -0.004264   0.555982   0.000475  -0.000153  -0.000033
    10  C   -0.000000  -0.000002   0.000475   4.635352  -0.066881   0.515230
    11  C   -0.000000   0.000001  -0.000153  -0.066881   4.815973  -0.056119
    12  C    0.000000  -0.000000  -0.000033   0.515230  -0.056119   4.647744
    13  C   -0.000000   0.000002   0.000071   0.539091   0.004603  -0.054966
    14  C   -0.000000   0.000000   0.000000  -0.048064   0.005424   0.532447
    15  C   -0.000000   0.000000   0.000091  -0.006550  -0.000070  -0.037640
    16  H    0.000000  -0.000009   0.005839  -0.034124  -0.000150   0.003692
    17  C    0.000000  -0.000000   0.000002  -0.039165  -0.000075  -0.007697
    18  H    0.000000  -0.000000  -0.000000   0.003875  -0.000200  -0.038064
    19  H    0.000000   0.000000  -0.000008   0.001960   0.000003   0.000914
    20  H   -0.000000  -0.000000   0.000000   0.000897   0.000003   0.002296
    21  C    0.000474  -0.000002  -0.000000  -0.000000  -0.000005   0.000000
    22  C   -0.000153   0.000001  -0.000000  -0.000005  -0.010682  -0.000001
    23  C   -0.000033  -0.000000   0.000000   0.000000  -0.000001  -0.000000
    24  C    0.000072   0.000002  -0.000000   0.000000   0.000000   0.000000
    25  C    0.000000   0.000000  -0.000000  -0.000000   0.000000   0.000000
    26  C    0.000091   0.000000  -0.000000  -0.000000  -0.000000   0.000000
    27  H    0.005840  -0.000009   0.000000   0.000000   0.000000  -0.000000
    28  C    0.000002  -0.000000   0.000000   0.000000  -0.000000  -0.000000
    29  H   -0.000000  -0.000000   0.000000   0.000000   0.000000  -0.000000
    30  H   -0.000008   0.000000   0.000000   0.000000   0.000000   0.000000
    31  H    0.000000  -0.000000  -0.000000   0.000000   0.000000   0.000000
    32  N   -0.004024  -0.000097   0.000007   0.000000   0.000197   0.000000
    33  N    0.000002  -0.000000  -0.000000   0.000000   0.000012   0.000000
    34  N    0.000007  -0.000097  -0.004024   0.255116   0.339420  -0.038663
    35  N   -0.000000  -0.000000   0.000002  -0.045893   0.305296   0.271693
    36  C   -0.000000   0.000000  -0.000000   0.005611  -0.043543  -0.047543
    37  H    0.000000  -0.000000   0.000000  -0.000127   0.000753  -0.001178
    38  H    0.000000  -0.000000   0.000000  -0.000127   0.000749  -0.001175
    39  H    0.000000   0.000000   0.000000   0.000012  -0.000375   0.002653
    40  C   -0.000000   0.000000  -0.000000   0.000000   0.000011   0.000000
    41  H    0.000000  -0.000000   0.000000  -0.000000  -0.000000  -0.000000
    42  H    0.000000  -0.000000   0.000000  -0.000000  -0.000000  -0.000000
    43  H    0.000000   0.000000   0.000000  -0.000000  -0.000001  -0.000000
    44  Co  -0.000669   0.000117  -0.000669   0.007809   0.387112   0.004698
              13         14         15         16         17         18
     1  C    0.000150   0.000001   0.000001  -0.000021   0.000000  -0.000000
     2  C    0.000000  -0.000000  -0.000000   0.000000   0.000000   0.000000
     3  C   -0.000001   0.000000   0.000000   0.000001   0.000000   0.000000
     4  C    0.000050  -0.000000  -0.000001   0.000082   0.000000   0.000000
     5  C    0.001727   0.000001   0.000065   0.000038  -0.000000  -0.000000
     6  C   -0.004081  -0.000042   0.000056   0.000827  -0.000001   0.000002
     7  H   -0.000000  -0.000000  -0.000000   0.000000   0.000000   0.000000
     8  H    0.000002   0.000000   0.000000  -0.000009  -0.000000  -0.000000
     9  H    0.000071   0.000000   0.000091   0.005839   0.000002  -0.000000
    10  C    0.539091  -0.048064  -0.006550  -0.034124  -0.039165   0.003875
    11  C    0.004603   0.005424  -0.000070  -0.000150  -0.000075  -0.000200
    12  C   -0.054966   0.532447  -0.037640   0.003692  -0.007697  -0.038064
    13  C    5.028011  -0.044857   0.507480   0.356193  -0.035835   0.000289
    14  C   -0.044857   5.036929  -0.038716   0.000466   0.516070   0.362654
    15  C    0.507480  -0.038716   4.899067  -0.036177   0.559583   0.003968
    16  H    0.356193   0.000466  -0.036177   0.518450   0.003773   0.000013
    17  C   -0.035835   0.516070   0.559583   0.003773   4.884445  -0.035944
    18  H    0.000289   0.362654   0.003968   0.000013  -0.035944   0.536555
    19  H   -0.035816   0.004036   0.368976  -0.004087  -0.036122  -0.000152
    20  H    0.004048  -0.036817  -0.036465  -0.000153   0.368114  -0.004276
    21  C    0.000000  -0.000000  -0.000000   0.000000   0.000000   0.000000
    22  C    0.000000   0.000000  -0.000000   0.000000  -0.000000   0.000000
    23  C    0.000000   0.000000   0.000000  -0.000000  -0.000000  -0.000000
    24  C    0.000000  -0.000000  -0.000000   0.000000   0.000000   0.000000
    25  C   -0.000000  -0.000000   0.000000  -0.000000  -0.000000   0.000000
    26  C   -0.000000   0.000000  -0.000000  -0.000000   0.000000   0.000000
    27  H    0.000000  -0.000000  -0.000000   0.000000   0.000000  -0.000000
    28  C    0.000000  -0.000000   0.000000   0.000000   0.000000   0.000000
    29  H    0.000000   0.000000   0.000000  -0.000000   0.000000  -0.000000
    30  H   -0.000000  -0.000000   0.000000  -0.000000   0.000000   0.000000
    31  H   -0.000000   0.000000   0.000000  -0.000000   0.000000   0.000000
    32  N   -0.000000  -0.000000   0.000000   0.000000   0.000000  -0.000000
    33  N   -0.000000  -0.000000   0.000000   0.000000   0.000000  -0.000000
    34  N   -0.077093   0.008952   0.005065  -0.004958  -0.000211  -0.000088
    35  N    0.009337  -0.083573  -0.000145  -0.000097   0.005362  -0.007201
    36  C   -0.000120  -0.002927   0.000009   0.000003  -0.000110   0.004126
    37  H   -0.000008   0.002658  -0.000002  -0.000000  -0.000007   0.000499
    38  H   -0.000008   0.002656  -0.000002  -0.000000  -0.000007   0.000497
    39  H    0.000006   0.000015  -0.000000  -0.000000   0.000001  -0.000030
    40  C    0.000000   0.000000  -0.000000   0.000000   0.000000  -0.000000
    41  H    0.000000   0.000000  -0.000000   0.000000  -0.000000  -0.000000
    42  H    0.000000   0.000000  -0.000000   0.000000  -0.000000  -0.000000
    43  H   -0.000000   0.000000  -0.000000   0.000000  -0.000000   0.000000
    44  Co  -0.000475  -0.000429  -0.000023   0.000059   0.000009   0.000022
              19         20         21         22         23         24
     1  C   -0.000000   0.000000   0.005662   0.006044  -0.000642   0.000150
     2  C    0.000000  -0.000000  -0.043118  -0.063517   0.007030  -0.004082
     3  C   -0.000000   0.000000  -0.004620   0.002481   0.000098   0.001727
     4  C    0.000000  -0.000000   0.000109   0.000035   0.000000   0.000050
     5  C    0.000001  -0.000000   0.000002  -0.000040  -0.000000  -0.000001
     6  C   -0.000002  -0.000000  -0.000027   0.001831   0.000001   0.000000
     7  H    0.000000  -0.000000   0.000474  -0.000153  -0.000033   0.000072
     8  H    0.000000  -0.000000  -0.000002   0.000001  -0.000000   0.000002
     9  H   -0.000008   0.000000  -0.000000  -0.000000   0.000000  -0.000000
    10  C    0.001960   0.000897  -0.000000  -0.000005   0.000000   0.000000
    11  C    0.000003   0.000003  -0.000005  -0.010682  -0.000001   0.000000
    12  C    0.000914   0.002296   0.000000  -0.000001  -0.000000   0.000000
    13  C   -0.035816   0.004048   0.000000   0.000000   0.000000   0.000000
    14  C    0.004036  -0.036817  -0.000000   0.000000   0.000000  -0.000000
    15  C    0.368976  -0.036465  -0.000000  -0.000000   0.000000  -0.000000
    16  H   -0.004087  -0.000153   0.000000   0.000000  -0.000000   0.000000
    17  C   -0.036122   0.368114   0.000000  -0.000000  -0.000000   0.000000
    18  H   -0.000152  -0.004276   0.000000   0.000000  -0.000000   0.000000
    19  H    0.534094  -0.004605   0.000000   0.000000   0.000000  -0.000000
    20  H   -0.004605   0.537919   0.000000   0.000000   0.000000  -0.000000
    21  C    0.000000   0.000000   4.635302  -0.066874   0.515208   0.539108
    22  C    0.000000   0.000000  -0.066874   4.815950  -0.056118   0.004603
    23  C    0.000000   0.000000   0.515208  -0.056118   4.647733  -0.054972
    24  C   -0.000000  -0.000000   0.539108   0.004603  -0.054972   5.028055
    25  C   -0.000000   0.000000  -0.048064   0.005424   0.532463  -0.044875
    26  C    0.000000   0.000000  -0.006540  -0.000070  -0.037644   0.507471
    27  H   -0.000000  -0.000000  -0.034121  -0.000150   0.003691   0.356179
    28  C    0.000000   0.000000  -0.039168  -0.000075  -0.007688  -0.035828
    29  H    0.000000   0.000000   0.003875  -0.000200  -0.038067   0.000288
    30  H    0.000000   0.000000   0.001959   0.000003   0.000914  -0.035809
    31  H    0.000000   0.000000   0.000897   0.000003   0.002296   0.004048
    32  N    0.000000   0.000000   0.255109   0.339419  -0.038656  -0.077111
    33  N   -0.000000  -0.000000  -0.045885   0.305297   0.271688   0.009341
    34  N   -0.000086   0.000004   0.000000   0.000197   0.000000  -0.000000
    35  N    0.000004  -0.000096   0.000000   0.000012   0.000000  -0.000000
    36  C   -0.000000  -0.000002   0.000000   0.000011   0.000000   0.000000
    37  H   -0.000000  -0.000000  -0.000000  -0.000000  -0.000000   0.000000
    38  H   -0.000000  -0.000000  -0.000000  -0.000000  -0.000000   0.000000
    39  H   -0.000000  -0.000000  -0.000000  -0.000001  -0.000000  -0.000000
    40  C    0.000000  -0.000000   0.005611  -0.043544  -0.047544  -0.000120
    41  H   -0.000000   0.000000  -0.000126   0.000748  -0.001175  -0.000008
    42  H   -0.000000   0.000000  -0.000126   0.000754  -0.001180  -0.000008
    43  H    0.000000   0.000000   0.000012  -0.000375   0.002653   0.000006
    44  Co   0.000013  -0.000004   0.007808   0.387109   0.004698  -0.000476
              25         26         27         28         29         30
     1  C    0.000001   0.000001  -0.000021   0.000000  -0.000000  -0.000000
     2  C   -0.000042   0.000056   0.000828  -0.000001   0.000002  -0.000002
     3  C    0.000001   0.000065   0.000037  -0.000000  -0.000000   0.000001
     4  C   -0.000000  -0.000001   0.000082   0.000000   0.000000   0.000000
     5  C    0.000000   0.000000   0.000001   0.000000   0.000000  -0.000000
     6  C   -0.000000  -0.000000   0.000000   0.000000   0.000000   0.000000
     7  H    0.000000   0.000091   0.005840   0.000002  -0.000000  -0.000008
     8  H    0.000000   0.000000  -0.000009  -0.000000  -0.000000   0.000000
     9  H   -0.000000  -0.000000   0.000000   0.000000   0.000000   0.000000
    10  C   -0.000000  -0.000000   0.000000   0.000000   0.000000   0.000000
    11  C    0.000000  -0.000000   0.000000  -0.000000   0.000000   0.000000
    12  C    0.000000   0.000000  -0.000000  -0.000000  -0.000000   0.000000
    13  C   -0.000000  -0.000000   0.000000   0.000000   0.000000  -0.000000
    14  C   -0.000000   0.000000  -0.000000  -0.000000   0.000000  -0.000000
    15  C    0.000000  -0.000000  -0.000000   0.000000   0.000000   0.000000
    16  H   -0.000000  -0.000000   0.000000   0.000000  -0.000000  -0.000000
    17  C   -0.000000   0.000000   0.000000   0.000000   0.000000   0.000000
    18  H    0.000000   0.000000  -0.000000   0.000000  -0.000000   0.000000
    19  H   -0.000000   0.000000  -0.000000   0.000000   0.000000   0.000000
    20  H    0.000000   0.000000  -0.000000   0.000000   0.000000   0.000000
    21  C   -0.048064  -0.006540  -0.034121  -0.039168   0.003875   0.001959
    22  C    0.005424  -0.000070  -0.000150  -0.000075  -0.000200   0.000003
    23  C    0.532463  -0.037644   0.003691  -0.007688  -0.038067   0.000914
    24  C   -0.044875   0.507471   0.356179  -0.035828   0.000288  -0.035809
    25  C    5.036947  -0.038710   0.000466   0.516068   0.362645   0.004036
    26  C   -0.038710   4.899107  -0.036179   0.559550   0.003968   0.368982
    27  H    0.000466  -0.036179   0.518464   0.003773   0.000013  -0.004088
    28  C    0.516068   0.559550   0.003773   4.884480  -0.035946  -0.036122
    29  H    0.362645   0.003968   0.000013  -0.035946   0.536575  -0.000152
    30  H    0.004036   0.368982  -0.004088  -0.036122  -0.000152   0.534073
    31  H   -0.036811  -0.036465  -0.000153   0.368119  -0.004277  -0.004603
    32  N    0.008956   0.005066  -0.004958  -0.000211  -0.000088  -0.000086
    33  N   -0.083587  -0.000145  -0.000097   0.005362  -0.007202   0.000004
    34  N   -0.000000   0.000000   0.000000   0.000000  -0.000000   0.000000
    35  N   -0.000000   0.000000   0.000000   0.000000  -0.000000  -0.000000
    36  C    0.000000  -0.000000   0.000000   0.000000  -0.000000   0.000000
    37  H    0.000000  -0.000000   0.000000  -0.000000  -0.000000  -0.000000
    38  H    0.000000  -0.000000   0.000000  -0.000000  -0.000000  -0.000000
    39  H    0.000000  -0.000000   0.000000  -0.000000   0.000000   0.000000
    40  C   -0.002925   0.000009   0.000003  -0.000110   0.004127  -0.000000
    41  H    0.002656  -0.000002  -0.000000  -0.000007   0.000497  -0.000000
    42  H    0.002659  -0.000002  -0.000000  -0.000007   0.000499  -0.000000
    43  H    0.000015  -0.000000  -0.000000   0.000001  -0.000030  -0.000000
    44  Co  -0.000429  -0.000023   0.000059   0.000009   0.000022   0.000013
              31         32         33         34         35         36
     1  C    0.000000  -0.040465   0.001199  -0.040465   0.001199  -0.000007
     2  C   -0.000000   0.270300   0.005881   0.005859  -0.000029   0.000000
     3  C   -0.000000  -0.070156  -0.000166   0.000031   0.000000   0.000000
     4  C   -0.000000   0.004629   0.000001   0.004629   0.000001  -0.000000
     5  C    0.000000   0.000031   0.000000  -0.070154  -0.000166   0.000002
     6  C   -0.000000   0.005859  -0.000029   0.270298   0.005882  -0.000044
     7  H    0.000000  -0.004024   0.000002   0.000007  -0.000000  -0.000000
     8  H   -0.000000  -0.000097  -0.000000  -0.000097  -0.000000   0.000000
     9  H   -0.000000   0.000007  -0.000000  -0.004024   0.000002  -0.000000
    10  C    0.000000   0.000000   0.000000   0.255116  -0.045893   0.005611
    11  C    0.000000   0.000197   0.000012   0.339420   0.305296  -0.043543
    12  C    0.000000   0.000000   0.000000  -0.038663   0.271693  -0.047543
    13  C   -0.000000  -0.000000  -0.000000  -0.077093   0.009337  -0.000120
    14  C    0.000000  -0.000000  -0.000000   0.008952  -0.083573  -0.002927
    15  C    0.000000   0.000000   0.000000   0.005065  -0.000145   0.000009
    16  H   -0.000000   0.000000   0.000000  -0.004958  -0.000097   0.000003
    17  C    0.000000   0.000000   0.000000  -0.000211   0.005362  -0.000110
    18  H    0.000000  -0.000000  -0.000000  -0.000088  -0.007201   0.004126
    19  H    0.000000   0.000000  -0.000000  -0.000086   0.000004  -0.000000
    20  H    0.000000   0.000000  -0.000000   0.000004  -0.000096  -0.000002
    21  C    0.000897   0.255109  -0.045885   0.000000   0.000000   0.000000
    22  C    0.000003   0.339419   0.305297   0.000197   0.000012   0.000011
    23  C    0.002296  -0.038656   0.271688   0.000000   0.000000   0.000000
    24  C    0.004048  -0.077111   0.009341  -0.000000  -0.000000   0.000000
    25  C   -0.036811   0.008956  -0.083587  -0.000000  -0.000000   0.000000
    26  C   -0.036465   0.005066  -0.000145   0.000000   0.000000  -0.000000
    27  H   -0.000153  -0.004958  -0.000097   0.000000   0.000000   0.000000
    28  C    0.368119  -0.000211   0.005362   0.000000   0.000000   0.000000
    29  H   -0.004277  -0.000088  -0.007202  -0.000000  -0.000000  -0.000000
    30  H   -0.004603  -0.000086   0.000004   0.000000  -0.000000   0.000000
    31  H    0.537899   0.000004  -0.000096   0.000000  -0.000000  -0.000000
    32  N    0.000004   7.207299  -0.055590  -0.000050   0.000000   0.000000
    33  N   -0.000096  -0.055590   7.051376   0.000000  -0.000000  -0.000000
    34  N    0.000000  -0.000050   0.000000   7.207267  -0.055588   0.004482
    35  N   -0.000000   0.000000  -0.000000  -0.055588   7.051356   0.301117
    36  C   -0.000000   0.000000  -0.000000   0.004482   0.301117   5.051099
    37  H    0.000000   0.000000   0.000000  -0.000069  -0.041640   0.377242
    38  H    0.000000   0.000000   0.000000  -0.000068  -0.041646   0.377248
    39  H    0.000000  -0.000000   0.000000   0.000144  -0.032633   0.376853
    40  C   -0.000002   0.004482   0.301115   0.000000  -0.000000   0.000000
    41  H   -0.000000  -0.000068  -0.041645   0.000000   0.000000  -0.000000
    42  H   -0.000000  -0.000069  -0.041638   0.000000   0.000000  -0.000000
    43  H   -0.000000   0.000144  -0.032634  -0.000000   0.000000  -0.000001
    44  Co  -0.000004  -0.076494  -0.053168  -0.076493  -0.053169  -0.003824
              37         38         39         40         41         42
     1  C   -0.000000  -0.000000  -0.000021  -0.000007  -0.000000  -0.000000
     2  C   -0.000000  -0.000000   0.000001  -0.000044   0.000003   0.000003
     3  C    0.000000   0.000000   0.000000   0.000002  -0.000000  -0.000000
     4  C    0.000000   0.000000  -0.000000  -0.000000   0.000000   0.000000
     5  C   -0.000000  -0.000000   0.000000   0.000000   0.000000   0.000000
     6  C    0.000003   0.000003  -0.000008   0.000000  -0.000000  -0.000000
     7  H    0.000000   0.000000   0.000000  -0.000000   0.000000   0.000000
     8  H   -0.000000  -0.000000   0.000000   0.000000  -0.000000  -0.000000
     9  H    0.000000   0.000000   0.000000  -0.000000   0.000000   0.000000
    10  C   -0.000127  -0.000127   0.000012   0.000000  -0.000000  -0.000000
    11  C    0.000753   0.000749  -0.000375   0.000011  -0.000000  -0.000000
    12  C   -0.001178  -0.001175   0.002653   0.000000  -0.000000  -0.000000
    13  C   -0.000008  -0.000008   0.000006   0.000000   0.000000   0.000000
    14  C    0.002658   0.002656   0.000015   0.000000   0.000000   0.000000
    15  C   -0.000002  -0.000002  -0.000000  -0.000000  -0.000000  -0.000000
    16  H   -0.000000  -0.000000  -0.000000   0.000000   0.000000   0.000000
    17  C   -0.000007  -0.000007   0.000001   0.000000  -0.000000  -0.000000
    18  H    0.000499   0.000497  -0.000030  -0.000000  -0.000000  -0.000000
    19  H   -0.000000  -0.000000  -0.000000   0.000000  -0.000000  -0.000000
    20  H   -0.000000  -0.000000  -0.000000  -0.000000   0.000000   0.000000
    21  C   -0.000000  -0.000000  -0.000000   0.005611  -0.000126  -0.000126
    22  C   -0.000000  -0.000000  -0.000001  -0.043544   0.000748   0.000754
    23  C   -0.000000  -0.000000  -0.000000  -0.047544  -0.001175  -0.001180
    24  C    0.000000   0.000000  -0.000000  -0.000120  -0.000008  -0.000008
    25  C    0.000000   0.000000   0.000000  -0.002925   0.002656   0.002659
    26  C   -0.000000  -0.000000  -0.000000   0.000009  -0.000002  -0.000002
    27  H    0.000000   0.000000   0.000000   0.000003  -0.000000  -0.000000
    28  C   -0.000000  -0.000000  -0.000000  -0.000110  -0.000007  -0.000007
    29  H   -0.000000  -0.000000   0.000000   0.004127   0.000497   0.000499
    30  H   -0.000000  -0.000000   0.000000  -0.000000  -0.000000  -0.000000
    31  H    0.000000   0.000000   0.000000  -0.000002  -0.000000  -0.000000
    32  N    0.000000   0.000000  -0.000000   0.004482  -0.000068  -0.000069
    33  N    0.000000   0.000000   0.000000   0.301115  -0.041645  -0.041638
    34  N   -0.000069  -0.000068   0.000144   0.000000   0.000000   0.000000
    35  N   -0.041640  -0.041646  -0.032633  -0.000000   0.000000   0.000000
    36  C    0.377242   0.377248   0.376853   0.000000  -0.000000  -0.000000
    37  H    0.525411  -0.040604  -0.025594  -0.000000  -0.000000   0.000000
    38  H   -0.040604   0.525415  -0.025605  -0.000000   0.000000  -0.000000
    39  H   -0.025594  -0.025605   0.479236  -0.000001   0.000000   0.000000
    40  C   -0.000000  -0.000000  -0.000001   5.051103   0.377249   0.377242
    41  H   -0.000000   0.000000   0.000000   0.377249   0.525412  -0.040604
    42  H    0.000000  -0.000000   0.000000   0.377242  -0.040604   0.525408
    43  H    0.000000   0.000000  -0.000017   0.376852  -0.025606  -0.025593
    44  Co   0.001018   0.001022   0.007866  -0.003824   0.001023   0.001017
              43         44
     1  C   -0.000021   0.256528
     2  C   -0.000008  -0.059482
     3  C    0.000000   0.004008
     4  C   -0.000000   0.003568
     5  C    0.000000   0.004008
     6  C    0.000001  -0.059482
     7  H    0.000000  -0.000669
     8  H    0.000000   0.000117
     9  H    0.000000  -0.000669
    10  C   -0.000000   0.007809
    11  C   -0.000001   0.387112
    12  C   -0.000000   0.004698
    13  C   -0.000000  -0.000475
    14  C    0.000000  -0.000429
    15  C   -0.000000  -0.000023
    16  H    0.000000   0.000059
    17  C   -0.000000   0.000009
    18  H    0.000000   0.000022
    19  H    0.000000   0.000013
    20  H    0.000000  -0.000004
    21  C    0.000012   0.007808
    22  C   -0.000375   0.387109
    23  C    0.002653   0.004698
    24  C    0.000006  -0.000476
    25  C    0.000015  -0.000429
    26  C   -0.000000  -0.000023
    27  H   -0.000000   0.000059
    28  C    0.000001   0.000009
    29  H   -0.000030   0.000022
    30  H   -0.000000   0.000013
    31  H   -0.000000  -0.000004
    32  N    0.000144  -0.076494
    33  N   -0.032634  -0.053168
    34  N   -0.000000  -0.076493
    35  N    0.000000  -0.053169
    36  C   -0.000001  -0.003824
    37  H    0.000000   0.001018
    38  H    0.000000   0.001022
    39  H   -0.000017   0.007866
    40  C    0.376852  -0.003824
    41  H   -0.025606   0.001023
    42  H   -0.025593   0.001017
    43  H    0.479240   0.007867
    44  Co   0.007867  16.343358
          Atomic-Atomic Spin Densities.
               1          2          3          4          5          6
     1  C   -0.387476  -0.006661   0.005839   0.008551   0.005839  -0.006660
     2  C   -0.006661   0.089846   0.003092  -0.002602   0.001356   0.000876
     3  C    0.005839   0.003092  -0.077206  -0.005243   0.000055   0.001356
     4  C    0.008551  -0.002602  -0.005243   0.089906  -0.005244  -0.002602
     5  C    0.005839   0.001356   0.000055  -0.005244  -0.077207   0.003092
     6  C   -0.006660   0.000876   0.001356  -0.002602   0.003092   0.089843
     7  H   -0.001022   0.000510   0.004695   0.001949  -0.000039  -0.000099
     8  H   -0.000167   0.000006  -0.000038   0.000496  -0.000038   0.000006
     9  H   -0.001022  -0.000099  -0.000039   0.001948   0.004695   0.000510
    10  C   -0.000290  -0.000017   0.000001   0.000018   0.000417   0.000200
    11  C    0.006740  -0.000783   0.000006   0.000025  -0.000175  -0.006413
    12  C    0.000073   0.000000   0.000000  -0.000000  -0.000007   0.000027
    13  C    0.000015   0.000000  -0.000000   0.000002  -0.000277  -0.000378
    14  C    0.000000   0.000000  -0.000000  -0.000000  -0.000001  -0.000019
    15  C   -0.000000   0.000000   0.000000  -0.000000   0.000002   0.000006
    16  H   -0.000002  -0.000000  -0.000000   0.000003   0.000086   0.000063
    17  C   -0.000000  -0.000000   0.000000  -0.000000   0.000000   0.000002
    18  H    0.000000  -0.000000   0.000000   0.000000   0.000000   0.000000
    19  H    0.000000   0.000000  -0.000000  -0.000000  -0.000000   0.000000
    20  H   -0.000000   0.000000  -0.000000  -0.000000  -0.000000  -0.000000
    21  C   -0.000290   0.000200   0.000417   0.000018   0.000001  -0.000017
    22  C    0.006739  -0.006413  -0.000175   0.000025   0.000006  -0.000783
    23  C    0.000073   0.000027  -0.000007  -0.000000   0.000000   0.000000
    24  C    0.000015  -0.000377  -0.000277   0.000002  -0.000000   0.000000
    25  C    0.000000  -0.000019  -0.000001  -0.000000  -0.000000   0.000000
    26  C   -0.000000   0.000006   0.000002  -0.000000   0.000000   0.000000
    27  H   -0.000002   0.000063   0.000086   0.000003  -0.000000  -0.000000
    28  C   -0.000000   0.000002   0.000000  -0.000000   0.000000  -0.000000
    29  H    0.000000   0.000000   0.000000   0.000000   0.000000  -0.000000
    30  H    0.000000   0.000000  -0.000000  -0.000000  -0.000000   0.000000
    31  H   -0.000000  -0.000000  -0.000000  -0.000000  -0.000000   0.000000
    32  N    0.002369   0.012180   0.004785   0.000113   0.000045  -0.000149
    33  N   -0.000632   0.000356  -0.000016  -0.000000  -0.000000   0.000003
    34  N    0.002369  -0.000149   0.000045   0.000113   0.004785   0.012180
    35  N   -0.000632   0.000003  -0.000000  -0.000000  -0.000016   0.000356
    36  C   -0.000019   0.000000  -0.000000  -0.000000  -0.000000  -0.000004
    37  H    0.000000  -0.000000   0.000000   0.000000   0.000000  -0.000001
    38  H    0.000000  -0.000000   0.000000   0.000000   0.000000  -0.000001
    39  H    0.000014  -0.000000   0.000000   0.000000   0.000000   0.000000
    40  C   -0.000019  -0.000004  -0.000000  -0.000000  -0.000000   0.000000
    41  H    0.000000  -0.000001   0.000000   0.000000   0.000000  -0.000000
    42  H    0.000000  -0.000001   0.000000   0.000000   0.000000  -0.000000
    43  H    0.000014   0.000000   0.000000   0.000000   0.000000  -0.000000
    44  Co   0.016704  -0.010362  -0.001924   0.000969  -0.001924  -0.010362
               7          8          9         10         11         12
     1  C   -0.001022  -0.000167  -0.001022  -0.000290   0.006740   0.000073
     2  C    0.000510   0.000006  -0.000099  -0.000017  -0.000783   0.000000
     3  C    0.004695  -0.000038  -0.000039   0.000001   0.000006   0.000000
     4  C    0.001949   0.000496   0.001948   0.000018   0.000025  -0.000000
     5  C   -0.000039  -0.000038   0.004695   0.000417  -0.000175  -0.000007
     6  C   -0.000099   0.000006   0.000510   0.000200  -0.006413   0.000027
     7  H   -0.009370  -0.000177  -0.000026  -0.000000   0.000000  -0.000000
     8  H   -0.000177  -0.004371  -0.000177  -0.000000   0.000000   0.000000
     9  H   -0.000026  -0.000177  -0.009370  -0.000138   0.000016   0.000001
    10  C   -0.000000  -0.000000  -0.000138  -0.004179   0.001722  -0.002169
    11  C    0.000000   0.000000   0.000016   0.001722   0.209411  -0.002310
    12  C   -0.000000   0.000000   0.000001  -0.002169  -0.002310  -0.028542
    13  C    0.000000   0.000000   0.000176   0.004439   0.000258   0.000589
    14  C    0.000000   0.000000   0.000001   0.000900   0.000546  -0.000555
    15  C    0.000000   0.000000   0.000005  -0.000770  -0.000026   0.000239
    16  H   -0.000000  -0.000000  -0.000181  -0.000183   0.000000  -0.000006
    17  C   -0.000000  -0.000000  -0.000000   0.000142  -0.000012  -0.000218
    18  H   -0.000000  -0.000000  -0.000000  -0.000010  -0.000003  -0.000076
    19  H   -0.000000  -0.000000  -0.000000   0.000001  -0.000000  -0.000008
    20  H    0.000000   0.000000   0.000000  -0.000004   0.000000   0.000014
    21  C   -0.000138  -0.000000  -0.000000  -0.000000   0.000001  -0.000000
    22  C    0.000016   0.000000   0.000000   0.000001   0.001371   0.000000
    23  C    0.000001   0.000000  -0.000000  -0.000000   0.000000   0.000000
    24  C    0.000176   0.000000   0.000000   0.000000   0.000000   0.000000
    25  C    0.000001   0.000000   0.000000   0.000000   0.000000   0.000000
    26  C    0.000005   0.000000   0.000000  -0.000000  -0.000000   0.000000
    27  H   -0.000181  -0.000000  -0.000000  -0.000000  -0.000000  -0.000000
    28  C   -0.000000  -0.000000  -0.000000  -0.000000  -0.000000  -0.000000
    29  H   -0.000000  -0.000000  -0.000000   0.000000   0.000000  -0.000000
    30  H   -0.000000  -0.000000  -0.000000  -0.000000  -0.000000   0.000000
    31  H    0.000000   0.000000   0.000000   0.000000  -0.000000  -0.000000
    32  N   -0.000713  -0.000002  -0.000002  -0.000000  -0.000048  -0.000000
    33  N    0.000003   0.000000   0.000000   0.000000  -0.000001   0.000000
    34  N   -0.000002  -0.000002  -0.000713  -0.001177  -0.032568   0.001601
    35  N    0.000000   0.000000   0.000003  -0.000727  -0.041243   0.008927
    36  C    0.000000   0.000000   0.000000  -0.000029   0.001062   0.000366
    37  H   -0.000000  -0.000000  -0.000000   0.000003   0.000425  -0.000168
    38  H   -0.000000  -0.000000  -0.000000   0.000003   0.000426  -0.000168
    39  H   -0.000000  -0.000000  -0.000000   0.000000  -0.000774  -0.000063
    40  C    0.000000   0.000000   0.000000   0.000000   0.000000  -0.000000
    41  H   -0.000000  -0.000000  -0.000000   0.000000   0.000000  -0.000000
    42  H   -0.000000  -0.000000  -0.000000   0.000000   0.000000  -0.000000
    43  H   -0.000000  -0.000000  -0.000000  -0.000000  -0.000000   0.000000
    44  Co   0.000412   0.000042   0.000412   0.001403   0.058794   0.000064
              13         14         15         16         17         18
     1  C    0.000015   0.000000  -0.000000  -0.000002  -0.000000   0.000000
     2  C    0.000000   0.000000   0.000000  -0.000000  -0.000000  -0.000000
     3  C   -0.000000  -0.000000   0.000000  -0.000000   0.000000   0.000000
     4  C    0.000002  -0.000000  -0.000000   0.000003  -0.000000   0.000000
     5  C   -0.000277  -0.000001   0.000002   0.000086   0.000000   0.000000
     6  C   -0.000378  -0.000019   0.000006   0.000063   0.000002   0.000000
     7  H    0.000000   0.000000   0.000000  -0.000000  -0.000000  -0.000000
     8  H    0.000000   0.000000   0.000000  -0.000000  -0.000000  -0.000000
     9  H    0.000176   0.000001   0.000005  -0.000181  -0.000000  -0.000000
    10  C    0.004439   0.000900  -0.000770  -0.000183   0.000142  -0.000010
    11  C    0.000258   0.000546  -0.000026   0.000000  -0.000012  -0.000003
    12  C    0.000589  -0.000555   0.000239  -0.000006  -0.000218  -0.000076
    13  C    0.018438   0.000973  -0.009413   0.000255  -0.001102  -0.000005
    14  C    0.000973   0.052432  -0.002165  -0.000001  -0.006235   0.000080
    15  C   -0.009413  -0.002165   0.031468   0.000003   0.005684  -0.000003
[...]
    40 C(13)  Bbb    -0.0033    -0.440    -0.157    -0.147 -0.6224  0.7827  0.0001
              Bcc     0.0088     1.181     0.421     0.394  0.7827  0.6224  0.0001
 
              Baa    -0.0039    -2.106    -0.752    -0.703 -0.0232  0.3418  0.9395
    41 H(1)   Bbb    -0.0025    -1.343    -0.479    -0.448 -0.6456  0.7124 -0.2751
              Bcc     0.0065     3.449     1.231     1.151  0.7633  0.6129 -0.2041
 
              Baa    -0.0039    -2.105    -0.751    -0.702  0.0232 -0.3417  0.9395
    42 H(1)   Bbb    -0.0025    -1.343    -0.479    -0.448 -0.6456  0.7124  0.2751
              Bcc     0.0065     3.448     1.230     1.150  0.7633  0.6129  0.2041
 
              Baa    -0.0077    -4.110    -1.466    -1.371  0.0000 -0.0003  1.0000
    43 H(1)   Bbb    -0.0066    -3.496    -1.247    -1.166  0.7453 -0.6667 -0.0002
              Bcc     0.0143     7.606     2.714     2.537  0.6667  0.7453  0.0002
 
              Baa    -0.7420   -93.704   -33.436   -31.256  1.0000 -0.0000  0.0000
    44 Co(59) Bbb    -0.1670   -21.084    -7.523    -7.033  0.0000  1.0000  0.0000
              Bcc     0.9090   114.788    40.959    38.289 -0.0000 -0.0000  1.0000
 

 ---------------------------------------------------------------------------------

   1 Symmetry operations used in ECPInt.
 ECPInt:  NShTT=   11781 NPrTT=   71406 LenC2=    9480 LenP2D=   31901.
 LDataN:  DoStor=T MaxTD1= 7 Len=  274
 Calling FoFJK, ICntrl=      2127 FMM=F ISym2X=0 I1Cent= 0 IOpClX= 1 NMat=1 NMatS=1 NMatT=0.
 -------------------------------------------------------------------
 Center     Atomic                   Forces (Hartrees/Bohr)
 Number     Number              X              Y              Z
 -------------------------------------------------------------------
      1        6          -0.000008756   -0.072211400   -0.000016877
      2        6           0.054563002    0.031959734    0.000008384
      3        6          -0.004910580    0.003064212    0.000001195
      4        6           0.000008167    0.003187699   -0.000002227
      5        6           0.004893927    0.003057397    0.000001263
      6        6          -0.054540341    0.031970572    0.000007850
      7        1          -0.000988062    0.003585118   -0.000001145
      8        1          -0.000000838    0.000641731   -0.000000351
      9        1           0.000993627    0.003588332   -0.000001400
     10        6          -0.009829846   -0.005772849    0.000002540
     11        6           0.001528779    0.004357164   -0.000005216
     12        6           0.009954151    0.005036887    0.000000088
     13        6           0.009241953    0.003867685   -0.000000057
     14        6           0.000356746    0.003880053    0.000000557
     15        6          -0.010582811    0.005004232    0.000000740
     16        1          -0.000769079   -0.000042300   -0.000000475
     17        6          -0.000060595   -0.008682544    0.000000216
     18        1          -0.000364926   -0.000155151   -0.000000146
     19        1          -0.000078137    0.000212912   -0.000000798
     20        1          -0.000408668   -0.000298630   -0.000000063
     21        6           0.009878410   -0.005945344    0.000002175
     22        6          -0.001528660    0.004360524   -0.000007523
     23        6          -0.009817762    0.005128497    0.000000066
     24        6          -0.009241480    0.004026971    0.000000404
     25        6          -0.000439819    0.003767325    0.000000270
     26        6           0.010525096    0.004856005    0.000000114
     27        1           0.000754785   -0.000090197   -0.000000350
     28        6           0.000111855   -0.008532411    0.000000287
     29        1           0.000382788   -0.000114865   -0.000000655
     30        1           0.000068378    0.000237198   -0.000000692
     31        1           0.000386108   -0.000310115   -0.000000219
     32        7          -0.016963627   -0.047204205    0.000000271
     33        7           0.021596350    0.016683057    0.000003895
     34        7           0.016925054   -0.047227299   -0.000000992
     35        7          -0.021644012    0.016675546    0.000001202
     36        6          -0.000116447   -0.007893110    0.000001499
     37        1           0.000521122    0.001809361    0.000595683
     38        1           0.000518913    0.001811139   -0.000598709
     39        1           0.000428282    0.001370145    0.000001539
     40        6           0.000129989   -0.007898461    0.000001415
     41        1          -0.000519550    0.001811397   -0.000597806
     42        1          -0.000522285    0.001809749    0.000594481
     43        1          -0.000432873    0.001369895    0.000001781
     44       27           0.000001674    0.043248339    0.000007788
 -------------------------------------------------------------------
 Cartesian Forces:  Max     0.072211400 RMS     0.013217256

 GradGradGradGradGradGradGradGradGradGradGradGradGradGradGradGradGradGrad
 Berny optimization.
 Search for a local minimum.
 Step number   1 out of a maximum of    2
 All quantities printed in internal units (Hartrees-Bohrs-Radians)
 Second derivative matrix not updated -- first step.
 ITU=  0
     Eigenvalues ---    0.00053   0.00055   0.00195   0.00239   0.00242
     Eigenvalues ---    0.00377   0.00438   0.00607   0.00649   0.00661
     Eigenvalues ---    0.00664   0.00814   0.00841   0.01313   0.01547
     Eigenvalues ---    0.01784   0.02017   0.02051   0.02537   0.02547
     Eigenvalues ---    0.03034   0.03099   0.04098   0.04197   0.04384
     Eigenvalues ---    0.04469   0.04665   0.05371   0.05519   0.06088
     Eigenvalues ---    0.06137   0.06888   0.06920   0.07039   0.07053
     Eigenvalues ---    0.07057   0.07245   0.07690   0.07757   0.09575
     Eigenvalues ---    0.09809   0.10077   0.10328   0.11480   0.11872
     Eigenvalues ---    0.11934   0.12064   0.12165   0.12798   0.13316
     Eigenvalues ---    0.13322   0.13400   0.13621   0.14664   0.15322
     Eigenvalues ---    0.15392   0.15848   0.19265   0.19735   0.19952
     Eigenvalues ---    0.20946   0.21861   0.23991   0.24396   0.28450
     Eigenvalues ---    0.29400   0.29404   0.30283   0.30546   0.31478
     Eigenvalues ---    0.31676   0.34603   0.35553   0.36240   0.37079
     Eigenvalues ---    0.37424   0.41027   0.41455   0.44201   0.46522
     Eigenvalues ---    0.48068   0.48228   0.49268   0.50842   0.50904
     Eigenvalues ---    0.53511   0.53590   0.53626   0.60385   0.62635
     Eigenvalues ---    0.68384   0.71169   0.72457   0.73550   0.86393
     Eigenvalues ---    0.89930   0.90629   0.90827   0.92617   0.94082
     Eigenvalues ---    0.94979   0.96688   0.99650   1.03805   1.11988
     Eigenvalues ---    1.15370   1.15520   1.17974   1.20355   1.23598
     Eigenvalues ---    1.30026   1.37552   1.37563   1.45415   1.46594
     Eigenvalues ---    1.49137   1.50300   1.52613   1.59969   1.63487
     Eigenvalues ---    1.64830   1.65938   1.76966   1.78109   1.83397
     Eigenvalues ---    1.86975
 Quadratic step=7.616D-01 exceeds max=3.000D-01 adjusted using Lamda=-3.233D-02.
 Angle between NR and scaled steps=  34.08 degrees.
 Angle between quadratic step and forces=  51.32 degrees.
 Linear search not attempted -- first point.
 B after Tr=     0.000002   -0.000978    0.000000
         Rot=    1.000000   -0.000000   -0.000000   -0.000000 Ang=  -0.00 deg.
 Variable       Old X    -DE/DX   Delta X   Delta X   Delta X     New X
                                 (Linear)    (Quad)   (Total)
    X1        0.00001  -0.00001   0.00000  -0.00000  -0.00000   0.00001
    Y1        1.51094  -0.07221   0.00000  -0.14053  -0.14151   1.36943
    Z1        0.00030  -0.00002   0.00000  -0.00007  -0.00007   0.00024
    X2       -2.43822   0.05456   0.00000   0.07994   0.07995  -2.35827
    Y2        2.55348   0.03196   0.00000  -0.02005  -0.02103   2.53245
    Z2        0.00009   0.00001   0.00000   0.00001   0.00001   0.00010
    X3       -2.35874  -0.00491   0.00000   0.02216   0.02216  -2.33658
    Y3        5.19077   0.00306   0.00000  -0.00184  -0.00282   5.18795
    Z3       -0.00003   0.00000   0.00000   0.00002   0.00002  -0.00001
    X4       -0.00000   0.00001   0.00000   0.00000   0.00001   0.00000
    Y4        6.40272   0.00319   0.00000   0.02530   0.02432   6.42704
    Z4       -0.00000  -0.00000   0.00000  -0.00001  -0.00000  -0.00001
    X5        2.35875   0.00489   0.00000  -0.02217  -0.02217   2.33659
    Y5        5.19078   0.00306   0.00000  -0.00185  -0.00283   5.18795
    Z5        0.00004   0.00000   0.00000   0.00001   0.00002   0.00005
    X6        2.43821  -0.05454   0.00000  -0.07993  -0.07993   2.35827
    Y6        2.55347   0.03197   0.00000  -0.02004  -0.02102   2.53245
    Z6        0.00014   0.00001   0.00000   0.00001   0.00001   0.00015
    X7       -4.06836  -0.00099   0.00000   0.01167   0.01168  -4.05669
    Y7        6.31438   0.00359   0.00000  -0.00173  -0.00270   6.31168
    Z7       -0.00010  -0.00000   0.00000   0.00000   0.00000  -0.00009
    X8        0.00000  -0.00000   0.00000  -0.00000  -0.00000   0.00000
    Y8        8.45462   0.00064   0.00000   0.02488   0.02390   8.47853
    Z8       -0.00005  -0.00000   0.00000  -0.00002  -0.00002  -0.00007
    X9        4.06837   0.00099   0.00000  -0.01167  -0.01167   4.05670
    Y9        6.31438   0.00359   0.00000  -0.00172  -0.00270   6.31168
    Z9        0.00004  -0.00000   0.00000  -0.00001  -0.00000   0.00003
   X10        7.02634  -0.00983   0.00000  -0.04206  -0.04206   6.98428
   Y10        1.10606  -0.00577   0.00000  -0.01164  -0.01262   1.09343
   Z10       -0.00008   0.00000   0.00000   0.00001   0.00001  -0.00006
   X11        3.67161   0.00153   0.00000  -0.04178  -0.04178   3.62983
   Y11       -1.72806   0.00436   0.00000   0.00368   0.00271  -1.72535
   Z11        0.00026  -0.00001   0.00000  -0.00002  -0.00002   0.00023
   X12        7.97026   0.00995   0.00000  -0.02547  -0.02547   7.94479
   Y12       -1.39835   0.00504   0.00000   0.00785   0.00687  -1.39148
   Z12       -0.00017   0.00000   0.00000   0.00001   0.00001  -0.00017
   X13        8.65785   0.00924   0.00000  -0.03349  -0.03349   8.62436
   Y13        3.14576   0.00387   0.00000   0.00027  -0.00071   3.14505
   Z13       -0.00016  -0.00000   0.00000   0.00001   0.00001  -0.00015
   X14       10.55649   0.00036   0.00000  -0.02710  -0.02710  10.52939
   Y14       -1.87632   0.00388   0.00000   0.00273   0.00176  -1.87456
   Z14       -0.00038   0.00000   0.00000   0.00001   0.00001  -0.00037
   X15       11.27397  -0.01058   0.00000  -0.04395  -0.04395  11.23002
   Y15        2.65899   0.00500   0.00000   0.00055  -0.00043   2.65856
   Z15       -0.00036   0.00000   0.00000   0.00000   0.00000  -0.00035
   X16        7.97820  -0.00077   0.00000  -0.03068  -0.03068   7.94752
   Y16        5.07668  -0.00004   0.00000   0.00088  -0.00010   5.07658
   Z16       -0.00003  -0.00000   0.00000  -0.00000  -0.00000  -0.00003
   X17       12.19486  -0.00006   0.00000  -0.02998  -0.02997  12.16489
   Y17        0.20682  -0.00868   0.00000  -0.00687  -0.00785   0.19897
   Z17       -0.00048   0.00000   0.00000   0.00001   0.00001  -0.00047
   X18       11.28730  -0.00036   0.00000  -0.02562  -0.02561  11.26169
   Y18       -3.79306  -0.00016   0.00000   0.00221   0.00123  -3.79183
   Z18       -0.00042  -0.00000   0.00000   0.00001   0.00000  -0.00041
   X19       12.57851  -0.00008   0.00000  -0.03773  -0.03773  12.54078
   Y19        4.24182   0.00021   0.00000  -0.00116  -0.00213   4.23968
   Z19       -0.00038  -0.00000   0.00000  -0.00002  -0.00001  -0.00039
   X20       14.22280  -0.00041   0.00000  -0.02819  -0.02819  14.19460
   Y20       -0.11520  -0.00030   0.00000  -0.00499  -0.00597  -0.12117
   Z20       -0.00062  -0.00000   0.00000   0.00000   0.00000  -0.00061
   X21       -7.02637   0.00988   0.00000   0.04211   0.04212  -6.98425
   Y21        1.10617  -0.00595   0.00000  -0.01175  -0.01273   1.09344
   Z21       -0.00010   0.00000   0.00000   0.00002   0.00002  -0.00008
   X22       -3.67160  -0.00153   0.00000   0.04178   0.04178  -3.62982
   Y22       -1.72806   0.00436   0.00000   0.00369   0.00271  -1.72536
   Z22        0.00021  -0.00001   0.00000  -0.00002  -0.00002   0.00019
   X23       -7.97035  -0.00982   0.00000   0.02557   0.02557  -7.94478
   Y23       -1.39843   0.00513   0.00000   0.00790   0.00692  -1.39151
   Z23       -0.00015   0.00000   0.00000   0.00001   0.00001  -0.00014
   X24       -8.65785  -0.00924   0.00000   0.03349   0.03349  -8.62436
   Y24        3.14563   0.00403   0.00000   0.00034  -0.00064   3.14500
   Z24       -0.00014   0.00000   0.00000   0.00001   0.00001  -0.00013
   X25      -10.55642  -0.00044   0.00000   0.02706   0.02707 -10.52935
   Y25       -1.87626   0.00377   0.00000   0.00269   0.00171  -1.87455
   Z25       -0.00022   0.00000   0.00000   0.00001   0.00001  -0.00021
   X26      -11.27393   0.01053   0.00000   0.04390   0.04390 -11.23003
   Y26        2.65908   0.00486   0.00000   0.00047  -0.00051   2.65856
   Z26       -0.00022   0.00000   0.00000   0.00000   0.00000  -0.00022
   X27       -7.97819   0.00075   0.00000   0.03064   0.03065  -7.94754
   Y27        5.07670  -0.00009   0.00000   0.00083  -0.00015   5.07655
   Z27       -0.00006  -0.00000   0.00000  -0.00000   0.00000  -0.00006
   X28      -12.19489   0.00011   0.00000   0.03000   0.03000 -12.16490
   Y28        0.20669  -0.00853   0.00000  -0.00677  -0.00775   0.19894
   Z28       -0.00026   0.00000   0.00000   0.00000   0.00000  -0.00026
   X29      -11.28730   0.00038   0.00000   0.02562   0.02563 -11.26168
   Y29       -3.79311  -0.00011   0.00000   0.00227   0.00129  -3.79182
   Z29       -0.00017  -0.00000   0.00000  -0.00001  -0.00001  -0.00018
   X30      -12.57850   0.00007   0.00000   0.03768   0.03769 -12.54081
   Y30        4.24178   0.00024   0.00000  -0.00115  -0.00213   4.23965
   Z30       -0.00022  -0.00000   0.00000  -0.00002  -0.00001  -0.00023
   X31      -14.22277   0.00039   0.00000   0.02816   0.02816 -14.19461
   Y31       -0.11521  -0.00031   0.00000  -0.00496  -0.00594  -0.12115
   Z31       -0.00029  -0.00000   0.00000  -0.00001  -0.00001  -0.00029
   X32       -4.39440  -0.01696   0.00000   0.03663   0.03664  -4.35776
   Y32        0.88765  -0.04720   0.00000  -0.04989  -0.05087   0.83678
   Z32        0.00010   0.00000   0.00000   0.00000   0.00000   0.00010
   X33       -5.95496   0.02160   0.00000   0.05603   0.05604  -5.89892
   Y33       -3.03244   0.01668   0.00000   0.02535   0.02437  -3.00807
   Z33       -0.00005   0.00000   0.00000   0.00001   0.00001  -0.00005
   X34        4.39444   0.01693   0.00000  -0.03665  -0.03664   4.35779
   Y34        0.88767  -0.04723   0.00000  -0.04989  -0.05087   0.83680
   Z34        0.00018  -0.00000   0.00000  -0.00001  -0.00001   0.00017
   X35        5.95501  -0.02164   0.00000  -0.05605  -0.05605   5.89896
   Y35       -3.03243   0.01668   0.00000   0.02534   0.02437  -3.00806
   Z35        0.00000   0.00000   0.00000  -0.00001  -0.00001  -0.00000
   X36        6.12248  -0.00012   0.00000  -0.02487  -0.02487   6.09761
   Y36       -5.72751  -0.00789   0.00000   0.01346   0.01248  -5.71504
   Z36        0.00003   0.00000   0.00000  -0.00000  -0.00000   0.00003
   X37        7.10188   0.00052   0.00000  -0.00624  -0.00624   7.09565
   Y37       -6.43495   0.00181   0.00000   0.03505   0.03407  -6.40088
   Z37       -1.68648   0.00060   0.00000   0.00286   0.00286  -1.68362
   X38        7.10079   0.00052   0.00000  -0.00624  -0.00624   7.09455
   Y38       -6.43508   0.00181   0.00000   0.03506   0.03408  -6.40100
   Z38        1.68715  -0.00060   0.00000  -0.00286  -0.00287   1.68428
   X39        4.20804   0.00043   0.00000  -0.01491  -0.01491   4.19314
   Y39       -6.50419   0.00137   0.00000  -0.00052  -0.00149  -6.50568
   Z39       -0.00066   0.00000   0.00000   0.00001   0.00001  -0.00065
   X40       -6.12247   0.00013   0.00000   0.02488   0.02488  -6.09759
   Y40       -5.72752  -0.00790   0.00000   0.01345   0.01247  -5.71505
   Z40        0.00010   0.00000   0.00000   0.00000  -0.00000   0.00010
   X41       -7.10063  -0.00052   0.00000   0.00624   0.00624  -7.09439
   Y41       -6.43502   0.00181   0.00000   0.03505   0.03407  -6.40095
   Z41        1.68732  -0.00060   0.00000  -0.00286  -0.00286   1.68446
   X42       -7.10201  -0.00052   0.00000   0.00624   0.00624  -7.09577
   Y42       -6.43502   0.00181   0.00000   0.03506   0.03408  -6.40094
   Z42       -1.68630   0.00059   0.00000   0.00286   0.00286  -1.68344
   X43       -4.20802  -0.00043   0.00000   0.01490   0.01490  -4.19312
   Y43       -6.50420   0.00137   0.00000  -0.00053  -0.00151  -6.50571
   Z43       -0.00074   0.00000   0.00000   0.00002   0.00001  -0.00072
   X44        0.00000   0.00000   0.00000   0.00000   0.00000   0.00000
   Y44       -2.37039   0.04325   0.00000   0.07658   0.07560  -2.29479
   Z44        0.00020   0.00001   0.00000  -0.00001  -0.00001   0.00019
         Item               Value     Threshold  Converged?
 Maximum Force            0.072211     0.000450     NO 
 RMS     Force            0.013217     0.000300     NO 
 Maximum Displacement     0.141506     0.001800     NO 
 RMS     Displacement     0.026109     0.001200     NO 
 Predicted change in Energy=-1.569395D-02
 GradGradGradGradGradGradGradGradGradGradGradGradGradGradGradGradGradGrad

 Unable to Open any file for archive entry.
 1\1\GINC-X11P1N5\Force\UPBE1PBE\GenECP\C22H17Co1N4(3)\MAYUMIAO\17-Jul-
 2024\0\\# pbe1pbe em=gd3bj genecp g09default scf=(xqc,maxcycle=64) for
 ce guess=read nosymm\\Title Card\\0,3\C,0.00000573,0.79955408,0.000159
 8\C,-1.29024851,1.35124223,0.00004638\C,-1.24818925,2.74683818,-0.0000
 14\C,-0.00000134,3.38817597,-0.0000016\C,1.24819872,2.74684258,0.00002
 006\C,1.290243,1.35123871,0.00007235\H,-2.15288558,3.34142747,-0.00005
 056\H,0.00000264,4.47399309,-0.00002664\H,2.15288629,3.34142698,0.0000
 1875\C,3.71817878,0.5852995,-0.00004066\C,1.94293204,-0.91444859,0.000
 13629\C,4.21767903,-0.73997614,-0.00009248\C,4.58153711,1.66466407,-0.
 00008407\C,5.58625412,-0.99290542,-0.00020009\C,5.96593011,1.4070764,-
 0.00018812\H,4.22188081,2.6864631,-0.00001548\C,6.45324306,0.10944289,
 -0.00025169\H,5.9729836,-2.00720014,-0.00022094\H,6.6562626,2.24467194
 ,-0.00020076\H,7.52637941,-0.0609614,-0.0003255\C,-3.71819401,0.585361
 41,-0.00005087\C,-1.94292778,-0.91445148,0.00011042\C,-4.2177284,-0.74
 001808,-0.0000793\C,-4.5815346,1.66459632,-0.00007566\C,-5.58621592,-0
 .99287195,-0.00011385\C,-5.96590459,1.40712272,-0.00011804\H,-4.221874
 16,2.68647575,-0.00003296\C,-6.45325932,0.1093755,-0.00013722\H,-5.972
 98328,-2.00722681,-0.00009149\H,-6.6562554,2.24465196,-0.00011378\H,-7
 .52636643,-0.06096819,-0.00015107\N,-2.3254165,0.46972153,0.00005179\N
 ,-3.15122753,-1.60469899,-0.00002715\N,2.32543555,0.4697337,0.00009442
 \N,3.15125354,-1.60469218,0.00000244\C,3.23987643,-3.0308699,0.0000164
 5\H,3.75815532,-3.40522917,-0.8924471\H,3.75757571,-3.40529762,0.8928\
 H,2.22679948,-3.44186666,-0.00034877\C,-3.23987306,-3.03087197,0.00005
 167\H,-3.7574915,-3.40526827,0.8928934\H,-3.75822192,-3.40526553,-0.89
 235312\H,-2.22678919,-3.44187178,-0.00038945\Co,0.00000034,-1.25435852
 ,0.00010766\\Version=ES64L-G16RevC.01\HF=-1212.1113144\S2=2.341\S2-1=0
 .\S2A=2.008907\RMSD=3.103e-09\RMSF=1.322e-02\Dipole=-0.0003275,-1.3300
 165,-0.0001854\Quadrupole=8.9763291,10.6486286,-19.6249577,-0.0005432,
 -0.0003856,0.0007895\PG=C01 [X(C22H17Co1N4)]\\@
 The archive entry for this job was punched.


 A leading authority is anyone who has guessed right more than once.
 -- Frank A. Clark
 Job cpu time:       0 days  0 hours 35 minutes  3.3 seconds.
 Elapsed time:       0 days  0 hours  0 minutes 38.3 seconds.
 File lengths (MBytes):  RWF=    184 Int=      0 D2E=      0 Chk=     72 Scr=      1
 Normal termination of Gaussian 16 at Wed Jul 17 21:33:32 2024.
