 Entering Gaussian System, Link 0=g16
 Input=opt.gjf
 Output=opt.log
 Initial command:
 /data/app/gaussian/C01-avx2//g16/l1.exe "/tmp/Gau-2026091.inp" -scrdir="/tmp/"
 Entering Link 1 = /data/app/gaussian/C01-avx2//g16/l1.exe PID=   2026092.
  
 Copyright (c) 1988-2019, Gaussian, Inc.  All Rights Reserved.
  
 This is part of the Gaussian(R) 16 program.  It is based on
 the Gaussian(R) 09 system (copyright 2009, Gaussian, Inc.),
 the Gaussian(R) 03 system (copyright 2003, Gaussian, Inc.),
 the Gaussian(R) 98 system (copyright 1998, Gaussian, Inc.),
 the Gaussian(R) 94 system (copyright 1995, Gaussian, Inc.),
 the Gaussian 92(TM) system (copyright 1992, Gaussian, Inc.),
 the Gaussian 90(TM) system (copyright 1990, Gaussian, Inc.),
 the Gaussian 88(TM) system (copyright 1988, Gaussian, Inc.),
 the Gaussian 86(TM) system (copyright 1986, Carnegie Mellon
 University), and the Gaussian 82(TM) system (copyright 1983,
 Carnegie Mellon University). Gaussian is a federally registered
 trademark of Gaussian, Inc.
  
 This software contains proprietary and confidential information,
 including trade secrets, belonging to Gaussian, Inc.
  
 This software is provided under written license and may be
 used, copied, transmitted, or stored only in accord with that
 written license.
  
 The following legend is applicable only to US Government
 contracts under FAR:
  
                    RESTRICTED RIGHTS LEGEND
  
 Use, reproduction and disclosure by the US Government is
 subject to restrictions as set forth in subparagraphs (a)
 and (c) of the Commercial Computer Software - Restricted
 Rights clause in FAR 52.227-19.
  
 Gaussian, Inc.
 340 Quinnipiac St., Bldg. 40, Wallingford CT 06492
  
  
 ---------------------------------------------------------------
 Warning -- This program may not be used in any manner that
 competes with the business of Gaussian, Inc. or will provide
 assistance to any competitor of Gaussian, Inc.  The licensee
 of this program is prohibited from giving any competitor of
 Gaussian, Inc. access to this program.  By using this program,
 the user acknowledges that Gaussian, Inc. is engaged in the
 business of creating and licensing software in the field of
 computational chemistry and represents and warrants to the
 licensee that it is not a competitor of Gaussian, Inc. and that
 it will not use this program in any manner prohibited above.
 ---------------------------------------------------------------
  

 Cite this work as:
 Gaussian 16, Revision C.01,
 M. J. Frisch, G. W. Trucks, H. B. Schlegel, G. E. Scuseria, 
 M. A. Robb, J. R. Cheeseman, G. Scalmani, V. Barone, 
 G. A. Petersson, H. Nakatsuji, X. Li, M. Caricato, A. V. Marenich, 
 J. Bloino, B. G. Janesko, R. Gomperts, B. Mennucci, H. P. Hratchian, 
 J. V. Ortiz, A. F. Izmaylov, J. L. Sonnenberg, D. Williams-Young, 
 F. Ding, F. Lipparini, F. Egidi, J. Goings, B. Peng, A. Petrone, 
 T. Henderson, D. Ranasinghe, V. G. Zakrzewski, J. Gao, N. Rega, 
 G. Zheng, W. Liang, M. Hada, M. Ehara, K. Toyota, R. Fukuda, 
 J. Hasegawa, M. Ishida, T. Nakajima, Y. Honda, O. Kitao, H. Nakai, 
 T. Vreven, K. Throssell, J. A. Montgomery, Jr., J. E. Peralta, 
 F. Ogliaro, M. J. Bearpark, J. J. Heyd, E. N. Brothers, K. N. Kudin, 
 V. N. Staroverov, T. A. Keith, R. Kobayashi, J. Normand, 
 K. Raghavachari, A. P. Rendell, J. C. Burant, S. S. Iyengar, 
 J. Tomasi, M. Cossi, J. M. Millam, M. Klene, C. Adamo, R. Cammi, 
 J. W. Ochterski, R. L. Martin, K. Morokuma, O. Farkas, 
 J. B. Foresman, and D. J. Fox, Gaussian, Inc., Wallingford CT, 2019.
 
 ******************************************
 Gaussian 16:  ES64L-G16RevC.01  3-Jul-2019
                17-Jul-2024 
 ******************************************
 %chk=b.chk
 %nprocshared=56
 Will use up to   56 processors via shared memory.
 %mem=96GB
 ----------------------------------------------------------------------
 # opt freq genecp nosymm em=gd3bj g09default pbe1pbe scf=(xqc,maxcycle
 =64) guess=indo
 ----------------------------------------------------------------------
 1/14=-1,18=20,19=15,26=3,38=1,158=3,167=1/1,3;
 2/9=110,12=2,15=1,17=6,18=5,40=1/2;
 3/5=7,11=2,16=1,17=8,25=1,27=10,30=1,71=1,74=-13,75=-4,124=41,158=3/1,2,3;
 4/5=4,11=3,60=-1/1;
 5/5=2,7=64,8=3,13=1,38=5,87=10/2,8;
 6/7=2,8=2,9=2,10=2,28=1,87=10/1;
 7/30=1,87=10/1,2,3,16;
 1/14=-1,18=20,19=15,26=3,158=3,167=1/3(2);
 2/9=110,15=1/2;
 99//99;
 2/9=110,15=1/2;
 3/5=7,6=1,11=2,16=1,17=8,25=1,27=10,30=1,71=1,74=-13,75=-4,82=7,124=41,158=3/1,2,3;
 4/5=5,11=3,16=3,60=-1,69=1/1;
 5/5=2,7=64,8=3,13=1,38=5,87=10/2,8;
 7/30=1,87=10/1,2,3,16;
 1/14=-1,18=20,19=15,26=3,158=3,167=1/3(-5);
 2/9=110,15=1/2;
 6/7=2,8=2,9=2,10=2,19=2,28=1,87=10/1;
 99/9=1/99;
 Using 2006 physical constants.
 ----------
 Title Card
 ----------
 Symbolic Z-matrix:
 Charge =  0 Multiplicity = 3
 C                    0.         0.66075   0.00024 
 C                    -1.20002   1.3681    0.00006 
 C                    -1.22727   2.76304  -0.00012 
 C                     0.        3.44174  -0.00015 
 C                     1.22726   2.76304   0.00002 
 C                     1.20002   1.3681    0.00018 
 H                    -2.15842   3.33313  -0.0003 
 H                     0.        4.53583  -0.0003 
 H                     2.15842   3.33313  -0.00004 
 C                     3.64589   0.57314   0.00004 
 C                     1.8818   -0.88664   0.00014 
 C                     4.14881  -0.74536  -0.00008 
 C                     4.51813   1.66228   0.00004 
 C                     5.51458  -1.01248  -0.00019 
 C                     5.88774   1.3936   -0.0001 
 H                     4.15451   2.69021   0.00015 
 C                     6.38084   0.08171  -0.00021 
 H                     5.89337  -2.0375   -0.00026 
 H                     6.5918    2.23083  -0.0001 
 H                     7.46135  -0.08824  -0.00031 
 C                    -3.64589   0.57314  -0.00004 
 C                    -1.88179  -0.88663  -0.00003 
 C                    -4.1488   -0.74537  -0.00005 
 C                    -4.51813   1.66227  -0.00002 
 C                    -5.51457  -1.01249  -0.00004 
 C                    -5.88774   1.3936   -0.00001 
 H                    -4.15451   2.69021   0.00003 
 C                    -6.38083   0.08171  -0.00003 
 H                    -5.89335  -2.0375   -0.00003 
 H                    -6.5918    2.23083   0.00001 
 H                    -7.46135  -0.08825  -0.00003 
 N                    -2.27245   0.44451  -0.00002 
 N                    -3.05024  -1.58687  -0.00008 
 N                     2.27245   0.44451   0.00018 
 N                     3.05025  -1.58687  -0.00004 
 C                     3.13978  -3.02154  -0.00004 
 H                     3.67075  -3.38193  -0.89851 
 H                     3.67022  -3.382     0.8987 
 H                     2.11991  -3.43362  -0.00037 
 C                    -3.13977  -3.02154  -0.00003 
 H                    -3.67009  -3.38197   0.8988 
 H                    -3.67084  -3.38196  -0.89841 
 H                    -2.11989  -3.43362  -0.00047 
 Co                   -0.00001  -1.15294   0.00013 
 

 GradGradGradGradGradGradGradGradGradGradGradGradGradGradGradGradGradGrad
 Berny optimization.
 Initialization pass.
                           ----------------------------
                           !    Initial Parameters    !
                           ! (Angstroms and Degrees)  !
 --------------------------                            --------------------------
 ! Name  Definition              Value          Derivative Info.                !
 --------------------------------------------------------------------------------
 ! R1    R(1,2)                  1.393          estimate D2E/DX2                !
 ! R2    R(1,6)                  1.393          estimate D2E/DX2                !
 ! R3    R(1,44)                 1.8137         estimate D2E/DX2                !
 ! R4    R(2,3)                  1.3952         estimate D2E/DX2                !
 ! R5    R(2,32)                 1.4153         estimate D2E/DX2                !
 ! R6    R(3,4)                  1.4024         estimate D2E/DX2                !
 ! R7    R(3,7)                  1.0918         estimate D2E/DX2                !
 ! R8    R(4,5)                  1.4024         estimate D2E/DX2                !
 ! R9    R(4,8)                  1.0941         estimate D2E/DX2                !
 ! R10   R(5,6)                  1.3952         estimate D2E/DX2                !
 ! R11   R(5,9)                  1.0918         estimate D2E/DX2                !
 ! R12   R(6,34)                 1.4153         estimate D2E/DX2                !
 ! R13   R(10,12)                1.4112         estimate D2E/DX2                !
 ! R14   R(10,13)                1.3954         estimate D2E/DX2                !
 ! R15   R(10,34)                1.3794         estimate D2E/DX2                !
 ! R16   R(11,34)                1.3873         estimate D2E/DX2                !
 ! R17   R(11,35)                1.3622         estimate D2E/DX2                !
 ! R18   R(11,44)                1.9006         estimate D2E/DX2                !
 ! R19   R(12,14)                1.3916         estimate D2E/DX2                !
 ! R20   R(12,35)                1.3838         estimate D2E/DX2                !
 ! R21   R(13,15)                1.3957         estimate D2E/DX2                !
 ! R22   R(13,16)                1.0904         estimate D2E/DX2                !
 ! R23   R(14,17)                1.3956         estimate D2E/DX2                !
 ! R24   R(14,18)                1.0928         estimate D2E/DX2                !
 ! R25   R(15,17)                1.4015         estimate D2E/DX2                !
 ! R26   R(15,19)                1.0939         estimate D2E/DX2                !
 ! R27   R(17,20)                1.0938         estimate D2E/DX2                !
 ! R28   R(21,23)                1.4112         estimate D2E/DX2                !
 ! R29   R(21,24)                1.3954         estimate D2E/DX2                !
 ! R30   R(21,32)                1.3794         estimate D2E/DX2                !
 ! R31   R(22,32)                1.3873         estimate D2E/DX2                !
 ! R32   R(22,33)                1.3622         estimate D2E/DX2                !
 ! R33   R(22,44)                1.9005         estimate D2E/DX2                !
 ! R34   R(23,25)                1.3916         estimate D2E/DX2                !
 ! R35   R(23,33)                1.3838         estimate D2E/DX2                !
 ! R36   R(24,26)                1.3957         estimate D2E/DX2                !
 ! R37   R(24,27)                1.0904         estimate D2E/DX2                !
 ! R38   R(25,28)                1.3956         estimate D2E/DX2                !
 ! R39   R(25,29)                1.0928         estimate D2E/DX2                !
 ! R40   R(26,28)                1.4015         estimate D2E/DX2                !
 ! R41   R(26,30)                1.0939         estimate D2E/DX2                !
 ! R42   R(28,31)                1.0938         estimate D2E/DX2                !
 ! R43   R(33,40)                1.4375         estimate D2E/DX2                !
 ! R44   R(35,36)                1.4375         estimate D2E/DX2                !
 ! R45   R(36,37)                1.1041         estimate D2E/DX2                !
 ! R46   R(36,38)                1.1041         estimate D2E/DX2                !
 ! R47   R(36,39)                1.1            estimate D2E/DX2                !
 ! R48   R(40,41)                1.1041         estimate D2E/DX2                !
 ! R49   R(40,42)                1.1041         estimate D2E/DX2                !
 ! R50   R(40,43)                1.1            estimate D2E/DX2                !
 ! A1    A(2,1,6)              118.9653         estimate D2E/DX2                !
 ! A2    A(2,1,44)             120.5171         estimate D2E/DX2                !
 ! A3    A(6,1,44)             120.5176         estimate D2E/DX2                !
 ! A4    A(1,2,3)              121.6364         estimate D2E/DX2                !
 ! A5    A(1,2,32)             108.7472         estimate D2E/DX2                !
 ! A6    A(3,2,32)             129.6164         estimate D2E/DX2                !
 ! A7    A(2,3,4)              117.8244         estimate D2E/DX2                !
 ! A8    A(2,3,7)              122.5958         estimate D2E/DX2                !
 ! A9    A(4,3,7)              119.5798         estimate D2E/DX2                !
 ! A10   A(3,4,5)              122.113          estimate D2E/DX2                !
 ! A11   A(3,4,8)              118.9434         estimate D2E/DX2                !
 ! A12   A(5,4,8)              118.9435         estimate D2E/DX2                !
 ! A13   A(4,5,6)              117.8245         estimate D2E/DX2                !
 ! A14   A(4,5,9)              119.5796         estimate D2E/DX2                !
 ! A15   A(6,5,9)              122.5959         estimate D2E/DX2                !
 ! A16   A(1,6,5)              121.6363         estimate D2E/DX2                !
 ! A17   A(1,6,34)             108.7474         estimate D2E/DX2                !
 ! A18   A(5,6,34)             129.6163         estimate D2E/DX2                !
 ! A19   A(12,10,13)           120.4319         estimate D2E/DX2                !
 ! A20   A(12,10,34)           105.5281         estimate D2E/DX2                !
 ! A21   A(13,10,34)           134.04           estimate D2E/DX2                !
 ! A22   A(34,11,35)           104.5782         estimate D2E/DX2                !
 ! A23   A(34,11,44)           114.4099         estimate D2E/DX2                !
 ! A24   A(35,11,44)           141.0119         estimate D2E/DX2                !
 ! A25   A(10,12,14)           121.9449         estimate D2E/DX2                !
 ! A26   A(10,12,35)           106.5739         estimate D2E/DX2                !
 ! A27   A(14,12,35)           131.4812         estimate D2E/DX2                !
 ! A28   A(10,13,15)           117.5909         estimate D2E/DX2                !
 ! A29   A(10,13,16)           121.8301         estimate D2E/DX2                !
 ! A30   A(15,13,16)           120.5791         estimate D2E/DX2                !
 ! A31   A(12,14,17)           117.3018         estimate D2E/DX2                !
 ! A32   A(12,14,18)           121.348          estimate D2E/DX2                !
 ! A33   A(17,14,18)           121.3502         estimate D2E/DX2                !
 ! A34   A(13,15,17)           121.6984         estimate D2E/DX2                !
 ! A35   A(13,15,19)           118.9632         estimate D2E/DX2                !
 ! A36   A(17,15,19)           119.3384         estimate D2E/DX2                !
 ! A37   A(14,17,15)           121.032          estimate D2E/DX2                !
 ! A38   A(14,17,20)           119.4295         estimate D2E/DX2                !
 ! A39   A(15,17,20)           119.5384         estimate D2E/DX2                !
 ! A40   A(23,21,24)           120.4321         estimate D2E/DX2                !
 ! A41   A(23,21,32)           105.528          estimate D2E/DX2                !
 ! A42   A(24,21,32)           134.0399         estimate D2E/DX2                !
 ! A43   A(32,22,33)           104.5778         estimate D2E/DX2                !
 ! A44   A(32,22,44)           114.4109         estimate D2E/DX2                !
 ! A45   A(33,22,44)           141.0113         estimate D2E/DX2                !
 ! A46   A(21,23,25)           121.9448         estimate D2E/DX2                !
 ! A47   A(21,23,33)           106.574          estimate D2E/DX2                !
 ! A48   A(25,23,33)           131.4812         estimate D2E/DX2                !
 ! A49   A(21,24,26)           117.5909         estimate D2E/DX2                !
 ! A50   A(21,24,27)           121.8299         estimate D2E/DX2                !
 ! A51   A(26,24,27)           120.5793         estimate D2E/DX2                !
 ! A52   A(23,25,28)           117.3019         estimate D2E/DX2                !
 ! A53   A(23,25,29)           121.348          estimate D2E/DX2                !
 ! A54   A(28,25,29)           121.3502         estimate D2E/DX2                !
 ! A55   A(24,26,28)           121.6983         estimate D2E/DX2                !
 ! A56   A(24,26,30)           118.9632         estimate D2E/DX2                !
 ! A57   A(28,26,30)           119.3385         estimate D2E/DX2                !
 ! A58   A(25,28,26)           121.0321         estimate D2E/DX2                !
 ! A59   A(25,28,31)           119.4295         estimate D2E/DX2                !
 ! A60   A(26,28,31)           119.5384         estimate D2E/DX2                !
 ! A61   A(2,32,21)            133.9144         estimate D2E/DX2                !
 ! A62   A(2,32,22)            114.3795         estimate D2E/DX2                !
 ! A63   A(21,32,22)           111.706          estimate D2E/DX2                !
 ! A64   A(22,33,23)           111.6142         estimate D2E/DX2                !
 ! A65   A(22,33,40)           124.5043         estimate D2E/DX2                !
 ! A66   A(23,33,40)           123.8815         estimate D2E/DX2                !
 ! A67   A(6,34,10)            133.9141         estimate D2E/DX2                !
 ! A68   A(6,34,11)            114.3801         estimate D2E/DX2                !
 ! A69   A(10,34,11)           111.7057         estimate D2E/DX2                !
 ! A70   A(11,35,12)           111.6142         estimate D2E/DX2                !
 ! A71   A(11,35,36)           124.5044         estimate D2E/DX2                !
 ! A72   A(12,35,36)           123.8815         estimate D2E/DX2                !
 ! A73   A(35,36,37)           110.8381         estimate D2E/DX2                !
 ! A74   A(35,36,38)           110.8399         estimate D2E/DX2                !
 ! A75   A(35,36,39)           108.4303         estimate D2E/DX2                !
 ! A76   A(37,36,38)           108.9535         estimate D2E/DX2                !
 ! A77   A(37,36,39)           108.8663         estimate D2E/DX2                !
 ! A78   A(38,36,39)           108.867          estimate D2E/DX2                !
 ! A79   A(33,40,41)           110.8398         estimate D2E/DX2                !
 ! A80   A(33,40,42)           110.8383         estimate D2E/DX2                !
 ! A81   A(33,40,43)           108.4304         estimate D2E/DX2                !
 ! A82   A(41,40,42)           108.9535         estimate D2E/DX2                !
 ! A83   A(41,40,43)           108.867          estimate D2E/DX2                !
 ! A84   A(42,40,43)           108.866          estimate D2E/DX2                !
 ! A85   A(1,44,11)             81.945          estimate D2E/DX2                !
 ! A86   A(1,44,22)             81.9453         estimate D2E/DX2                !
 ! A87   A(11,44,22)           163.8903         estimate D2E/DX2                !
 ! D1    D(6,1,2,3)             -0.0027         estimate D2E/DX2                !
 ! D2    D(6,1,2,32)           179.9923         estimate D2E/DX2                !
 ! D3    D(44,1,2,3)          -179.9878         estimate D2E/DX2                !
 ! D4    D(44,1,2,32)            0.0072         estimate D2E/DX2                !
 ! D5    D(2,1,6,5)              0.0033         estimate D2E/DX2                !
 ! D6    D(2,1,6,34)          -179.9911         estimate D2E/DX2                !
 ! D7    D(44,1,6,5)           179.9885         estimate D2E/DX2                !
 ! D8    D(44,1,6,34)           -0.006          estimate D2E/DX2                !
 ! D9    D(2,1,44,11)          179.9892         estimate D2E/DX2                !
 ! D10   D(2,1,44,22)           -0.005          estimate D2E/DX2                !
 ! D11   D(6,1,44,11)            0.0043         estimate D2E/DX2                !
 ! D12   D(6,1,44,22)         -179.9899         estimate D2E/DX2                !
 ! D13   D(1,2,3,4)              0.0019         estimate D2E/DX2                !
 ! D14   D(1,2,3,7)            179.9973         estimate D2E/DX2                !
 ! D15   D(32,2,3,4)          -179.992          estimate D2E/DX2                !
 ! D16   D(32,2,3,7)             0.0035         estimate D2E/DX2                !
 ! D17   D(1,2,32,21)          179.9915         estimate D2E/DX2                !
 ! D18   D(1,2,32,22)           -0.0056         estimate D2E/DX2                !
 ! D19   D(3,2,32,21)           -0.014          estimate D2E/DX2                !
 ! D20   D(3,2,32,22)          179.9888         estimate D2E/DX2                !
 ! D21   D(2,3,4,5)             -0.0017         estimate D2E/DX2                !
 ! D22   D(2,3,4,8)            179.9989         estimate D2E/DX2                !
 ! D23   D(7,3,4,5)           -179.9973         estimate D2E/DX2                !
 ! D24   D(7,3,4,8)              0.0033         estimate D2E/DX2                !
 ! D25   D(3,4,5,6)              0.0024         estimate D2E/DX2                !
 ! D26   D(3,4,5,9)            179.9985         estimate D2E/DX2                !
 ! D27   D(8,4,5,6)           -179.9983         estimate D2E/DX2                !
 ! D28   D(8,4,5,9)             -0.0022         estimate D2E/DX2                !
 ! D29   D(4,5,6,1)             -0.0032         estimate D2E/DX2                !
 ! D30   D(4,5,6,34)           179.99           estimate D2E/DX2                !
 ! D31   D(9,5,6,1)           -179.9992         estimate D2E/DX2                !
 ! D32   D(9,5,6,34)            -0.006          estimate D2E/DX2                !
 ! D33   D(1,6,34,10)          179.9943         estimate D2E/DX2                !
 ! D34   D(1,6,34,11)            0.0044         estimate D2E/DX2                !
 ! D35   D(5,6,34,10)            0.0004         estimate D2E/DX2                !
 ! D36   D(5,6,34,11)         -179.9895         estimate D2E/DX2                !
 ! D37   D(13,10,12,14)          0.0003         estimate D2E/DX2                !
 ! D38   D(13,10,12,35)        180.0            estimate D2E/DX2                !
 ! D39   D(34,10,12,14)       -179.9978         estimate D2E/DX2                !
 ! D40   D(34,10,12,35)          0.0019         estimate D2E/DX2                !
 ! D41   D(12,10,13,15)          0.0007         estimate D2E/DX2                !
 ! D42   D(12,10,13,16)       -179.9982         estimate D2E/DX2                !
 ! D43   D(34,10,13,15)        179.9981         estimate D2E/DX2                !
 ! D44   D(34,10,13,16)         -0.0007         estimate D2E/DX2                !
 ! D45   D(12,10,34,6)        -179.9912         estimate D2E/DX2                !
 ! D46   D(12,10,34,11)         -0.0011         estimate D2E/DX2                !
 ! D47   D(13,10,34,6)           0.0111         estimate D2E/DX2                !
 ! D48   D(13,10,34,11)       -179.9988         estimate D2E/DX2                !
 ! D49   D(35,11,34,6)         179.992          estimate D2E/DX2                !
 ! D50   D(35,11,34,10)         -0.0001         estimate D2E/DX2                !
 ! D51   D(44,11,34,6)          -0.0015         estimate D2E/DX2                !
 ! D52   D(44,11,34,10)       -179.9937         estimate D2E/DX2                !
 ! D53   D(34,11,35,12)          0.0014         estimate D2E/DX2                !
 ! D54   D(34,11,35,36)        179.9951         estimate D2E/DX2                !
 ! D55   D(44,11,35,12)        179.992          estimate D2E/DX2                !
 ! D56   D(44,11,35,36)         -0.0142         estimate D2E/DX2                !
 ! D57   D(34,11,44,1)          -0.0014         estimate D2E/DX2                !
 ! D58   D(34,11,44,22)          0.0194         estimate D2E/DX2                !
 ! D59   D(35,11,44,1)        -179.9914         estimate D2E/DX2                !
 ! D60   D(35,11,44,22)       -179.9707         estimate D2E/DX2                !
 ! D61   D(10,12,14,17)         -0.0011         estimate D2E/DX2                !
 ! D62   D(10,12,14,18)        179.9989         estimate D2E/DX2                !
 ! D63   D(35,12,14,17)        179.9993         estimate D2E/DX2                !
 ! D64   D(35,12,14,18)         -0.0007         estimate D2E/DX2                !
 ! D65   D(10,12,35,11)         -0.0021         estimate D2E/DX2                !
 ! D66   D(10,12,35,36)       -179.9959         estimate D2E/DX2                !
 ! D67   D(14,12,35,11)        179.9975         estimate D2E/DX2                !
 ! D68   D(14,12,35,36)          0.0038         estimate D2E/DX2                !
 ! D69   D(10,13,15,17)         -0.0008         estimate D2E/DX2                !
 ! D70   D(10,13,15,19)        179.9999         estimate D2E/DX2                !
 ! D71   D(16,13,15,17)        179.998          estimate D2E/DX2                !
 ! D72   D(16,13,15,19)         -0.0012         estimate D2E/DX2                !
 ! D73   D(12,14,17,15)          0.001          estimate D2E/DX2                !
 ! D74   D(12,14,17,20)       -179.9994         estimate D2E/DX2                !
 ! D75   D(18,14,17,15)       -179.999          estimate D2E/DX2                !
 ! D76   D(18,14,17,20)          0.0006         estimate D2E/DX2                !
 ! D77   D(13,15,17,14)          0.0            estimate D2E/DX2                !
 ! D78   D(13,15,17,20)       -179.9996         estimate D2E/DX2                !
 ! D79   D(19,15,17,14)        179.9992         estimate D2E/DX2                !
 ! D80   D(19,15,17,20)         -0.0004         estimate D2E/DX2                !
 ! D81   D(24,21,23,25)          0.0002         estimate D2E/DX2                !
 ! D82   D(24,21,23,33)        180.0            estimate D2E/DX2                !
 ! D83   D(32,21,23,25)        179.9983         estimate D2E/DX2                !
 ! D84   D(32,21,23,33)         -0.0019         estimate D2E/DX2                !
 ! D85   D(23,21,24,26)         -0.0007         estimate D2E/DX2                !
 ! D86   D(23,21,24,27)        179.9978         estimate D2E/DX2                !
 ! D87   D(32,21,24,26)       -179.9982         estimate D2E/DX2                !
 ! D88   D(32,21,24,27)          0.0004         estimate D2E/DX2                !
 ! D89   D(23,21,32,2)        -179.9964         estimate D2E/DX2                !
 ! D90   D(23,21,32,22)          0.0008         estimate D2E/DX2                !
 ! D91   D(24,21,32,2)           0.0013         estimate D2E/DX2                !
 ! D92   D(24,21,32,22)        179.9985         estimate D2E/DX2                !
 ! D93   D(33,22,32,2)         179.9985         estimate D2E/DX2                !
 ! D94   D(33,22,32,21)          0.0006         estimate D2E/DX2                !
 ! D95   D(44,22,32,2)           0.0023         estimate D2E/DX2                !
 ! D96   D(44,22,32,21)       -179.9955         estimate D2E/DX2                !
 ! D97   D(32,22,33,23)         -0.0019         estimate D2E/DX2                !
 ! D98   D(32,22,33,40)       -179.9963         estimate D2E/DX2                !
 ! D99   D(44,22,33,23)        179.9925         estimate D2E/DX2                !
 ! D100  D(44,22,33,40)         -0.0018         estimate D2E/DX2                !
 ! D101  D(32,22,44,1)           0.0013         estimate D2E/DX2                !
 ! D102  D(32,22,44,11)         -0.0195         estimate D2E/DX2                !
 ! D103  D(33,22,44,1)        -179.9928         estimate D2E/DX2                !
 ! D104  D(33,22,44,11)        179.9864         estimate D2E/DX2                !
 ! D105  D(21,23,25,28)          0.0006         estimate D2E/DX2                !
 ! D106  D(21,23,25,29)       -179.9992         estimate D2E/DX2                !
 ! D107  D(33,23,25,28)       -179.9991         estimate D2E/DX2                !
 ! D108  D(33,23,25,29)          0.0011         estimate D2E/DX2                !
 ! D109  D(21,23,33,22)          0.0025         estimate D2E/DX2                !
 ! D110  D(21,23,33,40)        179.9969         estimate D2E/DX2                !
 ! D111  D(25,23,33,22)       -179.9978         estimate D2E/DX2                !
 ! D112  D(25,23,33,40)         -0.0034         estimate D2E/DX2                !
 ! D113  D(21,24,26,28)          0.0004         estimate D2E/DX2                !
 ! D114  D(21,24,26,30)        179.9999         estimate D2E/DX2                !
 ! D115  D(27,24,26,28)       -179.9982         estimate D2E/DX2                !
 ! D116  D(27,24,26,30)          0.0013         estimate D2E/DX2                !
 ! D117  D(23,25,28,26)         -0.001          estimate D2E/DX2                !
 ! D118  D(23,25,28,31)        179.9995         estimate D2E/DX2                !
 ! D119  D(29,25,28,26)        179.9989         estimate D2E/DX2                !
 ! D120  D(29,25,28,31)         -0.0006         estimate D2E/DX2                !
 ! D121  D(24,26,28,25)          0.0005         estimate D2E/DX2                !
 ! D122  D(24,26,28,31)       -180.0            estimate D2E/DX2                !
 ! D123  D(30,26,28,25)       -179.999          estimate D2E/DX2                !
 ! D124  D(30,26,28,31)          0.0005         estimate D2E/DX2                !
 ! D125  D(22,33,40,41)        119.4155         estimate D2E/DX2                !
 ! D126  D(22,33,40,42)       -119.47           estimate D2E/DX2                !
 ! D127  D(22,33,40,43)         -0.0283         estimate D2E/DX2                !
 ! D128  D(23,33,40,41)        -60.5782         estimate D2E/DX2                !
 ! D129  D(23,33,40,42)         60.5363         estimate D2E/DX2                !
 ! D130  D(23,33,40,43)        179.978          estimate D2E/DX2                !
 ! D131  D(11,35,36,37)        119.4683         estimate D2E/DX2                !
 ! D132  D(11,35,36,38)       -119.4172         estimate D2E/DX2                !
 ! D133  D(11,35,36,39)          0.0266         estimate D2E/DX2                !
 ! D134  D(12,35,36,37)        -60.5387         estimate D2E/DX2                !
 ! D135  D(12,35,36,38)         60.5758         estimate D2E/DX2                !
 ! D136  D(12,35,36,39)       -179.9805         estimate D2E/DX2                !
 --------------------------------------------------------------------------------
 Trust Radius=3.00D-01 FncErr=1.00D-07 GrdErr=1.00D-06 EigMax=2.50D+02 EigMin=1.00D-04
 Number of steps in this run=    264 maximum allowed number of steps=    264.
 GradGradGradGradGradGradGradGradGradGradGradGradGradGradGradGradGradGrad

                          Input orientation:                          
 ---------------------------------------------------------------------
 Center     Atomic      Atomic             Coordinates (Angstroms)
 Number     Number       Type             X           Y           Z
 ---------------------------------------------------------------------
      1          6           0       -0.000003    0.660748    0.000238
      2          6           0       -1.200020    1.368104    0.000061
      3          6           0       -1.227267    2.763039   -0.000115
      4          6           0        0.000000    3.441740   -0.000149
      5          6           0        1.227264    2.763035    0.000023
      6          6           0        1.200015    1.368099    0.000182
      7          1           0       -2.158421    3.333133   -0.000298
      8          1           0        0.000001    4.535833   -0.000304
      9          1           0        2.158417    3.333129   -0.000036
     10          6           0        3.645890    0.573137    0.000040
     11          6           0        1.881803   -0.886641    0.000136
     12          6           0        4.148811   -0.745363   -0.000075
     13          6           0        4.518128    1.662276    0.000037
     14          6           0        5.514576   -1.012483   -0.000188
     15          6           0        5.887736    1.393603   -0.000097
     16          1           0        4.154513    2.690210    0.000154
     17          6           0        6.380837    0.081714   -0.000208
     18          1           0        5.893366   -2.037496   -0.000258
     19          1           0        6.591796    2.230833   -0.000103
     20          1           0        7.461351   -0.088237   -0.000305
     21          6           0       -3.645890    0.573138   -0.000042
     22          6           0       -1.881790   -0.886633   -0.000032
     23          6           0       -4.148803   -0.745365   -0.000050
     24          6           0       -4.518130    1.662274   -0.000016
     25          6           0       -5.514566   -1.012489   -0.000037
     26          6           0       -5.887738    1.393597   -0.000014
     27          1           0       -4.154514    2.690208    0.000026
     28          6           0       -6.380832    0.081706   -0.000029
     29          1           0       -5.893353   -2.037504   -0.000031
     30          1           0       -6.591801    2.230825    0.000008
     31          1           0       -7.461346   -0.088250   -0.000027
     32          7           0       -2.272453    0.444514   -0.000020
     33          7           0       -3.050240   -1.586867   -0.000077
     34          7           0        2.272451    0.444506    0.000181
     35          7           0        3.050252   -1.586869   -0.000040
     36          6           0        3.139784   -3.021543   -0.000044
     37          1           0        3.670746   -3.381928   -0.898505
     38          1           0        3.670222   -3.381999    0.898703
     39          1           0        2.119914   -3.433624   -0.000367
     40          6           0       -3.139765   -3.021540   -0.000028
     41          1           0       -3.670090   -3.381971    0.898795
     42          1           0       -3.670836   -3.381958   -0.898413
     43          1           0       -2.119893   -3.433618   -0.000466
     44         27           0       -0.000013   -1.152944    0.000132
 ---------------------------------------------------------------------
                    Distance matrix (angstroms):
                    1          2          3          4          5
     1  C    0.000000
     2  C    1.392980   0.000000
     3  C    2.434298   1.395201   0.000000
     4  C    2.780992   2.395833   1.402433   0.000000
     5  C    2.434296   2.799561   2.454531   1.402433   0.000000
     6  C    1.392978   2.400035   2.799563   2.395835   1.395202
     7  H    3.435173   2.186292   1.091813   2.161152   3.433347
     8  H    3.875085   3.387412   2.156151   1.094093   2.156151
     9  H    3.435171   3.891070   3.433345   2.161148   1.091812
    10  C    3.646946   4.910684   5.342596   4.639116   3.262730
    11  C    2.436310   3.818574   4.794422   4.719753   3.707905
    12  C    4.380617   5.751238   6.419587   5.894444   4.565555
    13  C    4.627804   5.725710   5.849893   4.855921   3.470080
    14  C    5.762836   7.124114   7.727031   7.088769   5.712756
    15  C    5.933173   7.087802   7.245593   6.233803   4.857504
    16  H    4.623713   5.515341   5.382273   4.221940   2.928155
    17  C    6.407059   7.689226   8.066768   7.211439   5.809371
    18  H    6.481691   7.868560   8.587698   8.046974   6.694595
    19  H    6.776207   7.839432   7.837154   6.702094   5.390867
    20  H    7.498852   8.782954   9.144499   8.254241   6.855187
    21  C    3.646939   2.571819   3.262729   4.639115   5.342591
    22  C    2.436290   2.355557   3.707898   4.719740   4.794402
    23  C    4.380604   3.627957   4.565553   5.894439   6.419577
    24  C    4.627799   3.331124   3.470081   4.855924   5.849891
    25  C    5.762823   4.927731   5.712753   7.088765   7.727021
    26  C    5.933169   4.687787   4.857506   6.233807   7.245593
    27  H    4.623707   3.236818   2.928153   4.221941   5.382271
    28  C    6.407048   5.338130   5.809370   7.211439   8.066762
    29  H    6.481677   5.798753   6.694593   8.046970   8.587687
    30  H    6.776204   5.460365   5.390870   6.702101   7.837157
    31  H    7.498842   6.428466   6.855187   8.254242   9.144494
    32  N    2.282715   1.415320   2.543221   3.761304   4.198042
    33  N    3.788894   3.486426   4.716451   5.881399   6.100712
    34  N    2.282719   3.593200   4.198050   3.761309   2.543225
    35  N    3.788910   5.176551   6.100727   5.881407   4.716455
    36  C    4.839166   6.172755   7.247932   7.185560   6.092543
    37  H    5.534019   6.862550   7.909378   7.800248   6.673719
    38  H    5.533678   6.862237   7.909157   7.800120   6.673613
    39  H    4.610632   5.837684   7.042887   7.194767   6.260624
    40  C    4.839148   4.799123   6.092537   7.185549   7.247914
    41  H    5.533581   5.428829   6.673573   7.800044   7.909043
    42  H    5.534082   5.429114   6.673751   7.800306   7.909457
    43  H    4.610615   4.889039   6.260618   7.194755   7.042867
    44  Co   1.813692   2.792078   4.103788   4.594684   4.103791
                    6          7          8          9         10
     6  C    0.000000
     7  H    3.891073   0.000000
     8  H    3.387414   2.470885   0.000000
     9  H    2.186293   4.316838   2.470882   0.000000
    10  C    2.571822   6.427099   5.384744   3.135304   0.000000
    11  C    2.355565   5.842080   5.739722   4.228827   2.289750
    12  C    3.627964   7.511012   6.715926   4.538256   1.411160
    13  C    3.331128   6.882446   5.354512   2.891364   1.395358
    14  C    4.927739   8.818121   7.822682   5.490733   2.450751
    15  C    4.687790   8.276619   6.673757   4.203520   2.387266
    16  H    3.236825   6.345588   4.546020   2.097080   2.177314
    17  C    5.338137   9.137322   7.781661   5.329215   2.778746
    18  H    5.798760   9.678581   8.828386   6.541671   3.444786
    19  H    5.460367   8.819374   6.983179   4.568359   3.380284
    20  H    6.428471  10.210083   8.778028   6.310852   3.872358
    21  C    4.910678   3.135305   5.384744   6.427093   7.291780
    22  C    3.818552   4.228824   5.739710   5.842060   5.717182
    23  C    5.751225   4.538256   6.715923   7.511001   7.905421
    24  C    5.725707   2.891366   5.354517   6.882444   8.236349
    25  C    7.124100   5.490732   7.822680   8.818110   9.296675
    26  C    7.087799   4.203523   6.673763   8.276617   9.568867
    27  H    5.515338   2.097079   4.546023   6.345585   8.082592
    28  C    7.689216   5.329215   7.781663   9.137315  10.038758
    29  H    7.868545   6.541671   8.828385   9.678569   9.890025
    30  H    7.839432   4.568363   6.983188   8.819376  10.371029
    31  H    8.782945   6.310854   8.778032  10.210077  11.126910
    32  N    3.593194   2.890869   4.680058   5.289301   5.919741
    33  N    5.176533   5.000174   6.840426   7.164947   7.035892
    34  N    1.415324   5.289309   4.680063   2.890873   1.379449
    35  N    3.486433   7.164963   6.840432   5.000175   2.240627
    36  C    4.799131   8.273626   8.183653   6.430003   3.630133
    37  H    5.429080   8.937450   8.773373   6.941641   4.055927
    38  H    5.428876   8.937241   8.773300   6.941630   4.056019
    39  H    4.889045   8.005820   8.246592   6.766863   4.287509
    40  C    6.172732   6.430000   8.183643   8.273606   7.678985
    41  H    6.862113   6.941623   8.773230   8.937111   8.365058
    42  H    6.862631   6.941647   8.773429   8.937542   8.365672
    43  H    5.837660   6.766861   8.246581   8.005798   7.021278
    44  Co   2.792083   4.978314   5.688777   4.978320   4.033852
                   11         12         13         14         15
    11  C    0.000000
    12  C    2.271406   0.000000
    13  C    3.667041   2.435800   0.000000
    14  C    3.634952   1.391642   2.854338   0.000000
    15  C    4.609448   2.756635   1.395712   2.434851   0.000000
    16  H    4.237815   3.435578   1.090350   3.944579   2.164544
    17  C    4.602067   2.380335   2.442921   1.395591   1.401500
    18  H    4.173381   2.170963   3.947099   1.092764   3.431104
    19  H    5.648246   3.850444   2.150199   3.417529   1.093917
    20  H    5.636382   3.377090   3.424450   2.155032   2.161507
    21  C    5.717197   7.905429   8.236347   9.296684   9.568866
    22  C    3.763593   6.032255   6.888823   7.397437   8.097222
    23  C    6.032261   8.297614   8.995134   9.667070  10.261934
    24  C    6.888840   8.995142   9.036258  10.383136  10.409334
    25  C    7.397440   9.667068  10.383127  11.029142  11.653402
    26  C    8.097237  10.261943  10.409334  11.653411  11.775474
    27  H    7.016479   8.986009   8.733348  10.353802  10.125610
    28  C    8.319185  10.562075  11.012971  11.945626  12.338510
    29  H    7.859869  10.124954  11.049313  11.453886  12.270556
    30  H    9.028874  11.145333  11.124467  12.533292  12.507589
    31  H    9.377199  11.628738  12.106698  13.008795  13.431079
    32  N    4.362318   6.530577   6.898908   7.922163   8.215197
    33  N    4.981502   7.248066   8.236330   8.584054   9.421816
    34  N    1.387284   2.221827   2.554609   3.554461   3.737790
    35  N    1.362201   1.383822   3.565334   2.530378   4.115158
    36  C    2.477967   2.489805   4.882417   3.110620   5.200457
    37  H    3.199114   2.826163   5.193210   3.133840   5.341149
    38  H    3.198856   2.826429   5.193386   3.134366   5.341496
    39  H    2.558089   3.367962   5.632018   4.169611   6.123610
    40  C    5.456550   7.635727   8.976718   8.884477  10.049341
    41  H    6.152867   8.300294   9.659146   9.527892  10.722227
    42  H    6.153519   8.300935   9.659743   9.528537  10.722838
    43  H    4.743486   6.820804   8.368480   8.009183   9.350090
    44  Co   1.900565   4.168796   5.323445   5.516378   6.414865
                   16         17         18         19         20
    16  H    0.000000
    17  C    3.429398   0.000000
    18  H    5.037342   2.174553   0.000000
    19  H    2.480197   2.159448   4.325094   0.000000
    20  H    4.319137   1.093798   2.501637   2.476734   0.000000
    21  C    8.082591  10.038762   9.890036  10.371025  11.126914
    22  C    7.016463   8.319177   7.859869   9.028857   9.377191
    23  C    8.986002  10.562073  10.124957  11.145323  11.628736
    24  C    8.733349  11.012977  11.049323  11.124465  12.106703
    25  C   10.353795  11.945622  11.453888  12.533281  13.008792
    26  C   10.125612  12.338516  12.270567  12.507587  13.431084
    27  H    8.309027  10.853472  11.104552  10.756124  11.943537
    28  C   10.853469  12.761669  12.455800  13.149442  13.843226
    29  H   11.104544  12.455795  11.786719  13.194607  13.496213
    30  H   10.756128  13.149449  13.194619  13.183597  14.243213
    31  H   11.943535  13.843226  13.496218  14.243207  14.922697
    32  N    6.808013   8.660892   8.534692   9.042447   9.748372
    33  N    8.378655   9.577545   8.954951  10.370327  10.617883
    34  N    2.930076   4.124373   4.389916   4.674153   5.216177
    35  N    4.417329   3.725180   2.878604   5.207435   4.658722
    36  C    5.801189   4.487163   2.924134   6.285208   5.223048
    37  H    6.157311   4.488691   2.748524   6.390833   5.101358
    38  H    6.157406   4.489185   2.749216   6.391192   5.101935
    39  H    6.452979   5.523863   4.023445   7.216911   6.302584
    40  C    9.264479  10.013593   9.086572  11.058513  10.999451
    41  H    9.945016  10.668948   9.699258  11.731065  11.643283
    42  H    9.945589  10.669579   9.699908  11.731667  11.643916
    43  H    8.767522   9.198911   8.133971  10.391320  10.148488
    44  Co   5.659498   6.499202   5.959392   7.409581   7.536946
                   21         22         23         24         25
    21  C    0.000000
    22  C    2.289755   0.000000
    23  C    1.411160   2.271410   0.000000
    24  C    1.395357   3.667045   2.435801   0.000000
    25  C    2.450747   3.634955   1.391641   2.854337   0.000000
    26  C    2.387265   4.609454   2.756638   1.395713   2.434853
    27  H    2.177311   4.237814   3.435578   1.090351   3.944579
    28  C    2.778743   4.602071   2.380336   2.442919   1.395593
    29  H    3.444785   4.173385   2.170962   3.947100   1.092765
    30  H    3.380284   5.648252   3.850448   2.150200   3.417531
    31  H    3.872356   5.636387   3.377091   3.424450   2.155034
    32  N    1.379447   1.387289   2.221824   2.554605   3.554456
    33  N    2.240629   1.362205   1.383823   3.565336   2.530378
    34  N    5.919739   4.362299   6.530566   6.898909   7.922150
    35  N    7.035904   4.981503   7.248070   8.236342   8.584056
    36  C    7.679004   5.456560   7.635737   8.976736   8.884485
    37  H    8.365581   6.153406   8.300845   9.659656   9.528454
    38  H    8.365187   6.153000   8.300406   9.659270   9.527993
    39  H    7.021299   4.743501   6.820817   8.368501   8.009193
    40  C    3.630134   2.477969   2.489805   4.882418   3.110621
    41  H    4.056030   3.198846   2.826443   5.193404   3.134396
    42  H    4.055919   3.199128   2.826151   5.193198   3.133816
    43  H    4.287512   2.558090   3.367964   5.632021   4.169613
    44  Co   4.033829   1.900528   4.168762   5.323423   5.516341
                   26         27         28         29         30
    26  C    0.000000
    27  H    2.164547   0.000000
    28  C    1.401499   3.429399   0.000000
    29  H    3.431106   5.037343   2.174554   0.000000
    30  H    1.093917   2.480202   2.159449   4.325097   0.000000
    31  H    2.161507   4.319140   1.093799   2.501638   2.476735
    32  N    3.737786   2.930067   4.124368   4.389912   4.674150
    33  N    4.115162   4.417329   3.725182   2.878605   5.207440
    34  N    8.215197   6.808014   8.660885   8.534678   9.042450
    35  N    9.421828   8.378666   9.577551   8.954951  10.370341
    36  C   10.049359   9.264496  10.013605   9.086578  11.058531
    37  H   10.722758   9.945496  10.669500   9.699831  11.731590
    38  H   10.722342   9.945140  10.669051   9.699348  11.731179
    39  H    9.350110   8.767540   9.198925   8.133978  10.391341
    40  C    5.200461   5.801188   4.487165   2.924136   6.285212
    41  H    5.341523   6.157419   4.489217   2.749250   6.391220
    42  H    5.341133   6.157299   4.488668   2.748496   6.390816
    43  H    6.123615   6.452978   5.523867   4.023448   7.216916
    44  Co   6.414840   5.659478   6.499170   5.959354   7.409559
                   31         32         33         34         35
    31  H    0.000000
    32  N    5.216172   0.000000
    33  N    4.658724   2.175192   0.000000
    34  N    9.748366   4.544904   5.697150   0.000000
    35  N   10.617888   5.697166   6.100492   2.175192   0.000000
    36  C   10.999462   6.426964   6.354108   3.572921   1.437465
    37  H   11.643842   7.125345   7.014347   4.171866   2.101069
    38  H   11.643380   7.124977   7.013909   4.171720   2.101093
    39  H   10.148501   5.859423   5.490082   3.881129   2.067857
    40  C    5.223050   3.572920   1.437464   6.426940   6.354100
    41  H    5.101970   4.171720   2.101091   7.124832   7.013793
    42  H    5.101331   4.171867   2.101071   7.125444   7.014445
    43  H    6.302587   3.881132   2.067858   5.859397   5.490071
    44  Co   7.536913   2.777743   3.080937   2.777758   3.080975
                   36         37         38         39         40
    36  C    0.000000
    37  H    1.104097   0.000000
    38  H    1.104101   1.797208   0.000000
    39  H    1.099975   1.792876   1.792888   0.000000
    40  C    6.279549   6.878968   6.878486   5.275797   0.000000
    41  H    6.878387   7.557656   7.340312   5.859634   1.104100
    42  H    6.879063   7.341582   7.557828   5.860200   1.104098
    43  H    5.275795   5.860089   5.859744   4.239807   1.099976
    44  Co   3.653763   4.387527   4.387111   3.113775   3.653723
                   41         42         43         44
    41  H    0.000000
    42  H    1.797208   0.000000
    43  H    1.792888   1.792875   0.000000
    44  Co   4.386983   4.387577   3.113738   0.000000
 Symmetry turned off by external request.
 Stoichiometry    C22H17CoN4(3)
 Framework group  C1[X(C22H17CoN4)]
 Deg. of freedom   126
 Full point group                 C1      NOp   1
 Rotational constants (GHZ):           0.4696559           0.1023215           0.0841082
 General basis read from cards:  (5D, 7F)
 ======================================================================================================
                                       Pseudopotential Parameters
 ======================================================================================================
  Center     Atomic      Valence      Angular      Power
  Number     Number     Electrons     Momentum     of R      Exponent        Coefficient   SO-Coeffient
 ======================================================================================================
    1          6
                                   No pseudopotential on this center.
    2          6
                                   No pseudopotential on this center.
    3          6
                                   No pseudopotential on this center.
    4          6
                                   No pseudopotential on this center.
    5          6
                                   No pseudopotential on this center.
    6          6
                                   No pseudopotential on this center.
    7          1
                                   No pseudopotential on this center.
    8          1
                                   No pseudopotential on this center.
    9          1
                                   No pseudopotential on this center.
   10          6
                                   No pseudopotential on this center.
   11          6
                                   No pseudopotential on this center.
   12          6
                                   No pseudopotential on this center.
   13          6
                                   No pseudopotential on this center.
   14          6
                                   No pseudopotential on this center.
   15          6
                                   No pseudopotential on this center.
   16          1
                                   No pseudopotential on this center.
   17          6
                                   No pseudopotential on this center.
   18          1
                                   No pseudopotential on this center.
   19          1
                                   No pseudopotential on this center.
   20          1
                                   No pseudopotential on this center.
   21          6
                                   No pseudopotential on this center.
   22          6
                                   No pseudopotential on this center.
   23          6
                                   No pseudopotential on this center.
   24          6
                                   No pseudopotential on this center.
   25          6
                                   No pseudopotential on this center.
   26          6
                                   No pseudopotential on this center.
   27          1
                                   No pseudopotential on this center.
   28          6
                                   No pseudopotential on this center.
   29          1
                                   No pseudopotential on this center.
   30          1
                                   No pseudopotential on this center.
   31          1
                                   No pseudopotential on this center.
   32          7
                                   No pseudopotential on this center.
   33          7
                                   No pseudopotential on this center.
   34          7
                                   No pseudopotential on this center.
   35          7
                                   No pseudopotential on this center.
   36          6
                                   No pseudopotential on this center.
   37          1
                                   No pseudopotential on this center.
   38          1
                                   No pseudopotential on this center.
   39          1
                                   No pseudopotential on this center.
   40          6
                                   No pseudopotential on this center.
   41          1
                                   No pseudopotential on this center.
   42          1
                                   No pseudopotential on this center.
   43          1
                                   No pseudopotential on this center.
   44         27           17
                                      F and up 
                                                     2        1.0000000        0.00000000    0.00000000
                                      S - F
                                                     2       23.6600000      283.96056600    0.00000000
                                                     2       10.6100000       47.15684600    0.00000000
                                      P - F
                                                     2       25.0400000      182.21223600    0.00000000
                                                     2       10.4400000       35.23335200    0.00000000
                                      D - F
                                                     2       29.5400000      -26.47533300    0.00000000
                                                     2       10.1800000       -1.82578700    0.00000000
 ======================================================================================================
   441 basis functions,   871 primitive gaussians,   473 cartesian basis functions
    98 alpha electrons       96 beta electrons
       nuclear repulsion energy      2504.0386438200 Hartrees.
 NAtoms=   44 NActive=   44 NUniq=   44 SFac= 1.00D+00 NAtFMM=   60 NAOKFM=F Big=F
 Integral buffers will be    131072 words long.
 Raffenetti 2 integral format.
 Two-electron integral symmetry is turned off.
 Nuclear repulsion after empirical dispersion term =     2503.9794692980 Hartrees.
 One-electron integrals computed using PRISM.
   1 Symmetry operations used in ECPInt.
 ECPInt:  NShTT=   11781 NPrTT=   71406 LenC2=    9580 LenP2D=   32206.
 LDataN:  DoStor=T MaxTD1= 6 Len=  172
 NBasis=   441 RedAO= T EigKep=  3.62D-04  NBF=   441
 NBsUse=   441 1.00D-06 EigRej= -1.00D+00 NBFU=   441
 Projected New-EHT guess.
 GSVD:  LWork=      -17940 too small for GESVD, short by       86450 words or       86450 for optimal perf.
 Enter ItEHT:  IZDO=4 IZDPar=0 Conv= 1.00D-06 N=  130
 It=   1                  EEH= -16.6536371237     EQH=  0.00000000000     EH= -16.6536371237    
 Initial guess <Sx>= 0.0000 <Sy>= 0.0000 <Sz>= 1.0000 <S**2>= 2.0000 S= 1.0000
 Requested convergence on RMS density matrix=1.00D-08 within  64 cycles.
 Requested convergence on MAX density matrix=1.00D-06.
 Requested convergence on             energy=1.00D-06.
 No special actions if energy rises.
 EnCoef did     5 forward-backward iterations
 EnCoef did     2 forward-backward iterations
 EnCoef did    21 forward-backward iterations
 EnCoef did     4 forward-backward iterations
 Restarting incremental Fock formation.
 Rare condition: small coef for last iteration:  0.000D+00
 Rare condition: small coef for last iteration:  0.000D+00
 Rare condition: small coef for last iteration:  0.000D+00
 Rare condition: small coef for last iteration:  0.000D+00
 Rare condition: small coef for last iteration:  0.000D+00
 Restarting incremental Fock formation.
 SCF Done:  E(UPBE1PBE) =  -1212.13547847     A.U. after   56 cycles
            NFock= 56  Conv=0.93D-08     -V/T= 2.0553
 <Sx>= 0.0000 <Sy>= 0.0000 <Sz>= 1.0000 <S**2>= 2.1325 S= 1.0435
 <L.S>=  0.00000000000    
 Annihilation of the first spin contaminant:
 S**2 before annihilation     2.1325,   after     2.0030
 QCSCF skips out because SCF is already converged.

 **********************************************************************

            Population analysis using the SCF Density.

 **********************************************************************

 Alpha  occ. eigenvalues --  -14.45100 -14.45100 -14.44574 -14.44573 -10.27535
 Alpha  occ. eigenvalues --  -10.27535 -10.27184 -10.27184 -10.27171 -10.27171
 Alpha  occ. eigenvalues --  -10.26973 -10.26973 -10.26316 -10.26316 -10.23767
 Alpha  occ. eigenvalues --  -10.23766 -10.23598 -10.23598 -10.23137 -10.23137
 Alpha  occ. eigenvalues --  -10.23053 -10.23053 -10.22779 -10.22510 -10.22506
 Alpha  occ. eigenvalues --  -10.19739  -3.93721  -2.46654  -2.43632  -2.42702
 Alpha  occ. eigenvalues --   -1.06303  -1.06210  -0.96457  -0.95962  -0.87948
 Alpha  occ. eigenvalues --   -0.87475  -0.85777  -0.79886  -0.78803  -0.77573
 Alpha  occ. eigenvalues --   -0.77441  -0.75666  -0.75046  -0.72924  -0.72921
 Alpha  occ. eigenvalues --   -0.66553  -0.65024  -0.64247  -0.63593  -0.62949
 Alpha  occ. eigenvalues --   -0.61167  -0.58709  -0.57988  -0.56041  -0.53784
 Alpha  occ. eigenvalues --   -0.53025  -0.51947  -0.49758  -0.49668  -0.49421
 Alpha  occ. eigenvalues --   -0.48005  -0.47210  -0.46883  -0.46849  -0.45729
 Alpha  occ. eigenvalues --   -0.45602  -0.44922  -0.44690  -0.44675  -0.43961
 Alpha  occ. eigenvalues --   -0.42217  -0.41986  -0.41644  -0.39243  -0.38896
 Alpha  occ. eigenvalues --   -0.38574  -0.38127  -0.37514  -0.37220  -0.36598
 Alpha  occ. eigenvalues --   -0.36041  -0.34755  -0.34700  -0.33726  -0.32309
 Alpha  occ. eigenvalues --   -0.31865  -0.31001  -0.30084  -0.27304  -0.26985
 Alpha  occ. eigenvalues --   -0.26499  -0.26008  -0.24623  -0.23728  -0.22972
 Alpha  occ. eigenvalues --   -0.20947  -0.20892  -0.09682
 Alpha virt. eigenvalues --   -0.05677  -0.01960  -0.00078   0.00276   0.00320
 Alpha virt. eigenvalues --    0.02275   0.02998   0.03706   0.04566   0.05584
 Alpha virt. eigenvalues --    0.06571   0.07903   0.07942   0.09650   0.10057
 Alpha virt. eigenvalues --    0.12288   0.12752   0.13626   0.13868   0.15087
 Alpha virt. eigenvalues --    0.15099   0.15217   0.15649   0.16350   0.16500
 Alpha virt. eigenvalues --    0.16793   0.17627   0.17831   0.18284   0.18327
 Alpha virt. eigenvalues --    0.19248   0.19627   0.19819   0.20111   0.20903
 Alpha virt. eigenvalues --    0.22105   0.23278   0.23754   0.24537   0.25132
 Alpha virt. eigenvalues --    0.25845   0.25925   0.26450   0.27358   0.27406
 Alpha virt. eigenvalues --    0.27990   0.28170   0.29612   0.30964   0.31359
 Alpha virt. eigenvalues --    0.32640   0.33440   0.34505   0.34818   0.36723
 Alpha virt. eigenvalues --    0.37857   0.38203   0.39325   0.39982   0.41150
 Alpha virt. eigenvalues --    0.42095   0.45125   0.45360   0.45998   0.47074
 Alpha virt. eigenvalues --    0.48526   0.50606   0.51193   0.51472   0.53072
 Alpha virt. eigenvalues --    0.53979   0.54189   0.56253   0.56332   0.56506
 Alpha virt. eigenvalues --    0.56520   0.57625   0.58031   0.58497   0.58736
 Alpha virt. eigenvalues --    0.58793   0.59773   0.60577   0.61337   0.61369
 Alpha virt. eigenvalues --    0.61594   0.61836   0.62933   0.63081   0.63098
 Alpha virt. eigenvalues --    0.63652   0.63784   0.64089   0.64127   0.64442
 Alpha virt. eigenvalues --    0.65081   0.65754   0.66078   0.66838   0.67407
 Alpha virt. eigenvalues --    0.67822   0.68148   0.68733   0.70998   0.71773
 Alpha virt. eigenvalues --    0.71845   0.73956   0.75493   0.76462   0.76947
 Alpha virt. eigenvalues --    0.77638   0.78264   0.80275   0.80561   0.81334
 Alpha virt. eigenvalues --    0.81899   0.82526   0.83257   0.83823   0.84211
 Alpha virt. eigenvalues --    0.84749   0.84903   0.85406   0.86815   0.86925
 Alpha virt. eigenvalues --    0.86962   0.87486   0.89179   0.90635   0.90847
 Alpha virt. eigenvalues --    0.90905   0.91284   0.91413   0.92762   0.93041
 Alpha virt. eigenvalues --    0.93149   0.94035   0.95509   0.95547   0.96455
 Alpha virt. eigenvalues --    0.97037   0.97292   0.98058   0.98312   0.98382
 Alpha virt. eigenvalues --    0.99971   1.00108   1.01397   1.01870   1.03005
 Alpha virt. eigenvalues --    1.03698   1.04766   1.05936   1.07340   1.07441
 Alpha virt. eigenvalues --    1.08745   1.09051   1.10200   1.10914   1.14024
 Alpha virt. eigenvalues --    1.15318   1.16166   1.16786   1.17962   1.18490
 Alpha virt. eigenvalues --    1.18867   1.21390   1.23687   1.23706   1.24454
 Alpha virt. eigenvalues --    1.24922   1.26479   1.27480   1.29052   1.29193
 Alpha virt. eigenvalues --    1.30070   1.30869   1.30997   1.33234   1.33493
 Alpha virt. eigenvalues --    1.34144   1.36782   1.37055   1.38156   1.38885
 Alpha virt. eigenvalues --    1.40709   1.41219   1.41692   1.42632   1.44854
 Alpha virt. eigenvalues --    1.45586   1.45936   1.46603   1.47126   1.48335
 Alpha virt. eigenvalues --    1.48975   1.49391   1.49673   1.50377   1.50392
 Alpha virt. eigenvalues --    1.51279   1.53083   1.55855   1.57600   1.57784
 Alpha virt. eigenvalues --    1.59942   1.60876   1.63753   1.65332   1.67200
 Alpha virt. eigenvalues --    1.68697   1.71715   1.73748   1.74844   1.77878
 Alpha virt. eigenvalues --    1.79825   1.79840   1.80255   1.81406   1.83366
 Alpha virt. eigenvalues --    1.84321   1.85509   1.86630   1.86754   1.87775
 Alpha virt. eigenvalues --    1.88682   1.89659   1.91221   1.91330   1.93301
 Alpha virt. eigenvalues --    1.94037   1.95756   1.96331   1.96476   1.97482
 Alpha virt. eigenvalues --    1.98098   1.98411   1.99052   1.99754   1.99818
 Alpha virt. eigenvalues --    1.99859   2.01015   2.01689   2.03636   2.05027
 Alpha virt. eigenvalues --    2.08902   2.09637   2.10983   2.13080   2.14020
 Alpha virt. eigenvalues --    2.14728   2.14816   2.14984   2.16643   2.16730
 Alpha virt. eigenvalues --    2.18088   2.18511   2.19054   2.19646   2.20344
 Alpha virt. eigenvalues --    2.21080   2.21760   2.24145   2.24169   2.24594
 Alpha virt. eigenvalues --    2.24831   2.26291   2.27607   2.27745   2.27796
 Alpha virt. eigenvalues --    2.27906   2.27950   2.28343   2.29715   2.32344
 Alpha virt. eigenvalues --    2.36100   2.36835   2.39799   2.40200   2.40916
 Alpha virt. eigenvalues --    2.41749   2.43141   2.46192   2.46985   2.47110
 Alpha virt. eigenvalues --    2.49996   2.52536   2.56785   2.57233   2.57726
 Alpha virt. eigenvalues --    2.58492   2.58720   2.61122   2.63159   2.63505
 Alpha virt. eigenvalues --    2.65896   2.66935   2.67805   2.68755   2.70842
 Alpha virt. eigenvalues --    2.72267   2.72663   2.72797   2.75220   2.75262
 Alpha virt. eigenvalues --    2.75429   2.77394   2.77667   2.78231   2.84197
 Alpha virt. eigenvalues --    2.86234   2.86818   2.88646   2.90538   2.94086
 Alpha virt. eigenvalues --    2.95141   2.96334   2.97562   3.00233   3.03779
 Alpha virt. eigenvalues --    3.06363   3.08800   3.15984   3.19960   3.21078
 Alpha virt. eigenvalues --    3.25618   3.39677   3.42783   3.46369   3.48171
 Alpha virt. eigenvalues --    3.51260   3.60644   5.55331   5.56210   5.57834
 Alpha virt. eigenvalues --    5.60467   5.61162   5.62989   5.64373  45.69716
 Alpha virt. eigenvalues --   45.95239  45.96157  63.00619
  Beta  occ. eigenvalues --  -14.44964 -14.44963 -14.44542 -14.44541 -10.27544
  Beta  occ. eigenvalues --  -10.27544 -10.27192 -10.27191 -10.27007 -10.27007
  Beta  occ. eigenvalues --  -10.26976 -10.26975 -10.26149 -10.26149 -10.23711
  Beta  occ. eigenvalues --  -10.23711 -10.23567 -10.23567 -10.23136 -10.23136
  Beta  occ. eigenvalues --  -10.23025 -10.23025 -10.22639 -10.22619 -10.22562
  Beta  occ. eigenvalues --  -10.20011  -3.87324  -2.39122  -2.38335  -2.34914
  Beta  occ. eigenvalues --   -1.06095  -1.06003  -0.96243  -0.95738  -0.87883
  Beta  occ. eigenvalues --   -0.87398  -0.85708  -0.79775  -0.78733  -0.77506
  Beta  occ. eigenvalues --   -0.77360  -0.75515  -0.74855  -0.72925  -0.72917
  Beta  occ. eigenvalues --   -0.66567  -0.64733  -0.64029  -0.63597  -0.62862
  Beta  occ. eigenvalues --   -0.61069  -0.58661  -0.57897  -0.55997  -0.53723
  Beta  occ. eigenvalues --   -0.52983  -0.51863  -0.49432  -0.49281  -0.49211
  Beta  occ. eigenvalues --   -0.47912  -0.47175  -0.46850  -0.46773  -0.45689
  Beta  occ. eigenvalues --   -0.45583  -0.44864  -0.44670  -0.44265  -0.43659
  Beta  occ. eigenvalues --   -0.42224  -0.41956  -0.41634  -0.39258  -0.38551
  Beta  occ. eigenvalues --   -0.38386  -0.37597  -0.37205  -0.36772  -0.36151
  Beta  occ. eigenvalues --   -0.36019  -0.34676  -0.34202  -0.33081  -0.31447
  Beta  occ. eigenvalues --   -0.31204  -0.29497  -0.26227  -0.26104  -0.25260
  Beta  occ. eigenvalues --   -0.24822  -0.23983  -0.22176  -0.21152  -0.20662
  Beta  occ. eigenvalues --   -0.19981
  Beta virt. eigenvalues --   -0.04607  -0.04201  -0.01541  -0.00236   0.00131
  Beta virt. eigenvalues --    0.01240   0.01786   0.02421   0.03735   0.05656
  Beta virt. eigenvalues --    0.05949   0.06062   0.08186   0.08957   0.09214
  Beta virt. eigenvalues --    0.10084   0.10598   0.12426   0.12824   0.13934
  Beta virt. eigenvalues --    0.13994   0.15227   0.15500   0.15756   0.15800
  Beta virt. eigenvalues --    0.16500   0.16845   0.17040   0.17698   0.17957
  Beta virt. eigenvalues --    0.18731   0.19180   0.19404   0.19885   0.20399
  Beta virt. eigenvalues --    0.21125   0.22273   0.23317   0.23417   0.23913
  Beta virt. eigenvalues --    0.24612   0.25306   0.25827   0.26010   0.27398
  Beta virt. eigenvalues --    0.27480   0.27783   0.28444   0.29291   0.30190
  Beta virt. eigenvalues --    0.31294   0.31569   0.32774   0.33754   0.34770
  Beta virt. eigenvalues --    0.34877   0.36920   0.38023   0.38477   0.39521
  Beta virt. eigenvalues --    0.40065   0.41187   0.42659   0.45353   0.45767
  Beta virt. eigenvalues --    0.46355   0.47395   0.48882   0.50819   0.51538
  Beta virt. eigenvalues --    0.51576   0.53148   0.54079   0.54322   0.56326
  Beta virt. eigenvalues --    0.56430   0.56568   0.56769   0.57711   0.58211
  Beta virt. eigenvalues --    0.58593   0.58784   0.59106   0.59839   0.60671
  Beta virt. eigenvalues --    0.61311   0.61359   0.61870   0.61976   0.63007
  Beta virt. eigenvalues --    0.63159   0.63235   0.63815   0.63847   0.64150
  Beta virt. eigenvalues --    0.64194   0.64529   0.65030   0.65928   0.66142
  Beta virt. eigenvalues --    0.67352   0.67773   0.68047   0.68231   0.68940
  Beta virt. eigenvalues --    0.70995   0.71980   0.72230   0.74406   0.75623
  Beta virt. eigenvalues --    0.76534   0.77037   0.78025   0.78723   0.80687
  Beta virt. eigenvalues --    0.80768   0.81527   0.82121   0.82695   0.83542
  Beta virt. eigenvalues --    0.84140   0.84271   0.84915   0.85147   0.85574
  Beta virt. eigenvalues --    0.86829   0.86978   0.87369   0.87528   0.89250
  Beta virt. eigenvalues --    0.90741   0.90898   0.91202   0.91465   0.91524
  Beta virt. eigenvalues --    0.92826   0.93184   0.93895   0.94117   0.95585
  Beta virt. eigenvalues --    0.96645   0.96956   0.97066   0.97343   0.98125
  Beta virt. eigenvalues --    0.98415   0.98729   1.00093   1.00124   1.01531
  Beta virt. eigenvalues --    1.01935   1.03053   1.03771   1.04851   1.05996
  Beta virt. eigenvalues --    1.07440   1.08724   1.09089   1.10321   1.11192
  Beta virt. eigenvalues --    1.14140   1.15012   1.15429   1.16241   1.16820
  Beta virt. eigenvalues --    1.18038   1.18530   1.18919   1.21507   1.23862
  Beta virt. eigenvalues --    1.23941   1.24530   1.24976   1.26687   1.27658
  Beta virt. eigenvalues --    1.29426   1.29439   1.30277   1.31172   1.31282
  Beta virt. eigenvalues --    1.33579   1.33781   1.34706   1.37074   1.37353
  Beta virt. eigenvalues --    1.38360   1.39082   1.40959   1.41585   1.41817
  Beta virt. eigenvalues --    1.43075   1.44940   1.45689   1.46078   1.46746
  Beta virt. eigenvalues --    1.47200   1.48433   1.49307   1.49459   1.49874
  Beta virt. eigenvalues --    1.50512   1.50535   1.51594   1.53441   1.56805
  Beta virt. eigenvalues --    1.57716   1.58159   1.60071   1.61688   1.64696
  Beta virt. eigenvalues --    1.65761   1.67512   1.69128   1.71885   1.73913
  Beta virt. eigenvalues --    1.74988   1.77934   1.80057   1.80147   1.80481
  Beta virt. eigenvalues --    1.81598   1.83431   1.84383   1.85659   1.86780
  Beta virt. eigenvalues --    1.86855   1.87851   1.88871   1.89851   1.91300
  Beta virt. eigenvalues --    1.91363   1.93360   1.94092   1.95801   1.96415
  Beta virt. eigenvalues --    1.96560   1.97661   1.98257   1.98528   1.99222
  Beta virt. eigenvalues --    1.99814   2.00013   2.00033   2.01042   2.01793
  Beta virt. eigenvalues --    2.03874   2.05198   2.08899   2.09692   2.11271
  Beta virt. eigenvalues --    2.13231   2.14308   2.14927   2.14975   2.15201
  Beta virt. eigenvalues --    2.16755   2.16851   2.18286   2.18629   2.19316
  Beta virt. eigenvalues --    2.19784   2.20471   2.21214   2.21858   2.24267
  Beta virt. eigenvalues --    2.24393   2.25015   2.25071   2.26486   2.27770
  Beta virt. eigenvalues --    2.27928   2.28037   2.28142   2.28161   2.28365
  Beta virt. eigenvalues --    2.29962   2.32528   2.36422   2.37252   2.39955
  Beta virt. eigenvalues --    2.40382   2.41038   2.43544   2.44550   2.46244
  Beta virt. eigenvalues --    2.47556   2.49637   2.50117   2.52653   2.57132
  Beta virt. eigenvalues --    2.57433   2.58081   2.58539   2.59085   2.61215
  Beta virt. eigenvalues --    2.63463   2.63655   2.66154   2.67056   2.67857
  Beta virt. eigenvalues --    2.68900   2.71216   2.72374   2.72796   2.72999
  Beta virt. eigenvalues --    2.75371   2.75460   2.75538   2.77565   2.77665
  Beta virt. eigenvalues --    2.78553   2.84394   2.86282   2.87163   2.88741
  Beta virt. eigenvalues --    2.90727   2.94223   2.95765   2.96719   2.97740
  Beta virt. eigenvalues --    3.02165   3.04165   3.06553   3.09389   3.16017
  Beta virt. eigenvalues --    3.20301   3.21473   3.25580   3.40703   3.42915
  Beta virt. eigenvalues --    3.46384   3.48173   3.51821   3.62623   5.61146
  Beta virt. eigenvalues --    5.62860   5.62972   5.64448   5.64962   5.67157
  Beta virt. eigenvalues --    5.69048  45.79741  46.01205  46.03243  63.06279
          Condensed to atoms (all electrons):
               1          2          3          4          5          6
     1  C    5.255247   0.491350  -0.076371  -0.040830  -0.076371   0.491352
     2  C    0.491350   4.641662   0.539609  -0.001192  -0.040641  -0.013408
     3  C   -0.076371   0.539609   5.032319   0.519366  -0.046555  -0.040641
     4  C   -0.040830  -0.001192   0.519366   4.912081   0.519367  -0.001192
     5  C   -0.076371  -0.040641  -0.046555   0.519367   5.032319   0.539608
     6  C    0.491352  -0.013408  -0.040641  -0.001192   0.539608   4.641664
     7  H    0.004359  -0.035938   0.351460  -0.039104   0.004154   0.000376
     8  H    0.001014   0.002448  -0.034697   0.365469  -0.034697   0.002448
     9  H    0.004359   0.000376   0.004154  -0.039104   0.351460  -0.035938
    10  C    0.008025   0.000008   0.000001   0.000107  -0.006432  -0.041955
    11  C    0.018622   0.003463  -0.000140   0.000035   0.003508  -0.070494
    12  C   -0.000890  -0.000001   0.000000   0.000000   0.000133   0.007276
    13  C    0.000151   0.000003  -0.000002   0.000075   0.001515  -0.004943
    14  C   -0.000000  -0.000000   0.000000  -0.000000   0.000002  -0.000029
    15  C    0.000002  -0.000000   0.000000  -0.000001   0.000082   0.000068
    16  H   -0.000038   0.000001   0.000000   0.000127  -0.000148   0.000503
    17  C    0.000000   0.000000  -0.000000   0.000000  -0.000001  -0.000005
    18  H   -0.000000   0.000000   0.000000   0.000000  -0.000000   0.000002
    19  H   -0.000000   0.000000  -0.000000   0.000000   0.000002  -0.000002
    20  H   -0.000000  -0.000000   0.000000  -0.000000  -0.000000  -0.000000
    21  C    0.008025  -0.041955  -0.006432   0.000107   0.000001   0.000008
    22  C    0.018626  -0.070495   0.003509   0.000035  -0.000140   0.003463
    23  C   -0.000890   0.007276   0.000133   0.000000   0.000000  -0.000001
    24  C    0.000151  -0.004943   0.001515   0.000075  -0.000002   0.000003
    25  C   -0.000000  -0.000029   0.000002  -0.000000   0.000000  -0.000000
    26  C    0.000002   0.000068   0.000082  -0.000001   0.000000  -0.000000
    27  H   -0.000038   0.000503  -0.000148   0.000127   0.000000   0.000001
    28  C    0.000000  -0.000005  -0.000001   0.000000  -0.000000   0.000000
    29  H   -0.000000   0.000002  -0.000000   0.000000   0.000000   0.000000
    30  H   -0.000000  -0.000002   0.000002   0.000000  -0.000000   0.000000
    31  H   -0.000000  -0.000000  -0.000000  -0.000000   0.000000  -0.000000
    32  N   -0.034387   0.251662  -0.063566   0.003695   0.000961   0.007043
    33  N    0.001189   0.006467  -0.000150   0.000001   0.000000  -0.000055
    34  N   -0.034386   0.007043   0.000961   0.003695  -0.063566   0.251659
    35  N    0.001189  -0.000055   0.000000   0.000001  -0.000150   0.006467
    36  C   -0.000020   0.000001  -0.000000  -0.000000   0.000002  -0.000045
    37  H   -0.000000  -0.000000   0.000000   0.000000  -0.000000   0.000004
    38  H   -0.000000  -0.000000   0.000000   0.000000  -0.000000   0.000004
    39  H   -0.000024   0.000001   0.000000  -0.000000  -0.000000  -0.000017
    40  C   -0.000020  -0.000045   0.000002  -0.000000  -0.000000   0.000001
    41  H   -0.000000   0.000004  -0.000000   0.000000   0.000000  -0.000000
    42  H   -0.000000   0.000004  -0.000000   0.000000   0.000000  -0.000000
    43  H   -0.000024  -0.000017  -0.000000  -0.000000   0.000000   0.000001
    44  Co   0.262842  -0.071620   0.003004   0.002453   0.003003  -0.071620
               7          8          9         10         11         12
     1  C    0.004359   0.001014   0.004359   0.008025   0.018622  -0.000890
     2  C   -0.035938   0.002448   0.000376   0.000008   0.003463  -0.000001
     3  C    0.351460  -0.034697   0.004154   0.000001  -0.000140   0.000000
     4  C   -0.039104   0.365469  -0.039104   0.000107   0.000035   0.000000
     5  C    0.004154  -0.034697   0.351460  -0.006432   0.003508   0.000133
     6  C    0.000376   0.002448  -0.035938  -0.041955  -0.070494   0.007276
     7  H    0.543023  -0.004111  -0.000121  -0.000000  -0.000000   0.000000
     8  H   -0.004111   0.537922  -0.004112  -0.000002   0.000001  -0.000000
     9  H   -0.000121  -0.004112   0.543024   0.000266  -0.000141  -0.000032
    10  C   -0.000000  -0.000002   0.000266   4.640911  -0.075993   0.520133
    11  C   -0.000000   0.000001  -0.000141  -0.075993   4.818118  -0.057730
    12  C    0.000000  -0.000000  -0.000032   0.520133  -0.057730   4.660588
    13  C   -0.000000   0.000003   0.000186   0.529913   0.004997  -0.055971
    14  C   -0.000000   0.000000   0.000000  -0.049042   0.005865   0.529673
    15  C   -0.000000   0.000000   0.000127  -0.006850  -0.000085  -0.037803
    16  H   -0.000000  -0.000011   0.006436  -0.034688  -0.000157   0.003622
    17  C   -0.000000  -0.000000   0.000002  -0.039147  -0.000081  -0.008268
    18  H    0.000000  -0.000000  -0.000000   0.003754  -0.000218  -0.038262
    19  H    0.000000   0.000000  -0.000009   0.001938   0.000003   0.000924
    20  H   -0.000000  -0.000000   0.000000   0.000879   0.000003   0.002148
    21  C    0.000266  -0.000002  -0.000000  -0.000000  -0.000010   0.000000
    22  C   -0.000141   0.000001  -0.000000  -0.000010  -0.018658  -0.000003
    23  C   -0.000032  -0.000000   0.000000   0.000000  -0.000003  -0.000000
    24  C    0.000186   0.000003  -0.000000   0.000000   0.000000   0.000000
    25  C    0.000000   0.000000  -0.000000   0.000000   0.000000   0.000000
    26  C    0.000127   0.000000  -0.000000  -0.000000  -0.000000  -0.000000
    27  H    0.006436  -0.000011  -0.000000   0.000000   0.000000  -0.000000
    28  C    0.000002  -0.000000  -0.000000   0.000000  -0.000000  -0.000000
    29  H   -0.000000  -0.000000   0.000000   0.000000   0.000000  -0.000000
    30  H   -0.000009   0.000000   0.000000   0.000000   0.000000   0.000000
    31  H    0.000000  -0.000000  -0.000000   0.000000   0.000000   0.000000
    32  N   -0.004608  -0.000091   0.000007  -0.000000   0.000407   0.000000
    33  N    0.000002  -0.000000  -0.000000  -0.000000   0.000028   0.000000
    34  N    0.000007  -0.000091  -0.004608   0.269105   0.355780  -0.042236
    35  N   -0.000000  -0.000000   0.000002  -0.044524   0.318374   0.277587
    36  C   -0.000000   0.000000   0.000000   0.005862  -0.043897  -0.047941
    37  H    0.000000  -0.000000  -0.000000  -0.000148   0.000640  -0.001353
    38  H    0.000000  -0.000000  -0.000000  -0.000148   0.000637  -0.001349
    39  H    0.000000   0.000000   0.000000   0.000022  -0.000181   0.002600
    40  C    0.000000   0.000000  -0.000000   0.000000   0.000022   0.000000
    41  H   -0.000000  -0.000000   0.000000  -0.000000  -0.000000  -0.000000
    42  H   -0.000000  -0.000000   0.000000  -0.000000  -0.000000  -0.000000
    43  H    0.000000   0.000000   0.000000   0.000000   0.000000  -0.000000
    44  Co  -0.000422   0.000200  -0.000422   0.007627   0.360744   0.005401
              13         14         15         16         17         18
     1  C    0.000151  -0.000000   0.000002  -0.000038   0.000000  -0.000000
     2  C    0.000003  -0.000000  -0.000000   0.000001   0.000000   0.000000
     3  C   -0.000002   0.000000   0.000000   0.000000  -0.000000   0.000000
     4  C    0.000075  -0.000000  -0.000001   0.000127   0.000000   0.000000
     5  C    0.001515   0.000002   0.000082  -0.000148  -0.000001  -0.000000
     6  C   -0.004943  -0.000029   0.000068   0.000503  -0.000005   0.000002
     7  H   -0.000000  -0.000000  -0.000000  -0.000000  -0.000000   0.000000
     8  H    0.000003   0.000000   0.000000  -0.000011  -0.000000  -0.000000
     9  H    0.000186   0.000000   0.000127   0.006436   0.000002  -0.000000
    10  C    0.529913  -0.049042  -0.006850  -0.034688  -0.039147   0.003754
    11  C    0.004997   0.005865  -0.000085  -0.000157  -0.000081  -0.000218
    12  C   -0.055971   0.529673  -0.037803   0.003622  -0.008268  -0.038262
    13  C    5.020365  -0.042996   0.515410   0.355355  -0.036304   0.000258
    14  C   -0.042996   5.028590  -0.038973   0.000432   0.519768   0.361571
    15  C    0.515410  -0.038973   4.901881  -0.036080   0.551375   0.003881
    16  H    0.355355   0.000432  -0.036080   0.520721   0.003651   0.000013
    17  C   -0.036304   0.519768   0.551375   0.003651   4.895605  -0.035568
    18  H    0.000258   0.361571   0.003881   0.000013  -0.035568   0.537431
    19  H   -0.035948   0.003924   0.367656  -0.004102  -0.035505  -0.000144
    20  H    0.003837  -0.036403  -0.035265  -0.000142   0.367313  -0.004176
    21  C    0.000000   0.000000  -0.000000   0.000000   0.000000   0.000000
    22  C    0.000000   0.000000  -0.000000   0.000000  -0.000000   0.000000
    23  C    0.000000   0.000000  -0.000000  -0.000000  -0.000000  -0.000000
    24  C    0.000000   0.000000  -0.000000   0.000000   0.000000   0.000000
    25  C    0.000000  -0.000000   0.000000  -0.000000  -0.000000   0.000000
    26  C   -0.000000   0.000000  -0.000000  -0.000000   0.000000   0.000000
    27  H    0.000000  -0.000000  -0.000000   0.000000   0.000000  -0.000000
    28  C    0.000000  -0.000000   0.000000   0.000000   0.000000   0.000000
    29  H    0.000000   0.000000   0.000000  -0.000000   0.000000  -0.000000
    30  H   -0.000000  -0.000000   0.000000  -0.000000   0.000000   0.000000
    31  H   -0.000000   0.000000   0.000000  -0.000000   0.000000   0.000000
    32  N   -0.000000   0.000000   0.000000   0.000000  -0.000000  -0.000000
    33  N    0.000000  -0.000000   0.000000   0.000000   0.000000  -0.000000
    34  N   -0.075011   0.008992   0.005130  -0.004493  -0.000169  -0.000090
    35  N    0.009192  -0.082601  -0.000137  -0.000096   0.005309  -0.006827
    36  C   -0.000115  -0.002731   0.000009   0.000003  -0.000111   0.003945
    37  H   -0.000009   0.002722  -0.000002  -0.000000  -0.000005   0.000533
    38  H   -0.000009   0.002720  -0.000002  -0.000000  -0.000005   0.000532
    39  H    0.000006   0.000023  -0.000000  -0.000000   0.000001  -0.000034
[...]
 ,-0.00000003,-0.00008439,0.00000003,-0.00000007,-0.00002557,-0.0000002
 7,-0.00000026,0.00025185,-0.00000055,-0.00000018,-0.00008427,-0.000000
 01,-0.00000006,-0.00001330,0.00000003,-0.00000001,0.00007447,-0.000001
 99,0.00000029,0.00563986,-0.00000069,0.00001559,-0.06169446,-0.0000002
 6,0.00000013,0.00020395,0.00000020,-0.00000020,0.00049107,0.00000013,0
 .00000013,0.00002214,0.00001857,0.00000442,-0.00001302,-0.00001857,-0.
 00000446,-0.00001304,-0.00000008,0.,-0.00006460,-0.00000065,0.00000476
 ,0.58112235,-0.00005965,0.00010762,0.00090537,-0.00009199,-0.00011734,
 -0.00015610,0.00003297,0.00004852,-0.00008768,-0.00005244,-0.00002936,
 0.00002383,0.00002651,-0.00002125,-0.00008717,-0.00011300,0.00001625,-
 0.00021767,0.00000654,0.00000236,0.00001016,-0.00000141,-0.00000762,-0
 .00000633,-0.00000577,-0.00000583,0.00002662,0.00004509,-0.00005579,-0
 .00005626,0.00033877,0.00016906,-0.00050253,0.00002932,0.00010392,0.00
 006260,0.00005221,0.00001367,-0.00000564,0.00002419,0.00002215,0.00001
 247,-0.00008425,0.00004429,0.00000635,0.00000474,-0.00000098,-0.000004
 91,-0.00002426,-0.00008290,-0.00001894,0.00000137,0.00000469,0.0000053
 1,-0.00000586,-0.00000304,0.00000634,-0.00000781,-0.00000194,-0.000004
 65,0.00007178,0.00002125,-0.00000962,0.00094386,-0.00071587,0.00015326
 ,0.00008673,0.00038980,-0.00067164,0.00039858,-0.00007523,0.00012277,0
 .00067170,-0.00062141,0.00013247,-0.00024558,-0.00044532,-0.00001633,0
 .00000117,-0.00001863,-0.00000384,-0.00028130,0.00052586,0.00038018,-0
 .00024902,0.00010508,-0.00045861,-0.00000412,-0.00001811,-0.00007622,0
 .00002213,0.00000601,-0.00000846,0.00006586,0.00020820,-0.00043803,-0.
 00084268,-0.00371115,0.00030270,-0.00003192,-0.00020256,0.00006103,-0.
 00026658,0.00008339,0.00022556,0.00000979,-0.00009584,0.00001857,0.000
 00714,0.00001774,-0.00000382,-0.00003636,0.00000741,-0.00002152,0.0000
 1677,-0.00001611,-0.00002342,-0.11408511,-0.03671883,0.10592463,0.1167
 0468,0.00023969,-0.00001816,-0.00014321,-0.00013336,-0.00057278,-0.000
 31363,0.00010644,0.00026343,-0.00003842,-0.00035145,-0.00005770,0.0000
 3996,0.00022434,-0.00024785,0.00000821,-0.00053217,0.00031544,0.000037
 87,0.00001429,-0.00000594,-0.00001231,-0.00001354,-0.00001604,0.000015
 25,-0.00000703,0.00000532,-0.00000744,-0.00000101,-0.00012379,0.000009
 58,0.00071513,0.00016306,0.00008186,0.00015032,0.00021868,-0.00000663,
 0.00014848,0.00004304,0.00000371,0.00001570,0.00006085,0.00000184,-0.0
 0019951,0.00008965,-0.00000364,0.00000666,-0.00000373,0.00000078,-0.00
 002670,-0.00017245,0.00000127,0.00000214,0.00000671,-0.00000124,-0.000
 01000,-0.00000441,-0.00000044,-0.00001305,-0.00000290,0.00000101,-0.00
 148675,-0.00094303,-0.00036162,0.00619469,0.00002877,0.00344880,-0.003
 07525,0.00279663,0.00062182,-0.00018616,0.00018590,-0.00014368,0.00082
 633,0.00031592,-0.00019736,0.00022075,0.00004380,0.00002794,-0.0000188
 1,0.00001616,0.00002640,0.00017429,-0.00000923,-0.00027363,0.00040913,
 -0.00002746,0.00046501,0.00001351,0.00002723,0.00003662,0.00000262,0.0
 0000405,0.00000298,0.00008590,-0.00131998,-0.00075169,-0.02356675,-0.0
 2706716,0.02740020,0.00019544,-0.00059972,-0.00001457,-0.00062834,0.00
 025888,-0.00004888,-0.00002874,-0.00022363,-0.00000447,-0.00001778,0.0
 0003559,0.00002307,-0.00000741,0.00003778,-0.00001267,0.00001717,-0.00
 000076,0.00000030,-0.03410446,-0.06899263,0.06015737,0.04490661,0.0869
 7182,-0.00010649,-0.00006945,-0.00080011,0.00026619,0.00022358,0.00015
 333,-0.00012085,-0.00014029,0.00010012,0.00013439,0.00003257,-0.000024
 20,-0.00008688,0.00006118,0.00007384,0.00027772,-0.00009553,0.00016728
 ,-0.00000485,0.00000879,-0.00001679,-0.00000166,0.00000380,0.00000485,
 0.00000324,-0.00000019,-0.00001591,-0.00000869,0.00007442,0.00004817,-
 0.00042364,-0.00011909,0.00043627,-0.00006974,-0.00011660,-0.00005730,
 -0.00008327,-0.00002279,0.00000296,-0.00001895,-0.00003749,-0.00001084
 ,0.00011592,-0.00005658,-0.00000256,-0.00000351,0.00000247,0.00000425,
 0.00002011,0.00010677,0.00001720,-0.00000241,-0.00000387,-0.00000366,0
 .00000611,0.00000292,-0.00000543,0.00000782,0.00000189,0.00000370,0.00
 018716,0.00035285,-0.00016631,-0.00152464,-0.00107153,0.00010435,0.001
 17923,-0.00041287,0.00055153,-0.00002573,-0.00005646,0.00001031,0.0000
 3691,0.00055141,-0.00026236,0.00000065,0.00009380,-0.00000909,-0.00000
 213,-0.00000603,-0.00000089,-0.00012773,-0.00031784,-0.00007395,-0.000
 43114,-0.00015488,-0.00007871,-0.00001158,-0.00003914,0.00002279,-0.00
 000309,0.00000514,-0.00000367,-0.00054141,-0.00041989,-0.00031085,-0.0
 0241705,0.00364628,0.00815587,-0.00006593,0.00033214,-0.00005815,0.000
 32538,-0.00013131,-0.00019280,0.00000726,0.00010531,-0.00001304,-0.000
 00383,-0.00002309,-0.00000415,0.00002153,-0.00001268,0.00001499,-0.000
 00733,0.00000424,0.00002707,0.10743658,0.06377856,-0.23412593,-0.11656
 169,-0.07161332,0.24608270,-0.00005959,0.00010787,-0.00090714,-0.00009
 219,-0.00011762,0.00015637,0.00003308,0.00004871,0.00008787,-0.0000525
 9,-0.00002944,-0.00002386,0.00002658,-0.00002127,0.00008731,-0.0001133
 2,0.00001628,0.00021803,0.00000655,0.00000234,-0.00001019,-0.00000141,
 -0.00000762,0.00000633,-0.00000578,-0.00000583,-0.00002664,0.00004514,
 -0.00005588,0.00005634,0.00033932,0.00016926,0.00050335,0.00002941,0.0
 0010410,-0.00006271,0.00005230,0.00001369,0.00000564,0.00002419,0.0000
 2218,-0.00001250,-0.00008438,0.00004435,-0.00000634,0.00000475,-0.0000
 0099,0.00000492,-0.00002428,-0.00008302,0.00001897,0.00000138,0.000004
 70,-0.00000532,-0.00000587,-0.00000305,-0.00000635,-0.00000782,-0.0000
 0194,0.00000466,0.00007172,0.00002125,0.00000994,0.00094386,-0.0007163
 7,-0.00015269,0.00008653,0.00038992,0.00067208,0.00039846,-0.00007530,
 -0.00012274,0.00067103,-0.00062081,-0.00013200,-0.00024553,-0.00044514
 ,0.00001630,0.00000117,-0.00001863,0.00000382,-0.00028104,0.00052585,-
 0.00038054,-0.00024929,0.00010578,0.00045874,-0.00000411,-0.00001809,0
 .00007629,0.00002214,0.00000600,0.00000846,0.00006601,0.00020845,0.000
 43736,-0.00084352,-0.00371061,-0.00029971,-0.00003187,-0.00020294,-0.0
 0006114,-0.00026708,0.00008361,-0.00022586,0.00000970,-0.00009603,-0.0
 0001858,-0.00003642,0.00000743,0.00002151,0.00000715,0.00001778,0.0000
 0383,0.00001690,-0.00001614,0.00002351,-0.11421457,-0.03676535,-0.1059
 9875,0.00879124,0.00552414,0.01432942,0.11684910,0.00023961,-0.0000182
 4,0.00014206,-0.00013278,-0.00057276,0.00031391,0.00010613,0.00026319,
 0.00003851,-0.00035116,-0.00005771,-0.00004000,0.00022419,-0.00024770,
 -0.00000811,-0.00053174,0.00031525,-0.00003760,0.00001429,-0.00000595,
 0.00001231,-0.00001355,-0.00001604,-0.00001524,-0.00000702,0.00000532,
 0.00000742,-0.00000101,-0.00012369,-0.00000954,0.00071448,0.00016293,-
 0.00008149,0.00015019,0.00021851,0.00000655,0.00014837,0.00004301,-0.0
 0000373,0.00001569,0.00006081,-0.00000186,-0.00019936,0.00008958,0.000
 00367,0.00000666,-0.00000373,-0.00000078,-0.00002668,-0.00017232,-0.00
 000125,0.00000214,0.00000670,0.00000123,-0.00000999,-0.00000440,0.0000
 0044,-0.00001304,-0.00000290,-0.00000100,-0.00148672,-0.00094259,0.000
 36113,0.00619410,0.00002461,-0.00344773,-0.00307341,0.00279666,-0.0006
 2071,-0.00018627,0.00018606,0.00014361,0.00082578,0.00031576,0.0001973
 4,0.00022091,0.00004414,-0.00002796,-0.00001883,0.00001620,-0.00002638
 ,0.00017460,-0.00000967,0.00027379,0.00040989,-0.00002747,-0.00046527,
 0.00001352,0.00002726,-0.00003665,0.00000259,0.00000406,-0.00000297,0.
 00008416,-0.00132071,0.00075131,-0.02358758,-0.02706091,-0.02738844,0.
 00019528,-0.00059923,0.00001452,-0.00062785,0.00025866,0.00004887,-0.0
 0002872,-0.00022347,0.00000441,-0.00000743,0.00003772,0.00001265,-0.00
 001774,0.00003559,-0.00002308,0.00001714,-0.00000076,-0.00000020,-0.03
 414463,-0.06900133,-0.06014338,0.00552773,0.00396660,0.00699417,0.0449
 5618,0.08697834,0.00010635,0.00006939,-0.00079841,-0.00026545,-0.00022
 296,0.00015301,0.00012057,0.00013997,0.00009996,-0.00013403,-0.0000325
 1,-0.00002416,0.00008667,-0.00006098,0.00007369,-0.00027714,0.00009530
 ,0.00016691,0.00000484,-0.00000878,-0.00001676,0.00000166,-0.00000379,
 0.00000484,-0.00000324,0.00000019,-0.00001588,0.00000870,-0.00007427,0
 .00004806,0.00042283,0.00011881,0.00043522,0.00006960,0.00011639,-0.00
 005719,0.00008311,0.00002274,0.00000294,0.00001890,0.00003742,-0.00001
 082,-0.00011569,0.00005647,-0.00000253,0.00000350,-0.00000246,0.000004
 24,-0.00002006,-0.00010656,0.00001717,0.00000240,0.00000386,-0.0000036
 6,-0.00000610,-0.00000292,-0.00000542,-0.00000781,-0.00000188,0.000003
 69,-0.00018706,-0.00035272,-0.00016639,0.00152375,0.00107253,0.0001036
 3,-0.00117887,0.00041222,0.00055208,0.00002585,0.00005650,0.00001034,-
 0.00003767,-0.00055197,-0.00026248,-0.00000081,-0.00009378,-0.00000910
 ,0.00000214,0.00000603,-0.00000090,0.00012798,0.00031808,-0.00007398,0
 .00043174,0.00015493,-0.00007836,0.00001159,0.00003918,0.00002279,0.00
 000308,-0.00000515,-0.00000365,0.00054126,0.00041909,-0.00031069,0.002
 42151,-0.00363868,0.00815298,0.00006577,-0.00033146,-0.00005802,-0.000
 32480,0.00013110,-0.00019225,-0.00000731,-0.00010515,-0.00001303,-0.00
 002150,0.00001264,0.00001492,0.00000383,0.00002307,-0.00000414,0.00000
 740,-0.00000425,0.00002703,-0.10751114,-0.06376805,-0.23399762,-0.0143
 4793,-0.00699891,-0.02132474,0.11664125,0.07159409,0.24594204,0.000019
 21,-0.00013347,0.00000554,-0.00007116,0.00009090,-0.00000107,-0.000023
 70,-0.00004328,-0.00000043,0.00005020,0.00001065,0.00000011,-0.0000319
 9,0.00003665,-0.00000047,0.00012643,-0.00006805,-0.00000119,-0.0000087
 1,-0.00000482,0.00000007,0.00000251,0.00000531,-0.00000005,0.00000642,
 -0.00000180,0.00000010,-0.00003978,0.00003921,-0.00000030,-0.00033369,
 -0.00017845,-0.00000285,-0.00000523,-0.00008929,0.00000035,-0.00004708
 ,-0.00000949,-0.00000003,-0.00002533,-0.00001967,0.00000007,0.00007391
 ,-0.00004243,0.00000004,-0.00000446,-0.00000114,-0.00000003,0.00002463
 ,0.00007522,-0.00000010,0.00000142,-0.00000463,0.00000002,0.00000444,0
 .00000193,0.00000003,0.00000636,0.00000184,-0.00000003,0.00013300,-0.0
 0057351,-0.00000017,-0.00024614,-0.00236460,-0.00000329,0.00043897,-0.
 00101582,0.00000080,-0.00012003,0.00000834,0.00000003,-0.00013101,-0.0
 0008641,0.00000004,0.00009342,0.00015552,0.00000005,0.00000668,0.00000
 236,-0.00000004,0.00017838,-0.00012641,0.,0.00024831,0.00011465,-0.000
 00009,0.00000176,0.00002840,0.,-0.00001587,0.00000189,-0.00000003,0.00
 047797,0.00000300,-0.00000008,0.00468781,-0.00099946,-0.00000086,0.000
 00686,0.00016963,0.00000037,0.00026084,-0.00009307,0.00000127,0.000007
 46,0.00011331,0.00000010,0.00001690,-0.00001714,-0.00000741,0.00001676
 ,-0.00001717,0.00000732,-0.00001345,0.00001663,-0.00000025,-0.29353622
 ,0.09970419,0.00007460,-0.01223599,0.00489669,-0.00189322,-0.01224947,
 0.00490373,0.00190200,0.31191856,0.00025461,-0.00027612,0.00000091,0.0
 0004762,0.00007598,-0.00000008,0.00005474,0.00007141,-0.00000008,-0.00
 011291,0.00003788,0.00000001,0.00009566,-0.00008721,-0.00000008,-0.000
 23717,0.00025009,-0.00000018,0.00000004,0.00003675,0.00000001,-0.00000
 082,0.00000698,0.,0.00000287,0.00002572,0.00000001,-0.00007996,0.00001
 656,-0.00000004,-0.00007033,-0.00042275,-0.00000045,0.00007259,-0.0000
 5874,0.00000003,0.00000851,0.00000555,0.,-0.00002359,0.00001148,0.0000
 0001,0.00001347,-0.00001478,0.,-0.00000445,-0.00000063,0.,0.00002485,0
 .00002373,-0.00000002,0.00000033,-0.00000366,0.,0.00000425,0.00000238,
 0.,0.00000555,0.00000204,0.,0.00215838,-0.00092969,0.00000030,0.003228
 72,0.00202002,0.00000009,-0.00462754,-0.00441654,-0.00000177,-0.000549
 39,-0.00041224,0.00000011,-0.00054330,-0.00025131,0.,-0.00014058,-0.00
 003180,-0.00000002,0.00014107,-0.00015732,-0.00000001,0.00017212,0.000
 28996,0.00000002,0.00020602,0.00030510,-0.00000002,0.00001259,0.000008
 58,0.00000001,0.00004135,-0.00003884,0.,-0.00046535,0.00054414,0.00000
 005,0.03845919,-0.02272754,-0.00000814,0.00016842,-0.00010343,0.000000
 06,0.00006753,0.00008845,0.00000022,0.00000296,0.00004173,0.00000001,0
 .00001614,-0.00000076,-0.00000426,0.00001611,-0.00000076,0.00000424,-0
 .00001663,0.00005002,-0.00000005,0.08769023,-0.08502251,-0.00002728,-0
 .00947221,0.00453847,-0.00149858,-0.00947328,0.00453914,0.00150450,-0.
 10524090,0.10165828,0.00000032,0.00000008,-0.00385084,0.00000011,-0.00
 000016,0.00075530,0.00000007,0.00000021,0.00028174,-0.00000014,-0.0000
 0006,-0.00007953,0.00000012,0.,0.00030771,-0.00000042,0.00000017,0.000
 78319,0.,0.00000002,-0.00005727,0.,0.,0.00003542,0.,0.00000002,-0.0000
 4557,-0.00000002,-0.00000002,0.00019631,0.00000040,-0.00000010,0.00192
 801,0.00000007,0.00000009,-0.00021648,0.00000005,0.00000002,0.00001746
 ,-0.00000003,0.00000002,-0.00005632,-0.00000006,0.00000002,-0.00003030
 ,0.,0.,0.00002390,0.00000001,-0.00000003,0.00006405,0.,0.,-0.00001113,
 0.,0.,-0.00001946,0.,0.,0.00002218,-0.00000034,0.00000024,0.00064468,0
 .00000042,0.00000028,0.00236729,-0.00000044,0.00000090,0.00002609,-0.0
 0000003,0.00000002,-0.00001362,-0.00000017,0.00000022,0.00007836,-0.00
 000002,0.00000010,-0.00001944,0.,0.00000002,-0.00001467,0.00000012,0.,
 0.00013083,0.00000018,0.,-0.00029614,0.,0.00000001,-0.00002667,-0.0000
 0001,0.,0.00001711,-0.00000019,-0.00000003,-0.00041317,-0.00000397,0.0
 0000121,-0.00237935,0.00000021,-0.00000030,-0.00025334,-0.00000041,0.0
 0000038,-0.00088790,-0.00000019,-0.00000029,-0.00006460,-0.00002349,-0
 .00000021,0.00002703,0.00002343,0.00000029,0.00002707,0.00000023,-0.00
 000005,0.00022210,0.00007671,-0.00003076,-0.04844590,0.02520985,-0.011
 40999,0.00173515,-0.02520035,0.01140745,0.00174962,-0.00008125,0.00003
 068,0.04556430,-0.04046175,-0.00000007,-0.00000265,-0.00403913,0.00994
 038,0.00000001,-0.00112568,0.00267245,0.00000003,-0.00263180,-0.000000
 02,-0.00000007,-0.00112570,-0.00267245,0.00000022,-0.00403903,-0.00994
 040,0.00000097,0.00006546,0.00080643,-0.00000010,0.00009196,0.,0.00000
 001,0.00006547,-0.00080644,0.,-0.00024072,-0.00205683,0.00000007,-0.07
 925183,-0.02640976,0.00000264,0.00023330,0.00056533,-0.00000031,0.0017
 3057,0.00107537,-0.00000009,0.00216404,0.00102250,-0.00000030,-0.00211
 048,0.00137550,0.00000020,0.00009417,-0.00000902,0.,-0.00058117,-0.002
 53620,0.00000006,-0.00003449,0.00006351,-0.00000003,-0.00007160,-0.000
 00220,-0.00000001,-0.00001850,0.00001726,0.00000003,-0.00024074,0.0020
 5687,0.00000024,-0.07925256,0.02640998,-0.00000085,0.00023332,-0.00056
 538,0.00000003,0.00173059,-0.00107539,0.00000008,0.00216403,-0.0010224
 6,0.00000008,-0.00211045,-0.00137547,-0.00000012,0.00009417,0.00000902
 ,0.00000003,-0.00058120,0.00253618,-0.00000001,-0.00003450,-0.00006352
 ,0.00000003,-0.00007161,0.00000219,0.,-0.00001850,-0.00001726,0.000000
 01,-0.00818899,0.02052677,-0.00000112,-0.01144854,-0.00845756,-0.00000
 283,-0.00818898,-0.02052676,-0.00000051,-0.01144847,0.00845753,0.00000
 171,-0.00131740,-0.00307312,-0.00000113,0.00037234,0.00068183,0.000191
 72,0.00037204,0.00068220,-0.00019176,0.00033008,0.00190751,0.00000087,
 -0.00131741,0.00307315,0.00000116,0.00037197,-0.00068219,0.00019181,0.
 00037242,-0.00068185,-0.00019168,0.00033009,-0.00190752,-0.00000076,0.
 24913519,0.00000011,-0.12087519,0.00000647,0.01686255,-0.01501013,0.00
 000057,0.00417080,0.00293126,-0.00000024,0.00000001,-0.00026143,0.0000
 0006,-0.00417080,0.00293128,-0.00000038,-0.01686254,-0.01501018,-0.000
 00004,-0.00017880,-0.00010529,-0.00000003,0.,-0.00000963,-0.00000002,0
 .00017880,-0.00010529,0.00000008,-0.00103029,-0.00297554,0.00000001,-0
 .00137811,-0.04740801,-0.00000016,-0.00026179,-0.00360903,-0.00000029,
 -0.00018744,0.00082106,0.,0.00146681,0.00101673,-0.00000016,-0.0005464
 1,0.00031124,0.00000005,0.00002911,0.00001079,-0.00000002,-0.00009518,
 -0.00097345,-0.00000003,-0.00003226,0.00001135,0.,-0.00009073,0.000021
 82,0.00000002,0.00005514,0.00006332,0.,0.00103029,-0.00297553,-0.00000
 009,0.00137816,-0.04740813,-0.00000097,0.00026180,-0.00360906,-0.00000
 012,0.00018746,0.00082105,-0.00000005,-0.00146682,0.00101672,0.0000000
 1,0.00054639,0.00031124,0.00000004,-0.00002911,0.00001079,-0.00000002,
 0.00009518,-0.00097344,-0.00000002,0.00003227,0.00001135,0.,0.00009073
 ,0.00002182,0.00000002,-0.00005514,0.00006332,-0.00000002,0.01221886,-
 0.01098966,0.00000111,-0.01166301,0.00603700,0.00000041,-0.01221886,-0
 .01098967,0.00000049,0.01166293,0.00603697,0.00000016,0.00136754,0.001
 96621,0.00000026,-0.00010547,0.00001546,-0.00003726,-0.00010570,0.0000
 1555,0.00003724,-0.00075094,0.00030621,-0.00000034,-0.00136756,0.00196
 622,0.00000026,0.00010571,0.00001555,0.00003724,0.00010546,0.00001547,
 -0.00003726,0.00075094,0.00030620,-0.00000045,-0.00000008,0.25623269,-
 0.00000059,0.00000437,-0.00825155,0.00000024,0.00000080,0.00294082,-0.
 00000044,-0.00000007,0.00132443,0.00000030,-0.00000022,-0.00051219,-0.
 00000006,0.00000033,0.00132445,0.00000035,-0.00000029,0.00294081,0.,0.
 00000005,-0.00009391,0.,0.00000002,0.00017196,0.,0.00000002,-0.0000939
 1,-0.00000016,0.00000017,0.00037105,-0.00000243,-0.00000010,-0.0376362
 7,-0.00000023,-0.00000076,0.00108976,-0.00000021,-0.00000002,0.0002909
 1,0.00000017,-0.00000012,0.00078220,0.00000034,-0.00000014,0.00001235,
 0.,0.,0.00000687,0.00000005,0.00000027,-0.00004307,0.,0.,0.00001889,0.
 ,0.,-0.00006846,0.,0.00000001,-0.00014589,0.00000012,0.00000010,0.0003
 7107,-0.00000082,0.00000093,-0.03763622,-0.00000033,-0.00000003,0.0010
 8974,0.00000004,-0.00000002,0.00029090,0.00000012,-0.00000006,0.000782
 20,-0.00000011,-0.00000010,0.00001235,0.,0.,0.00000687,-0.00000009,0.0
 0000017,-0.00004306,0.,0.,0.00001889,0.,0.,-0.00006846,0.,0.,-0.000145
 89,-0.00000115,0.00000054,0.00567611,-0.00000100,-0.00000027,0.0039304
 8,0.00000022,0.00000112,0.00567613,0.00000336,-0.00000034,0.00393049,0
 .00000042,0.00000066,-0.00081869,0.00019891,0.00005392,-0.00015501,-0.
 00019892,-0.00005414,-0.00015526,-0.00000034,-0.00000019,0.00017681,-0
 .00000048,0.00000030,-0.00081869,0.00019894,-0.00005409,-0.00015531,-0
 .00019890,0.00005396,-0.00015496,0.00000034,-0.00000022,0.00017681,0.0
 0000233,-0.00000655,0.05358344\\0.00000002,-0.00011594,0.00000214,-0.0
 0004700,0.00002738,0.00000032,-0.00001425,-0.00007562,-0.00000048,0.00
 000001,0.00009322,0.00000010,0.00001429,-0.00007558,-0.00000030,0.0000
 4689,0.00002738,-0.00000071,0.00001620,-0.00002889,-0.00000007,0.,-0.0
 0004470,0.00000012,-0.00001620,-0.00002888,0.,0.00009379,-0.00008724,0
 .00000016,-0.00013404,0.00019172,0.00000010,0.00003998,0.00010746,-0.0
 0000091,-0.00005493,-0.00000228,0.00000044,-0.00002832,-0.00003792,-0.
 00000035,0.00006141,-0.00001191,-0.00000017,0.00000843,-0.00003378,0.0
 0000005,0.00002569,0.00003948,0.00000025,-0.00000989,0.00001346,0.0000
 0004,-0.00000779,-0.00001984,-0.00000009,-0.00001479,0.00000982,0.0000
 0004,-0.00009376,-0.00008728,0.00000151,0.00013457,0.00019191,-0.00000
 262,-0.00003989,0.00010732,-0.00000084,0.00005500,-0.00000226,0.000000
 15,0.00002832,-0.00003791,-0.00000038,-0.00006146,-0.00001194,-0.00000
 020,-0.00000842,-0.00003379,0.00000008,-0.00002569,0.00003953,0.000000
 30,0.00000988,0.00001346,0.00000003,0.00000780,-0.00001985,-0.00000008
 ,0.00001479,0.00000981,0.00000005,-0.00000313,0.00013395,-0.00000126,-
 0.00009854,-0.00013494,-0.00000010,0.00000296,0.00013364,0.00000100,0.
 00009832,-0.00013475,-0.00000214,0.00002488,0.00001529,0.00000069,-0.0
 0001608,0.00001641,0.00001185,-0.00001623,0.00001619,-0.00001176,0.000
 01166,0.00000919,-0.00000009,-0.00002490,0.00001537,0.00000044,0.00001
 623,0.00001614,-0.00001174,0.00001608,0.00001641,0.00001187,-0.0000116
 6,0.00000918,-0.00000015,-0.00000023,-0.00022843,0.00000270\\\@
 The archive entry for this job was punched.


 HE WHO LOVES TO READ, AND KNOWS HOW TO REFLECT,
 HAS LAID BY A PERPETUAL FEAST FOR HIS OLD AGE.
 -- UNCLE ESEK, "SCRIBNER'S MONTHLY", SEPT. 1880
 Job cpu time:       0 days  5 hours 34 minutes 45.4 seconds.
 Elapsed time:       0 days  0 hours  6 minutes  2.4 seconds.
 File lengths (MBytes):  RWF=   1966 Int=      0 D2E=      0 Chk=     72 Scr=      1
 Normal termination of Gaussian 16 at Wed Jul 17 20:34:20 2024.
