 Entering Gaussian System, Link 0=g16
 Input=JOBS/61_A.gjf
 Output=JOBS/61_A.log
 Initial command:
 /data/app/gaussian/C01-avx2//g16/l1.exe "/tmp/Gau-2571255.inp" -scrdir="/tmp/"
 Entering Link 1 = /data/app/gaussian/C01-avx2//g16/l1.exe PID=   2571256.
  
 Copyright (c) 1988-2019, Gaussian, Inc.  All Rights Reserved.
  
 This is part of the Gaussian(R) 16 program.  It is based on
 the Gaussian(R) 09 system (copyright 2009, Gaussian, Inc.),
 the Gaussian(R) 03 system (copyright 2003, Gaussian, Inc.),
 the Gaussian(R) 98 system (copyright 1998, Gaussian, Inc.),
 the Gaussian(R) 94 system (copyright 1995, Gaussian, Inc.),
 the Gaussian 92(TM) system (copyright 1992, Gaussian, Inc.),
 the Gaussian 90(TM) system (copyright 1990, Gaussian, Inc.),
 the Gaussian 88(TM) system (copyright 1988, Gaussian, Inc.),
 the Gaussian 86(TM) system (copyright 1986, Carnegie Mellon
 University), and the Gaussian 82(TM) system (copyright 1983,
 Carnegie Mellon University). Gaussian is a federally registered
 trademark of Gaussian, Inc.
  
 This software contains proprietary and confidential information,
 including trade secrets, belonging to Gaussian, Inc.
  
 This software is provided under written license and may be
 used, copied, transmitted, or stored only in accord with that
 written license.
  
 The following legend is applicable only to US Government
 contracts under FAR:
  
                    RESTRICTED RIGHTS LEGEND
  
 Use, reproduction and disclosure by the US Government is
 subject to restrictions as set forth in subparagraphs (a)
 and (c) of the Commercial Computer Software - Restricted
 Rights clause in FAR 52.227-19.
  
 Gaussian, Inc.
 340 Quinnipiac St., Bldg. 40, Wallingford CT 06492
  
  
 ---------------------------------------------------------------
 Warning -- This program may not be used in any manner that
 competes with the business of Gaussian, Inc. or will provide
 assistance to any competitor of Gaussian, Inc.  The licensee
 of this program is prohibited from giving any competitor of
 Gaussian, Inc. access to this program.  By using this program,
 the user acknowledges that Gaussian, Inc. is engaged in the
 business of creating and licensing software in the field of
 computational chemistry and represents and warrants to the
 licensee that it is not a competitor of Gaussian, Inc. and that
 it will not use this program in any manner prohibited above.
 ---------------------------------------------------------------
  

 Cite this work as:
 Gaussian 16, Revision C.01,
 M. J. Frisch, G. W. Trucks, H. B. Schlegel, G. E. Scuseria, 
 M. A. Robb, J. R. Cheeseman, G. Scalmani, V. Barone, 
 G. A. Petersson, H. Nakatsuji, X. Li, M. Caricato, A. V. Marenich, 
 J. Bloino, B. G. Janesko, R. Gomperts, B. Mennucci, H. P. Hratchian, 
 J. V. Ortiz, A. F. Izmaylov, J. L. Sonnenberg, D. Williams-Young, 
 F. Ding, F. Lipparini, F. Egidi, J. Goings, B. Peng, A. Petrone, 
 T. Henderson, D. Ranasinghe, V. G. Zakrzewski, J. Gao, N. Rega, 
 G. Zheng, W. Liang, M. Hada, M. Ehara, K. Toyota, R. Fukuda, 
 J. Hasegawa, M. Ishida, T. Nakajima, Y. Honda, O. Kitao, H. Nakai, 
 T. Vreven, K. Throssell, J. A. Montgomery, Jr., J. E. Peralta, 
 F. Ogliaro, M. J. Bearpark, J. J. Heyd, E. N. Brothers, K. N. Kudin, 
 V. N. Staroverov, T. A. Keith, R. Kobayashi, J. Normand, 
 K. Raghavachari, A. P. Rendell, J. C. Burant, S. S. Iyengar, 
 J. Tomasi, M. Cossi, J. M. Millam, M. Klene, C. Adamo, R. Cammi, 
 J. W. Ochterski, R. L. Martin, K. Morokuma, O. Farkas, 
 J. B. Foresman, and D. J. Fox, Gaussian, Inc., Wallingford CT, 2019.
 
 ******************************************
 Gaussian 16:  ES64L-G16RevC.01  3-Jul-2019
                11-Oct-2024 
 ******************************************
 %chk=a.chk
 %nprocshared=28
 Will use up to   28 processors via shared memory.
 %mem=48gb
 ----------------------------------------------------------------------
 # wb97xd def2svp scrf=(smd,solvent=acetonitrile) g09default scf=(xqc,m
 axcycle=64) force guess=read nosymm
 ----------------------------------------------------------------------
 1/10=7,30=1,38=1,158=3,167=1/1,3;
 2/12=2,15=1,17=6,18=5,40=1/2;
 3/5=43,7=101,11=2,25=1,27=10,30=1,70=32201,71=1,72=2,74=-58,75=-4,116=-2,158=3/1,2,3;
 4/5=1,60=-1/1;
 5/5=2,7=64,8=3,13=1,38=6,53=2,87=10/2,8;
 6/7=2,8=2,9=2,10=2,28=1,87=10/1;
 7/29=1,30=1,87=10/1,2,3,16;
 1/10=7,30=1,158=3,167=1/3;
 99//99;
 Using 2006 physical constants.
 ----------
 Title Card
 ----------
 Symbolic Z-matrix:
 Charge = -2 Multiplicity = 1
 6                    -8.94844  -0.91488   1.10889 
 6                    -8.94255   0.47126   1.25325 
 6                    -8.25331  -2.11322   0.98216 
 6                    -7.04651  -2.80449   0.89333 
 6                    -9.64434  -2.11383   0.99672 
 6                    -10.84947  -2.81202   0.94146 
 6                    -10.16331   1.1896    1.34413 
 7                    -11.16796   1.76873   1.419 
 6                    -7.71001   1.17195   1.32424 
 7                    -6.68804   1.72217   1.38238 
 6                    -5.8125   -2.10469   0.94543 
 7                    -4.80976  -1.51876   0.98811 
 6                    -7.03743  -4.21512   0.73461 
 7                    -7.03877  -5.36949   0.60103 
 6                    -10.84039  -4.22784   0.83857 
 7                    -10.80203  -5.38674   0.76013 
 6                    -12.0815  -2.10859   0.98953 
 7                    -13.07357  -1.50422   1.02584 
 

 GradGradGradGradGradGradGradGradGradGradGradGradGradGradGradGradGradGrad
 Berny optimization.
 Initialization pass.
 Trust Radius=3.00D-01 FncErr=1.00D-07 GrdErr=1.00D-07 EigMax=2.50D+02 EigMin=1.00D-04
 Number of steps in this run=      2 maximum allowed number of steps=      2.
 GradGradGradGradGradGradGradGradGradGradGradGradGradGradGradGradGradGrad

                          Input orientation:                          
 ---------------------------------------------------------------------
 Center     Atomic      Atomic             Coordinates (Angstroms)
 Number     Number       Type             X           Y           Z
 ---------------------------------------------------------------------
      1          6           0       -8.948435   -0.914881    1.108887
      2          6           0       -8.942547    0.471264    1.253253
      3          6           0       -8.253313   -2.113224    0.982162
      4          6           0       -7.046514   -2.804491    0.893325
      5          6           0       -9.644338   -2.113835    0.996719
      6          6           0      -10.849472   -2.812022    0.941458
      7          6           0      -10.163309    1.189603    1.344132
      8          7           0      -11.167963    1.768730    1.418997
      9          6           0       -7.710010    1.171955    1.324242
     10          7           0       -6.688044    1.722172    1.382382
     11          6           0       -5.812496   -2.104686    0.945426
     12          7           0       -4.809762   -1.518762    0.988107
     13          6           0       -7.037429   -4.215121    0.734608
     14          7           0       -7.038769   -5.369492    0.601025
     15          6           0      -10.840391   -4.227836    0.838574
     16          7           0      -10.802032   -5.386737    0.760131
     17          6           0      -12.081497   -2.108590    0.989532
     18          7           0      -13.073572   -1.504224    1.025845
 ---------------------------------------------------------------------
                    Distance matrix (angstroms):
                    1          2          3          4          5
     1  C    0.000000
     2  C    1.393655   0.000000
     3  C    1.391143   2.688515   0.000000
     4  C    2.689683   3.801981   1.393595   0.000000
     5  C    1.390810   2.690921   1.391101   2.690053   0.000000
     6  C    2.690932   3.809665   2.688869   3.803270   1.393868
     7  C    2.441334   1.419341   3.832463   5.086297   3.361953
     8  N    3.496318   2.581349   4.873969   6.178755   4.192143
     9  C    2.436177   1.419561   3.347326   4.054384   3.826918
    10  N    3.483994   2.581517   4.161791   4.567094   4.858328
    11  C    3.358046   4.065403   2.441109   1.419592   3.832196
    12  N    4.184241   4.594608   3.494490   2.581693   4.871068
    13  C    3.831920   5.085340   2.440826   1.419561   3.358583
    14  N    4.873223   6.177718   3.496235   2.581614   4.188659
    15  C    3.824688   5.084812   3.344424   4.052457   2.434041
    16  N    4.853344   6.165795   4.154654   4.559567   3.479672
    17  C    3.354887   4.071634   3.828194   5.083758   2.437176
    18  N    4.167850   4.584718   4.858774   6.167146   3.483120
                    6          7          8          9         10
     6  C    0.000000
     7  C    4.079947   0.000000
     8  N    4.616576   1.162034   0.000000
     9  C    5.086729   2.453443   3.510349   0.000000
    10  N    6.170155   3.516043   4.480310   1.162125   0.000000
    11  C    5.086400   5.471826   6.626360   3.805317   3.949982
    12  N    6.176794   6.010196   7.170773   3.970438   3.766569
    13  C    4.067326   6.273252   7.303162   5.460826   5.982736
    14  N    4.601955   7.303196   8.286949   6.615446   7.143194
    15  C    1.419576   5.482944   6.033490   6.260423   7.276009
    16  N    2.581528   6.633044   7.195048   7.272912   8.237031
    17  C    1.419513   3.831874   4.006569   5.475756   6.627096
    18  N    2.581488   3.978397   3.807643   6.001564   7.163220
                   11         12         13         14         15
    11  C    0.000000
    12  N    1.162154   0.000000
    13  C    2.449254   3.506724   0.000000
    14  N    3.504471   4.466142   1.162075   0.000000
    15  C    5.458838   6.612860   3.804403   3.976447   0.000000
    16  N    5.975087   7.135860   3.942786   3.766664   1.162186
    17  C    6.269158   7.295617   5.472210   6.017767   2.460557
    18  N    7.286306   8.263909   6.623353   7.179109   3.527071
                   16         17         18
    16  N    0.000000
    17  C    3.526458   0.000000
    18  N    4.506041   1.162234   0.000000
 Symmetry turned off by external request.
 Stoichiometry    C12N6(2-)
 Framework group  C1[X(C12N6)]
 Deg. of freedom    48
 Full point group                 C1      NOp   1
 Rotational constants (GHZ):           0.4308323           0.4282710           0.2148187
 Standard basis: def2SVP (5D, 7F)
   252 basis functions,   450 primitive gaussians,   270 cartesian basis functions
    58 alpha electrons       58 beta electrons
       nuclear repulsion energy       965.6773468797 Hartrees.
 NAtoms=   18 NActive=   18 NUniq=   18 SFac= 1.00D+00 NAtFMM=   60 NAOKFM=F Big=F
 Integral buffers will be    131072 words long.
 Raffenetti 2 integral format.
 Two-electron integral symmetry is turned off.
 Nuclear repulsion after empirical dispersion term =      965.6656572400 Hartrees.
 Force PCM accuracy= 1.00D-10.
 ------------------------------------------------------------------------------
 Polarizable Continuum Model (PCM)
 =================================
 Model                : PCM (using non-symmetric T matrix).
 Atomic radii         : SMD-Coulomb.
 Polarization charges : Total charges.
 Charge compensation  : None.
 Solution method      : On-the-fly selection.
 Cavity type          : VdW (van der Waals Surface) (Alpha=1.000).
 Cavity algorithm     : GePol (No added spheres)
                        Default sphere list used, NSphG=   18.
                        Lebedev-Laikov grids with approx.  5.0 points / Ang**2.
                        Smoothing algorithm: York/Karplus (Gamma=1.0000).
                        Polarization charges: spherical gaussians, with
                                              point-specific exponents (IZeta= 3).
                        Self-potential: point-specific (ISelfS= 7).
                        Self-field    : sphere-specific E.n sum rule (ISelfD= 2).
 1st derivatives      : Analytical E(r).r(x)/FMM algorithm (CHGder, D1EAlg=3).
                        Cavity 1st derivative terms included.
 Solvent              : Acetonitrile, Eps=  35.688000 Eps(inf)=   1.806874
 ------------------------------------------------------------------------------
 Spheres list:
 ISph  on   Nord     Re0    Alpha      Xe            Ye            Ze
    1   C      1    1.8500  1.000     -8.948435     -0.914881      1.108887
    2   C      2    1.8500  1.000     -8.942547      0.471264      1.253253
    3   C      3    1.8500  1.000     -8.253313     -2.113224      0.982162
    4   C      4    1.8500  1.000     -7.046514     -2.804491      0.893325
    5   C      5    1.8500  1.000     -9.644338     -2.113835      0.996719
    6   C      6    1.8500  1.000    -10.849472     -2.812022      0.941458
    7   C      7    1.8500  1.000    -10.163309      1.189603      1.344132
    8   N      8    1.8900  1.000    -11.167963      1.768730      1.418997
    9   C      9    1.8500  1.000     -7.710010      1.171955      1.324242
   10   N     10    1.8900  1.000     -6.688044      1.722172      1.382382
   11   C     11    1.8500  1.000     -5.812496     -2.104686      0.945426
   12   N     12    1.8900  1.000     -4.809762     -1.518762      0.988107
   13   C     13    1.8500  1.000     -7.037429     -4.215121      0.734608
   14   N     14    1.8900  1.000     -7.038769     -5.369492      0.601025
   15   C     15    1.8500  1.000    -10.840391     -4.227836      0.838574
   16   N     16    1.8900  1.000    -10.802032     -5.386737      0.760131
   17   C     17    1.8500  1.000    -12.081497     -2.108590      0.989532
   18   N     18    1.8900  1.000    -13.073572     -1.504224      1.025845
 ------------------------------------------------------------------------------
 ------------------------------------------------------------------------------
 Atomic radii for non-electrostatic terms: SMD-CDS.
 ------------------------------------------------------------------------------
 Nuclear repulsion after PCM non-electrostatic terms =      965.6743473156 Hartrees.
 One-electron integrals computed using PRISM.
   1 Symmetry operations used in ECPInt.
 ECPInt:  NShTT=    5886 NPrTT=   23670 LenC2=    5404 LenP2D=   14967.
 LDataN:  DoStor=T MaxTD1= 4 Len=   56
 NBasis=   252 RedAO= T EigKep=  1.96D-04  NBF=   252
 NBsUse=   252 1.00D-06 EigRej= -1.00D+00 NBFU=   252
 Initial guess from the checkpoint file:  "a.chk"
 B after Tr=    -0.000156    0.000179   -0.000229
         Rot=    1.000000   -0.000037   -0.000014   -0.000002 Ang=  -0.00 deg.
 Requested convergence on RMS density matrix=1.00D-08 within  64 cycles.
 Requested convergence on MAX density matrix=1.00D-06.
 Requested convergence on             energy=1.00D-06.
 No special actions if energy rises.
 Inv3:  Mode=1 IEnd=    19324332.
 Iteration    1 A*A^-1 deviation from unit magnitude is 3.55D-15 for    628.
 Iteration    1 A*A^-1 deviation from orthogonality  is 2.35D-15 for   1082    848.
 Iteration    1 A^-1*A deviation from unit magnitude is 3.00D-15 for    253.
 Iteration    1 A^-1*A deviation from orthogonality  is 4.62D-12 for   2457   2453.
 Error on total polarization charges =  0.02152
 SCF Done:  E(RwB97XD) =  -785.032634508     A.U. after    9 cycles
            NFock=  9  Conv=0.46D-08     -V/T= 2.0097
 SMD-CDS (non-electrostatic) energy       (kcal/mol) =       5.45
 (included in total energy above)
 QCSCF skips out because SCF is already converged.

 **********************************************************************

            Population analysis using the SCF Density.

 **********************************************************************

 Alpha  occ. eigenvalues --  -14.42771 -14.42761 -14.42760 -14.42759 -14.42755
 Alpha  occ. eigenvalues --  -14.42751 -10.34980 -10.34910 -10.34900 -10.33708
 Alpha  occ. eigenvalues --  -10.33696 -10.33695 -10.33693 -10.33691 -10.33685
 Alpha  occ. eigenvalues --  -10.32722 -10.32719 -10.32711  -1.03049  -0.99102
 Alpha  occ. eigenvalues --   -0.99097  -0.98720  -0.98034  -0.98028  -0.97951
 Alpha  occ. eigenvalues --   -0.88192  -0.88178  -0.86082  -0.68769  -0.68731
 Alpha  occ. eigenvalues --   -0.65156  -0.65071  -0.64904  -0.64126  -0.52449
 Alpha  occ. eigenvalues --   -0.47687  -0.47682  -0.46774  -0.46730  -0.45188
 Alpha  occ. eigenvalues --   -0.45073  -0.45066  -0.44534  -0.44204  -0.44179
 Alpha  occ. eigenvalues --   -0.43843  -0.42829  -0.42241  -0.42232  -0.42052
 Alpha  occ. eigenvalues --   -0.41951  -0.41936  -0.40541  -0.40181  -0.40164
 Alpha  occ. eigenvalues --   -0.31478  -0.31473  -0.23623
 Alpha virt. eigenvalues --    0.07497   0.07518   0.08876   0.09327   0.09366
 Alpha virt. eigenvalues --    0.12699   0.12722   0.13092   0.13150   0.14843
 Alpha virt. eigenvalues --    0.14945   0.16302   0.21107   0.21130   0.24194
 Alpha virt. eigenvalues --    0.27569   0.28117   0.28121   0.28639   0.28659
 Alpha virt. eigenvalues --    0.29990   0.33648   0.33716   0.33923   0.36878
 Alpha virt. eigenvalues --    0.36939   0.37216   0.49019   0.49112   0.50537
 Alpha virt. eigenvalues --    0.50724   0.54911   0.54937   0.54963   0.55043
 Alpha virt. eigenvalues --    0.57450   0.57508   0.58244   0.59938   0.61126
 Alpha virt. eigenvalues --    0.61711   0.61740   0.62883   0.62921   0.64919
 Alpha virt. eigenvalues --    0.65528   0.70929   0.71778   0.71814   0.73691
 Alpha virt. eigenvalues --    0.73725   0.74432   0.74612   0.74766   0.75085
 Alpha virt. eigenvalues --    0.75176   0.75248   0.76618   0.76867   0.77818
 Alpha virt. eigenvalues --    0.82000   0.82107   0.82225   0.83498   0.83604
 Alpha virt. eigenvalues --    0.88807   0.89041   0.89371   0.89531   0.94705
 Alpha virt. eigenvalues --    0.94799   0.95108   0.95196   0.95965   0.96150
 Alpha virt. eigenvalues --    0.98097   1.00624   1.00636   1.01364   1.01581
 Alpha virt. eigenvalues --    1.02449   1.02558   1.05304   1.05532   1.05720
 Alpha virt. eigenvalues --    1.08480   1.08947   1.10183   1.10323   1.12788
 Alpha virt. eigenvalues --    1.12893   1.17565   1.18954   1.20307   1.20521
 Alpha virt. eigenvalues --    1.21183   1.25053   1.25235   1.27275   1.35196
 Alpha virt. eigenvalues --    1.38819   1.38932   1.41821   1.41878   1.45054
 Alpha virt. eigenvalues --    1.47170   1.47292   1.47833   1.47994   1.58960
 Alpha virt. eigenvalues --    1.62295   1.68389   1.70733   1.70784   1.70958
 Alpha virt. eigenvalues --    1.71170   1.71223   1.79099   1.79458   1.79572
 Alpha virt. eigenvalues --    1.79637   1.80340   1.81500   1.81523   1.82862
 Alpha virt. eigenvalues --    1.84758   1.85070   1.87698   1.95468   1.95623
 Alpha virt. eigenvalues --    1.95792   2.00417   2.03113   2.03274   2.06450
 Alpha virt. eigenvalues --    2.06537   2.10003   2.10396   2.16180   2.16256
 Alpha virt. eigenvalues --    2.20981   2.23594   2.23700   2.23774   2.29547
 Alpha virt. eigenvalues --    2.30517   2.30555   2.32097   2.35911   2.35921
 Alpha virt. eigenvalues --    2.36477   2.36560   2.36806   2.36889   2.37503
 Alpha virt. eigenvalues --    2.38472   2.38633   2.38777   2.38901   2.39071
 Alpha virt. eigenvalues --    2.40569   2.40609   2.59952   2.65106   2.65436
 Alpha virt. eigenvalues --    2.74310   2.74377   2.95355   2.97538   2.97781
 Alpha virt. eigenvalues --    2.98052   3.01195   3.01317   3.01939   3.05323
 Alpha virt. eigenvalues --    3.07961   3.08042   3.11473   3.11802   3.14809
 Alpha virt. eigenvalues --    3.14855   3.15355   3.25943   3.26236   3.31529
 Alpha virt. eigenvalues --    3.43945   3.43991   3.45227   3.56511   3.59813
 Alpha virt. eigenvalues --    3.59887   3.64670   3.64715   3.78610
          Condensed to atoms (all electrons):
               1          2          3          4          5          6
     1  C    4.964339   0.493995   0.314664  -0.117376   0.317021  -0.116581
     2  C    0.493995   5.550885  -0.116375  -0.007578  -0.117526  -0.007299
     3  C    0.314664  -0.116375   4.961078   0.493766   0.316411  -0.116057
     4  C   -0.117376  -0.007578   0.493766   5.552555  -0.117417  -0.007479
     5  C    0.317021  -0.117526   0.316411  -0.117417   4.964667   0.493573
     6  C   -0.116581  -0.007299  -0.116057  -0.007479   0.493573   5.548952
     7  C    0.012268   0.385447   0.006324  -0.000540  -0.025366   0.002879
     8  N   -0.001039  -0.044327  -0.000067  -0.000001  -0.000605   0.000144
     9  C    0.013882   0.386409  -0.025570   0.003031   0.006811  -0.000512
    10  N   -0.001010  -0.043576  -0.000628   0.000166  -0.000055  -0.000001
    11  C   -0.024924   0.003047   0.012677   0.386466   0.006347  -0.000538
    12  N   -0.000592   0.000156  -0.001063  -0.043786  -0.000066  -0.000001
    13  C    0.006134  -0.000547   0.012728   0.386795  -0.025001   0.003017
    14  N   -0.000071  -0.000002  -0.001078  -0.044072  -0.000593   0.000153
    15  C    0.006995  -0.000509  -0.026292   0.003015   0.014107   0.385124
    16  N   -0.000047  -0.000001  -0.000665   0.000172  -0.000920  -0.043951
    17  C   -0.026093   0.002907   0.006992  -0.000527   0.012745   0.384379
    18  N   -0.000657   0.000160  -0.000047  -0.000001  -0.000906  -0.044092
               7          8          9         10         11         12
     1  C    0.012268  -0.001039   0.013882  -0.001010  -0.024924  -0.000592
     2  C    0.385447  -0.044327   0.386409  -0.043576   0.003047   0.000156
     3  C    0.006324  -0.000067  -0.025570  -0.000628   0.012677  -0.001063
     4  C   -0.000540  -0.000001   0.003031   0.000166   0.386466  -0.043786
     5  C   -0.025366  -0.000605   0.006811  -0.000055   0.006347  -0.000066
     6  C    0.002879   0.000144  -0.000512  -0.000001  -0.000538  -0.000001
     7  C    4.879127   0.926068  -0.054676   0.002663   0.000137   0.000002
     8  N    0.926068   6.153794   0.002561   0.000090   0.000000   0.000000
     9  C   -0.054676   0.002561   4.877593   0.925451  -0.000538   0.000071
    10  N    0.002663   0.000090   0.925451   6.154265   0.000213  -0.000893
    11  C    0.000137   0.000000  -0.000538   0.000213   4.878041   0.926060
    12  N    0.000002   0.000000   0.000071  -0.000893   0.926060   6.152834
    13  C   -0.000017  -0.000000   0.000141   0.000003  -0.054578   0.002613
    14  N   -0.000000  -0.000000   0.000000   0.000000   0.002589   0.000092
    15  C    0.000133   0.000002  -0.000017  -0.000000   0.000141   0.000000
    16  N    0.000000   0.000000  -0.000000  -0.000000   0.000003   0.000000
    17  C   -0.000519   0.000028   0.000136   0.000000  -0.000016  -0.000000
    18  N    0.000220  -0.000834   0.000002   0.000000  -0.000000  -0.000000
              13         14         15         16         17         18
     1  C    0.006134  -0.000071   0.006995  -0.000047  -0.026093  -0.000657
     2  C   -0.000547  -0.000002  -0.000509  -0.000001   0.002907   0.000160
     3  C    0.012728  -0.001078  -0.026292  -0.000665   0.006992  -0.000047
     4  C    0.386795  -0.044072   0.003015   0.000172  -0.000527  -0.000001
     5  C   -0.025001  -0.000593   0.014107  -0.000920   0.012745  -0.000906
     6  C    0.003017   0.000153   0.385124  -0.043951   0.384379  -0.044092
     7  C   -0.000017  -0.000000   0.000133   0.000000  -0.000519   0.000220
     8  N   -0.000000  -0.000000   0.000002   0.000000   0.000028  -0.000834
     9  C    0.000141   0.000000  -0.000017  -0.000000   0.000136   0.000002
    10  N    0.000003   0.000000  -0.000000  -0.000000   0.000000   0.000000
    11  C   -0.054578   0.002589   0.000141   0.000003  -0.000016  -0.000000
    12  N    0.002613   0.000092   0.000000   0.000000  -0.000000  -0.000000
    13  C    4.877777   0.926194  -0.000540   0.000265   0.000137   0.000000
    14  N    0.926194   6.153554   0.000025  -0.000889   0.000002   0.000000
    15  C   -0.000540   0.000025   4.877661   0.924669  -0.053799   0.002628
    16  N    0.000265  -0.000889   0.924669   6.156635   0.002649   0.000085
    17  C    0.000137   0.000002  -0.053799   0.002649   4.879464   0.925125
    18  N    0.000000   0.000000   0.002628   0.000085   0.925125   6.155249
 Mulliken charges:
               1
     1  C    0.159091
     2  C   -0.485265
     3  C    0.163202
     4  C   -0.487188
     5  C    0.156773
     6  C   -0.481709
     7  C   -0.134150
     8  N   -0.035815
     9  C   -0.134777
    10  N   -0.036687
    11  C   -0.135127
    12  N   -0.035428
    13  C   -0.135121
    14  N   -0.035907
    15  C   -0.133345
    16  N   -0.038004
    17  C   -0.133611
    18  N   -0.036932
 Sum of Mulliken charges =  -2.00000
 Mulliken charges with hydrogens summed into heavy atoms:
               1
     1  C    0.159091
     2  C   -0.485265
     3  C    0.163202
     4  C   -0.487188
     5  C    0.156773
     6  C   -0.481709
     7  C   -0.134150
     8  N   -0.035815
     9  C   -0.134777
    10  N   -0.036687
    11  C   -0.135127
    12  N   -0.035428
    13  C   -0.135121
    14  N   -0.035907
    15  C   -0.133345
    16  N   -0.038004
    17  C   -0.133611
    18  N   -0.036932
 Electronic spatial extent (au):  <R**2>=          39329.5543
 Charge=             -2.0000 electrons
 Dipole moment (field-independent basis, Debye):
    X=             85.7352    Y=             16.4684    Z=             -9.8912  Tot=             87.8610
 Quadrupole moment (field-independent basis, Debye-Ang):
   XX=           -965.0710   YY=           -227.4333   ZZ=           -113.5324
   XY=           -146.4471   XZ=             89.2472   YZ=              7.2987
 Traceless Quadrupole moment (field-independent basis, Debye-Ang):
   XX=           -529.7254   YY=            207.9123   ZZ=            321.8131
   XY=           -146.4471   XZ=             89.2472   YZ=              7.2987
 Octapole moment (field-independent basis, Debye-Ang**2):
  XXX=          12188.0721  YYY=           1140.7645  ZZZ=           -329.6175  XYY=           2031.1609
  XXY=           1576.5501  XXZ=          -1015.4686  XZZ=           1016.4659  YZZ=            175.1191
  YYZ=           -196.6028  XYZ=            -67.5412
 Hexadecapole moment (field-independent basis, Debye-Ang**3):
 XXXX=        -161405.4438 YYYY=          -8690.1982 ZZZZ=           -804.6432 XXXY=         -18925.1430
 XXXZ=          12925.9729 YYYX=         -10181.0295 YYYZ=            766.8747 ZZZX=           2966.2418
 ZZZY=            377.7739 XXYY=         -20041.6074 XXZZ=          -9885.4994 YYZZ=          -1038.2947
 XXYZ=            814.1633 YYXZ=           1781.2175 ZZXY=          -1567.4029
 N-N= 9.656743473156D+02 E-N=-3.785139107441D+03  KE= 7.774774954036D+02
   1 Symmetry operations used in ECPInt.
 ECPInt:  NShTT=    5886 NPrTT=   23670 LenC2=    5404 LenP2D=   14967.
 LDataN:  DoStor=T MaxTD1= 5 Len=  102
 D1PCM: PCM CHGder 1st derivatives, ID1Alg=3 FixD1E=F DoIter=F DoCFld=F I1PDM=0.
 Calling FoFJK, ICntrl=      2127 FMM=F ISym2X=0 I1Cent= 0 IOpClX= 0 NMat=1 NMatS=1 NMatT=0.
 -------------------------------------------------------------------
 Center     Atomic                   Forces (Hartrees/Bohr)
 Number     Number              X              Y              Z
 -------------------------------------------------------------------
      1        6          -0.000062791   -0.020771153   -0.001920002
      2        6           0.000093738    0.014035235    0.001439541
      3        6          -0.017950877    0.010386099    0.001026572
      4        6           0.012131455   -0.007001287   -0.000787163
      5        6           0.018192531    0.010359287    0.000872766
      6        6          -0.011967615   -0.006936982   -0.000565684
      7        6           0.007409077   -0.003475091   -0.000344116
      8        7          -0.004859758    0.002153344    0.000306281
      9        6          -0.007032528   -0.003799291   -0.000404403
     10        7           0.004500753    0.002496902    0.000264390
     11        6          -0.006756367   -0.004100939   -0.000278496
     12        7           0.004208079    0.002768265    0.000154581
     13        6           0.000586972    0.007939056    0.000725000
     14        7          -0.000532836   -0.005243544   -0.000522048
     15        6          -0.000674510    0.008007377    0.000527368
     16        7           0.000082145   -0.005020611   -0.000439739
     17        6           0.006884581   -0.004202955   -0.000262782
     18        7          -0.004252049    0.002406290    0.000207936
 -------------------------------------------------------------------
 Cartesian Forces:  Max     0.020771153 RMS     0.006719407

 GradGradGradGradGradGradGradGradGradGradGradGradGradGradGradGradGradGrad
 Berny optimization.
 Search for a local minimum.
 Step number   1 out of a maximum of    2
 All quantities printed in internal units (Hartrees-Bohrs-Radians)
 Second derivative matrix not updated -- first step.
 ITU=  0
     Eigenvalues ---    0.00104   0.00134   0.00194   0.00300   0.00301
     Eigenvalues ---    0.00788   0.01535   0.01719   0.01989   0.02009
     Eigenvalues ---    0.03086   0.04142   0.05340   0.05351   0.10310
     Eigenvalues ---    0.15314   0.21304   0.21503   0.24461   0.24796
     Eigenvalues ---    0.25091   0.25808   0.28863   0.30111   0.30301
     Eigenvalues ---    0.37497   0.48347   0.79316   0.79706   0.81868
     Eigenvalues ---    0.93711   1.00254   1.04660   1.04802   1.12134
     Eigenvalues ---    1.60015   1.60443   2.06194   2.78663   2.78922
     Eigenvalues ---    2.79103   2.84139   2.84181   2.84293  42.74204
     Eigenvalues ---   55.51722  71.36927 225.77466
 Angle between quadratic step and forces=  75.24 degrees.
 Linear search not attempted -- first point.
 B after Tr=    -0.000240    0.000078   -0.000270
         Rot=    1.000000    0.000001   -0.000008   -0.000003 Ang=   0.00 deg.
 Variable       Old X    -DE/DX   Delta X   Delta X   Delta X     New X
                                 (Linear)    (Quad)   (Total)
    X1      -16.91009  -0.00006   0.00000   0.00876   0.00856 -16.90153
    Y1       -1.72887  -0.02077   0.00000  -0.00675  -0.00677  -1.73564
    Z1        2.09549  -0.00192   0.00000  -0.00090  -0.00089   2.09460
    X2      -16.89897   0.00009   0.00000   0.00355   0.00334 -16.89562
    Y2        0.89056   0.01404   0.00000   0.01765   0.01764   0.90820
    Z2        2.36831   0.00144   0.00000   0.00235   0.00235   2.37066
    X3      -15.59650  -0.01795   0.00000   0.00266   0.00248 -15.59402
    Y3       -3.99341   0.01039   0.00000   0.00282   0.00282  -3.99060
    Z3        1.85602   0.00103   0.00000  -0.00025  -0.00025   1.85577
    X4      -13.31598   0.01213   0.00000   0.02208   0.02189 -13.29409
    Y4       -5.29972  -0.00700   0.00000  -0.01177  -0.01177  -5.31149
    Z4        1.68814  -0.00079   0.00000   0.00119   0.00116   1.68930
    X5      -18.22516   0.01819   0.00000   0.01438   0.01419 -18.21096
    Y5       -3.99457   0.01036   0.00000   0.00365   0.00363  -3.99094
    Z5        1.88353   0.00087   0.00000  -0.00159  -0.00155   1.88197
    X6      -20.50253  -0.01197   0.00000  -0.00906  -0.00924 -20.51177
    Y6       -5.31395  -0.00694   0.00000  -0.00478  -0.00482  -5.31877
    Z6        1.77910  -0.00057   0.00000  -0.00477  -0.00469   1.77441
    X7      -19.20587   0.00741   0.00000   0.00293   0.00272 -19.20315
    Y7        2.24802  -0.00348   0.00000   0.00278   0.00275   2.25077
    Z7        2.54004  -0.00034   0.00000   0.00651   0.00655   2.54659
    X8      -21.10439  -0.00486   0.00000  -0.01120  -0.01142 -21.11581
    Y8        3.34242   0.00215   0.00000  -0.01376  -0.01380   3.32862
    Z8        2.68151   0.00031   0.00000   0.00973   0.00980   2.69131
    X9      -14.56981  -0.00703   0.00000  -0.00800  -0.00821 -14.57802
    Y9        2.21467  -0.00380   0.00000   0.02500   0.02500   2.23967
    Z9        2.50245  -0.00040   0.00000  -0.00349  -0.00353   2.49892
   X10      -12.63857   0.00450   0.00000  -0.00953  -0.00974 -12.64831
   Y10        3.25443   0.00250   0.00000   0.03690   0.03691   3.29134
   Z10        2.61232   0.00026   0.00000  -0.00785  -0.00793   2.60440
   X11      -10.98402  -0.00676   0.00000   0.01624   0.01606 -10.96797
   Y11       -3.97728  -0.00410   0.00000  -0.01460  -0.01458  -3.99186
   Z11        1.78660  -0.00028   0.00000  -0.00711  -0.00719   1.77941
   X12       -9.08913   0.00421   0.00000   0.01714   0.01695  -9.07218
   Y12       -2.87004   0.00277   0.00000  -0.00776  -0.00773  -2.87777
   Z12        1.86725   0.00015   0.00000  -0.01367  -0.01378   1.85347
   X13      -13.29881   0.00059   0.00000   0.01549   0.01532 -13.28350
   Y13       -7.96542   0.00794   0.00000  -0.00734  -0.00733  -7.97276
   Z13        1.38821   0.00073   0.00000   0.01821   0.01818   1.40639
   X14      -13.30135  -0.00053   0.00000   0.00009  -0.00007 -13.30142
   Y14      -10.14687  -0.00524   0.00000  -0.01330  -0.01330 -10.16017
   Z14        1.13577  -0.00052   0.00000   0.03364   0.03362   1.16939
   X15      -20.48537  -0.00067   0.00000  -0.02219  -0.02236 -20.50773
   Y15       -7.98945   0.00801   0.00000   0.00329   0.00325  -7.98620
   Z15        1.58467   0.00053   0.00000  -0.01996  -0.01987   1.56481
   X16      -20.41288   0.00008   0.00000  -0.03457  -0.03473 -20.44761
   Y16      -10.17946  -0.00502   0.00000  -0.00020  -0.00024 -10.17970
   Z16        1.43644  -0.00044   0.00000  -0.03354  -0.03345   1.40299
   X17      -22.83072   0.00688   0.00000  -0.00094  -0.00113 -22.83185
   Y17       -3.98466  -0.00420   0.00000  -0.00636  -0.00641  -3.99106
   Z17        1.86995  -0.00026   0.00000   0.00583   0.00595   1.87589
   X18      -24.70547  -0.00425   0.00000  -0.00442  -0.00461 -24.71008
   Y18       -2.84257   0.00241   0.00000  -0.00520  -0.00526  -2.84783
   Z18        1.93857   0.00021   0.00000   0.01537   0.01551   1.95408
         Item               Value     Threshold  Converged?
 Maximum Force            0.020771     0.000450     NO 
 RMS     Force            0.006719     0.000300     NO 
 Maximum Displacement     0.036911     0.001800     NO 
 RMS     Displacement     0.014084     0.001200     NO 
 Predicted change in Energy=-6.510026D-04
 GradGradGradGradGradGradGradGradGradGradGradGradGradGradGradGradGradGrad

 Unable to Open any file for archive entry.
 1\1\GINC-X10P1N4\Force\RwB97XD\def2SVP\C12N6(2-)\MAYUMIAO\11-Oct-2024\
 0\\# wb97xd def2svp scrf=(smd,solvent=acetonitrile) g09default scf=(xq
 c,maxcycle=64) force guess=read nosymm\\Title Card\\-2,1\C,-8.94843525
 ,-0.91488108,1.10888716\C,-8.94254745,0.47126433,1.25325303\C,-8.25331
 329,-2.11322398,0.98216218\C,-7.04651387,-2.80449051,0.89332532\C,-9.6
 443375,-2.11383466,0.99671876\C,-10.84947157,-2.81202245,0.94145779\C,
 -10.16330901,1.18960263,1.34413246\N,-11.16796274,1.76872994,1.4189965
 9\C,-7.71001048,1.17195461,1.32424158\N,-6.6880439,1.72217198,1.382381
 68\C,-5.81249559,-2.1046861,0.945426\N,-4.80976243,-1.51876183,0.98810
 714\C,-7.03742941,-4.21512128,0.73460758\N,-7.03876942,-5.36949171,0.6
 0102509\C,-10.84039066,-4.22783617,0.83857377\N,-10.80203157,-5.386737
 12,0.76013144\C,-12.08149745,-2.10858973,0.98953243\N,-13.07357232,-1.
 50422429,1.0258449\\Version=ES64L-G16RevC.01\HF=-785.0326345\RMSD=4.64
 6e-09\RMSF=6.719e-03\Dipole=-0.0534992,-0.0025869,-0.001009\Quadrupole
 =-393.8378898,154.5776954,239.2601944,-108.8798049,66.353135,5.4263696
 \PG=C01 [X(C12N6)]\\@
 The archive entry for this job was punched.


 A CHEMICAL PHYSICIST MAKES PRECISE MEASUREMENTS ON IMPURE COMPOUNDS.
 A THEORETICAL PHYSICAL CHEMIST MAKES IMPRECISE
     MEASUREMENTS ON PURE COMPOUNDS.
 AN EXPERIMENTAL PHYSICAL CHEMIST MAKES IMPRECISE
     MEASUREMENTS ON IMPURE COMPOUNDS.
 Job cpu time:       0 days  0 hours  7 minutes 45.0 seconds.
 Elapsed time:       0 days  0 hours  0 minutes 17.9 seconds.
 File lengths (MBytes):  RWF=    148 Int=      0 D2E=      0 Chk=      8 Scr=      1
 Normal termination of Gaussian 16 at Fri Oct 11 16:19:47 2024.
