 Entering Gaussian System, Link 0=g16
 Input=C6CN6_vertRed.gjf
 Output=C6CN6_vertRed.log
 Initial command:
 /data/app/gaussian/C01-avx2//g16/l1.exe "/tmp/Gau-2509680.inp" -scrdir="/tmp/"
 Entering Link 1 = /data/app/gaussian/C01-avx2//g16/l1.exe PID=   2509681.
  
 Copyright (c) 1988-2019, Gaussian, Inc.  All Rights Reserved.
  
 This is part of the Gaussian(R) 16 program.  It is based on
 the Gaussian(R) 09 system (copyright 2009, Gaussian, Inc.),
 the Gaussian(R) 03 system (copyright 2003, Gaussian, Inc.),
 the Gaussian(R) 98 system (copyright 1998, Gaussian, Inc.),
 the Gaussian(R) 94 system (copyright 1995, Gaussian, Inc.),
 the Gaussian 92(TM) system (copyright 1992, Gaussian, Inc.),
 the Gaussian 90(TM) system (copyright 1990, Gaussian, Inc.),
 the Gaussian 88(TM) system (copyright 1988, Gaussian, Inc.),
 the Gaussian 86(TM) system (copyright 1986, Carnegie Mellon
 University), and the Gaussian 82(TM) system (copyright 1983,
 Carnegie Mellon University). Gaussian is a federally registered
 trademark of Gaussian, Inc.
  
 This software contains proprietary and confidential information,
 including trade secrets, belonging to Gaussian, Inc.
  
 This software is provided under written license and may be
 used, copied, transmitted, or stored only in accord with that
 written license.
  
 The following legend is applicable only to US Government
 contracts under FAR:
  
                    RESTRICTED RIGHTS LEGEND
  
 Use, reproduction and disclosure by the US Government is
 subject to restrictions as set forth in subparagraphs (a)
 and (c) of the Commercial Computer Software - Restricted
 Rights clause in FAR 52.227-19.
  
 Gaussian, Inc.
 340 Quinnipiac St., Bldg. 40, Wallingford CT 06492
  
  
 ---------------------------------------------------------------
 Warning -- This program may not be used in any manner that
 competes with the business of Gaussian, Inc. or will provide
 assistance to any competitor of Gaussian, Inc.  The licensee
 of this program is prohibited from giving any competitor of
 Gaussian, Inc. access to this program.  By using this program,
 the user acknowledges that Gaussian, Inc. is engaged in the
 business of creating and licensing software in the field of
 computational chemistry and represents and warrants to the
 licensee that it is not a competitor of Gaussian, Inc. and that
 it will not use this program in any manner prohibited above.
 ---------------------------------------------------------------
  

 Cite this work as:
 Gaussian 16, Revision C.01,
 M. J. Frisch, G. W. Trucks, H. B. Schlegel, G. E. Scuseria, 
 M. A. Robb, J. R. Cheeseman, G. Scalmani, V. Barone, 
 G. A. Petersson, H. Nakatsuji, X. Li, M. Caricato, A. V. Marenich, 
 J. Bloino, B. G. Janesko, R. Gomperts, B. Mennucci, H. P. Hratchian, 
 J. V. Ortiz, A. F. Izmaylov, J. L. Sonnenberg, D. Williams-Young, 
 F. Ding, F. Lipparini, F. Egidi, J. Goings, B. Peng, A. Petrone, 
 T. Henderson, D. Ranasinghe, V. G. Zakrzewski, J. Gao, N. Rega, 
 G. Zheng, W. Liang, M. Hada, M. Ehara, K. Toyota, R. Fukuda, 
 J. Hasegawa, M. Ishida, T. Nakajima, Y. Honda, O. Kitao, H. Nakai, 
 T. Vreven, K. Throssell, J. A. Montgomery, Jr., J. E. Peralta, 
 F. Ogliaro, M. J. Bearpark, J. J. Heyd, E. N. Brothers, K. N. Kudin, 
 V. N. Staroverov, T. A. Keith, R. Kobayashi, J. Normand, 
 K. Raghavachari, A. P. Rendell, J. C. Burant, S. S. Iyengar, 
 J. Tomasi, M. Cossi, J. M. Millam, M. Klene, C. Adamo, R. Cammi, 
 J. W. Ochterski, R. L. Martin, K. Morokuma, O. Farkas, 
 J. B. Foresman, and D. J. Fox, Gaussian, Inc., Wallingford CT, 2019.
 
 ******************************************
 Gaussian 16:  ES64L-G16RevC.01  3-Jul-2019
                11-Oct-2024 
 ******************************************
 %nprocshared=28
 Will use up to   28 processors via shared memory.
 %mem=48GB
 ----------------------------------------------------------------------
 # uwb97xd scrf=(smd,solvent=acetonitrile) nosymm def2svp g09default sc
 f=(xqc,maxcycle=64)
 ----------------------------------------------------------------------
 1/38=1,158=3,167=1,172=1/1;
 2/12=2,15=1,17=6,18=5,40=1/2;
 3/5=43,7=101,11=2,25=1,27=10,30=1,70=32201,72=2,74=-58,75=-4,116=2,158=3/1,2,3;
 4/60=-1/1;
 5/5=2,7=64,8=3,13=1,38=5,53=2,87=10/2,8;
 6/7=2,8=2,9=2,10=2,28=1,87=10/1;
 99/5=1,9=1/99;
 Using 2006 physical constants.
 ----------
 Title Card
 ----------
 Symbolic Z-matrix:
 Charge = -2 Multiplicity = 1
 C                    -8.93932  -0.91292   1.10763 
 C                    -8.93844   0.45961   1.24924 
 C                    -8.2404   -2.11829   0.98178 
 C                    -7.04457  -2.80161   0.89874 
 C                    -9.63945  -2.11885   0.99415 
 C                    -10.83569  -2.80418   0.9382 
 C                    -10.16877   1.17173   1.33474 
 N                    -11.18124   1.7333    1.40275 
 C                    -7.70716   1.17193   1.3177 
 N                    -6.69413   1.73397   1.3724 
 C                    -5.80993  -2.09402   0.95481 
 N                    -4.81507  -1.49972   1.00142 
 C                    -7.03737  -4.21801   0.75022 
 N                    -7.05342  -5.37119   0.62758 
 C                    -10.84302  -4.2233    0.81862 
 N                    -10.82697  -5.37928   0.72613 
 C                    -12.07021  -2.097     1.0017 
 N                    -13.06474  -1.50236   1.05102 
 
                          Input orientation:                          
 ---------------------------------------------------------------------
 Center     Atomic      Atomic             Coordinates (Angstroms)
 Number     Number       Type             X           Y           Z
 ---------------------------------------------------------------------
      1          6           0       -8.939320   -0.912920    1.107630
      2          6           0       -8.938442    0.459611    1.249240
      3          6           0       -8.240403   -2.118294    0.981776
      4          6           0       -7.044572   -2.801612    0.898736
      5          6           0       -9.639446   -2.118851    0.994147
      6          6           0      -10.835687   -2.804183    0.938203
      7          6           0      -10.168767    1.171727    1.334741
      8          7           0      -11.181240    1.733303    1.402749
      9          6           0       -7.707158    1.171929    1.317701
     10          7           0       -6.694132    1.733972    1.372404
     11          6           0       -5.809925   -2.094016    0.954805
     12          7           0       -4.815065   -1.499723    1.001416
     13          6           0       -7.037375   -4.218008    0.750217
     14          7           0       -7.053421   -5.371187    0.627577
     15          6           0      -10.843017   -4.223297    0.818616
     16          7           0      -10.826973   -5.379277    0.726129
     17          6           0      -12.070213   -2.096997    1.001697
     18          7           0      -13.064739   -1.502355    1.051021
 ---------------------------------------------------------------------
                    Distance matrix (angstroms):
                    1          2          3          4          5
     1  C    0.000000
     2  C    1.379817   0.000000
     3  C    1.399018   2.684099   0.000000
     4  C    2.683443   3.787502   1.379794   0.000000
     5  C    1.399044   2.684203   1.399098   2.684890   0.000000
     6  C    2.683615   3.787959   2.684742   3.791321   1.379783
     7  C    2.430817   1.424121   3.829806   5.073275   3.350237
     8  N    3.480775   2.583796   4.864210   6.158856   4.169313
     9  C    2.430833   1.424129   3.350039   4.050133   3.829838
    10  N    3.480950   2.583814   4.169352   4.573696   4.864381
    11  C    3.348351   4.049114   2.430749   1.424145   3.829804
    12  N    4.167145   4.571941   3.480798   2.583827   4.863952
    13  C    3.829980   5.073776   2.430986   1.424180   3.352124
    14  N    4.864485   6.159381   3.480761   2.583858   4.171281
    15  C    3.829646   5.073704   3.351307   4.056574   2.430656
    16  N    4.863859   6.158962   4.170097   4.580470   3.480292
    17  C    3.348993   4.050372   3.829921   5.075840   2.430877
    18  N    4.167700   4.573284   4.863989   6.160655   3.480795
                    6          7          8          9         10
     6  C    0.000000
     7  C    4.050912   0.000000
     8  N    4.574275   1.159782   0.000000
     9  C    5.073577   2.461668   3.520173   0.000000
    10  N    6.159209   3.520032   4.487211   1.159787   0.000000
    11  C    5.075716   5.459756   6.610601   3.794415   3.950912
    12  N    6.160641   5.992485   7.151343   3.949932   3.758365
    13  C    4.057267   6.260713   7.281176   5.460959   5.994247
    14  N    4.581652   7.281153   8.253094   6.611808   7.153121
    15  C    1.424163   5.461436   5.994722   6.260284   7.280727
    16  N    2.583827   6.612057   7.153469   7.280213   8.252052
    17  C    1.424148   3.796179   3.952507   5.460951   6.611807
    18  N    2.583826   3.951945   3.760421   5.993879   7.152743
                   11         12         13         14         15
    11  C    0.000000
    12  N    1.159786   0.000000
    13  C    2.461673   3.520062   0.000000
    14  N    3.520399   4.487564   1.159793   0.000000
    15  C    5.466663   6.617211   3.806260   3.964238   0.000000
    16  N    6.001333   7.160290   3.963607   3.774847   1.159785
    17  C    6.260464   7.279692   5.467302   6.002374   2.461845
    18  N    7.279536   8.249824   6.617732   7.161223   3.520453
                   16         17         18
    16  N    0.000000
    17  C    3.520646   0.000000
    18  N    4.488171   1.159790   0.000000
 Symmetry turned off by external request.
 Stoichiometry    C12N6(2-)
 Framework group  C1[X(C12N6)]
 Deg. of freedom    48
 Full point group                 C1      NOp   1
 Rotational constants (GHZ):           0.4311235           0.4305733           0.2154380
 Standard basis: def2SVP (5D, 7F)
   252 basis functions,   450 primitive gaussians,   270 cartesian basis functions
    58 alpha electrons       58 beta electrons
       nuclear repulsion energy       966.8033693810 Hartrees.
 NAtoms=   18 NActive=   18 NUniq=   18 SFac= 1.00D+00 NAtFMM=   60 NAOKFM=F Big=F
 Integral buffers will be    131072 words long.
 Raffenetti 2 integral format.
 Two-electron integral symmetry is turned off.
 Nuclear repulsion after empirical dispersion term =      966.7916215152 Hartrees.
 Force PCM accuracy= 1.00D-10.
 ------------------------------------------------------------------------------
 Polarizable Continuum Model (PCM)
 =================================
 Model                : PCM (using non-symmetric T matrix).
 Atomic radii         : SMD-Coulomb.
 Polarization charges : Total charges.
 Charge compensation  : None.
 Solution method      : On-the-fly selection.
 Cavity type          : VdW (van der Waals Surface) (Alpha=1.000).
 Cavity algorithm     : GePol (No added spheres)
                        Default sphere list used, NSphG=   18.
                        Lebedev-Laikov grids with approx.  5.0 points / Ang**2.
                        Smoothing algorithm: York/Karplus (Gamma=1.0000).
                        Polarization charges: spherical gaussians, with
                                              point-specific exponents (IZeta= 3).
                        Self-potential: point-specific (ISelfS= 7).
                        Self-field    : sphere-specific E.n sum rule (ISelfD= 2).
 Solvent              : Acetonitrile, Eps=  35.688000 Eps(inf)=   1.806874
 ------------------------------------------------------------------------------
 Spheres list:
 ISph  on   Nord     Re0    Alpha      Xe            Ye            Ze
    1   C      1    1.8500  1.000     -8.939320     -0.912920      1.107630
    2   C      2    1.8500  1.000     -8.938442      0.459611      1.249240
    3   C      3    1.8500  1.000     -8.240403     -2.118294      0.981776
    4   C      4    1.8500  1.000     -7.044572     -2.801612      0.898736
    5   C      5    1.8500  1.000     -9.639446     -2.118851      0.994147
    6   C      6    1.8500  1.000    -10.835687     -2.804183      0.938203
    7   C      7    1.8500  1.000    -10.168767      1.171727      1.334741
    8   N      8    1.8900  1.000    -11.181240      1.733303      1.402749
    9   C      9    1.8500  1.000     -7.707158      1.171929      1.317701
   10   N     10    1.8900  1.000     -6.694132      1.733972      1.372404
   11   C     11    1.8500  1.000     -5.809925     -2.094016      0.954805
   12   N     12    1.8900  1.000     -4.815065     -1.499723      1.001416
   13   C     13    1.8500  1.000     -7.037375     -4.218008      0.750217
   14   N     14    1.8900  1.000     -7.053421     -5.371187      0.627577
   15   C     15    1.8500  1.000    -10.843017     -4.223297      0.818616
   16   N     16    1.8900  1.000    -10.826973     -5.379277      0.726129
   17   C     17    1.8500  1.000    -12.070213     -2.096997      1.001697
   18   N     18    1.8900  1.000    -13.064739     -1.502355      1.051021
 ------------------------------------------------------------------------------
 ------------------------------------------------------------------------------
 Atomic radii for non-electrostatic terms: SMD-CDS.
 ------------------------------------------------------------------------------
 Nuclear repulsion after PCM non-electrostatic terms =      966.8002891714 Hartrees.
 One-electron integrals computed using PRISM.
   1 Symmetry operations used in ECPInt.
 ECPInt:  NShTT=    5886 NPrTT=   23670 LenC2=    5404 LenP2D=   14993.
 LDataN:  DoStor=T MaxTD1= 4 Len=   56
 NBasis=   252 RedAO= T EigKep=  1.96D-04  NBF=   252
 NBsUse=   252 1.00D-06 EigRej= -1.00D+00 NBFU=   252
 ExpMin= 1.31D-01 ExpMax= 1.71D+03 ExpMxC= 2.58D+02 IAcc=2 IRadAn=         4 AccDes= 0.00D+00
 Harris functional with IExCor= 4639 and IRadAn=      -1 diagonalized for initial guess.
 HarFok:  IExCor= 4639 AccDes= 0.00D+00 IRadAn=        -1 IDoV= 1 UseB2=F ITyADJ=14
 ICtDFT=  3500011 ScaDFX=  1.000000  1.000000  1.000000  1.000000
 FoFCou: FMM=F IPFlag=           0 FMFlag=      100000 FMFlg1=           0
         NFxFlg=           0 DoJE=T BraDBF=F KetDBF=T FulRan=T
         wScrn=  0.000000 ICntrl=       500 IOpCl=  0 I1Cent=   200000004 NGrid=           0
         NMat0=    1 NMatS0=      1 NMatT0=    0 NMatD0=    1 NMtDS0=    0 NMtDT0=    0
 Symmetry not used in FoFCou.
 Initial guess <Sx>= 0.0000 <Sy>= 0.0000 <Sz>= 0.0000 <S**2>=-0.0000 S=-0.0000
 Requested convergence on RMS density matrix=1.00D-08 within  64 cycles.
 Requested convergence on MAX density matrix=1.00D-06.
 Requested convergence on             energy=1.00D-06.
 No special actions if energy rises.
 Inv3:  Mode=1 IEnd=    19370043.
 Iteration    1 A*A^-1 deviation from unit magnitude is 2.89D-15 for    941.
 Iteration    1 A*A^-1 deviation from orthogonality  is 2.19D-15 for   2082    336.
 Iteration    1 A^-1*A deviation from unit magnitude is 2.89D-15 for    569.
 Iteration    1 A^-1*A deviation from orthogonality  is 8.48D-08 for   1147    831.
 Iteration    2 A*A^-1 deviation from unit magnitude is 4.00D-15 for    230.
 Iteration    2 A*A^-1 deviation from orthogonality  is 3.65D-15 for    992     63.
 Iteration    2 A^-1*A deviation from unit magnitude is 1.22D-15 for    592.
 Iteration    2 A^-1*A deviation from orthogonality  is 7.41D-16 for   2020    399.
 Error on total polarization charges =  0.02150
 SCF Done:  E(UwB97XD) =  -785.030450081     A.U. after   12 cycles
            NFock= 12  Conv=0.76D-08     -V/T= 2.0096
 <Sx>= 0.0000 <Sy>= 0.0000 <Sz>= 0.0000 <S**2>=-0.0000 S=-0.0000
 <L.S>=  0.00000000000    
 SMD-CDS (non-electrostatic) energy       (kcal/mol) =       5.44
 (included in total energy above)
 Annihilation of the first spin contaminant:
 S**2 before annihilation    -0.0000,   after     0.0000
 QCSCF skips out because SCF is already converged.

 **********************************************************************

            Population analysis using the SCF Density.

 **********************************************************************

 Alpha  occ. eigenvalues --  -14.42744 -14.42742 -14.42741 -14.42738 -14.42737
 Alpha  occ. eigenvalues --  -14.42733 -10.34737 -10.34672 -10.34664 -10.33669
 Alpha  occ. eigenvalues --  -10.33668 -10.33667 -10.33666 -10.33662 -10.33661
 Alpha  occ. eigenvalues --  -10.32651 -10.32650 -10.32642  -1.02557  -0.99171
 Alpha  occ. eigenvalues --   -0.99171  -0.98711  -0.98137  -0.98134  -0.98054
 Alpha  occ. eigenvalues --   -0.88278  -0.88274  -0.85946  -0.68728  -0.68720
 Alpha  occ. eigenvalues --   -0.65081  -0.65069  -0.64785  -0.64162  -0.52336
 Alpha  occ. eigenvalues --   -0.47686  -0.47684  -0.46588  -0.46580  -0.45200
 Alpha  occ. eigenvalues --   -0.45079  -0.45077  -0.44539  -0.44110  -0.44109
 Alpha  occ. eigenvalues --   -0.43699  -0.42912  -0.42309  -0.42305  -0.42119
 Alpha  occ. eigenvalues --   -0.42021  -0.42010  -0.40608  -0.40199  -0.40197
 Alpha  occ. eigenvalues --   -0.31650  -0.31647  -0.23359
 Alpha virt. eigenvalues --    0.07634   0.07634   0.08976   0.09468   0.09478
 Alpha virt. eigenvalues --    0.12786   0.12791   0.13031   0.13243   0.14966
 Alpha virt. eigenvalues --    0.14973   0.16367   0.21073   0.21086   0.24180
 Alpha virt. eigenvalues --    0.27311   0.28062   0.28066   0.28763   0.28772
 Alpha virt. eigenvalues --    0.30118   0.33603   0.33614   0.34173   0.36891
 Alpha virt. eigenvalues --    0.36932   0.37261   0.49364   0.49374   0.50632
 Alpha virt. eigenvalues --    0.50834   0.54817   0.54817   0.54915   0.54928
 Alpha virt. eigenvalues --    0.57413   0.57441   0.58188   0.59939   0.61264
 Alpha virt. eigenvalues --    0.61692   0.61708   0.63062   0.63090   0.65169
 Alpha virt. eigenvalues --    0.65523   0.71514   0.71836   0.71841   0.73818
 Alpha virt. eigenvalues --    0.73837   0.74549   0.74592   0.74751   0.75158
 Alpha virt. eigenvalues --    0.75377   0.75412   0.76887   0.76896   0.77958
 Alpha virt. eigenvalues --    0.82212   0.82278   0.82312   0.83552   0.83564
 Alpha virt. eigenvalues --    0.88812   0.89290   0.89309   0.89373   0.94842
 Alpha virt. eigenvalues --    0.94893   0.95150   0.95171   0.95788   0.96167
 Alpha virt. eigenvalues --    0.98186   1.00692   1.00696   1.01617   1.01675
 Alpha virt. eigenvalues --    1.02681   1.02683   1.05534   1.05779   1.05809
 Alpha virt. eigenvalues --    1.08542   1.09309   1.10349   1.10350   1.13073
 Alpha virt. eigenvalues --    1.13086   1.17712   1.19014   1.20417   1.20453
 Alpha virt. eigenvalues --    1.21470   1.25339   1.25368   1.27268   1.35217
 Alpha virt. eigenvalues --    1.38893   1.38965   1.41898   1.41910   1.45108
 Alpha virt. eigenvalues --    1.47417   1.47522   1.47722   1.47816   1.60009
 Alpha virt. eigenvalues --    1.61796   1.68516   1.70772   1.70776   1.70892
 Alpha virt. eigenvalues --    1.71197   1.71198   1.79107   1.79136   1.79799
 Alpha virt. eigenvalues --    1.79851   1.80508   1.81477   1.81482   1.83155
 Alpha virt. eigenvalues --    1.84936   1.84962   1.87945   1.95872   1.96099
 Alpha virt. eigenvalues --    1.96102   2.00590   2.02993   2.03013   2.06244
 Alpha virt. eigenvalues --    2.06279   2.09618   2.09991   2.15535   2.15570
 Alpha virt. eigenvalues --    2.20687   2.23662   2.23670   2.24151   2.29603
 Alpha virt. eigenvalues --    2.31278   2.31305   2.32194   2.35998   2.35999
 Alpha virt. eigenvalues --    2.36653   2.36667   2.36909   2.36914   2.37568
 Alpha virt. eigenvalues --    2.38629   2.38775   2.38914   2.39092   2.39103
 Alpha virt. eigenvalues --    2.40841   2.40849   2.60812   2.65345   2.65365
 Alpha virt. eigenvalues --    2.75057   2.75092   2.95486   2.97987   2.97991
 Alpha virt. eigenvalues --    2.98004   3.01490   3.01515   3.02118   3.05473
 Alpha virt. eigenvalues --    3.08246   3.08256   3.12245   3.12283   3.14821
 Alpha virt. eigenvalues --    3.14823   3.15348   3.26373   3.26389   3.31576
 Alpha virt. eigenvalues --    3.44305   3.44349   3.45545   3.56529   3.59860
 Alpha virt. eigenvalues --    3.59886   3.65180   3.65190   3.79801
  Beta  occ. eigenvalues --  -14.42744 -14.42742 -14.42741 -14.42738 -14.42737
  Beta  occ. eigenvalues --  -14.42733 -10.34737 -10.34672 -10.34664 -10.33669
  Beta  occ. eigenvalues --  -10.33668 -10.33667 -10.33666 -10.33662 -10.33661
  Beta  occ. eigenvalues --  -10.32651 -10.32650 -10.32642  -1.02557  -0.99171
  Beta  occ. eigenvalues --   -0.99171  -0.98711  -0.98137  -0.98134  -0.98054
  Beta  occ. eigenvalues --   -0.88278  -0.88274  -0.85946  -0.68728  -0.68720
  Beta  occ. eigenvalues --   -0.65081  -0.65069  -0.64785  -0.64162  -0.52336
  Beta  occ. eigenvalues --   -0.47686  -0.47684  -0.46588  -0.46580  -0.45200
  Beta  occ. eigenvalues --   -0.45079  -0.45077  -0.44539  -0.44110  -0.44109
  Beta  occ. eigenvalues --   -0.43699  -0.42912  -0.42309  -0.42305  -0.42119
  Beta  occ. eigenvalues --   -0.42021  -0.42010  -0.40608  -0.40199  -0.40197
  Beta  occ. eigenvalues --   -0.31650  -0.31647  -0.23359
  Beta virt. eigenvalues --    0.07634   0.07634   0.08976   0.09468   0.09478
  Beta virt. eigenvalues --    0.12786   0.12791   0.13031   0.13243   0.14966
  Beta virt. eigenvalues --    0.14973   0.16367   0.21073   0.21086   0.24180
  Beta virt. eigenvalues --    0.27311   0.28062   0.28066   0.28763   0.28772
  Beta virt. eigenvalues --    0.30118   0.33603   0.33614   0.34173   0.36891
  Beta virt. eigenvalues --    0.36932   0.37261   0.49364   0.49374   0.50632
  Beta virt. eigenvalues --    0.50834   0.54817   0.54817   0.54915   0.54928
  Beta virt. eigenvalues --    0.57413   0.57441   0.58188   0.59939   0.61264
  Beta virt. eigenvalues --    0.61692   0.61708   0.63062   0.63090   0.65169
  Beta virt. eigenvalues --    0.65523   0.71514   0.71836   0.71841   0.73818
  Beta virt. eigenvalues --    0.73837   0.74549   0.74592   0.74751   0.75158
  Beta virt. eigenvalues --    0.75377   0.75412   0.76887   0.76896   0.77958
  Beta virt. eigenvalues --    0.82212   0.82278   0.82312   0.83552   0.83564
  Beta virt. eigenvalues --    0.88812   0.89290   0.89309   0.89373   0.94842
  Beta virt. eigenvalues --    0.94893   0.95150   0.95171   0.95788   0.96167
  Beta virt. eigenvalues --    0.98186   1.00692   1.00696   1.01617   1.01675
  Beta virt. eigenvalues --    1.02681   1.02683   1.05534   1.05779   1.05809
  Beta virt. eigenvalues --    1.08542   1.09309   1.10349   1.10350   1.13073
  Beta virt. eigenvalues --    1.13086   1.17712   1.19014   1.20417   1.20453
  Beta virt. eigenvalues --    1.21470   1.25339   1.25368   1.27268   1.35217
  Beta virt. eigenvalues --    1.38893   1.38965   1.41898   1.41910   1.45108
  Beta virt. eigenvalues --    1.47417   1.47522   1.47722   1.47816   1.60009
  Beta virt. eigenvalues --    1.61796   1.68516   1.70772   1.70776   1.70892
  Beta virt. eigenvalues --    1.71197   1.71198   1.79107   1.79136   1.79799
  Beta virt. eigenvalues --    1.79851   1.80508   1.81477   1.81482   1.83155
  Beta virt. eigenvalues --    1.84936   1.84962   1.87945   1.95872   1.96099
  Beta virt. eigenvalues --    1.96102   2.00590   2.02993   2.03013   2.06244
  Beta virt. eigenvalues --    2.06279   2.09618   2.09991   2.15535   2.15570
  Beta virt. eigenvalues --    2.20687   2.23662   2.23670   2.24151   2.29603
  Beta virt. eigenvalues --    2.31278   2.31305   2.32194   2.35998   2.35999
  Beta virt. eigenvalues --    2.36653   2.36667   2.36909   2.36914   2.37568
  Beta virt. eigenvalues --    2.38629   2.38775   2.38914   2.39092   2.39103
  Beta virt. eigenvalues --    2.40841   2.40849   2.60812   2.65345   2.65365
  Beta virt. eigenvalues --    2.75057   2.75092   2.95486   2.97987   2.97991
  Beta virt. eigenvalues --    2.98004   3.01490   3.01515   3.02118   3.05473
  Beta virt. eigenvalues --    3.08246   3.08256   3.12245   3.12283   3.14821
  Beta virt. eigenvalues --    3.14823   3.15348   3.26373   3.26389   3.31576
  Beta virt. eigenvalues --    3.44305   3.44349   3.45545   3.56529   3.59860
  Beta virt. eigenvalues --    3.59886   3.65180   3.65190   3.79801
          Condensed to atoms (all electrons):
               1          2          3          4          5          6
     1  C    4.971404   0.496048   0.314705  -0.122721   0.314759  -0.122785
     2  C    0.496048   5.562263  -0.122761  -0.008214  -0.122797  -0.008211
     3  C    0.314705  -0.122761   4.972246   0.496078   0.314075  -0.123147
     4  C   -0.122721  -0.008214   0.496078   5.563099  -0.123175  -0.008214
     5  C    0.314759  -0.122797   0.314075  -0.123175   4.972441   0.496126
     6  C   -0.122785  -0.008211  -0.123147  -0.008214   0.496126   5.563242
     7  C    0.013474   0.386180   0.006433  -0.000562  -0.025820   0.003059
     8  N   -0.001127  -0.043000  -0.000066  -0.000002  -0.000657   0.000160
     9  C    0.013557   0.386099  -0.025819   0.003068   0.006430  -0.000560
    10  N   -0.001125  -0.043000  -0.000656   0.000161  -0.000066  -0.000002
    11  C   -0.025921   0.003033   0.013758   0.385914   0.006459  -0.000551
    12  N   -0.000660   0.000160  -0.001116  -0.042996  -0.000065  -0.000002
    13  C    0.006493  -0.000556   0.013272   0.386506  -0.025851   0.002983
    14  N   -0.000065  -0.000002  -0.001129  -0.043036  -0.000661   0.000154
    15  C    0.006502  -0.000555  -0.025889   0.002978   0.013404   0.386433
    16  N   -0.000064  -0.000002  -0.000662   0.000154  -0.001126  -0.043054
    17  C   -0.025921   0.003026   0.006476  -0.000550   0.013631   0.385876
    18  N   -0.000661   0.000159  -0.000065  -0.000002  -0.001117  -0.043016
               7          8          9         10         11         12
     1  C    0.013474  -0.001127   0.013557  -0.001125  -0.025921  -0.000660
     2  C    0.386180  -0.043000   0.386099  -0.043000   0.003033   0.000160
     3  C    0.006433  -0.000066  -0.025819  -0.000656   0.013758  -0.001116
     4  C   -0.000562  -0.000002   0.003068   0.000161   0.385914  -0.042996
     5  C   -0.025820  -0.000657   0.006430  -0.000066   0.006459  -0.000065
     6  C    0.003059   0.000160  -0.000560  -0.000002  -0.000551  -0.000002
     7  C    4.880212   0.927906  -0.054442   0.002596   0.000139   0.000003
     8  N    0.927906   6.147169   0.002597   0.000089   0.000000   0.000000
     9  C   -0.054442   0.002597   4.880263   0.927872  -0.000558   0.000150
    10  N    0.002596   0.000089   0.927872   6.147238   0.000141  -0.000909
    11  C    0.000139   0.000000  -0.000558   0.000141   4.880132   0.927780
    12  N    0.000003   0.000000   0.000150  -0.000909   0.927780   6.147268
    13  C   -0.000017  -0.000000   0.000139   0.000003  -0.054318   0.002596
    14  N   -0.000000  -0.000000   0.000000   0.000000   0.002597   0.000089
    15  C    0.000139   0.000003  -0.000017  -0.000000   0.000137   0.000000
    16  N    0.000000   0.000000  -0.000000  -0.000000   0.000002   0.000000
    17  C   -0.000559   0.000142   0.000139   0.000000  -0.000017  -0.000000
    18  N    0.000148  -0.000905   0.000003   0.000000  -0.000000  -0.000000
              13         14         15         16         17         18
     1  C    0.006493  -0.000065   0.006502  -0.000064  -0.025921  -0.000661
     2  C   -0.000556  -0.000002  -0.000555  -0.000002   0.003026   0.000159
     3  C    0.013272  -0.001129  -0.025889  -0.000662   0.006476  -0.000065
     4  C    0.386506  -0.043036   0.002978   0.000154  -0.000550  -0.000002
     5  C   -0.025851  -0.000661   0.013404  -0.001126   0.013631  -0.001117
     6  C    0.002983   0.000154   0.386433  -0.043054   0.385876  -0.043016
     7  C   -0.000017  -0.000000   0.000139   0.000000  -0.000559   0.000148
     8  N   -0.000000  -0.000000   0.000003   0.000000   0.000142  -0.000905
     9  C    0.000139   0.000000  -0.000017  -0.000000   0.000139   0.000003
    10  N    0.000003   0.000000  -0.000000  -0.000000   0.000000   0.000000
    11  C   -0.054318   0.002597   0.000137   0.000002  -0.000017  -0.000000
    12  N    0.002596   0.000089   0.000000   0.000000  -0.000000  -0.000000
    13  C    4.880013   0.928063  -0.000552   0.000143   0.000137   0.000000
    14  N    0.928063   6.147206   0.000139  -0.000877   0.000002   0.000000
    15  C   -0.000552   0.000139   4.880031   0.928055  -0.054324   0.002593
    16  N    0.000143  -0.000877   0.928055   6.147272   0.002595   0.000089
    17  C    0.000137   0.000002  -0.054324   0.002595   4.880188   0.927805
    18  N    0.000000   0.000000   0.002593   0.000089   0.927805   6.147228
          Atomic-Atomic Spin Densities.
               1          2          3          4          5          6
     1  C    0.000000   0.000000   0.000000   0.000000  -0.000000  -0.000000
     2  C    0.000000  -0.000000   0.000000   0.000000  -0.000000  -0.000000
     3  C    0.000000   0.000000  -0.000000  -0.000000   0.000000   0.000000
     4  C    0.000000   0.000000  -0.000000  -0.000000   0.000000   0.000000
     5  C   -0.000000  -0.000000   0.000000   0.000000   0.000000  -0.000000
     6  C   -0.000000  -0.000000   0.000000   0.000000  -0.000000   0.000000
     7  C    0.000000  -0.000000   0.000000   0.000000   0.000000   0.000000
     8  N    0.000000  -0.000000   0.000000   0.000000  -0.000000   0.000000
     9  C   -0.000000   0.000000  -0.000000   0.000000  -0.000000  -0.000000
    10  N   -0.000000  -0.000000  -0.000000   0.000000  -0.000000  -0.000000
    11  C    0.000000   0.000000   0.000000  -0.000000   0.000000   0.000000
    12  N    0.000000   0.000000   0.000000  -0.000000   0.000000   0.000000
    13  C    0.000000   0.000000  -0.000000   0.000000  -0.000000   0.000000
    14  N    0.000000   0.000000   0.000000   0.000000  -0.000000   0.000000
    15  C   -0.000000  -0.000000  -0.000000   0.000000  -0.000000  -0.000000
    16  N   -0.000000  -0.000000  -0.000000   0.000000   0.000000  -0.000000
    17  C   -0.000000   0.000000   0.000000  -0.000000   0.000000   0.000000
    18  N    0.000000   0.000000   0.000000   0.000000  -0.000000   0.000000
               7          8          9         10         11         12
     1  C    0.000000   0.000000  -0.000000  -0.000000   0.000000   0.000000
     2  C   -0.000000  -0.000000   0.000000  -0.000000   0.000000   0.000000
     3  C    0.000000   0.000000  -0.000000  -0.000000   0.000000   0.000000
     4  C    0.000000   0.000000   0.000000   0.000000  -0.000000  -0.000000
     5  C    0.000000  -0.000000  -0.000000  -0.000000   0.000000   0.000000
     6  C    0.000000   0.000000  -0.000000  -0.000000   0.000000   0.000000
     7  C   -0.000000  -0.000000   0.000000  -0.000000  -0.000000   0.000000
     8  N   -0.000000   0.000000  -0.000000  -0.000000  -0.000000   0.000000
     9  C    0.000000  -0.000000   0.000000  -0.000000   0.000000   0.000000
    10  N   -0.000000  -0.000000  -0.000000  -0.000000  -0.000000  -0.000000
    11  C   -0.000000  -0.000000   0.000000  -0.000000  -0.000000  -0.000000
    12  N    0.000000   0.000000   0.000000  -0.000000  -0.000000   0.000000
    13  C   -0.000000   0.000000   0.000000   0.000000   0.000000  -0.000000
    14  N   -0.000000  -0.000000   0.000000   0.000000  -0.000000  -0.000000
    15  C    0.000000   0.000000  -0.000000  -0.000000   0.000000   0.000000
    16  N    0.000000   0.000000  -0.000000  -0.000000   0.000000   0.000000
    17  C   -0.000000   0.000000   0.000000   0.000000   0.000000  -0.000000
    18  N   -0.000000  -0.000000   0.000000   0.000000   0.000000   0.000000
              13         14         15         16         17         18
     1  C    0.000000   0.000000  -0.000000  -0.000000  -0.000000   0.000000
     2  C    0.000000   0.000000  -0.000000  -0.000000   0.000000   0.000000
     3  C   -0.000000   0.000000  -0.000000  -0.000000   0.000000   0.000000
     4  C    0.000000   0.000000   0.000000   0.000000  -0.000000   0.000000
     5  C   -0.000000  -0.000000  -0.000000   0.000000   0.000000  -0.000000
     6  C    0.000000   0.000000  -0.000000  -0.000000   0.000000   0.000000
     7  C   -0.000000  -0.000000   0.000000   0.000000  -0.000000  -0.000000
     8  N    0.000000  -0.000000   0.000000   0.000000   0.000000  -0.000000
     9  C    0.000000   0.000000  -0.000000  -0.000000   0.000000   0.000000
    10  N    0.000000   0.000000  -0.000000  -0.000000   0.000000   0.000000
    11  C    0.000000  -0.000000   0.000000   0.000000   0.000000   0.000000
    12  N   -0.000000  -0.000000   0.000000   0.000000  -0.000000   0.000000
    13  C    0.000000  -0.000000  -0.000000  -0.000000   0.000000   0.000000
    14  N   -0.000000   0.000000   0.000000  -0.000000   0.000000   0.000000
    15  C   -0.000000   0.000000   0.000000   0.000000  -0.000000   0.000000
    16  N   -0.000000  -0.000000   0.000000  -0.000000  -0.000000  -0.000000
    17  C    0.000000   0.000000  -0.000000  -0.000000  -0.000000  -0.000000
    18  N    0.000000   0.000000   0.000000  -0.000000  -0.000000   0.000000
 Mulliken charges and spin densities:
               1          2
     1  C    0.164108   0.000000
     2  C   -0.487871   0.000000
     3  C    0.164266  -0.000000
     4  C   -0.488487  -0.000000
     5  C    0.164009   0.000000
     6  C   -0.488491   0.000000
     7  C   -0.138889  -0.000000
     8  N   -0.032310   0.000000
     9  C   -0.138922   0.000000
    10  N   -0.032343  -0.000000
    11  C   -0.138729  -0.000000
    12  N   -0.032298   0.000000
    13  C   -0.139052   0.000000
    14  N   -0.032481  -0.000000
    15  C   -0.139076   0.000000
    16  N   -0.032525  -0.000000
    17  C   -0.138648  -0.000000
    18  N   -0.032260  -0.000000
 Sum of Mulliken charges =  -2.00000  -0.00000
 Mulliken charges and spin densities with hydrogens summed into heavy atoms:
               1          2
     1  C    0.164108   0.000000
     2  C   -0.487871   0.000000
     3  C    0.164266  -0.000000
     4  C   -0.488487  -0.000000
     5  C    0.164009   0.000000
     6  C   -0.488491   0.000000
     7  C   -0.138889  -0.000000
     8  N   -0.032310   0.000000
     9  C   -0.138922   0.000000
    10  N   -0.032343  -0.000000
    11  C   -0.138729  -0.000000
    12  N   -0.032298   0.000000
    13  C   -0.139052   0.000000
    14  N   -0.032481  -0.000000
    15  C   -0.139076   0.000000
    16  N   -0.032525  -0.000000
    17  C   -0.138648  -0.000000
    18  N   -0.032260  -0.000000
 Electronic spatial extent (au):  <R**2>=          39321.5303
 Charge=             -2.0000 electrons
 Dipole moment (field-independent basis, Debye):
    X=             85.8727    Y=             16.4635    Z=             -9.8999  Tot=             87.9953
 Quadrupole moment (field-independent basis, Debye-Ang):
   XX=           -967.0252   YY=           -226.6244   ZZ=           -113.4836
   XY=           -147.2497   XZ=             89.3211   YZ=              7.4469
 Traceless Quadrupole moment (field-independent basis, Debye-Ang):
   XX=           -531.3141   YY=            209.0867   ZZ=            322.2274
   XY=           -147.2497   XZ=             89.3211   YZ=              7.4469
 Octapole moment (field-independent basis, Debye-Ang**2):
  XXX=          12209.4158  YYY=           1137.7935  ZZZ=           -329.4325  XYY=           2026.2934
  XXY=           1590.1420  XXZ=          -1016.6595  XZZ=           1016.0542  YZZ=            175.4334
  YYZ=           -195.2991  XYZ=            -68.6273
 Hexadecapole moment (field-independent basis, Debye-Ang**3):
 XXXX=        -161607.4174 YYYY=          -8653.7542 ZZZZ=           -802.8402 XXXY=         -19106.8731
 XXXZ=          12946.9534 YYYX=         -10176.0433 YYYZ=            764.8150 ZZZX=           2961.8834
 ZZZY=            380.7743 XXYY=         -20012.6385 XXZZ=          -9882.0911 YYZZ=          -1032.9803
 XXYZ=            823.6245 YYXZ=           1762.7788 ZZXY=          -1571.2827
 N-N= 9.668002891714D+02 E-N=-3.787539851286D+03  KE= 7.775459395998D+02
                          Isotropic Fermi Contact Couplings
        Atom                 a.u.       MegaHertz       Gauss      10(-4) cm-1
     1  C(13)              0.00000       0.00000       0.00000       0.00000
     2  C(13)              0.00000       0.00000       0.00000       0.00000
     3  C(13)             -0.00000      -0.00000      -0.00000      -0.00000
     4  C(13)             -0.00000      -0.00000      -0.00000      -0.00000
     5  C(13)              0.00000       0.00000       0.00000       0.00000
     6  C(13)             -0.00000      -0.00000      -0.00000      -0.00000
     7  C(13)              0.00000       0.00000       0.00000       0.00000
     8  N(14)             -0.00000      -0.00000      -0.00000      -0.00000
     9  C(13)              0.00000       0.00000       0.00000       0.00000
    10  N(14)             -0.00000      -0.00000      -0.00000      -0.00000
    11  C(13)              0.00000       0.00000       0.00000       0.00000
    12  N(14)              0.00000       0.00000       0.00000       0.00000
    13  C(13)              0.00000       0.00000       0.00000       0.00000
    14  N(14)             -0.00000      -0.00000      -0.00000      -0.00000
    15  C(13)              0.00000       0.00000       0.00000       0.00000
    16  N(14)              0.00000       0.00000       0.00000       0.00000
    17  C(13)             -0.00000      -0.00000      -0.00000      -0.00000
    18  N(14)              0.00000       0.00000       0.00000       0.00000
 --------------------------------------------------------
       Center         ----  Spin Dipole Couplings  ----
                      3XX-RR        3YY-RR        3ZZ-RR
 --------------------------------------------------------
     1   Atom       -0.000000      0.000000     -0.000000
     2   Atom        0.000000     -0.000000      0.000000
     3   Atom        0.000000     -0.000000      0.000000
     4   Atom        0.000000      0.000000     -0.000000
     5   Atom       -0.000000      0.000000     -0.000000
     6   Atom        0.000000     -0.000000     -0.000000
     7   Atom        0.000000     -0.000000     -0.000000
     8   Atom        0.000000     -0.000000     -0.000000
     9   Atom        0.000000     -0.000000     -0.000000
    10   Atom        0.000000     -0.000000     -0.000000
    11   Atom        0.000000     -0.000000      0.000000
    12   Atom       -0.000000      0.000000      0.000000
    13   Atom        0.000000     -0.000000      0.000000
    14   Atom        0.000000     -0.000000      0.000000
    15   Atom       -0.000000      0.000000     -0.000000
    16   Atom        0.000000     -0.000000      0.000000
    17   Atom       -0.000000     -0.000000      0.000000
    18   Atom       -0.000000      0.000000      0.000000
 --------------------------------------------------------
                        XY            XZ            YZ
 --------------------------------------------------------
     1   Atom       -0.000000     -0.000000      0.000000
     2   Atom        0.000000     -0.000000     -0.000000
     3   Atom       -0.000000      0.000000     -0.000000
     4   Atom       -0.000000     -0.000000      0.000000
     5   Atom        0.000000      0.000000      0.000000
     6   Atom       -0.000000      0.000000     -0.000000
     7   Atom       -0.000000     -0.000000      0.000000
     8   Atom        0.000000     -0.000000      0.000000
     9   Atom        0.000000      0.000000      0.000000
    10   Atom        0.000000     -0.000000     -0.000000
    11   Atom        0.000000      0.000000     -0.000000
    12   Atom        0.000000     -0.000000     -0.000000
    13   Atom        0.000000      0.000000     -0.000000
    14   Atom       -0.000000     -0.000000     -0.000000
    15   Atom        0.000000      0.000000      0.000000
    16   Atom       -0.000000     -0.000000     -0.000000
    17   Atom        0.000000     -0.000000      0.000000
    18   Atom       -0.000000      0.000000      0.000000
 --------------------------------------------------------


 ---------------------------------------------------------------------------------
              Anisotropic Spin Dipole Couplings in Principal Axis System
 ---------------------------------------------------------------------------------

       Atom             a.u.   MegaHertz   Gauss  10(-4) cm-1        Axes

              Baa    -0.0000    -0.000    -0.000    -0.000  0.9243  0.3762  0.0650
     1 C(13)  Bbb    -0.0000    -0.000    -0.000    -0.000 -0.0513 -0.0465  0.9976
              Bcc     0.0000     0.000     0.000     0.000 -0.3783  0.9254  0.0237
 
              Baa    -0.0000    -0.000    -0.000    -0.000 -0.1293  0.9867  0.0982
     2 C(13)  Bbb     0.0000     0.000     0.000     0.000  0.1816 -0.0738  0.9806
              Bcc     0.0000     0.000     0.000     0.000  0.9748  0.1446 -0.1697
 
              Baa    -0.0000    -0.000    -0.000    -0.000  0.2443  0.9374  0.2480
     3 C(13)  Bbb     0.0000     0.000     0.000     0.000 -0.1722 -0.2097  0.9625
              Bcc     0.0000     0.000     0.000     0.000  0.9543 -0.2779  0.1102
 
              Baa    -0.0000    -0.000    -0.000    -0.000  0.1494  0.0555  0.9872
     4 C(13)  Bbb    -0.0000    -0.000    -0.000    -0.000  0.6890  0.7102 -0.1442
              Bcc     0.0000     0.000     0.000     0.000  0.7092 -0.7018 -0.0679
 
              Baa    -0.0000    -0.000    -0.000    -0.000  0.9307 -0.3639  0.0359
     5 C(13)  Bbb    -0.0000    -0.000    -0.000    -0.000 -0.0620 -0.0603  0.9963
              Bcc     0.0000     0.000     0.000     0.000  0.3604  0.9295  0.0787
 
              Baa    -0.0000    -0.000    -0.000    -0.000 -0.0069  0.3379  0.9411
     6 C(13)  Bbb    -0.0000    -0.000    -0.000    -0.000  0.2054  0.9216 -0.3294
              Bcc     0.0000     0.000     0.000     0.000  0.9787 -0.1910  0.0758
 
              Baa    -0.0000    -0.000    -0.000    -0.000  0.3424  0.9389  0.0344
     7 C(13)  Bbb    -0.0000    -0.000    -0.000    -0.000  0.0532 -0.0559  0.9970
              Bcc     0.0000     0.000     0.000     0.000  0.9381 -0.3395 -0.0691
 
              Baa    -0.0000    -0.000    -0.000    -0.000 -0.0293  0.9950 -0.0957
     8 N(14)  Bbb    -0.0000    -0.000    -0.000    -0.000  0.0829  0.0979  0.9917
              Bcc     0.0000     0.000     0.000     0.000  0.9961  0.0212 -0.0853
 
              Baa    -0.0000    -0.000    -0.000    -0.000 -0.5545  0.8064 -0.2055
     9 C(13)  Bbb    -0.0000    -0.000    -0.000    -0.000 -0.2444  0.0782  0.9665
              Bcc     0.0000     0.000     0.000     0.000  0.7955  0.5862  0.1537
 
              Baa    -0.0000    -0.000    -0.000    -0.000  0.1632 -0.1269  0.9784
    10 N(14)  Bbb    -0.0000    -0.000    -0.000    -0.000 -0.4554  0.8700  0.1888
              Bcc     0.0000     0.000     0.000     0.000  0.8752  0.4764 -0.0842
 
              Baa    -0.0000    -0.000    -0.000    -0.000 -0.2513  0.9648  0.0774
    11 C(13)  Bbb     0.0000     0.000     0.000     0.000 -0.1236 -0.1113  0.9861
              Bcc     0.0000     0.000     0.000     0.000  0.9600  0.2382  0.1473
 
              Baa    -0.0000    -0.000    -0.000    -0.000  0.9972 -0.0105  0.0734
    12 N(14)  Bbb     0.0000     0.000     0.000     0.000 -0.0728  0.0495  0.9961
              Bcc     0.0000     0.000     0.000     0.000  0.0141  0.9987 -0.0486
 
              Baa    -0.0000    -0.000    -0.000    -0.000 -0.1757  0.9834  0.0445
    13 C(13)  Bbb     0.0000     0.000     0.000     0.000  0.0323 -0.0394  0.9987
              Bcc     0.0000     0.000     0.000     0.000  0.9839  0.1769 -0.0248
 
              Baa    -0.0000    -0.000    -0.000    -0.000  0.4129  0.8723  0.2619
    14 N(14)  Bbb     0.0000     0.000     0.000     0.000 -0.4812 -0.0352  0.8759
              Bcc     0.0000     0.000     0.000     0.000  0.7732 -0.4877  0.4052
 
              Baa    -0.0000    -0.000    -0.000    -0.000  0.7254 -0.6216  0.2956
    15 C(13)  Bbb    -0.0000    -0.000    -0.000    -0.000 -0.3933 -0.0219  0.9191
              Bcc     0.0000     0.000     0.000     0.000  0.5649  0.7830  0.2604
 
              Baa    -0.0000    -0.000    -0.000    -0.000  0.2270  0.9724  0.0543
    16 N(14)  Bbb     0.0000     0.000     0.000     0.000  0.0297 -0.0627  0.9976
              Bcc     0.0000     0.000     0.000     0.000  0.9734 -0.2248 -0.0431
 
              Baa    -0.0000    -0.000    -0.000    -0.000  0.7357 -0.5636  0.3756
    17 C(13)  Bbb    -0.0000    -0.000    -0.000    -0.000  0.4687  0.8240  0.3184
              Bcc     0.0000     0.000     0.000     0.000 -0.4890 -0.0581  0.8704
 
              Baa    -0.0000    -0.000    -0.000    -0.000  0.9941  0.1065 -0.0221
    18 N(14)  Bbb     0.0000     0.000     0.000     0.000  0.0244 -0.0203  0.9995
              Bcc     0.0000     0.000     0.000     0.000 -0.1060  0.9941  0.0228
 

 ---------------------------------------------------------------------------------

 Unable to Open any file for archive entry.
 1\1\GINC-X10P1N4\SP\UwB97XD\def2SVP\C12N6(2-)\MAYUMIAO\11-Oct-2024\0\\
 # uwb97xd scrf=(smd,solvent=acetonitrile) nosymm def2svp g09default sc
 f=(xqc,maxcycle=64)\\Title Card\\-2,1\C,0,-8.93932,-0.91292,1.10763\C,
 0,-8.938442,0.459611,1.24924\C,0,-8.240403,-2.118294,0.981776\C,0,-7.0
 44572,-2.801612,0.898736\C,0,-9.639446,-2.118851,0.994147\C,0,-10.8356
 87,-2.804183,0.938203\C,0,-10.168767,1.171727,1.334741\N,0,-11.18124,1
 .733303,1.402749\C,0,-7.707158,1.171929,1.317701\N,0,-6.694132,1.73397
 2,1.372404\C,0,-5.809925,-2.094016,0.954805\N,0,-4.815065,-1.499723,1.
 001416\C,0,-7.037375,-4.218008,0.750217\N,0,-7.053421,-5.371187,0.6275
 77\C,0,-10.843017,-4.223297,0.818616\N,0,-10.826973,-5.379277,0.726129
 \C,0,-12.070213,-2.096997,1.001697\N,0,-13.064739,-1.502355,1.051021\\
 Version=ES64L-G16RevC.01\HF=-785.0304501\S2=0.\S2-1=0.\S2A=0.\RMSD=7.5
 65e-09\Dipole=-0.0012202,-0.0043828,-0.004278\Quadrupole=-395.0190485,
 155.4508364,239.5682121,-109.4765188,66.4080593,5.53659\PG=C01 [X(C12N
 6)]\\@
 The archive entry for this job was punched.


 YOU SHOULDN'T LET PEOPLE DRIVE YOU CRAZY
 WHEN YOU KNOW IT'S WITHIN WALKING DISTANCE.
 Job cpu time:       0 days  0 hours  8 minutes 33.6 seconds.
 Elapsed time:       0 days  0 hours  0 minutes 19.5 seconds.
 File lengths (MBytes):  RWF=    173 Int=      0 D2E=      0 Chk=      6 Scr=      1
 Normal termination of Gaussian 16 at Fri Oct 11 15:20:49 2024.
