 Entering Gaussian System, Link 0=g16
 Input=JOBS/0_B.gjf
 Output=JOBS/0_B.log
 Initial command:
 /data/app/gaussian/C01-avx2//g16/l1.exe "/tmp/Gau-1749005.inp" -scrdir="/tmp/"
 Entering Link 1 = /data/app/gaussian/C01-avx2//g16/l1.exe PID=   1749006.
  
 Copyright (c) 1988-2019, Gaussian, Inc.  All Rights Reserved.
  
 This is part of the Gaussian(R) 16 program.  It is based on
 the Gaussian(R) 09 system (copyright 2009, Gaussian, Inc.),
 the Gaussian(R) 03 system (copyright 2003, Gaussian, Inc.),
 the Gaussian(R) 98 system (copyright 1998, Gaussian, Inc.),
 the Gaussian(R) 94 system (copyright 1995, Gaussian, Inc.),
 the Gaussian 92(TM) system (copyright 1992, Gaussian, Inc.),
 the Gaussian 90(TM) system (copyright 1990, Gaussian, Inc.),
 the Gaussian 88(TM) system (copyright 1988, Gaussian, Inc.),
 the Gaussian 86(TM) system (copyright 1986, Carnegie Mellon
 University), and the Gaussian 82(TM) system (copyright 1983,
 Carnegie Mellon University). Gaussian is a federally registered
 trademark of Gaussian, Inc.
  
 This software contains proprietary and confidential information,
 including trade secrets, belonging to Gaussian, Inc.
  
 This software is provided under written license and may be
 used, copied, transmitted, or stored only in accord with that
 written license.
  
 The following legend is applicable only to US Government
 contracts under FAR:
  
                    RESTRICTED RIGHTS LEGEND
  
 Use, reproduction and disclosure by the US Government is
 subject to restrictions as set forth in subparagraphs (a)
 and (c) of the Commercial Computer Software - Restricted
 Rights clause in FAR 52.227-19.
  
 Gaussian, Inc.
 340 Quinnipiac St., Bldg. 40, Wallingford CT 06492
  
  
 ---------------------------------------------------------------
 Warning -- This program may not be used in any manner that
 competes with the business of Gaussian, Inc. or will provide
 assistance to any competitor of Gaussian, Inc.  The licensee
 of this program is prohibited from giving any competitor of
 Gaussian, Inc. access to this program.  By using this program,
 the user acknowledges that Gaussian, Inc. is engaged in the
 business of creating and licensing software in the field of
 computational chemistry and represents and warrants to the
 licensee that it is not a competitor of Gaussian, Inc. and that
 it will not use this program in any manner prohibited above.
 ---------------------------------------------------------------
  

 Cite this work as:
 Gaussian 16, Revision C.01,
 M. J. Frisch, G. W. Trucks, H. B. Schlegel, G. E. Scuseria, 
 M. A. Robb, J. R. Cheeseman, G. Scalmani, V. Barone, 
 G. A. Petersson, H. Nakatsuji, X. Li, M. Caricato, A. V. Marenich, 
 J. Bloino, B. G. Janesko, R. Gomperts, B. Mennucci, H. P. Hratchian, 
 J. V. Ortiz, A. F. Izmaylov, J. L. Sonnenberg, D. Williams-Young, 
 F. Ding, F. Lipparini, F. Egidi, J. Goings, B. Peng, A. Petrone, 
 T. Henderson, D. Ranasinghe, V. G. Zakrzewski, J. Gao, N. Rega, 
 G. Zheng, W. Liang, M. Hada, M. Ehara, K. Toyota, R. Fukuda, 
 J. Hasegawa, M. Ishida, T. Nakajima, Y. Honda, O. Kitao, H. Nakai, 
 T. Vreven, K. Throssell, J. A. Montgomery, Jr., J. E. Peralta, 
 F. Ogliaro, M. J. Bearpark, J. J. Heyd, E. N. Brothers, K. N. Kudin, 
 V. N. Staroverov, T. A. Keith, R. Kobayashi, J. Normand, 
 K. Raghavachari, A. P. Rendell, J. C. Burant, S. S. Iyengar, 
 J. Tomasi, M. Cossi, J. M. Millam, M. Klene, C. Adamo, R. Cammi, 
 J. W. Ochterski, R. L. Martin, K. Morokuma, O. Farkas, 
 J. B. Foresman, and D. J. Fox, Gaussian, Inc., Wallingford CT, 2019.
 
 ******************************************
 Gaussian 16:  ES64L-G16RevC.01  3-Jul-2019
                12-Jul-2024 
 ******************************************
 %chk=b.chk
 %nprocshared=28
 Will use up to   28 processors via shared memory.
 %mem=48gb
 ----------------------------------------------------------------------
 # scf=(xqc,maxcycle=64) force guess=read oniom(b3lyp/em=gd3bj/6-31g(d)
 :pm6) nosymm
 ----------------------------------------------------------------------
 1/10=7,30=1,38=1,52=2/1,3;
 2/12=2,15=1,17=6,18=5,40=1/2;
 1/10=7,30=1,38=1,52=2,53=3172/20;
 3/5=2,25=1,41=3900000,71=1,116=-2/1,2,3;
 4/5=1,35=1/1;
 5/5=2,7=64,8=3,13=1,35=1,38=6/2,8;
 6/7=2,8=2,9=2,10=2,28=1/1;
 7/7=1,30=1,33=-1/1,2,3,16;
 1/10=7,30=1,52=2,53=2032/20;
 3/5=1,6=6,7=1,11=2,25=1,30=1,71=1,74=-5,116=-2,124=41/1,2,3;
 4/5=1/1;
 5/5=2,7=64,8=3,13=1,38=6/2,8;
 6/7=2,8=2,9=2,10=2,28=1/1;
 7/7=1,30=1,33=-1/1,2,3,16;
 1/10=7,30=1,52=2,53=1022/20;
 3/5=2,25=1,41=3900000,71=1,116=-2/1,2,3;
 4/5=1,35=1/1;
 5/5=2,7=64,8=3,13=1,35=1,38=6/2,8;
 6/7=2,8=2,9=2,10=2,28=1/1;
 7/7=1,30=1,33=-1/1,2,3,16;
 1/10=7,30=1,52=2,53=3015/20;
 7/9=1,29=1,44=-1,126=2/16;
 1/10=7,30=1,52=2/3;
 99//99;
 ONIOM: restoring gridpoint  3 on chk file.
 ----------
 Title Card
 ----------
 Symbolic Z-matrix:
 Charge =  0 Multiplicity = 1 for low   level calculation on real  system.
 Charge =  0 Multiplicity = 3 for high  level calculation on model system.
 Charge =  0 Multiplicity = 3 for low   level calculation on model system.
 c                     0.54931  -0.17331  -0.17402  h 
 c                    -0.08909  -1.29021   0.42874  h 
 c                    -0.27748   0.87342  -0.65155  h 
 c                    -1.46284  -1.36014   0.52853  h 
 h                     0.52657  -2.10815   0.79886  h 
 c                     1.97131  -0.13321  -0.31593  h 
 c                    -1.65425   0.80848  -0.51642  h 
 h                     0.17111   1.73099  -1.14614  h 
 c                    -2.26259  -0.30769   0.05908  h 
 h                    -1.92926  -2.24134   0.96178  h 
 c                     2.68538   0.90857  -0.99497  h 
 h                     2.5208   -0.98813   0.08287  h 
 h                    -2.26229   1.63173  -0.88347  h 
 h                    -3.34526  -0.36885   0.12833  h 
 h                     3.64186   1.2848   -0.63859  h 
 h                     2.3719    1.2912   -1.96503  h 
 c                     4.98146   0.55628   1.98967  l 
 h                     5.26599   1.14189   1.09036  l 
 h                     3.98536   0.86571   2.36931  l 
 cl                    6.1949    0.77319   3.24899  l 
 cl                    4.93563  -1.17093   1.57143  l 
 c                     5.71919  -1.0633   -1.56272  l 
 h                     4.64378  -1.12335  -1.28984  l 
 h                     6.33858  -1.65748  -0.85991  l 
 cl                    6.25207   0.62749  -1.52623  l 
 cl                    5.95054  -1.65398  -3.21218  l 
 c                     2.11304   3.18176   1.54764  l 
 h                     1.84934   2.14057   1.2571   l 
 h                     1.36209   3.8983    1.15012  l 
 cl                    3.72047   3.59139   0.92327  l 
 cl                    2.19748   3.3151    3.31166  l 
 c                    -2.24791   0.80587   3.50105  l 
 h                    -1.89428  -0.24582   3.5434   l 
 h                    -2.21182   1.28447   4.50277  l 
 cl                   -3.90964   0.84091   2.8849   l 
 cl                   -1.24291   1.7191    2.36257  l 
 c                    -1.03936   4.54696   4.5611   l 
 h                    -0.36784   5.42042   4.67774  l 
 h                    -0.87974   4.06081   3.57521  l 
 cl                   -2.72228   5.05217   4.71734  l 
 cl                   -0.71342   3.37762   5.85956  l 
 c                     4.43361   1.06838  -4.43681  l 
 h                     3.887     0.24643  -3.92639  l 
 h                     5.53023   0.9067   -4.36946  l 
 cl                    4.02294   2.62545  -3.6872   l 
 cl                    3.93277   1.16136  -6.12941  l 
 c                    -5.42876   1.9538   -0.3843   l 
 h                    -6.32196   1.36746  -0.08871  l 
 h                    -4.65139   1.92229   0.40843  l 
 cl                   -5.89801   3.63377  -0.68151  l 
 cl                   -4.77688   1.29521  -1.89156  l 
 c                    -1.59578   0.98989  -4.09821  l 
 h                    -1.9326    1.30203  -5.10816  l 
 h                    -2.14451   1.5384   -3.30127  l 
 cl                    0.14477   1.30655  -3.93641  l 
 cl                   -1.8382   -0.7505   -3.89998  l 
 c                    -1.42304   5.8985    0.75017  l 
 h                    -1.05976   6.12803  -0.27555  l 
 h                    -2.29781   6.52793   1.01468  l 
 cl                   -0.11203   6.191     1.90838  l 
 cl                   -1.86214   4.18444   0.8786   l 
 c                     1.10663   0.33662   4.9509   l 
 h                     0.7295    1.34045   4.6598   l 
 h                     1.95512   0.42121   5.65898  l 
 cl                    1.62444  -0.54355   3.50737  l 
 cl                   -0.20037  -0.58717   5.70915  l 
 c                     1.06604  -2.16992  -3.0295   l 
 h                     0.19413  -2.76903  -3.35875  l 
 h                     0.74431  -1.16183  -2.68626  l 
 cl                    2.21534  -2.01425  -4.364    l 
 cl                    1.89566  -3.01209  -1.70712  l 
 c                     1.87271   3.9245   -5.94063  l 
 h                     2.84353   3.81401  -6.46609  l 
 h                     1.77605   3.15544  -5.14723  l 
 cl                    1.77129   5.54321  -5.21922  l 
 cl                    0.53792   3.77235  -7.08541  l 
 c                    -1.50765   4.64469  -3.67915  l 
 h                    -0.52116   4.26351  -4.01792  l 
 h                    -1.53965   5.75089  -3.76168  l 
 cl                   -2.80541   3.9354   -4.65087  l 
 cl                   -1.80492   4.1566   -1.99756  l 
 c                     2.14627   5.98186  -1.62579  l 
 h                     2.76116   5.93857  -2.54794  l 
 h                     2.77858   5.94163  -0.7157   l 
 cl                    1.18439   7.46508  -1.625    l 
 cl                    1.01249   4.6189   -1.61184  l 
 c                    -4.37694   6.88849  -1.68586  l 
 h                    -5.34936   6.94615  -2.21491  l 
 h                    -4.08541   5.82985  -1.51471  l 
 cl                   -3.13637   7.70832  -2.64619  l 
 cl                   -4.49571   7.7336   -0.13693  l 
 

 GradGradGradGradGradGradGradGradGradGradGradGradGradGradGradGradGradGrad
 Berny optimization.
 Initialization pass.
 Trust Radius=3.00D-01 FncErr=1.00D-07 GrdErr=1.00D-07 EigMax=2.50D+02 EigMin=1.00D-04
 Number of steps in this run=      2 maximum allowed number of steps=      2.
 GradGradGradGradGradGradGradGradGradGradGradGradGradGradGradGradGradGrad

 Symmetry turned off by external request.
 Stoichiometry    C23H38Cl30
 Framework group  C1[X(C23H38Cl30)]
 Deg. of freedom   267
 Full point group                 C1      NOp   1
                          Input orientation:                          
 ---------------------------------------------------------------------
 Center     Atomic      Atomic             Coordinates (Angstroms)
 Number     Number       Type             X           Y           Z
 ---------------------------------------------------------------------
      1          6           0        0.549308   -0.173311   -0.174019
      2          6           0       -0.089092   -1.290211    0.428738
      3          6           0       -0.277482    0.873423   -0.651549
      4          6           0       -1.462838   -1.360136    0.528534
      5          1           0        0.526567   -2.108149    0.798862
      6          6           0        1.971306   -0.133210   -0.315927
      7          6           0       -1.654246    0.808479   -0.516422
      8          1           0        0.171111    1.730992   -1.146143
      9          6           0       -2.262593   -0.307686    0.059079
     10          1           0       -1.929257   -2.241339    0.961781
     11          6           0        2.685384    0.908566   -0.994966
     12          1           0        2.520805   -0.988132    0.082866
     13          1           0       -2.262293    1.631730   -0.883473
     14          1           0       -3.345263   -0.368845    0.128330
     15          1           0        3.641865    1.284802   -0.638589
     16          1           0        2.371901    1.291201   -1.965033
     17          6           0        4.981456    0.556282    1.989673
     18          1           0        5.265994    1.141890    1.090361
     19          1           0        3.985360    0.865706    2.369314
     20         17           0        6.194897    0.773187    3.248987
     21         17           0        4.935634   -1.170934    1.571433
     22          6           0        5.719186   -1.063304   -1.562717
     23          1           0        4.643782   -1.123351   -1.289840
     24          1           0        6.338576   -1.657481   -0.859905
     25         17           0        6.252075    0.627490   -1.526230
     26         17           0        5.950535   -1.653981   -3.212185
     27          6           0        2.113043    3.181756    1.547636
     28          1           0        1.849338    2.140567    1.257102
     29          1           0        1.362085    3.898296    1.150119
     30         17           0        3.720470    3.591385    0.923267
     31         17           0        2.197482    3.315098    3.311660
     32          6           0       -2.247912    0.805873    3.501049
     33          1           0       -1.894277   -0.245816    3.543404
     34          1           0       -2.211822    1.284469    4.502774
     35         17           0       -3.909638    0.840905    2.884898
     36         17           0       -1.242911    1.719103    2.362574
     37          6           0       -1.039363    4.546960    4.561102
     38          1           0       -0.367837    5.420424    4.677745
     39          1           0       -0.879735    4.060815    3.575214
     40         17           0       -2.722277    5.052167    4.717339
     41         17           0       -0.713417    3.377624    5.859557
     42          6           0        4.433612    1.068378   -4.436805
     43          1           0        3.886997    0.246429   -3.926390
     44          1           0        5.530230    0.906700   -4.369465
     45         17           0        4.022936    2.625453   -3.687201
     46         17           0        3.932771    1.161363   -6.129408
     47          6           0       -5.428760    1.953797   -0.384302
     48          1           0       -6.321965    1.367464   -0.088707
     49          1           0       -4.651392    1.922290    0.408427
     50         17           0       -5.898007    3.633771   -0.681506
     51         17           0       -4.776885    1.295209   -1.891557
     52          6           0       -1.595783    0.989886   -4.098208
     53          1           0       -1.932604    1.302031   -5.108161
     54          1           0       -2.144507    1.538405   -3.301266
     55         17           0        0.144771    1.306549   -3.936414
     56         17           0       -1.838205   -0.750500   -3.899976
     57          6           0       -1.423039    5.898505    0.750166
     58          1           0       -1.059756    6.128027   -0.275545
     59          1           0       -2.297815    6.527932    1.014677
     60         17           0       -0.112032    6.190996    1.908378
     61         17           0       -1.862135    4.184439    0.878596
     62          6           0        1.106627    0.336620    4.950899
     63          1           0        0.729498    1.340454    4.659804
     64          1           0        1.955124    0.421212    5.658981
     65         17           0        1.624438   -0.543554    3.507369
     66         17           0       -0.200374   -0.587169    5.709154
     67          6           0        1.066040   -2.169920   -3.029499
     68          1           0        0.194129   -2.769025   -3.358751
     69          1           0        0.744313   -1.161832   -2.686263
     70         17           0        2.215338   -2.014250   -4.364000
     71         17           0        1.895661   -3.012088   -1.707116
     72          6           0        1.872710    3.924504   -5.940630
     73          1           0        2.843532    3.814006   -6.466090
     74          1           0        1.776052    3.155439   -5.147230
     75         17           0        1.771287    5.543214   -5.219216
     76         17           0        0.537920    3.772347   -7.085408
     77          6           0       -1.507650    4.644693   -3.679148
     78          1           0       -0.521158    4.263508   -4.017923
     79          1           0       -1.539653    5.750895   -3.761680
     80         17           0       -2.805412    3.935395   -4.650866
     81         17           0       -1.804920    4.156596   -1.997562
     82          6           0        2.146266    5.981855   -1.625793
     83          1           0        2.761163    5.938571   -2.547942
     84          1           0        2.778580    5.941634   -0.715697
     85         17           0        1.184387    7.465078   -1.624999
     86         17           0        1.012489    4.618895   -1.611844
     87          6           0       -4.376936    6.888486   -1.685863
     88          1           0       -5.349356    6.946148   -2.214907
     89          1           0       -4.085414    5.829847   -1.514706
     90         17           0       -3.136366    7.708318   -2.646188
     91         17           0       -4.495715    7.733603   -0.136935
 ---------------------------------------------------------------------
 Rotational constants (GHZ):           0.0226347           0.0200811           0.0153619
 ONIOM: saving gridpoint 17
 ONIOM: restoring gridpoint  3 on chk file.
 ONIOM: generating point  3 -- low level on real system.
 Standard basis: VSTO-6G (5D, 7F)
   400 basis functions,  2580 primitive gaussians,   430 cartesian basis functions
   170 alpha electrons      170 beta electrons
       nuclear repulsion energy      5302.0258776564 Hartrees.
 Integral buffers will be    131072 words long.
 Regular integral format.
 Two-electron integral symmetry is turned off.
 Do NDO integrals.
 One-electron integrals computed using PRISM.
 NBasis=   400 RedAO= F EigKep=  0.00D+00  NBF=   400
 NBsUse=   400 1.00D-04 EigRej=  0.00D+00 NBFU=   400
 Initial guess from the checkpoint file:  "b.chk"
 B after Tr=     0.000000    0.000000    0.000000
         Rot=    1.000000    0.000000    0.000000    0.000000 Ang=   0.00 deg.
 Initial guess <Sx>= 0.0000 <Sy>= 0.0000 <Sz>= 0.0000 <S**2>=-0.0000 S=-0.0000
 Keep J ints in memory in canonical form, NReq=3161508.
 Overlap will be assumed to be unity.
 Requested convergence on RMS density matrix=1.00D-08 within  64 cycles.
 Requested convergence on MAX density matrix=1.00D-06.
 Requested convergence on             energy=1.00D-06.
 No special actions if energy rises.
 SCF Done:  E(UPM6) = -0.403628169883     A.U. after    2 cycles
            NFock=  1  Conv=0.84D-08     -V/T= 0.9994
 <Sx>= 0.0000 <Sy>= 0.0000 <Sz>= 0.0000 <S**2>=-0.0000 S=-0.0000
 <L.S>=  0.00000000000    
 Annihilation of the first spin contaminant:
 S**2 before annihilation    -0.0000,   after     0.0000
 QCSCF skips out because SCF is already converged.

 **********************************************************************

            Population analysis using the SCF Density.

 **********************************************************************

 Alpha  occ. eigenvalues --   -1.11134  -1.05540  -1.05278  -1.05221  -1.05181
 Alpha  occ. eigenvalues --   -1.05135  -1.05079  -1.04940  -1.04869  -1.04815
 Alpha  occ. eigenvalues --   -1.04745  -1.04636  -1.04487  -1.04448  -1.04306
 Alpha  occ. eigenvalues --   -1.04135  -1.01658  -0.98508  -0.98235  -0.98143
 Alpha  occ. eigenvalues --   -0.98090  -0.98084  -0.97974  -0.97888  -0.97866
 Alpha  occ. eigenvalues --   -0.97754  -0.97724  -0.97636  -0.97425  -0.97336
 Alpha  occ. eigenvalues --   -0.97218  -0.97174  -0.96994  -0.92344  -0.88701
 Alpha  occ. eigenvalues --   -0.88633  -0.88574  -0.88406  -0.88339  -0.88250
 Alpha  occ. eigenvalues --   -0.88179  -0.88119  -0.88065  -0.87980  -0.87878
 Alpha  occ. eigenvalues --   -0.87658  -0.87574  -0.87470  -0.87234  -0.82526
 Alpha  occ. eigenvalues --   -0.79179  -0.72915  -0.65352  -0.62673  -0.62311
 Alpha  occ. eigenvalues --   -0.62119  -0.61873  -0.61709  -0.61553  -0.61480
 Alpha  occ. eigenvalues --   -0.61309  -0.61248  -0.61138  -0.61055  -0.60916
 Alpha  occ. eigenvalues --   -0.60339  -0.60275  -0.60104  -0.60004  -0.59945
 Alpha  occ. eigenvalues --   -0.59736  -0.59574  -0.59503  -0.59417  -0.59295
 Alpha  occ. eigenvalues --   -0.59249  -0.59165  -0.59094  -0.58952  -0.58873
 Alpha  occ. eigenvalues --   -0.58717  -0.58575  -0.58475  -0.58446  -0.58317
 Alpha  occ. eigenvalues --   -0.58186  -0.57994  -0.57791  -0.57721  -0.57686
 Alpha  occ. eigenvalues --   -0.57638  -0.57576  -0.57528  -0.57483  -0.57313
 Alpha  occ. eigenvalues --   -0.57230  -0.57112  -0.57013  -0.56883  -0.56820
 Alpha  occ. eigenvalues --   -0.55053  -0.53312  -0.52219  -0.51092  -0.49549
 Alpha  occ. eigenvalues --   -0.46108  -0.45410  -0.44962  -0.44758  -0.44212
 Alpha  occ. eigenvalues --   -0.44155  -0.44052  -0.44018  -0.43916  -0.43792
 Alpha  occ. eigenvalues --   -0.43732  -0.43654  -0.43638  -0.43490  -0.43445
 Alpha  occ. eigenvalues --   -0.43398  -0.43382  -0.43359  -0.43334  -0.43263
 Alpha  occ. eigenvalues --   -0.43185  -0.43140  -0.43108  -0.43026  -0.42947
 Alpha  occ. eigenvalues --   -0.42865  -0.42854  -0.42772  -0.42760  -0.42630
 Alpha  occ. eigenvalues --   -0.42585  -0.42487  -0.42319  -0.42227  -0.42039
 Alpha  occ. eigenvalues --   -0.41961  -0.41899  -0.41831  -0.41785  -0.41762
 Alpha  occ. eigenvalues --   -0.41727  -0.41630  -0.41607  -0.41558  -0.41442
 Alpha  occ. eigenvalues --   -0.41327  -0.41274  -0.41252  -0.41238  -0.41197
 Alpha  occ. eigenvalues --   -0.41112  -0.41093  -0.41056  -0.40982  -0.40870
 Alpha  occ. eigenvalues --   -0.40805  -0.40795  -0.40589  -0.40576  -0.40433
 Alpha  occ. eigenvalues --   -0.40345  -0.40296  -0.39573  -0.36885  -0.32835
 Alpha virt. eigenvalues --   -0.03579  -0.01116  -0.00862  -0.00829  -0.00776
 Alpha virt. eigenvalues --   -0.00637  -0.00591  -0.00526  -0.00514  -0.00486
 Alpha virt. eigenvalues --   -0.00440  -0.00421  -0.00362  -0.00335  -0.00262
 Alpha virt. eigenvalues --   -0.00255  -0.00215  -0.00201  -0.00192  -0.00182
 Alpha virt. eigenvalues --   -0.00156  -0.00145  -0.00091  -0.00029   0.00088
 Alpha virt. eigenvalues --    0.00369   0.00378   0.00433   0.00466   0.00480
 Alpha virt. eigenvalues --    0.00646   0.00666   0.02682   0.08990   0.14279
 Alpha virt. eigenvalues --    0.14321   0.14552   0.14680   0.14710   0.14863
 Alpha virt. eigenvalues --    0.14868   0.14890   0.15002   0.15080   0.15095
 Alpha virt. eigenvalues --    0.15134   0.15149   0.15215   0.15311   0.15362
 Alpha virt. eigenvalues --    0.15450   0.15489   0.15567   0.15633   0.15648
 Alpha virt. eigenvalues --    0.15748   0.15759   0.15845   0.15959   0.15974
 Alpha virt. eigenvalues --    0.16015   0.16021   0.16076   0.16421   0.16425
 Alpha virt. eigenvalues --    0.16478   0.16689   0.17086   0.17315   0.18048
 Alpha virt. eigenvalues --    0.18655   0.19375   0.19855   0.20484   0.21156
 Alpha virt. eigenvalues --    0.21380   0.21664   0.21900   0.22235   0.22388
 Alpha virt. eigenvalues --    3.16276   3.16756   3.17383   3.17911   3.18153
 Alpha virt. eigenvalues --    3.18412   3.18640   3.18691   3.18941   3.19076
 Alpha virt. eigenvalues --    3.19132   3.19290   3.19337   3.19562   3.19631
 Alpha virt. eigenvalues --    3.19686   3.19697   3.19825   3.19917   3.19974
 Alpha virt. eigenvalues --    3.20039   3.20209   3.20261   3.20308   3.20457
 Alpha virt. eigenvalues --    3.20504   3.20546   3.20592   3.20657   3.20677
 Alpha virt. eigenvalues --    3.20765   3.20822   3.20908   3.20997   3.21017
 Alpha virt. eigenvalues --    3.21050   3.21131   3.21183   3.21245   3.21273
 Alpha virt. eigenvalues --    3.21455   3.21476   3.21579   3.21723   3.21883
 Alpha virt. eigenvalues --    3.21976   3.22063   3.22123   3.22221   3.22378
 Alpha virt. eigenvalues --    3.22419   3.22530   3.22549   3.22654   3.22752
 Alpha virt. eigenvalues --    3.22831   3.22994   3.23041   3.23177   3.23199
 Alpha virt. eigenvalues --    3.23258   3.23361   3.23403   3.23464   3.23505
 Alpha virt. eigenvalues --    3.23549   3.23607   3.23713   3.23777   3.23792
 Alpha virt. eigenvalues --    3.23839   3.24011   3.24021   3.24028   3.24133
 Alpha virt. eigenvalues --    3.24139   3.24152   3.24285   3.24353   3.24362
 Alpha virt. eigenvalues --    3.24426   3.24525   3.24532   3.24570   3.24664
 Alpha virt. eigenvalues --    3.24713   3.24763   3.24853   3.24877   3.24997
 Alpha virt. eigenvalues --    3.25004   3.25065   3.25085   3.25130   3.25150
 Alpha virt. eigenvalues --    3.25189   3.25324   3.25439   3.25506   3.25544
 Alpha virt. eigenvalues --    3.25588   3.25707   3.25768   3.25809   3.25872
 Alpha virt. eigenvalues --    3.25919   3.25948   3.26020   3.26148   3.26239
 Alpha virt. eigenvalues --    3.26366   3.26385   3.26429   3.26535   3.26782
 Alpha virt. eigenvalues --    3.26838   3.26902   3.27064   3.27092   3.27185
 Alpha virt. eigenvalues --    3.27301   3.27369   3.27421   3.27426   3.27513
 Alpha virt. eigenvalues --    3.27574   3.27680   3.27758   3.27793   3.27865
 Alpha virt. eigenvalues --    3.27915   3.27972   3.28173   3.28181   3.28258
 Alpha virt. eigenvalues --    3.28293   3.28417   3.28462   3.28581   3.28649
 Alpha virt. eigenvalues --    3.28702   3.28729   3.28757   3.28854   3.29016
 Alpha virt. eigenvalues --    3.29168   3.29342   3.29443   3.29775   3.29981
  Beta  occ. eigenvalues --   -1.11134  -1.05540  -1.05278  -1.05221  -1.05181
  Beta  occ. eigenvalues --   -1.05135  -1.05079  -1.04940  -1.04869  -1.04815
  Beta  occ. eigenvalues --   -1.04745  -1.04636  -1.04487  -1.04448  -1.04306
  Beta  occ. eigenvalues --   -1.04135  -1.01658  -0.98508  -0.98235  -0.98143
  Beta  occ. eigenvalues --   -0.98090  -0.98084  -0.97974  -0.97888  -0.97866
  Beta  occ. eigenvalues --   -0.97754  -0.97724  -0.97636  -0.97425  -0.97336
  Beta  occ. eigenvalues --   -0.97218  -0.97174  -0.96994  -0.92344  -0.88701
  Beta  occ. eigenvalues --   -0.88633  -0.88574  -0.88406  -0.88339  -0.88250
  Beta  occ. eigenvalues --   -0.88179  -0.88119  -0.88065  -0.87980  -0.87878
  Beta  occ. eigenvalues --   -0.87658  -0.87574  -0.87470  -0.87234  -0.82526
  Beta  occ. eigenvalues --   -0.79179  -0.72915  -0.65352  -0.62673  -0.62311
  Beta  occ. eigenvalues --   -0.62119  -0.61873  -0.61709  -0.61553  -0.61480
  Beta  occ. eigenvalues --   -0.61309  -0.61248  -0.61138  -0.61055  -0.60916
  Beta  occ. eigenvalues --   -0.60339  -0.60275  -0.60104  -0.60004  -0.59945
  Beta  occ. eigenvalues --   -0.59736  -0.59574  -0.59503  -0.59417  -0.59295
  Beta  occ. eigenvalues --   -0.59249  -0.59165  -0.59094  -0.58952  -0.58873
  Beta  occ. eigenvalues --   -0.58717  -0.58575  -0.58475  -0.58446  -0.58317
  Beta  occ. eigenvalues --   -0.58186  -0.57994  -0.57791  -0.57721  -0.57686
  Beta  occ. eigenvalues --   -0.57638  -0.57576  -0.57528  -0.57483  -0.57313
  Beta  occ. eigenvalues --   -0.57230  -0.57112  -0.57013  -0.56883  -0.56820
  Beta  occ. eigenvalues --   -0.55053  -0.53312  -0.52219  -0.51092  -0.49549
  Beta  occ. eigenvalues --   -0.46108  -0.45410  -0.44962  -0.44758  -0.44212
  Beta  occ. eigenvalues --   -0.44155  -0.44052  -0.44018  -0.43916  -0.43792
  Beta  occ. eigenvalues --   -0.43732  -0.43654  -0.43638  -0.43490  -0.43445
  Beta  occ. eigenvalues --   -0.43398  -0.43382  -0.43359  -0.43334  -0.43263
  Beta  occ. eigenvalues --   -0.43185  -0.43140  -0.43108  -0.43026  -0.42947
  Beta  occ. eigenvalues --   -0.42865  -0.42854  -0.42772  -0.42760  -0.42630
  Beta  occ. eigenvalues --   -0.42585  -0.42487  -0.42319  -0.42227  -0.42039
  Beta  occ. eigenvalues --   -0.41961  -0.41899  -0.41831  -0.41785  -0.41762
  Beta  occ. eigenvalues --   -0.41727  -0.41630  -0.41607  -0.41558  -0.41442
  Beta  occ. eigenvalues --   -0.41327  -0.41274  -0.41252  -0.41238  -0.41197
  Beta  occ. eigenvalues --   -0.41112  -0.41093  -0.41056  -0.40982  -0.40870
  Beta  occ. eigenvalues --   -0.40805  -0.40795  -0.40589  -0.40576  -0.40433
  Beta  occ. eigenvalues --   -0.40345  -0.40296  -0.39573  -0.36885  -0.32835
  Beta virt. eigenvalues --   -0.03579  -0.01116  -0.00862  -0.00829  -0.00776
  Beta virt. eigenvalues --   -0.00637  -0.00591  -0.00526  -0.00514  -0.00486
  Beta virt. eigenvalues --   -0.00440  -0.00421  -0.00362  -0.00335  -0.00262
  Beta virt. eigenvalues --   -0.00255  -0.00215  -0.00201  -0.00192  -0.00182
  Beta virt. eigenvalues --   -0.00156  -0.00145  -0.00091  -0.00029   0.00088
  Beta virt. eigenvalues --    0.00369   0.00378   0.00433   0.00466   0.00480
  Beta virt. eigenvalues --    0.00646   0.00666   0.02682   0.08990   0.14279
  Beta virt. eigenvalues --    0.14321   0.14552   0.14680   0.14710   0.14863
  Beta virt. eigenvalues --    0.14868   0.14890   0.15002   0.15080   0.15095
  Beta virt. eigenvalues --    0.15134   0.15149   0.15215   0.15311   0.15362
  Beta virt. eigenvalues --    0.15450   0.15489   0.15567   0.15633   0.15648
  Beta virt. eigenvalues --    0.15748   0.15759   0.15845   0.15959   0.15974
  Beta virt. eigenvalues --    0.16015   0.16021   0.16076   0.16421   0.16425
  Beta virt. eigenvalues --    0.16478   0.16689   0.17086   0.17315   0.18048
  Beta virt. eigenvalues --    0.18655   0.19375   0.19855   0.20484   0.21156
  Beta virt. eigenvalues --    0.21380   0.21664   0.21900   0.22235   0.22388
  Beta virt. eigenvalues --    3.16276   3.16756   3.17383   3.17911   3.18153
  Beta virt. eigenvalues --    3.18412   3.18640   3.18691   3.18941   3.19076
  Beta virt. eigenvalues --    3.19132   3.19290   3.19337   3.19562   3.19631
  Beta virt. eigenvalues --    3.19686   3.19697   3.19825   3.19917   3.19974
  Beta virt. eigenvalues --    3.20039   3.20209   3.20261   3.20308   3.20457
  Beta virt. eigenvalues --    3.20504   3.20546   3.20592   3.20657   3.20677
  Beta virt. eigenvalues --    3.20765   3.20822   3.20908   3.20997   3.21017
  Beta virt. eigenvalues --    3.21050   3.21131   3.21183   3.21245   3.21273
  Beta virt. eigenvalues --    3.21455   3.21476   3.21579   3.21723   3.21883
  Beta virt. eigenvalues --    3.21976   3.22063   3.22123   3.22221   3.22378
  Beta virt. eigenvalues --    3.22419   3.22530   3.22549   3.22654   3.22752
  Beta virt. eigenvalues --    3.22831   3.22994   3.23041   3.23177   3.23199
  Beta virt. eigenvalues --    3.23258   3.23361   3.23403   3.23464   3.23505
  Beta virt. eigenvalues --    3.23549   3.23607   3.23713   3.23777   3.23792
  Beta virt. eigenvalues --    3.23839   3.24011   3.24021   3.24028   3.24133
  Beta virt. eigenvalues --    3.24139   3.24152   3.24285   3.24353   3.24362
  Beta virt. eigenvalues --    3.24426   3.24525   3.24532   3.24570   3.24664
  Beta virt. eigenvalues --    3.24713   3.24763   3.24853   3.24877   3.24997
  Beta virt. eigenvalues --    3.25004   3.25065   3.25085   3.25130   3.25150
  Beta virt. eigenvalues --    3.25189   3.25324   3.25439   3.25506   3.25544
  Beta virt. eigenvalues --    3.25588   3.25707   3.25768   3.25809   3.25872
  Beta virt. eigenvalues --    3.25919   3.25948   3.26020   3.26148   3.26239
  Beta virt. eigenvalues --    3.26366   3.26385   3.26429   3.26535   3.26782
  Beta virt. eigenvalues --    3.26838   3.26902   3.27064   3.27092   3.27185
  Beta virt. eigenvalues --    3.27301   3.27369   3.27421   3.27426   3.27513
  Beta virt. eigenvalues --    3.27574   3.27680   3.27758   3.27793   3.27865
  Beta virt. eigenvalues --    3.27915   3.27972   3.28173   3.28181   3.28258
  Beta virt. eigenvalues --    3.28293   3.28417   3.28462   3.28581   3.28649
  Beta virt. eigenvalues --    3.28702   3.28729   3.28757   3.28854   3.29016
  Beta virt. eigenvalues --    3.29168   3.29342   3.29443   3.29775   3.29981
          Condensed to atoms (all electrons):
          Atomic-Atomic Spin Densities.
 Mulliken charges and spin densities:
               1          2
     1  C   -0.015131   0.000000
     2  C   -0.140413   0.000000
     3  C   -0.149511   0.000000
     4  C   -0.157876   0.000000
     5  H    0.152860   0.000000
     6  C   -0.125278   0.000000
     7  C   -0.152842   0.000000
     8  H    0.155477   0.000000
     9  C   -0.116437   0.000000
    10  H    0.149066   0.000000
    11  C   -0.370351   0.000000
    12  H    0.155650   0.000000
    13  H    0.151098   0.000000
    14  H    0.145466   0.000000
    15  H    0.156068   0.000000
    16  H    0.164209   0.000000
    17  C   -0.139273   0.000000
    18  H    0.187838   0.000000
    19  H    0.186591   0.000000
    20  Cl  -0.094756   0.000000
    21  Cl  -0.140919   0.000000
    22  C   -0.145359   0.000000
    23  H    0.192764   0.000000
    24  H    0.191908   0.000000
    25  Cl  -0.127227   0.000000
    26  Cl  -0.111069   0.000000
    27  C   -0.142995   0.000000
    28  H    0.198779   0.000000
    29  H    0.196578   0.000000
    30  Cl  -0.126485   0.000000
    31  Cl  -0.126966   0.000000
    32  C   -0.126312   0.000000
    33  H    0.192446   0.000000
    34  H    0.191864   0.000000
    35  Cl  -0.132677   0.000000
    36  Cl  -0.123724   0.000000
    37  C   -0.136815   0.000000
    38  H    0.184686   0.000000
    39  H    0.194856   0.000000
    40  Cl  -0.101481   0.000000
    41  Cl  -0.142950   0.000000
    42  C   -0.133307   0.000000
    43  H    0.194063   0.000000
    44  H    0.195132   0.000000
    45  Cl  -0.140855   0.000000
    46  Cl  -0.114873   0.000000
    47  C   -0.141629   0.000000
    48  H    0.182916   0.000000
    49  H    0.191776   0.000000
    50  Cl  -0.117174   0.000000
    51  Cl  -0.115455   0.000000
    52  C   -0.125856   0.000000
    53  H    0.190437   0.000000
    54  H    0.195730   0.000000
    55  Cl  -0.141845   0.000000
    56  Cl  -0.118373   0.000000
    57  C   -0.138366   0.000000
    58  H    0.199610   0.000000
    59  H    0.193393   0.000000
    60  Cl  -0.134995   0.000000
    61  Cl  -0.112126   0.000000
    62  C   -0.144852   0.000000
    63  H    0.192166   0.000000
    64  H    0.186017   0.000000
    65  Cl  -0.112462   0.000000
    66  Cl  -0.121697   0.000000
    67  C   -0.132768   0.000000
    68  H    0.184105   0.000000
    69  H    0.198692   0.000000
    70  Cl  -0.117154   0.000000
    71  Cl  -0.133508   0.000000
    72  C   -0.139104   0.000000
    73  H    0.191369   0.000000
    74  H    0.189920   0.000000
    75  Cl  -0.137197   0.000000
    76  Cl  -0.106194   0.000000
    77  C   -0.143500   0.000000
    78  H    0.193244   0.000000
    79  H    0.193639   0.000000
    80  Cl  -0.123090   0.000000
    81  Cl  -0.123202   0.000000
    82  C   -0.145930   0.000000
    83  H    0.188814   0.000000
    84  H    0.188181   0.000000
    85  Cl  -0.108127   0.000000
    86  Cl  -0.128323   0.000000
    87  C   -0.148890   0.000000
    88  H    0.186113   0.000000
    89  H    0.193253   0.000000
    90  Cl  -0.117073   0.000000
    91  Cl  -0.112002   0.000000
 Sum of Mulliken charges =  -0.00000   0.00000
 Mulliken charges and spin densities with hydrogens summed into heavy atoms:
               1          2
     1  C   -0.015131   0.000000
     2  C    0.012447   0.000000
     3  C    0.005966   0.000000
     4  C   -0.008810   0.000000
     6  C    0.030373   0.000000
     7  C   -0.001743   0.000000
     9  C    0.029030   0.000000
    11  C   -0.050073   0.000000
    17  C    0.235157   0.000000
    20  Cl  -0.094756   0.000000
    21  Cl  -0.140919   0.000000
    22  C    0.239313   0.000000
    25  Cl  -0.127227   0.000000
    26  Cl  -0.111069   0.000000
    27  C    0.252361   0.000000
    30  Cl  -0.126485   0.000000
    31  Cl  -0.126966   0.000000
    32  C    0.257998   0.000000
    35  Cl  -0.132677   0.000000
    36  Cl  -0.123724   0.000000
    37  C    0.242727   0.000000
    40  Cl  -0.101481   0.000000
    41  Cl  -0.142950   0.000000
    42  C    0.255887   0.000000
    45  Cl  -0.140855   0.000000
    46  Cl  -0.114873   0.000000
    47  C    0.233062   0.000000
    50  Cl  -0.117174   0.000000
    51  Cl  -0.115455   0.000000
    52  C    0.260311   0.000000
    55  Cl  -0.141845   0.000000
    56  Cl  -0.118373   0.000000
    57  C    0.254637   0.000000
    60  Cl  -0.134995   0.000000
    61  Cl  -0.112126   0.000000
    62  C    0.233331   0.000000
    65  Cl  -0.112462   0.000000
    66  Cl  -0.121697   0.000000
    67  C    0.250029   0.000000
    70  Cl  -0.117154   0.000000
    71  Cl  -0.133508   0.000000
    72  C    0.242185   0.000000
    75  Cl  -0.137197   0.000000
    76  Cl  -0.106194   0.000000
    77  C    0.243383   0.000000
    80  Cl  -0.123090   0.000000
    81  Cl  -0.123202   0.000000
    82  C    0.231065   0.000000
    85  Cl  -0.108127   0.000000
    86  Cl  -0.128323   0.000000
    87  C    0.230476   0.000000
    90  Cl  -0.117073   0.000000
    91  Cl  -0.112002   0.000000
 Charge=             -0.0000 electrons
 Dipole moment (field-independent basis, Debye):
    X=             -0.9180    Y=             -0.2957    Z=              0.3504  Tot=              1.0261
 N-N= 5.302025877656D+03 E-N=-9.749314344280D+03  KE=-6.384560870459D+02
 Calling FoFJK, ICntrl=      2127 FMM=F ISym2X=0 I1Cent= 0 IOpClX= 1 NMat=1 NMatS=1 NMatT=0.
 Cartesian Forces:  Max     0.065732690 RMS     0.008326404
 SvSCFP is copying densities from files   528 and   530 to   603.
 ONIOM: saving gridpoint  3
 ONIOM: restoring gridpoint 17
 ONIOM: restoring gridpoint  2 on chk file.
 ONIOM: generating point  2 -- high level on model system.
 Standard basis: 6-31G(d) (6D, 7F)
   136 basis functions,   256 primitive gaussians,   136 cartesian basis functions
    29 alpha electrons       27 beta electrons
       nuclear repulsion energy       318.9767841159 Hartrees.
 NAtoms=   91 NActive=   16 NUniq=   16 SFac= 1.00D+00 NAtFMM=   60 NAOKFM=F Big=F
 Integral buffers will be    131072 words long.
 Raffenetti 2 integral format.
 Two-electron integral symmetry is turned off.
 Nuclear repulsion after empirical dispersion term =      318.9491990027 Hartrees.
 One-electron integrals computed using PRISM.
 NBasis=   136 RedAO= T EigKep=  4.72D-04  NBF=   136
 NBsUse=   136 1.00D-06 EigRej= -1.00D+00 NBFU=   136
 Initial guess from the checkpoint file:  "b.chk"
 B after Tr=     0.000000    0.000000    0.000000
         Rot=    1.000000    0.000000    0.000000    0.000000 Ang=   0.00 deg.
 Initial guess <Sx>= 0.0000 <Sy>= 0.0000 <Sz>= 1.0000 <S**2>= 2.0290 S= 1.0096
 Requested convergence on RMS density matrix=1.00D-08 within  64 cycles.
 Requested convergence on MAX density matrix=1.00D-06.
 Requested convergence on             energy=1.00D-06.
 No special actions if energy rises.
 SCF Done:  E(UB3LYP) =  -309.578696199     A.U. after    1 cycles
            NFock=  1  Conv=0.49D-08     -V/T= 2.0096
 <Sx>= 0.0000 <Sy>= 0.0000 <Sz>= 1.0000 <S**2>= 2.0290 S= 1.0096
 <L.S>=  0.00000000000    
 Annihilation of the first spin contaminant:
 S**2 before annihilation     2.0290,   after     2.0004
 QCSCF skips out because SCF is already converged.

 **********************************************************************

            Population analysis using the SCF Density.

 **********************************************************************

 Alpha  occ. eigenvalues --  -10.19813 -10.19705 -10.19546 -10.18867 -10.18802
 Alpha  occ. eigenvalues --  -10.18640 -10.18590 -10.18550  -0.85655  -0.79065
 Alpha  occ. eigenvalues --   -0.74470  -0.72245  -0.63242  -0.60030  -0.56332
 Alpha  occ. eigenvalues --   -0.50989  -0.46878  -0.45317  -0.43528  -0.41780
 Alpha  occ. eigenvalues --   -0.40837  -0.39773  -0.37040  -0.34941  -0.33520
 Alpha  occ. eigenvalues --   -0.29773  -0.25522  -0.23532  -0.14011
 Alpha virt. eigenvalues --    0.00228   0.02688   0.09767   0.11863   0.12713
 Alpha virt. eigenvalues --    0.15839   0.16072   0.16883   0.18207   0.19767
 Alpha virt. eigenvalues --    0.21088   0.26470   0.27814   0.30834   0.33596
 Alpha virt. eigenvalues --    0.36004   0.37302   0.45810   0.51342   0.52503
 Alpha virt. eigenvalues --    0.53779   0.54794   0.55235   0.57116   0.57991
 Alpha virt. eigenvalues --    0.58581   0.59705   0.60294   0.62017   0.62138
 Alpha virt. eigenvalues --    0.63302   0.64367   0.65306   0.68064   0.71638
 Alpha virt. eigenvalues --    0.77197   0.82492   0.83574   0.83967   0.84390
 Alpha virt. eigenvalues --    0.85524   0.88636   0.90607   0.92358   0.92904
 Alpha virt. eigenvalues --    0.93678   0.95351   0.98840   1.01566   1.04083
 Alpha virt. eigenvalues --    1.08640   1.14289   1.16586   1.18285   1.25830
 Alpha virt. eigenvalues --    1.28637   1.33604   1.38336   1.43304   1.45069
 Alpha virt. eigenvalues --    1.45431   1.48305   1.49642   1.51320   1.60615
 Alpha virt. eigenvalues --    1.70917   1.77031   1.80002   1.85193   1.87486
 Alpha virt. eigenvalues --    1.88760   1.91393   1.94213   1.96865   1.98021
 Alpha virt. eigenvalues --    2.04481   2.08089   2.10710   2.14397   2.14777
 Alpha virt. eigenvalues --    2.17843   2.21924   2.26589   2.31948   2.32233
 Alpha virt. eigenvalues --    2.34597   2.47196   2.51069   2.56724   2.59496
 Alpha virt. eigenvalues --    2.61965   2.65791   2.73963   2.75568   2.77040
 Alpha virt. eigenvalues --    2.85954   2.91949   3.13652   3.41728   4.06542
 Alpha virt. eigenvalues --    4.09475   4.12298   4.13309   4.24198   4.32920
 Alpha virt. eigenvalues --    4.42233   4.71025
  Beta  occ. eigenvalues --  -10.19633 -10.18954 -10.18757 -10.18739 -10.18476
  Beta  occ. eigenvalues --  -10.18443 -10.18400 -10.18265  -0.85056  -0.77221
  Beta  occ. eigenvalues --   -0.74105  -0.69922  -0.61509  -0.59666  -0.55154
  Beta  occ. eigenvalues --   -0.50394  -0.46208  -0.44839  -0.42715  -0.41632
  Beta  occ. eigenvalues --   -0.39810  -0.38434  -0.35792  -0.34489  -0.33275
  Beta  occ. eigenvalues --   -0.26146  -0.24515
  Beta virt. eigenvalues --   -0.11501  -0.02285   0.01140   0.06003   0.10043
  Beta virt. eigenvalues --    0.12575   0.13775   0.16334   0.16511   0.18118
  Beta virt. eigenvalues --    0.18717   0.20395   0.22000   0.27314   0.28773
  Beta virt. eigenvalues --    0.30910   0.33968   0.36866   0.37941   0.46235
  Beta virt. eigenvalues --    0.52720   0.53227   0.54835   0.55290   0.57690
  Beta virt. eigenvalues --    0.58177   0.59251   0.59726   0.60078   0.62010
  Beta virt. eigenvalues --    0.62469   0.63795   0.64201   0.65881   0.67194
  Beta virt. eigenvalues --    0.69777   0.72996   0.77668   0.83113   0.83953
  Beta virt. eigenvalues --    0.84253   0.85185   0.85769   0.89400   0.90987
  Beta virt. eigenvalues --    0.93335   0.93599   0.95009   0.95844   0.99899
  Beta virt. eigenvalues --    1.01929   1.05366   1.09273   1.14928   1.16997
  Beta virt. eigenvalues --    1.18775   1.26466   1.29702   1.35066   1.39707
  Beta virt. eigenvalues --    1.43745   1.45854   1.45914   1.49068   1.50563
  Beta virt. eigenvalues --    1.51772   1.65183   1.74110   1.78649   1.80400
  Beta virt. eigenvalues --    1.87641   1.89161   1.90420   1.92675   1.96153
  Beta virt. eigenvalues --    1.97711   1.99314   2.05383   2.12216   2.12373
  Beta virt. eigenvalues --    2.15161   2.15436   2.18539   2.23103   2.27737
  Beta virt. eigenvalues --    2.32778   2.34083   2.36610   2.49091   2.52720
  Beta virt. eigenvalues --    2.57893   2.59947   2.63443   2.66586   2.74419
  Beta virt. eigenvalues --    2.75792   2.77402   2.86355   2.92593   3.14064
  Beta virt. eigenvalues --    3.41936   4.08078   4.10208   4.12564   4.14938
  Beta virt. eigenvalues --    4.26266   4.33185   4.43153   4.71506
          Condensed to atoms (all electrons):
          Atomic-Atomic Spin Densities.
 Mulliken charges and spin densities:
               1          2
     1  C    0.192041  -0.102549
     2  C   -0.184307   0.237329
     3  C   -0.185261   0.276493
     4  C   -0.128888  -0.127713
     5  H    0.125553  -0.010596
     6  C   -0.174782   0.619220
     7  C   -0.125932  -0.144109
     8  H    0.126284  -0.010880
     9  C   -0.133864   0.317325
    10  H    0.128964   0.004787
    11  C   -0.343129   1.017531
    12  H    0.135821  -0.006668
    13  H    0.128338   0.005480
    14  H    0.128904  -0.015350
    15  H    0.154353  -0.034694
    16  H    0.155904  -0.025606
    17  C    0.000000   0.000000
    18  H    0.000000   0.000000
    19  H    0.000000   0.000000
    20  Cl   0.000000   0.000000
    21  Cl   0.000000   0.000000
    22  C    0.000000   0.000000
    23  H    0.000000   0.000000
    24  H    0.000000   0.000000
    25  Cl   0.000000   0.000000
    26  Cl   0.000000   0.000000
    27  C    0.000000   0.000000
    28  H    0.000000   0.000000
    29  H    0.000000   0.000000
    30  Cl   0.000000   0.000000
    31  Cl   0.000000   0.000000
    32  C    0.000000   0.000000
    33  H    0.000000   0.000000
    34  H    0.000000   0.000000
    35  Cl   0.000000   0.000000
    36  Cl   0.000000   0.000000
    37  C    0.000000   0.000000
    38  H    0.000000   0.000000
    39  H    0.000000   0.000000
    40  Cl   0.000000   0.000000
    41  Cl   0.000000   0.000000
    42  C    0.000000   0.000000
    43  H    0.000000   0.000000
    44  H    0.000000   0.000000
    45  Cl   0.000000   0.000000
    46  Cl   0.000000   0.000000
    47  C    0.000000   0.000000
    48  H    0.000000   0.000000
    49  H    0.000000   0.000000
    50  Cl   0.000000   0.000000
    51  Cl   0.000000   0.000000
    52  C    0.000000   0.000000
    53  H    0.000000   0.000000
    54  H    0.000000   0.000000
    55  Cl   0.000000   0.000000
    56  Cl   0.000000   0.000000
    57  C    0.000000   0.000000
    58  H    0.000000   0.000000
    59  H    0.000000   0.000000
    60  Cl   0.000000   0.000000
    61  Cl   0.000000   0.000000
    62  C    0.000000   0.000000
    63  H    0.000000   0.000000
    64  H    0.000000   0.000000
    65  Cl   0.000000   0.000000
    66  Cl   0.000000   0.000000
    67  C    0.000000   0.000000
    68  H    0.000000   0.000000
    69  H    0.000000   0.000000
    70  Cl   0.000000   0.000000
    71  Cl   0.000000   0.000000
    72  C    0.000000   0.000000
    73  H    0.000000   0.000000
    74  H    0.000000   0.000000
    75  Cl   0.000000   0.000000
    76  Cl   0.000000   0.000000
    77  C    0.000000   0.000000
    78  H    0.000000   0.000000
    79  H    0.000000   0.000000
    80  Cl   0.000000   0.000000
    81  Cl   0.000000   0.000000
    82  C    0.000000   0.000000
    83  H    0.000000   0.000000
    84  H    0.000000   0.000000
    85  Cl   0.000000   0.000000
    86  Cl   0.000000   0.000000
    87  C    0.000000   0.000000
    88  H    0.000000   0.000000
    89  H    0.000000   0.000000
    90  Cl   0.000000   0.000000
    91  Cl   0.000000   0.000000
 Sum of Mulliken charges =  -0.00000   2.00000
 Mulliken charges and spin densities with hydrogens summed into heavy atoms:
               1          2
     1  C    0.192041  -0.102549
     2  C   -0.058753   0.226732
     3  C   -0.058977   0.265613
     4  C    0.000076  -0.122926
     6  C   -0.038961   0.612553
     7  C    0.002407  -0.138629
     9  C   -0.004960   0.301974
    11  C   -0.032873   0.957231
    17  C    0.000000   0.000000
    20  Cl   0.000000   0.000000
    21  Cl   0.000000   0.000000
    22  C    0.000000   0.000000
    25  Cl   0.000000   0.000000
    26  Cl   0.000000   0.000000
    27  C    0.000000   0.000000
    30  Cl   0.000000   0.000000
    31  Cl   0.000000   0.000000
    32  C    0.000000   0.000000
    35  Cl   0.000000   0.000000
    36  Cl   0.000000   0.000000
    37  C    0.000000   0.000000
    40  Cl   0.000000   0.000000
    41  Cl   0.000000   0.000000
    42  C    0.000000   0.000000
    45  Cl   0.000000   0.000000
    46  Cl   0.000000   0.000000
    47  C    0.000000   0.000000
    50  Cl   0.000000   0.000000
    51  Cl   0.000000   0.000000
    52  C    0.000000   0.000000
    55  Cl   0.000000   0.000000
    56  Cl   0.000000   0.000000
    57  C    0.000000   0.000000
    60  Cl   0.000000   0.000000
    61  Cl   0.000000   0.000000
    62  C    0.000000   0.000000
    65  Cl   0.000000   0.000000
    66  Cl   0.000000   0.000000
    67  C    0.000000   0.000000
    70  Cl   0.000000   0.000000
    71  Cl   0.000000   0.000000
    72  C    0.000000   0.000000
    75  Cl   0.000000   0.000000
    76  Cl   0.000000   0.000000
    77  C    0.000000   0.000000
    80  Cl   0.000000   0.000000
    81  Cl   0.000000   0.000000
    82  C    0.000000   0.000000
    85  Cl   0.000000   0.000000
    86  Cl   0.000000   0.000000
    87  C    0.000000   0.000000
    90  Cl   0.000000   0.000000
    91  Cl   0.000000   0.000000
 Electronic spatial extent (au):  <R**2>=            997.4001
 Charge=             -0.0000 electrons
 Dipole moment (field-independent basis, Debye):
    X=              0.0890    Y=             -0.0718    Z=             -0.1149  Tot=              0.1621
 Quadrupole moment (field-independent basis, Debye-Ang):
   XX=            -42.1336   YY=            -44.8619   ZZ=            -48.8015
   XY=              0.0707   XZ=             -0.1930   YZ=             -3.4799
 Traceless Quadrupole moment (field-independent basis, Debye-Ang):
   XX=              3.1320   YY=              0.4038   ZZ=             -3.5358
   XY=              0.0707   XZ=             -0.1930   YZ=             -3.4799
 Octapole moment (field-independent basis, Debye-Ang**2):
  XXX=              0.1761  YYY=              6.5079  ZZZ=             30.4934  XYY=             -0.2700
  XXY=              4.2070  XXZ=             11.8259  XZZ=              2.5855  YZZ=              5.5867
  YYZ=             11.2531  XYZ=              0.5341
 Hexadecapole moment (field-independent basis, Debye-Ang**3):
 XXXX=           -842.6431 YYYY=           -307.5189 ZZZZ=           -157.7137 XXXY=            -53.4058
 XXXZ=             70.5540 YYYX=            -67.3126 YYYZ=             58.9721 ZZZX=             66.0069
 ZZZY=             68.8200 XXYY=           -192.8322 XXZZ=           -186.1344 YYZZ=            -73.9587
 XXYZ=             12.0614 YYXZ=             20.2398 ZZXY=            -18.9663
 N-N= 3.189491990027D+02 E-N=-1.354292150692D+03  KE= 3.066230964778D+02
                          Isotropic Fermi Contact Couplings
        Atom                 a.u.       MegaHertz       Gauss      10(-4) cm-1
     1  C(13)             -0.00467      -2.62534      -0.93679      -0.87572
     2  C(13)              0.02459      13.82365       4.93262       4.61107
     3  C(13)              0.03040      17.08904       6.09779       5.70029
     4  C(13)             -0.01950     -10.96361      -3.91209      -3.65707
     5  H(1)              -0.00367      -8.21040      -2.92967      -2.73869
     6  C(13)              0.04569      25.68468       9.16493       8.56749
     7  C(13)             -0.02151     -12.09261      -4.31494      -4.03366
     8  H(1)              -0.00403      -9.00303      -3.21250      -3.00309
     9  C(13)              0.03462      19.45972       6.94371       6.49106
    10  H(1)               0.00150       3.35876       1.19849       1.12036
    11  C(13)              0.08747      49.16817      17.54442      16.40073
    12  H(1)               0.00369       8.25026       2.94390       2.75199
    13  H(1)               0.00174       3.89080       1.38834       1.29783
    14  H(1)              -0.00476     -10.63820      -3.79598      -3.54852
    15  H(1)              -0.00717     -16.02402      -5.71777      -5.34504
    16  H(1)              -0.00470     -10.51026      -3.75032      -3.50585
 --------------------------------------------------------
       Center         ----  Spin Dipole Couplings  ----
                      3XX-RR        3YY-RR        3ZZ-RR
 --------------------------------------------------------
     1   Atom        0.074099     -0.006446     -0.067653
     2   Atom       -0.117883     -0.045497      0.163380
     3   Atom       -0.122360     -0.042674      0.165034
     4   Atom        0.055617      0.017046     -0.072663
     5   Atom       -0.005551      0.008916     -0.003365
     6   Atom       -0.346736     -0.124479      0.471216
     7   Atom        0.063193      0.019340     -0.082533
     8   Atom        0.004480      0.003444     -0.007924
     9   Atom       -0.146750     -0.077270      0.224020
    10   Atom        0.005129     -0.000992     -0.004137
    11   Atom       -0.100366      0.296691     -0.196325
    12   Atom       -0.026947      0.033923     -0.006977
    13   Atom        0.006614     -0.002110     -0.004504
    14   Atom        0.024112     -0.018235     -0.005877
    15   Atom        0.059495     -0.016191     -0.043304
    16   Atom       -0.043832     -0.019250      0.063082
 --------------------------------------------------------
                        XY            XZ            YZ
 --------------------------------------------------------
     1   Atom        0.037779      0.041870     -0.028392
     2   Atom        0.010245      0.007919      0.139565
     3   Atom        0.018460      0.026298      0.161402
     4   Atom       -0.005610     -0.007474     -0.056457
     5   Atom       -0.006874      0.003419     -0.008467
     6   Atom        0.075881      0.113509      0.430438
     7   Atom        0.001439     -0.011305     -0.064287
     8   Atom        0.003932     -0.001321     -0.010512
     9   Atom        0.008110      0.012264      0.182302
    10   Atom       -0.001341     -0.000038     -0.001772
    11   Atom       -0.590591     -0.386254      0.523824
    12   Atom       -0.033918      0.018644     -0.020051
    13   Atom        0.002509     -0.001970     -0.001952
    14   Atom        0.003243     -0.002486      0.007325
    15   Atom        0.030582      0.025595      0.037918
    16   Atom       -0.034990      0.017509     -0.030168
 --------------------------------------------------------


 ---------------------------------------------------------------------------------
              Anisotropic Spin Dipole Couplings in Principal Axis System
 ---------------------------------------------------------------------------------

       Atom             a.u.   MegaHertz   Gauss  10(-4) cm-1        Axes

              Baa    -0.0956   -12.828    -4.578    -4.279 -0.3028  0.4033  0.8635
     1 C(13)  Bbb     0.0010     0.139     0.050     0.046 -0.1798  0.8656 -0.4673
              Bcc     0.0946    12.689     4.528     4.233  0.9359  0.2968  0.1896
 
              Baa    -0.1226   -16.454    -5.871    -5.489  0.7901 -0.5592  0.2510
     2 C(13)  Bbb    -0.1110   -14.899    -5.316    -4.970  0.6121  0.6976 -0.3725
              Bcc     0.2336    31.353    11.187    10.458  0.0332  0.4479  0.8935
 
              Baa    -0.1325   -17.778    -6.344    -5.930 -0.4340  0.8074 -0.3997
     3 C(13)  Bbb    -0.1233   -16.548    -5.905    -5.520  0.8970  0.3458 -0.2754
              Bcc     0.2558    34.326    12.248    11.450  0.0841  0.4780  0.8743
 
              Baa    -0.1005   -13.480    -4.810    -4.496  0.0587  0.4346  0.8987
     4 C(13)  Bbb     0.0440     5.909     2.108     1.971  0.1465  0.8868 -0.4384
              Bcc     0.0564     7.571     2.702     2.526  0.9875 -0.1574  0.0117
 
              Baa    -0.0083    -4.427    -1.580    -1.477  0.9353  0.3509 -0.0458
     5 H(1)   Bbb    -0.0077    -4.095    -1.461    -1.366 -0.1114  0.4147  0.9031
              Bcc     0.0160     8.522     3.041     2.843 -0.3359  0.8395 -0.4270
 
              Baa    -0.3731   -50.068   -17.866   -16.701  0.8412 -0.5191  0.1515
     6 C(13)  Bbb    -0.3411   -45.769   -16.331   -15.267  0.5256  0.7191 -0.4545
              Bcc     0.7142    95.837    34.197    31.968  0.1270  0.4620  0.8778
 
              Baa    -0.1141   -15.315    -5.465    -5.109  0.0539  0.4328  0.8999
     7 C(13)  Bbb     0.0480     6.438     2.297     2.147 -0.3664  0.8469 -0.3854
              Bcc     0.0662     8.878     3.168     2.961  0.9289  0.3090 -0.2042
 
              Baa    -0.0142    -7.594    -2.710    -2.533 -0.0487  0.5185  0.8537
     8 H(1)   Bbb     0.0023     1.231     0.439     0.411  0.8762 -0.3882  0.2857
              Bcc     0.0119     6.363     2.271     2.123  0.4795  0.7619 -0.4354
 
              Baa    -0.1634   -21.926    -7.824    -7.314 -0.1294  0.8988 -0.4188
     9 C(13)  Bbb    -0.1469   -19.718    -7.036    -6.577  0.9911  0.1037 -0.0837
              Bcc     0.3103    41.643    14.859    13.891  0.0318  0.4259  0.9042
 
              Baa    -0.0050    -2.651    -0.946    -0.884  0.0595  0.4230  0.9042
    10 H(1)   Bbb    -0.0005    -0.242    -0.086    -0.081  0.2086  0.8805 -0.4257
              Bcc     0.0054     2.893     1.032     0.965  0.9762 -0.2140  0.0358
 
              Baa    -0.5376   -72.146   -25.743   -24.065  0.6262 -0.0454  0.7783
    11 C(13)  Bbb    -0.5211   -69.922   -24.950   -23.323  0.5809  0.6930 -0.4269
              Bcc     1.0587   142.067    50.693    47.389 -0.5200  0.7195  0.4603
 
              Baa    -0.0447   -23.824    -8.501    -7.947  0.9057  0.3201 -0.2779
    12 H(1)   Bbb    -0.0147    -7.819    -2.790    -2.608  0.1146  0.4463  0.8875
              Bcc     0.0593    31.643    11.291    10.555 -0.4081  0.8357 -0.3676
 
              Baa    -0.0056    -2.999    -1.070    -1.000  0.0489  0.4584  0.8874
    13 H(1)   Bbb    -0.0021    -1.143    -0.408    -0.381 -0.3359  0.8443 -0.4176
              Bcc     0.0078     4.142     1.478     1.382  0.9406  0.2776 -0.1953
 
              Baa    -0.0220   -11.730    -4.186    -3.913 -0.0863  0.9018 -0.4234
    14 H(1)   Bbb    -0.0025    -1.335    -0.476    -0.445  0.0323  0.4273  0.9035
              Bcc     0.0245    13.065     4.662     4.358  0.9957  0.0643 -0.0660
 
              Baa    -0.0701   -37.410   -13.349   -12.479 -0.0301 -0.5635  0.8256
    15 H(1)   Bbb    -0.0116    -6.204    -2.214    -2.069 -0.4866  0.7297  0.4803
              Bcc     0.0817    43.614    15.563    14.548  0.8731  0.3873  0.2962
 
              Baa    -0.0687   -36.662   -13.082   -12.229  0.8082  0.5883  0.0273
    16 H(1)   Bbb    -0.0108    -5.741    -2.048    -1.915 -0.5422  0.7250  0.4248
              Bcc     0.0795    42.403    15.130    14.144  0.2301 -0.3581  0.9049
 

 ---------------------------------------------------------------------------------

 Calling FoFJK, ICntrl=      2127 FMM=F ISym2X=0 I1Cent= 0 IOpClX= 1 NMat=1 NMatS=1 NMatT=0.
 Cartesian Forces:  Max     0.035459483 RMS     0.003976664
 SvSCFP is copying densities from files   528 and   530 to   603.
 ONIOM: saving gridpoint  2
 ONIOM: restoring gridpoint 17
 ONIOM: restoring gridpoint  1 on chk file.
 ONIOM: generating point  1 -- low level on model system.
 Standard basis: VSTO-6G (5D, 7F)
    40 basis functions,   240 primitive gaussians,    40 cartesian basis functions
    21 alpha electrons       19 beta electrons
       nuclear repulsion energy       184.4629716318 Hartrees.
 Integral buffers will be    131072 words long.
 Regular integral format.
 Two-electron integral symmetry is turned off.
 Do NDO integrals.
 One-electron integrals computed using PRISM.
 NBasis=    40 RedAO= F EigKep=  0.00D+00  NBF=    40
 NBsUse=    40 1.00D-04 EigRej=  0.00D+00 NBFU=    40
 Initial guess from the checkpoint file:  "b.chk"
 B after Tr=     0.000000    0.000000    0.000000
         Rot=    1.000000    0.000000    0.000000    0.000000 Ang=   0.00 deg.
 Initial guess <Sx>= 0.0000 <Sy>= 0.0000 <Sz>= 1.0000 <S**2>= 2.3231 S= 1.1041
 Keep J ints in memory in canonical form, NReq=867663.
 Overlap will be assumed to be unity.
 Requested convergence on RMS density matrix=1.00D-08 within  64 cycles.
 Requested convergence on MAX density matrix=1.00D-06.
 Requested convergence on             energy=1.00D-06.
 No special actions if energy rises.
 SCF Done:  E(UPM6) =  0.111873701054     A.U. after    2 cycles
            NFock=  1  Conv=0.14D-08     -V/T= 1.0018
 <Sx>= 0.0000 <Sy>= 0.0000 <Sz>= 1.0000 <S**2>= 2.3231 S= 1.1041
 <L.S>=  0.00000000000    
 Annihilation of the first spin contaminant:
 S**2 before annihilation     2.3231,   after     2.0536
 QCSCF skips out because SCF is already converged.

 **********************************************************************

            Population analysis using the SCF Density.

 **********************************************************************

 Alpha  occ. eigenvalues --   -1.09802  -1.00346  -0.95879  -0.91122  -0.81579
 Alpha  occ. eigenvalues --   -0.77995  -0.71826  -0.63927  -0.58855  -0.56941
 Alpha  occ. eigenvalues --   -0.54484  -0.52343  -0.51359  -0.50498  -0.48554
 Alpha  occ. eigenvalues --   -0.45051  -0.43346  -0.40816  -0.37123  -0.35884
 Alpha  occ. eigenvalues --   -0.29959
 Alpha virt. eigenvalues --    0.01880   0.02564   0.09695   0.15266   0.15584
 Alpha virt. eigenvalues --    0.17235   0.18251   0.18323   0.18989   0.19654
 Alpha virt. eigenvalues --    0.20357   0.20837   0.21488   0.22028   0.22281
 Alpha virt. eigenvalues --    0.22481   0.22849   0.23166   0.23424
  Beta  occ. eigenvalues --   -1.09676  -0.99664  -0.95777  -0.90069  -0.80867
  Beta  occ. eigenvalues --   -0.77780  -0.71127  -0.63326  -0.58198  -0.56559
  Beta  occ. eigenvalues --   -0.53514  -0.52214  -0.50156  -0.49001  -0.47577
  Beta  occ. eigenvalues --   -0.44516  -0.43102  -0.36779  -0.36248
  Beta virt. eigenvalues --   -0.03385   0.02201   0.02697   0.07010   0.10844
  Beta virt. eigenvalues --    0.15707   0.15953   0.17908   0.18492   0.18873
  Beta virt. eigenvalues --    0.19478   0.20279   0.20717   0.21327   0.21800
  Beta virt. eigenvalues --    0.22370   0.22904   0.22979   0.23189   0.23530
  Beta virt. eigenvalues --    0.23808
          Condensed to atoms (all electrons):
          Atomic-Atomic Spin Densities.
 Mulliken charges and spin densities:
               1          2
     1  C    0.042969  -0.376976
     2  C   -0.173235   0.443492
     3  C   -0.160849   0.457589
     4  C   -0.135154  -0.363040
     5  H    0.147882  -0.015521
     6  C   -0.171202   0.793421
     7  C   -0.141074  -0.365620
     8  H    0.151135  -0.016136
     9  C   -0.146579   0.447205
    10  H    0.144568   0.012629
    11  C   -0.304754   1.037109
    12  H    0.152650  -0.009435
    13  H    0.144482   0.012775
    14  H    0.145201  -0.015381
    15  H    0.151604  -0.022314
    16  H    0.152356  -0.019796
    17  C    0.000000   0.000000
    18  H    0.000000   0.000000
    19  H    0.000000   0.000000
    20  Cl   0.000000   0.000000
    21  Cl   0.000000   0.000000
    22  C    0.000000   0.000000
    23  H    0.000000   0.000000
    24  H    0.000000   0.000000
    25  Cl   0.000000   0.000000
    26  Cl   0.000000   0.000000
    27  C    0.000000   0.000000
    28  H    0.000000   0.000000
    29  H    0.000000   0.000000
    30  Cl   0.000000   0.000000
    31  Cl   0.000000   0.000000
    32  C    0.000000   0.000000
    33  H    0.000000   0.000000
    34  H    0.000000   0.000000
    35  Cl   0.000000   0.000000
    36  Cl   0.000000   0.000000
    37  C    0.000000   0.000000
    38  H    0.000000   0.000000
    39  H    0.000000   0.000000
    40  Cl   0.000000   0.000000
    41  Cl   0.000000   0.000000
    42  C    0.000000   0.000000
    43  H    0.000000   0.000000
    44  H    0.000000   0.000000
    45  Cl   0.000000   0.000000
    46  Cl   0.000000   0.000000
    47  C    0.000000   0.000000
    48  H    0.000000   0.000000
    49  H    0.000000   0.000000
    50  Cl   0.000000   0.000000
    51  Cl   0.000000   0.000000
    52  C    0.000000   0.000000
    53  H    0.000000   0.000000
    54  H    0.000000   0.000000
    55  Cl   0.000000   0.000000
    56  Cl   0.000000   0.000000
    57  C    0.000000   0.000000
    58  H    0.000000   0.000000
    59  H    0.000000   0.000000
    60  Cl   0.000000   0.000000
    61  Cl   0.000000   0.000000
    62  C    0.000000   0.000000
    63  H    0.000000   0.000000
    64  H    0.000000   0.000000
    65  Cl   0.000000   0.000000
    66  Cl   0.000000   0.000000
    67  C    0.000000   0.000000
    68  H    0.000000   0.000000
    69  H    0.000000   0.000000
    70  Cl   0.000000   0.000000
    71  Cl   0.000000   0.000000
    72  C    0.000000   0.000000
    73  H    0.000000   0.000000
    74  H    0.000000   0.000000
    75  Cl   0.000000   0.000000
    76  Cl   0.000000   0.000000
    77  C    0.000000   0.000000
    78  H    0.000000   0.000000
    79  H    0.000000   0.000000
    80  Cl   0.000000   0.000000
    81  Cl   0.000000   0.000000
    82  C    0.000000   0.000000
    83  H    0.000000   0.000000
    84  H    0.000000   0.000000
    85  Cl   0.000000   0.000000
    86  Cl   0.000000   0.000000
    87  C    0.000000   0.000000
    88  H    0.000000   0.000000
    89  H    0.000000   0.000000
    90  Cl   0.000000   0.000000
    91  Cl   0.000000   0.000000
 Sum of Mulliken charges =  -0.00000   2.00000
 Mulliken charges and spin densities with hydrogens summed into heavy atoms:
               1          2
     1  C    0.042969  -0.376976
     2  C   -0.025353   0.427971
     3  C   -0.009714   0.441453
     4  C    0.009414  -0.350412
     6  C   -0.018552   0.783987
     7  C    0.003409  -0.352845
     9  C   -0.001378   0.431824
    11  C   -0.000793   0.994999
    17  C    0.000000   0.000000
    20  Cl   0.000000   0.000000
    21  Cl   0.000000   0.000000
    22  C    0.000000   0.000000
    25  Cl   0.000000   0.000000
    26  Cl   0.000000   0.000000
    27  C    0.000000   0.000000
    30  Cl   0.000000   0.000000
    31  Cl   0.000000   0.000000
    32  C    0.000000   0.000000
    35  Cl   0.000000   0.000000
    36  Cl   0.000000   0.000000
    37  C    0.000000   0.000000
    40  Cl   0.000000   0.000000
    41  Cl   0.000000   0.000000
    42  C    0.000000   0.000000
    45  Cl   0.000000   0.000000
    46  Cl   0.000000   0.000000
    47  C    0.000000   0.000000
    50  Cl   0.000000   0.000000
    51  Cl   0.000000   0.000000
    52  C    0.000000   0.000000
    55  Cl   0.000000   0.000000
    56  Cl   0.000000   0.000000
    57  C    0.000000   0.000000
    60  Cl   0.000000   0.000000
    61  Cl   0.000000   0.000000
    62  C    0.000000   0.000000
    65  Cl   0.000000   0.000000
    66  Cl   0.000000   0.000000
    67  C    0.000000   0.000000
    70  Cl   0.000000   0.000000
    71  Cl   0.000000   0.000000
    72  C    0.000000   0.000000
    75  Cl   0.000000   0.000000
    76  Cl   0.000000   0.000000
    77  C    0.000000   0.000000
    80  Cl   0.000000   0.000000
    81  Cl   0.000000   0.000000
    82  C    0.000000   0.000000
    85  Cl   0.000000   0.000000
    86  Cl   0.000000   0.000000
    87  C    0.000000   0.000000
    90  Cl   0.000000   0.000000
    91  Cl   0.000000   0.000000
 Charge=              0.0000 electrons
 Dipole moment (field-independent basis, Debye):
    X=              0.0473    Y=             -0.0708    Z=             -0.1871  Tot=              0.2056
 N-N= 1.844629716318D+02 E-N=-2.803740346011D+02  KE=-6.318975598080D+01
 Calling FoFJK, ICntrl=      2127 FMM=F ISym2X=0 I1Cent= 0 IOpClX= 1 NMat=1 NMatS=1 NMatT=0.
 Cartesian Forces:  Max     0.023444840 RMS     0.003166201
 SvSCFP is copying densities from files   528 and   530 to   603.
 ONIOM: saving gridpoint  1
 ONIOM: restoring gridpoint  3
 ONIOM: calculating energy.
 ONIOM: gridpoint  1 method:  low   system:  model energy:     0.111873701054
 ONIOM: gridpoint  2 method:  high  system:  model energy:  -309.578696198740
 ONIOM: gridpoint  3 method:  low   system:  real  energy:    -0.403628169883
 ONIOM: extrapolated energy =    -310.094198069676
 ONIOM: calculating first derivatives.
 ONIOM: calculating electric field derivatives.
 ONIOM: Integrating ONIOM file  4 number   619
 ONIOM: Dipole        =-3.44759350D-01-1.16729340D-01 1.66271710D-01
 ONIOM: Dipole moment (Debye):
    X=    -0.8763    Y=    -0.2967    Z=     0.4226  Tot=     1.0171
 ONIOM: Integrating ONIOM file  5 number   695
 Anisotropic Hyperfine tensors: 
                 1             2             3             4             5 
      1   0.740992D-01 -0.117883D+00 -0.122360D+00  0.556173D-01 -0.555089D-02
      2   0.377787D-01  0.102446D-01  0.184596D-01 -0.560960D-02 -0.687367D-02
      3  -0.644592D-02 -0.454969D-01 -0.426736D-01  0.170460D-01  0.891589D-02
      4   0.418698D-01  0.791925D-02  0.262976D-01 -0.747364D-02  0.341862D-02
      5  -0.283917D-01  0.139565D+00  0.161402D+00 -0.564573D-01 -0.846683D-02
      6  -0.676532D-01  0.163380D+00  0.165034D+00 -0.726633D-01 -0.336501D-02
                 6             7             8             9            10 
      1  -0.346736D+00  0.631926D-01  0.447963D-02 -0.146750D+00  0.512905D-02
      2   0.758814D-01  0.143899D-02  0.393216D-02  0.811040D-02 -0.134086D-02
      3  -0.124479D+00  0.193403D-01  0.344415D-02 -0.772701D-01 -0.992377D-03
      4   0.113509D+00 -0.113045D-01 -0.132130D-02  0.122635D-01 -0.376391D-04
      5   0.430438D+00 -0.642870D-01 -0.105122D-01  0.182302D+00 -0.177176D-02
      6   0.471216D+00 -0.825329D-01 -0.792378D-02  0.224020D+00 -0.413667D-02
                11            12            13            14            15 
      1  -0.100366D+00 -0.269468D-01  0.661386D-02  0.241122D-01  0.594947D-01
      2  -0.590591D+00 -0.339181D-01  0.250910D-02  0.324287D-02  0.305818D-01
      3   0.296691D+00  0.339235D-01 -0.211006D-02 -0.182352D-01 -0.161912D-01
      4  -0.386254D+00  0.186438D-01 -0.197034D-02 -0.248635D-02  0.255947D-01
      5   0.523824D+00 -0.200514D-01 -0.195168D-02  0.732499D-02  0.379182D-01
      6  -0.196325D+00 -0.697669D-02 -0.450379D-02 -0.587704D-02 -0.433035D-01
                16            17            18            19            20 
      1  -0.438318D-01  0.000000D+00  0.000000D+00  0.000000D+00  0.000000D+00
      2  -0.349896D-01  0.000000D+00  0.000000D+00  0.000000D+00  0.000000D+00
      3  -0.192503D-01  0.000000D+00  0.000000D+00  0.000000D+00  0.000000D+00
      4   0.175094D-01  0.000000D+00  0.000000D+00  0.000000D+00  0.000000D+00
      5  -0.301678D-01  0.000000D+00  0.000000D+00  0.000000D+00  0.000000D+00
      6   0.630821D-01  0.000000D+00  0.000000D+00  0.000000D+00  0.000000D+00
                21            22            23            24            25 
      1   0.000000D+00  0.000000D+00  0.000000D+00  0.000000D+00  0.000000D+00
      2   0.000000D+00  0.000000D+00  0.000000D+00  0.000000D+00  0.000000D+00
      3   0.000000D+00  0.000000D+00  0.000000D+00  0.000000D+00  0.000000D+00
      4   0.000000D+00  0.000000D+00  0.000000D+00  0.000000D+00  0.000000D+00
      5   0.000000D+00  0.000000D+00  0.000000D+00  0.000000D+00  0.000000D+00
      6   0.000000D+00  0.000000D+00  0.000000D+00  0.000000D+00  0.000000D+00
                26            27            28            29            30 
      1   0.000000D+00  0.000000D+00  0.000000D+00  0.000000D+00  0.000000D+00
      2   0.000000D+00  0.000000D+00  0.000000D+00  0.000000D+00  0.000000D+00
      3   0.000000D+00  0.000000D+00  0.000000D+00  0.000000D+00  0.000000D+00
      4   0.000000D+00  0.000000D+00  0.000000D+00  0.000000D+00  0.000000D+00
      5   0.000000D+00  0.000000D+00  0.000000D+00  0.000000D+00  0.000000D+00
      6   0.000000D+00  0.000000D+00  0.000000D+00  0.000000D+00  0.000000D+00
                31            32            33            34            35 
      1   0.000000D+00  0.000000D+00  0.000000D+00  0.000000D+00  0.000000D+00
      2   0.000000D+00  0.000000D+00  0.000000D+00  0.000000D+00  0.000000D+00
      3   0.000000D+00  0.000000D+00  0.000000D+00  0.000000D+00  0.000000D+00
      4   0.000000D+00  0.000000D+00  0.000000D+00  0.000000D+00  0.000000D+00
      5   0.000000D+00  0.000000D+00  0.000000D+00  0.000000D+00  0.000000D+00
      6   0.000000D+00  0.000000D+00  0.000000D+00  0.000000D+00  0.000000D+00
                36            37            38            39            40 
      1   0.000000D+00  0.000000D+00  0.000000D+00  0.000000D+00  0.000000D+00
      2   0.000000D+00  0.000000D+00  0.000000D+00  0.000000D+00  0.000000D+00
      3   0.000000D+00  0.000000D+00  0.000000D+00  0.000000D+00  0.000000D+00
      4   0.000000D+00  0.000000D+00  0.000000D+00  0.000000D+00  0.000000D+00
      5   0.000000D+00  0.000000D+00  0.000000D+00  0.000000D+00  0.000000D+00
      6   0.000000D+00  0.000000D+00  0.000000D+00  0.000000D+00  0.000000D+00
                41            42            43            44            45 
      1   0.000000D+00  0.000000D+00  0.000000D+00  0.000000D+00  0.000000D+00
      2   0.000000D+00  0.000000D+00  0.000000D+00  0.000000D+00  0.000000D+00
      3   0.000000D+00  0.000000D+00  0.000000D+00  0.000000D+00  0.000000D+00
      4   0.000000D+00  0.000000D+00  0.000000D+00  0.000000D+00  0.000000D+00
      5   0.000000D+00  0.000000D+00  0.000000D+00  0.000000D+00  0.000000D+00
      6   0.000000D+00  0.000000D+00  0.000000D+00  0.000000D+00  0.000000D+00
                46            47            48            49            50 
      1   0.000000D+00  0.000000D+00  0.000000D+00  0.000000D+00  0.000000D+00
      2   0.000000D+00  0.000000D+00  0.000000D+00  0.000000D+00  0.000000D+00
      3   0.000000D+00  0.000000D+00  0.000000D+00  0.000000D+00  0.000000D+00
      4   0.000000D+00  0.000000D+00  0.000000D+00  0.000000D+00  0.000000D+00
      5   0.000000D+00  0.000000D+00  0.000000D+00  0.000000D+00  0.000000D+00
      6   0.000000D+00  0.000000D+00  0.000000D+00  0.000000D+00  0.000000D+00
                51            52            53            54            55 
      1   0.000000D+00  0.000000D+00  0.000000D+00  0.000000D+00  0.000000D+00
      2   0.000000D+00  0.000000D+00  0.000000D+00  0.000000D+00  0.000000D+00
      3   0.000000D+00  0.000000D+00  0.000000D+00  0.000000D+00  0.000000D+00
      4   0.000000D+00  0.000000D+00  0.000000D+00  0.000000D+00  0.000000D+00
      5   0.000000D+00  0.000000D+00  0.000000D+00  0.000000D+00  0.000000D+00
      6   0.000000D+00  0.000000D+00  0.000000D+00  0.000000D+00  0.000000D+00
                56            57            58            59            60 
      1   0.000000D+00  0.000000D+00  0.000000D+00  0.000000D+00  0.000000D+00
      2   0.000000D+00  0.000000D+00  0.000000D+00  0.000000D+00  0.000000D+00
      3   0.000000D+00  0.000000D+00  0.000000D+00  0.000000D+00  0.000000D+00
      4   0.000000D+00  0.000000D+00  0.000000D+00  0.000000D+00  0.000000D+00
      5   0.000000D+00  0.000000D+00  0.000000D+00  0.000000D+00  0.000000D+00
      6   0.000000D+00  0.000000D+00  0.000000D+00  0.000000D+00  0.000000D+00
                61            62            63            64            65 
      1   0.000000D+00  0.000000D+00  0.000000D+00  0.000000D+00  0.000000D+00
      2   0.000000D+00  0.000000D+00  0.000000D+00  0.000000D+00  0.000000D+00
      3   0.000000D+00  0.000000D+00  0.000000D+00  0.000000D+00  0.000000D+00
      4   0.000000D+00  0.000000D+00  0.000000D+00  0.000000D+00  0.000000D+00
      5   0.000000D+00  0.000000D+00  0.000000D+00  0.000000D+00  0.000000D+00
      6   0.000000D+00  0.000000D+00  0.000000D+00  0.000000D+00  0.000000D+00
                66            67            68            69            70 
      1   0.000000D+00  0.000000D+00  0.000000D+00  0.000000D+00  0.000000D+00
      2   0.000000D+00  0.000000D+00  0.000000D+00  0.000000D+00  0.000000D+00
      3   0.000000D+00  0.000000D+00  0.000000D+00  0.000000D+00  0.000000D+00
      4   0.000000D+00  0.000000D+00  0.000000D+00  0.000000D+00  0.000000D+00
      5   0.000000D+00  0.000000D+00  0.000000D+00  0.000000D+00  0.000000D+00
      6   0.000000D+00  0.000000D+00  0.000000D+00  0.000000D+00  0.000000D+00
                71            72            73            74            75 
      1   0.000000D+00  0.000000D+00  0.000000D+00  0.000000D+00  0.000000D+00
      2   0.000000D+00  0.000000D+00  0.000000D+00  0.000000D+00  0.000000D+00
      3   0.000000D+00  0.000000D+00  0.000000D+00  0.000000D+00  0.000000D+00
      4   0.000000D+00  0.000000D+00  0.000000D+00  0.000000D+00  0.000000D+00
      5   0.000000D+00  0.000000D+00  0.000000D+00  0.000000D+00  0.000000D+00
      6   0.000000D+00  0.000000D+00  0.000000D+00  0.000000D+00  0.000000D+00
                76            77            78            79            80 
      1   0.000000D+00  0.000000D+00  0.000000D+00  0.000000D+00  0.000000D+00
      2   0.000000D+00  0.000000D+00  0.000000D+00  0.000000D+00  0.000000D+00
      3   0.000000D+00  0.000000D+00  0.000000D+00  0.000000D+00  0.000000D+00
      4   0.000000D+00  0.000000D+00  0.000000D+00  0.000000D+00  0.000000D+00
      5   0.000000D+00  0.000000D+00  0.000000D+00  0.000000D+00  0.000000D+00
      6   0.000000D+00  0.000000D+00  0.000000D+00  0.000000D+00  0.000000D+00
                81            82            83            84            85 
      1   0.000000D+00  0.000000D+00  0.000000D+00  0.000000D+00  0.000000D+00
      2   0.000000D+00  0.000000D+00  0.000000D+00  0.000000D+00  0.000000D+00
      3   0.000000D+00  0.000000D+00  0.000000D+00  0.000000D+00  0.000000D+00
      4   0.000000D+00  0.000000D+00  0.000000D+00  0.000000D+00  0.000000D+00
      5   0.000000D+00  0.000000D+00  0.000000D+00  0.000000D+00  0.000000D+00
      6   0.000000D+00  0.000000D+00  0.000000D+00  0.000000D+00  0.000000D+00
                86            87            88            89            90 
      1   0.000000D+00  0.000000D+00  0.000000D+00  0.000000D+00  0.000000D+00
      2   0.000000D+00  0.000000D+00  0.000000D+00  0.000000D+00  0.000000D+00
      3   0.000000D+00  0.000000D+00  0.000000D+00  0.000000D+00  0.000000D+00
      4   0.000000D+00  0.000000D+00  0.000000D+00  0.000000D+00  0.000000D+00
      5   0.000000D+00  0.000000D+00  0.000000D+00  0.000000D+00  0.000000D+00
      6   0.000000D+00  0.000000D+00  0.000000D+00  0.000000D+00  0.000000D+00
                91 
      1   0.000000D+00
      2   0.000000D+00
      3   0.000000D+00
      4   0.000000D+00
      5   0.000000D+00
      6   0.000000D+00
 ONIOM Fermi contact: 
               1
     1  C   -0.004671
     2  C    0.024593
     3  C    0.030402
     4  C   -0.019505
     5  H   -0.003674
     6  C    0.045695
     7  C   -0.021513
     8  H   -0.004028
     9  C    0.034620
    10  H    0.001503
    11  C    0.087473
    12  H    0.003691
    13  H    0.001741
    14  H   -0.004760
    15  H   -0.007170
    16  H   -0.004703
    17  C    0.000000
    18  H    0.000000
    19  H    0.000000
    20  Cl   0.000000
    21  Cl   0.000000
    22  C    0.000000
    23  H    0.000000
    24  H    0.000000
    25  Cl   0.000000
    26  Cl   0.000000
    27  C    0.000000
    28  H    0.000000
    29  H    0.000000
    30  Cl   0.000000
    31  Cl   0.000000
    32  C    0.000000
    33  H    0.000000
    34  H    0.000000
    35  Cl   0.000000
    36  Cl   0.000000
    37  C    0.000000
    38  H    0.000000
    39  H    0.000000
    40  Cl   0.000000
    41  Cl   0.000000
    42  C    0.000000
    43  H    0.000000
    44  H    0.000000
    45  Cl   0.000000
    46  Cl   0.000000
    47  C    0.000000
    48  H    0.000000
    49  H    0.000000
    50  Cl   0.000000
    51  Cl   0.000000
    52  C    0.000000
    53  H    0.000000
    54  H    0.000000
    55  Cl   0.000000
    56  Cl   0.000000
    57  C    0.000000
    58  H    0.000000
    59  H    0.000000
    60  Cl   0.000000
    61  Cl   0.000000
    62  C    0.000000
    63  H    0.000000
    64  H    0.000000
    65  Cl   0.000000
    66  Cl   0.000000
    67  C    0.000000
    68  H    0.000000
    69  H    0.000000
    70  Cl   0.000000
    71  Cl   0.000000
    72  C    0.000000
    73  H    0.000000
    74  H    0.000000
    75  Cl   0.000000
    76  Cl   0.000000
    77  C    0.000000
    78  H    0.000000
    79  H    0.000000
    80  Cl   0.000000
[...]
   Y21       -2.21275   0.00002   0.00000   0.00087   0.00029  -2.21246
   Z21        2.96958  -0.00002   0.00000   0.00144   0.00023   2.96981
   X22       10.80769   0.00012   0.00000   0.00136   0.00142  10.80912
   Y22       -2.00935  -0.00007   0.00000  -0.00055  -0.00073  -2.01008
   Z22       -2.95311   0.00002   0.00000   0.00150   0.00033  -2.95278
   X23        8.77548   0.00008   0.00000   0.00095   0.00101   8.77649
   Y23       -2.12283   0.00013   0.00000   0.00152   0.00129  -2.12154
   Z23       -2.43744  -0.00006   0.00000   0.00026  -0.00095  -2.43840
   X24       11.97817  -0.00001   0.00000  -0.00029  -0.00025  11.97792
   Y24       -3.13218  -0.00021   0.00000  -0.00232  -0.00259  -3.13477
   Z24       -1.62499   0.00003   0.00000   0.00141   0.00019  -1.62479
   X25       11.81471   0.00038   0.00000   0.00453   0.00458  11.81929
   Y25        1.18578  -0.00015   0.00000  -0.00157  -0.00176   1.18403
   Z25       -2.88416   0.00014   0.00000   0.00297   0.00203  -2.88213
   X26       11.24488   0.00012   0.00000   0.00141   0.00154  11.24643
   Y26       -3.12557  -0.00003   0.00000  -0.00033  -0.00031  -3.12588
   Z26       -6.07015   0.00002   0.00000   0.00156   0.00033  -6.06982
   X27        3.99307  -0.00006   0.00000  -0.00059  -0.00067   3.99240
   Y27        6.01265   0.00003   0.00000   0.00096   0.00036   6.01301
   Z27        2.92461  -0.00007   0.00000   0.00011  -0.00066   2.92395
   X28        3.49474  -0.00018   0.00000  -0.00225  -0.00231   3.49243
   Y28        4.04509   0.00006   0.00000   0.00122   0.00065   4.04574
   Z28        2.37558  -0.00000   0.00000   0.00053  -0.00037   2.37521
   X29        2.57397  -0.00002   0.00000  -0.00021  -0.00028   2.57369
   Y29        7.36671   0.00016   0.00000   0.00207   0.00151   7.36822
   Z29        2.17341   0.00009   0.00000   0.00134   0.00064   2.17405
   X30        7.03067  -0.00011   0.00000  -0.00109  -0.00116   7.02951
   Y30        6.78673  -0.00018   0.00000  -0.00129  -0.00180   6.78493
   Z30        1.74472  -0.00030   0.00000  -0.00257  -0.00323   1.74149
   X31        4.15264   0.00017   0.00000   0.00234   0.00219   4.15483
   Y31        6.26463  -0.00002   0.00000   0.00098   0.00016   6.26479
   Z31        6.25813  -0.00009   0.00000  -0.00001  -0.00076   6.25737
   X32       -4.24794  -0.00016   0.00000  -0.00147  -0.00160  -4.24954
   Y32        1.52288   0.00012   0.00000   0.00208   0.00119   1.52407
   Z32        6.61602  -0.00031   0.00000  -0.00242  -0.00364   6.61239
   X33       -3.57966   0.00011   0.00000   0.00114   0.00102  -3.57865
   Y33       -0.46452   0.00021   0.00000   0.00288   0.00200  -0.46253
   Z33        6.69606  -0.00041   0.00000  -0.00422  -0.00556   6.69050
   X34       -4.17974   0.00015   0.00000   0.00205   0.00187  -4.17786
   Y34        2.42730   0.00008   0.00000   0.00181   0.00080   2.42809
   Z34        8.50901  -0.00031   0.00000  -0.00258  -0.00374   8.50527
   X35       -7.38815  -0.00038   0.00000  -0.00443  -0.00454  -7.39268
   Y35        1.58908  -0.00018   0.00000  -0.00105  -0.00187   1.58721
   Z35        5.45167   0.00032   0.00000   0.00551   0.00423   5.45590
   X36       -2.34876  -0.00071   0.00000  -0.00837  -0.00847  -2.35723
   Y36        3.24863   0.00026   0.00000   0.00433   0.00359   3.25223
   Z36        4.46462  -0.00068   0.00000  -0.00664  -0.00771   4.45691
   X37       -1.96411  -0.00013   0.00000  -0.00129  -0.00150  -1.96561
   Y37        8.59251   0.00016   0.00000   0.00282   0.00181   8.59432
   Z37        8.61923   0.00024   0.00000   0.00348   0.00277   8.62201
   X38       -0.69511  -0.00016   0.00000  -0.00157  -0.00178  -0.69689
   Y38       10.24312   0.00017   0.00000   0.00284   0.00182  10.24494
   Z38        8.83966   0.00035   0.00000   0.00428   0.00371   8.84336
   X39       -1.66246   0.00000   0.00000   0.00004  -0.00013  -1.66259
   Y39        7.67383   0.00015   0.00000   0.00251   0.00163   7.67546
   Z39        6.75617   0.00026   0.00000   0.00376   0.00299   6.75917
   X40       -5.14436  -0.00015   0.00000  -0.00143  -0.00164  -5.14600
   Y40        9.54721   0.00014   0.00000   0.00305   0.00201   9.54922
   Z40        8.91448   0.00002   0.00000   0.00130   0.00059   8.91507
   X41       -1.34816  -0.00024   0.00000  -0.00266  -0.00290  -1.35106
   Y41        6.38278   0.00014   0.00000   0.00332   0.00215   6.38494
   Z41       11.07296   0.00025   0.00000   0.00425   0.00340  11.07636
   X42        8.37831   0.00002   0.00000   0.00004   0.00019   8.37851
   Y42        2.01894   0.00024   0.00000   0.00268   0.00284   2.02178
   Z42       -8.38435  -0.00013   0.00000  -0.00048  -0.00143  -8.38578
   X43        7.34536  -0.00013   0.00000  -0.00158  -0.00144   7.34392
   Y43        0.46568   0.00041   0.00000   0.00455   0.00464   0.47033
   Z43       -7.41980  -0.00001   0.00000   0.00063  -0.00044  -7.42024
   X44       10.45062  -0.00000   0.00000  -0.00023  -0.00007  10.45055
   Y44        1.71341   0.00006   0.00000   0.00070   0.00087   1.71428
   Z44       -8.25709  -0.00009   0.00000  -0.00038  -0.00131  -8.25840
   X45        7.60225   0.00021   0.00000   0.00247   0.00259   7.60483
   Y45        4.96139   0.00037   0.00000   0.00434   0.00441   4.96579
   Z45       -6.96780  -0.00030   0.00000  -0.00260  -0.00336  -6.97116
   X46        7.43186   0.00004   0.00000   0.00012   0.00033   7.43219
   Y46        2.19466   0.00010   0.00000   0.00077   0.00115   2.19580
   Z46      -11.58290  -0.00014   0.00000  -0.00053  -0.00148 -11.58438
   X47      -10.25887   0.00006   0.00000   0.00042   0.00041 -10.25846
   Y47        3.69214   0.00019   0.00000   0.00271   0.00229   3.69443
   Z47       -0.72623  -0.00007   0.00000   0.00055  -0.00065  -0.72687
   X48      -11.94678   0.00003   0.00000   0.00018   0.00017 -11.94661
   Y48        2.58413   0.00043   0.00000   0.00519   0.00473   2.58886
   Z48       -0.16763   0.00029   0.00000   0.00447   0.00317  -0.16446
   X49       -8.78986   0.00030   0.00000   0.00361   0.00357  -8.78628
   Y49        3.63260   0.00008   0.00000   0.00136   0.00084   3.63344
   Z49        0.77182  -0.00029   0.00000  -0.00268  -0.00385   0.76796
   X50      -11.14562   0.00022   0.00000   0.00284   0.00283 -11.14279
   Y50        6.86683   0.00024   0.00000   0.00349   0.00310   6.86993
   Z50       -1.28786  -0.00002   0.00000   0.00116   0.00016  -1.28770
   X51       -9.02700  -0.00066   0.00000  -0.00767  -0.00761  -9.03462
   Y51        2.44759  -0.00007   0.00000  -0.00046  -0.00069   2.44690
   Z51       -3.57453  -0.00024   0.00000  -0.00143  -0.00268  -3.57720
   X52       -3.01559   0.00006   0.00000   0.00058   0.00072  -3.01487
   Y52        1.87061  -0.00012   0.00000  -0.00135  -0.00128   1.86933
   Z52       -7.74449   0.00015   0.00000   0.00277   0.00159  -7.74290
   X53       -3.65209   0.00018   0.00000   0.00204   0.00221  -3.64988
   Y53        2.46048  -0.00007   0.00000  -0.00110  -0.00090   2.45958
   Z53       -9.65303   0.00012   0.00000   0.00229   0.00114  -9.65188
   X54       -4.05253  -0.00003   0.00000  -0.00059  -0.00048  -4.05301
   Y54        2.90716  -0.00014   0.00000  -0.00157  -0.00160   2.90556
   Z54       -6.23849   0.00010   0.00000   0.00203   0.00090  -6.23759
   X55        0.27358   0.00004   0.00000   0.00028   0.00041   0.27399
   Y55        2.46902  -0.00008   0.00000  -0.00112  -0.00105   2.46797
   Z55       -7.43875   0.00032   0.00000   0.00543   0.00435  -7.43439
   X56       -3.47370   0.00006   0.00000   0.00045   0.00060  -3.47310
   Y56       -1.41824  -0.00011   0.00000  -0.00138  -0.00134  -1.41958
   Z56       -7.36989   0.00002   0.00000   0.00229   0.00088  -7.36900
   X57       -2.68915   0.00018   0.00000   0.00230   0.00222  -2.68693
   Y57       11.14656  -0.00007   0.00000  -0.00036  -0.00090  11.14566
   Z57        1.41761   0.00015   0.00000   0.00231   0.00175   1.41936
   X58       -2.00265   0.00019   0.00000   0.00227   0.00223  -2.00041
   Y58       11.58029  -0.00010   0.00000  -0.00088  -0.00128  11.57901
   Z58       -0.52070   0.00016   0.00000   0.00218   0.00166  -0.51904
   X59       -4.34224   0.00007   0.00000   0.00103   0.00094  -4.34130
   Y59       12.33600  -0.00020   0.00000  -0.00177  -0.00234  12.33366
   Z59        1.91746   0.00009   0.00000   0.00138   0.00088   1.91834
   X60       -0.21171   0.00013   0.00000   0.00159   0.00147  -0.21024
   Y60       11.69929   0.00012   0.00000   0.00255   0.00189  11.70117
   Z60        3.60631   0.00014   0.00000   0.00241   0.00194   3.60825
   X61       -3.51893   0.00040   0.00000   0.00483   0.00476  -3.51416
   Y61        7.90744  -0.00010   0.00000  -0.00079  -0.00134   7.90610
   Z61        1.66031   0.00022   0.00000   0.00381   0.00302   1.66333
   X62        2.09122   0.00005   0.00000   0.00079   0.00060   2.09183
   Y62        0.63612  -0.00008   0.00000   0.00017  -0.00087   0.63525
   Z62        9.35584  -0.00011   0.00000  -0.00003  -0.00119   9.35465
   X63        1.37855   0.00005   0.00000   0.00078   0.00060   1.37915
   Y63        2.53309  -0.00013   0.00000  -0.00071  -0.00171   2.53138
   Z63        8.80575  -0.00029   0.00000  -0.00284  -0.00388   8.80187
   X64        3.69465   0.00002   0.00000   0.00045   0.00024   3.69488
   Y64        0.79598   0.00007   0.00000   0.00174   0.00062   0.79659
   Z64       10.69392  -0.00007   0.00000   0.00007  -0.00105  10.69288
   X65        3.06974   0.00015   0.00000   0.00189   0.00176   3.07151
   Y65       -1.02717  -0.00035   0.00000  -0.00317  -0.00402  -1.03119
   Z65        6.62797   0.00009   0.00000   0.00256   0.00131   6.62927
   X66       -0.37865   0.00001   0.00000   0.00038   0.00018  -0.37847
   Y66       -1.10959   0.00005   0.00000   0.00211   0.00097  -1.10862
   Z66       10.78874  -0.00004   0.00000   0.00149   0.00017  10.78890
   X67        2.01452   0.00002   0.00000  -0.00005   0.00008   2.01460
   Y67       -4.10055   0.00001   0.00000  -0.00004  -0.00008  -4.10063
   Z67       -5.72492   0.00002   0.00000   0.00180   0.00033  -5.72460
   X68        0.36685  -0.00008   0.00000  -0.00079  -0.00064   0.36621
   Y68       -5.23270   0.00010   0.00000   0.00105   0.00104  -5.23166
   Z68       -6.34712   0.00008   0.00000   0.00175   0.00017  -6.34695
   X69        1.40655   0.00003   0.00000   0.00061   0.00071   1.40726
   Y69       -2.19555  -0.00003   0.00000  -0.00027  -0.00035  -2.19590
   Z69       -5.07630   0.00016   0.00000   0.00304   0.00168  -5.07462
   X70        4.18638  -0.00006   0.00000  -0.00092  -0.00074   4.18564
   Y70       -3.80638   0.00009   0.00000   0.00096   0.00109  -3.80529
   Z70       -8.24677  -0.00003   0.00000   0.00129  -0.00012  -8.24688
   X71        3.58228   0.00013   0.00000   0.00105   0.00113   3.58341
   Y71       -5.69202  -0.00028   0.00000  -0.00276  -0.00296  -5.69498
   Z71       -3.22598  -0.00025   0.00000  -0.00055  -0.00210  -3.22808
   X72        3.53891  -0.00003   0.00000  -0.00041  -0.00023   3.53868
   Y72        7.41624   0.00004   0.00000   0.00009   0.00042   7.41666
   Z72      -11.22616  -0.00014   0.00000  -0.00112  -0.00180 -11.22797
   X73        5.37350  -0.00005   0.00000  -0.00063  -0.00043   5.37307
   Y73        7.20743   0.00005   0.00000   0.00027   0.00068   7.20810
   Z73      -12.21914  -0.00017   0.00000  -0.00155  -0.00221 -12.22135
   X74        3.35625   0.00002   0.00000   0.00020   0.00037   3.35662
   Y74        5.96292   0.00006   0.00000   0.00045   0.00068   5.96360
   Z74       -9.72685  -0.00012   0.00000  -0.00077  -0.00156  -9.72841
   X75        3.34725  -0.00003   0.00000  -0.00068  -0.00053   3.34671
   Y75       10.47516   0.00006   0.00000   0.00043   0.00067  10.47582
   Z75       -9.86289  -0.00023   0.00000  -0.00200  -0.00249  -9.86538
   X76        1.01652  -0.00001   0.00000  -0.00071  -0.00048   1.01604
   Y76        7.12870  -0.00005   0.00000  -0.00122  -0.00075   7.12795
   Z76      -13.38948  -0.00013   0.00000  -0.00050  -0.00125 -13.39074
   X77       -2.84904  -0.00028   0.00000  -0.00287  -0.00278  -2.85182
   Y77        8.77720  -0.00029   0.00000  -0.00341  -0.00339   8.77381
   Z77       -6.95258  -0.00006   0.00000   0.00022  -0.00050  -6.95308
   X78       -0.98485  -0.00037   0.00000  -0.00375  -0.00363  -0.98848
   Y78        8.05686  -0.00067   0.00000  -0.00689  -0.00682   8.05005
   Z78       -7.59277   0.00017   0.00000   0.00196   0.00123  -7.59154
   X79       -2.90952   0.00002   0.00000   0.00119   0.00128  -2.90825
   Y79       10.86762  -0.00026   0.00000  -0.00301  -0.00298  10.86463
   Z79       -7.10854   0.00038   0.00000   0.00447   0.00389  -7.10466
   X80       -5.30146  -0.00005   0.00000  -0.00159  -0.00145  -5.30291
   Y80        7.43682   0.00057   0.00000   0.00599   0.00613   7.44294
   Z80       -8.78886  -0.00091   0.00000  -0.00828  -0.00913  -8.79799
   X81       -3.41080  -0.00049   0.00000  -0.00729  -0.00725  -3.41805
   Y81        7.85483  -0.00061   0.00000  -0.00760  -0.00779   7.84703
   Z81       -3.77484  -0.00020   0.00000  -0.00175  -0.00254  -3.77738
   X82        4.05585   0.00018   0.00000   0.00218   0.00219   4.05805
   Y82       11.30407  -0.00015   0.00000  -0.00133  -0.00154  11.30253
   Z82       -3.07230   0.00004   0.00000   0.00082   0.00041  -3.07190
   X83        5.21784   0.00024   0.00000   0.00208   0.00213   5.21997
   Y83       11.22227  -0.00006   0.00000  -0.00080  -0.00089  11.22139
   Z83       -4.81491   0.00008   0.00000   0.00073   0.00034  -4.81457
   X84        5.25076   0.00036   0.00000   0.00348   0.00346   5.25421
   Y84       11.22806  -0.00001   0.00000  -0.00019  -0.00051  11.22755
   Z84       -1.35247  -0.00007   0.00000  -0.00004  -0.00043  -1.35290
   X85        2.23817  -0.00006   0.00000  -0.00009  -0.00010   2.23807
   Y85       14.10695  -0.00032   0.00000  -0.00287  -0.00308  14.10387
   Z85       -3.07080   0.00006   0.00000   0.00114   0.00087  -3.06993
   X86        1.91333   0.00012   0.00000   0.00228   0.00230   1.91563
   Y86        8.72845  -0.00012   0.00000  -0.00150  -0.00172   8.72673
   Z86       -3.04594   0.00005   0.00000   0.00167   0.00104  -3.04490
   X87       -8.27121  -0.00000   0.00000  -0.00012  -0.00011  -8.27132
   Y87       13.01735  -0.00012   0.00000  -0.00116  -0.00141  13.01594
   Z87       -3.18582  -0.00000   0.00000   0.00050  -0.00004  -3.18586
   X88      -10.10882  -0.00001   0.00000  -0.00003  -0.00000 -10.10882
   Y88       13.12632  -0.00011   0.00000  -0.00121  -0.00141  13.12491
   Z88       -4.18557  -0.00002   0.00000   0.00026  -0.00030  -4.18587
   X89       -7.72031   0.00013   0.00000   0.00147   0.00148  -7.71884
   Y89       11.01681  -0.00013   0.00000  -0.00121  -0.00149  11.01533
   Z89       -2.86238  -0.00023   0.00000  -0.00233  -0.00299  -2.86537
   X90       -5.92687  -0.00009   0.00000  -0.00111  -0.00107  -5.92795
   Y90       14.56661   0.00025   0.00000   0.00322   0.00310  14.56971
   Z90       -5.00057   0.00021   0.00000   0.00302   0.00263  -4.99794
   X91       -8.49567  -0.00015   0.00000  -0.00173  -0.00179  -8.49746
   Y91       14.61439  -0.00049   0.00000  -0.00528  -0.00573  14.60866
   Z91       -0.25877   0.00018   0.00000   0.00267   0.00223  -0.25654
         Item               Value     Threshold  Converged?
 Maximum Force            0.054034     0.000450     NO 
 RMS     Force            0.006815     0.000300     NO 
 Maximum Displacement     0.137987     0.001800     NO 
 RMS     Displacement     0.018188     0.001200     NO 
 Predicted change in Energy=-1.317826D-02
 GradGradGradGradGradGradGradGradGradGradGradGradGradGradGradGradGradGrad

 Unable to Open any file for archive entry.
 1\1\GINC-X10P1N23\Force\ONIOM(B3LYP/6-31G(d):PM6)\Mixed\C23H38Cl30\MAY
 UMIAO\12-Jul-2024\0\\# scf=(xqc,maxcycle=64) force guess=read oniom(b3
 lyp/em=gd3bj/6-31g(d):pm6) nosymm\\Title Card\\0,1\C,0.54930783,-0.173
 3114,-0.17401924\C,-0.0890923,-1.29021053,0.42873805\C,-0.2774824,0.87
 342273,-0.6515488\C,-1.46283802,-1.36013623,0.5285335\H,0.52656727,-2.
 10814865,0.79886167\C,1.97130584,-0.13320972,-0.31592698\C,-1.65424642
 ,0.80847919,-0.51642249\H,0.17111076,1.73099224,-1.14614286\C,-2.26259
 339,-0.30768625,0.05907911\H,-1.9292573,-2.24133942,0.96178141\C,2.685
 38411,0.90856612,-0.99496593\H,2.52080488,-0.98813195,0.08286615\H,-2.
 26229291,1.63173022,-0.88347329\H,-3.3452631,-0.36884504,0.12832981\H,
 3.64186458,1.28480184,-0.63858907\H,2.37190053,1.29120097,-1.96503264\
 C,4.98145582,0.55628235,1.98967275\H,5.26599376,1.14188954,1.09036113\
 H,3.98535953,0.86570607,2.36931398\Cl,6.19489726,0.77318747,3.24898738
 \Cl,4.93563352,-1.17093439,1.57143342\C,5.71918556,-1.06330389,-1.5627
 1716\H,4.64378246,-1.12335104,-1.28983993\H,6.33857641,-1.65748062,-0.
 8599051\Cl,6.25207496,0.62748976,-1.52623048\Cl,5.95053542,-1.65398084
 ,-3.21218496\C,2.11304278,3.18175561,1.54763609\H,1.84933802,2.1405674
 8,1.25710243\H,1.36208519,3.8982964,1.15011855\Cl,3.72047019,3.5913854
 7,0.92326682\Cl,2.1974823,3.31509801,3.31165963\C,-2.24791233,0.805873
 33,3.50104903\H,-1.89427686,-0.24581561,3.54340395\H,-2.21182225,1.284
 46928,4.50277443\Cl,-3.90963813,0.84090532,2.88489844\Cl,-1.24291107,1
 .71910304,2.36257373\C,-1.03936299,4.5469597,4.56110218\H,-0.36783651,
 5.42042372,4.67774474\H,-0.87973519,4.06081475,3.57521356\Cl,-2.722277
 22,5.05216688,4.71733918\Cl,-0.71341713,3.37762379,5.85955732\C,4.4336
 1206,1.06837766,-4.43680533\H,3.88699736,0.24642887,-3.92639046\H,5.53
 022979,0.90669974,-4.36946479\Cl,4.02293586,2.6254531,-3.68720105\Cl,3
 .93277109,1.1613625,-6.12940801\C,-5.42876044,1.95379705,-0.38430247\H
 ,-6.3219647,1.36746412,-0.08870664\H,-4.65139244,1.92228952,0.40842745
 \Cl,-5.89800732,3.6337712,-0.6815061\Cl,-4.77688468,1.29520936,-1.8915
 5737\C,-1.59578318,0.9898857,-4.09820835\H,-1.93260371,1.3020307,-5.10
 816137\H,-2.14450653,1.53840484,-3.30126646\Cl,0.14477058,1.30654881,-
 3.93641439\Cl,-1.83820456,-0.75049951,-3.89997619\C,-1.42303934,5.8985
 0488,0.7501657\H,-1.05975561,6.12802651,-0.27554515\H,-2.29781483,6.52
 793189,1.01467718\Cl,-0.11203192,6.19099625,1.9083777\Cl,-1.86213515,4
 .18443946,0.87859585\C,1.10662704,0.33661984,4.95089899\H,0.72949825,1
 .34045376,4.65980414\H,1.95512365,0.42121221,5.65898124\Cl,1.62443763,
 -0.54355408,3.50736886\Cl,-0.20037378,-0.58716907,5.70915376\C,1.06603
 971,-2.16992023,-3.02949928\H,0.19412871,-2.76902526,-3.35875129\H,0.7
 4431281,-1.16183244,-2.68626292\Cl,2.21533806,-2.01424997,-4.36400011\
 Cl,1.89566131,-3.01208776,-1.70711632\C,1.87271022,3.92450417,-5.94063
 003\H,2.84353219,3.81400603,-6.46609019\H,1.77605188,3.15543919,-5.147
 22961\Cl,1.7712871,5.543214,-5.21921646\Cl,0.53791951,3.77234669,-7.08
 540842\C,-1.50764967,4.64469341,-3.6791475\H,-0.52115846,4.26350753,-4
 .01792318\H,-1.53965329,5.7508948,-3.76167976\Cl,-2.80541184,3.935395,
 -4.65086583\Cl,-1.8049202,4.15659582,-1.99756162\C,2.14626598,5.981855
 06,-1.62579264\H,2.76116341,5.93857102,-2.54794152\H,2.77857992,5.9416
 3373,-0.71569726\Cl,1.18438673,7.46507758,-1.62499863\Cl,1.0124891,4.6
 1889533,-1.6118441\C,-4.37693617,6.8884861,-1.68586262\H,-5.3493555,6.
 94614795,-2.21490723\H,-4.08541357,5.82984655,-1.51470586\Cl,-3.136365
 95,7.70831848,-2.64618756\Cl,-4.49571499,7.73360287,-0.13693459\\Versi
 on=ES64L-G16RevC.01\HF=0.1118737\S2=2.323067\S2-1=0.\S2A=2.053588\RMSD
 =1.431e-09\RMSF=6.815e-03\Dipole=-0.3447594,-0.1167293,0.1662717\Quadr
 upole=2.3285955,0.3002176,-2.6288131,0.0525379,-0.1435171,-2.5872025\P
 G=C01 [X(C23H38Cl30)]\\@
 The archive entry for this job was punched.


 NOTHING RESEMBLES A NEW PHENOMENON AS MUCH AS A MISTAKE.

                               -- ENRICO FERMI (?)
 Job cpu time:       0 days  0 hours  2 minutes 11.6 seconds.
 Elapsed time:       0 days  0 hours  0 minutes  5.8 seconds.
 File lengths (MBytes):  RWF=    104 Int=      0 D2E=      0 Chk=     34 Scr=      1
 Normal termination of Gaussian 16 at Fri Jul 12 22:41:15 2024.
