 Entering Gaussian System, Link 0=g16
 Input=JOBS/10_A.gjf
 Output=JOBS/10_A.log
 Initial command:
 /data/app/gaussian/C01-avx2//g16/l1.exe "/tmp/Gau-1775118.inp" -scrdir="/tmp/"
 Entering Link 1 = /data/app/gaussian/C01-avx2//g16/l1.exe PID=   1775119.
  
 Copyright (c) 1988-2019, Gaussian, Inc.  All Rights Reserved.
  
 This is part of the Gaussian(R) 16 program.  It is based on
 the Gaussian(R) 09 system (copyright 2009, Gaussian, Inc.),
 the Gaussian(R) 03 system (copyright 2003, Gaussian, Inc.),
 the Gaussian(R) 98 system (copyright 1998, Gaussian, Inc.),
 the Gaussian(R) 94 system (copyright 1995, Gaussian, Inc.),
 the Gaussian 92(TM) system (copyright 1992, Gaussian, Inc.),
 the Gaussian 90(TM) system (copyright 1990, Gaussian, Inc.),
 the Gaussian 88(TM) system (copyright 1988, Gaussian, Inc.),
 the Gaussian 86(TM) system (copyright 1986, Carnegie Mellon
 University), and the Gaussian 82(TM) system (copyright 1983,
 Carnegie Mellon University). Gaussian is a federally registered
 trademark of Gaussian, Inc.
  
 This software contains proprietary and confidential information,
 including trade secrets, belonging to Gaussian, Inc.
  
 This software is provided under written license and may be
 used, copied, transmitted, or stored only in accord with that
 written license.
  
 The following legend is applicable only to US Government
 contracts under FAR:
  
                    RESTRICTED RIGHTS LEGEND
  
 Use, reproduction and disclosure by the US Government is
 subject to restrictions as set forth in subparagraphs (a)
 and (c) of the Commercial Computer Software - Restricted
 Rights clause in FAR 52.227-19.
  
 Gaussian, Inc.
 340 Quinnipiac St., Bldg. 40, Wallingford CT 06492
  
  
 ---------------------------------------------------------------
 Warning -- This program may not be used in any manner that
 competes with the business of Gaussian, Inc. or will provide
 assistance to any competitor of Gaussian, Inc.  The licensee
 of this program is prohibited from giving any competitor of
 Gaussian, Inc. access to this program.  By using this program,
 the user acknowledges that Gaussian, Inc. is engaged in the
 business of creating and licensing software in the field of
 computational chemistry and represents and warrants to the
 licensee that it is not a competitor of Gaussian, Inc. and that
 it will not use this program in any manner prohibited above.
 ---------------------------------------------------------------
  

 Cite this work as:
 Gaussian 16, Revision C.01,
 M. J. Frisch, G. W. Trucks, H. B. Schlegel, G. E. Scuseria, 
 M. A. Robb, J. R. Cheeseman, G. Scalmani, V. Barone, 
 G. A. Petersson, H. Nakatsuji, X. Li, M. Caricato, A. V. Marenich, 
 J. Bloino, B. G. Janesko, R. Gomperts, B. Mennucci, H. P. Hratchian, 
 J. V. Ortiz, A. F. Izmaylov, J. L. Sonnenberg, D. Williams-Young, 
 F. Ding, F. Lipparini, F. Egidi, J. Goings, B. Peng, A. Petrone, 
 T. Henderson, D. Ranasinghe, V. G. Zakrzewski, J. Gao, N. Rega, 
 G. Zheng, W. Liang, M. Hada, M. Ehara, K. Toyota, R. Fukuda, 
 J. Hasegawa, M. Ishida, T. Nakajima, Y. Honda, O. Kitao, H. Nakai, 
 T. Vreven, K. Throssell, J. A. Montgomery, Jr., J. E. Peralta, 
 F. Ogliaro, M. J. Bearpark, J. J. Heyd, E. N. Brothers, K. N. Kudin, 
 V. N. Staroverov, T. A. Keith, R. Kobayashi, J. Normand, 
 K. Raghavachari, A. P. Rendell, J. C. Burant, S. S. Iyengar, 
 J. Tomasi, M. Cossi, J. M. Millam, M. Klene, C. Adamo, R. Cammi, 
 J. W. Ochterski, R. L. Martin, K. Morokuma, O. Farkas, 
 J. B. Foresman, and D. J. Fox, Gaussian, Inc., Wallingford CT, 2019.
 
 ******************************************
 Gaussian 16:  ES64L-G16RevC.01  3-Jul-2019
                12-Jul-2024 
 ******************************************
 %chk=a.chk
 %nprocshared=28
 Will use up to   28 processors via shared memory.
 %mem=48gb
 ----------------------------------------------------------------------
 # scf=(xqc,maxcycle=64) force guess=read oniom(td/b3lyp/em=gd3bj/6-31g
 (d):pm6) nosymm
 ----------------------------------------------------------------------
 1/10=7,30=1,38=1,52=2/1,3;
 2/12=2,15=1,17=6,18=5,40=1/2;
 1/10=7,30=1,38=1,52=2,53=3172/20;
 3/5=2,25=1,41=3900000,71=1,116=-2/1,2,3;
 4/5=1,35=1/1;
 5/5=2,7=64,8=3,13=1,35=1,38=6/2,8;
 6/7=2,8=2,9=2,10=2,28=1/1;
 7/7=1,30=1,33=-1/1,2,3,16;
 1/10=7,30=1,52=2,53=2032/20;
 3/5=1,6=6,7=1,11=9,25=1,30=1,71=1,74=-5,116=-2,124=41/1,2,3,8;
 4/5=1/1;
 5/5=2,7=64,8=3,13=1,38=6/2,8;
 8/6=1,10=2/1;
 9/15=2,42=1,70=2/14;
 10/5=4,31=1/2;
 6/7=2,8=2,9=2,10=2,18=1/1;
 7/7=1,12=6,13=5,30=1,33=-1/1,2,3,16;
 1/10=7,30=1,52=2,53=1022/20;
 3/5=2,25=1,41=3900000,71=1,116=-2/1,2,3;
 4/5=1,35=1/1;
 5/5=2,7=64,8=3,13=1,35=1,38=6/2,8;
 6/7=2,8=2,9=2,10=2,28=1/1;
 7/7=1,30=1,33=-1/1,2,3,16;
 1/10=7,30=1,52=2,53=3015/20;
 7/9=1,29=1,44=-1,126=2/16;
 1/10=7,30=1,52=2/3;
 99//99;
 ONIOM: restoring gridpoint  3 on chk file.
 ----------
 Title Card
 ----------
 Symbolic Z-matrix:
 Charge =  0 Multiplicity = 1 for low   level calculation on real  system.
 Charge =  0 Multiplicity = 1 for high  level calculation on model system.
 Charge =  0 Multiplicity = 1 for low   level calculation on model system.
 c                     0.55474  -0.1766   -0.18035  h 
 c                    -0.08416  -1.29442   0.41566  h 
 c                    -0.26714   0.88126  -0.64678  h 
 c                    -1.45617  -1.35655   0.52945  h 
 h                     0.53678  -2.11308   0.7749   h 
 c                     1.9759   -0.14668  -0.30959  h 
 c                    -1.6442    0.81605  -0.51072  h 
 h                     0.18572   1.75302  -1.11275  h 
 c                    -2.25248  -0.30244   0.05943  h 
 h                    -1.91897  -2.22429   0.99241  h 
 c                     2.68635   0.88827  -1.00473  h 
 h                     2.52158  -0.99854   0.1027   h 
 h                    -2.25689   1.64799  -0.85227  h 
 h                    -3.33548  -0.35734   0.13662  h 
 h                     3.61283   1.31625  -0.6308   h 
 h                     2.33177   1.28291  -1.95488  h 
 c                     4.97449   0.55634   1.9941   l 
 h                     5.25797   1.14631   1.09726  l 
 h                     3.97696   0.86075   2.37398  l 
 cl                    6.18577   0.77252   3.25578  l 
 cl                    4.93608  -1.16948   1.56984  l 
 c                     5.72894  -1.06827  -1.56077  l 
 h                     4.65123  -1.11371  -1.29441  l 
 h                     6.3364   -1.6744   -0.85763  l 
 cl                    6.28258   0.61571  -1.51405  l 
 cl                    5.96059  -1.65499  -3.21172  l 
 c                     2.10783   3.18439   1.5431   l 
 h                     1.8311    2.1462    1.25432  l 
 h                     1.36006   3.91005   1.15591  l 
 cl                    3.71201   3.57968   0.90102  l 
 cl                    2.21201   3.31242   3.30623  l 
 c                    -2.26033   0.81393   3.47701  l 
 h                    -1.8878   -0.23143   3.50805  l 
 h                    -2.20016   1.29374   4.47671  l 
 cl                   -3.93913   0.82537   2.91048  l 
 cl                   -1.29668   1.73803   2.31276  l 
 c                    -1.04987   4.55971   4.58081  l 
 h                    -0.3818    5.43479   4.70652  l 
 h                    -0.87963   4.07436   3.5963   l 
 cl                   -2.73479   5.06309   4.71986  l 
 cl                   -0.73382   3.38685   5.87813  l 
 c                     4.43403   1.08789  -4.44638  l 
 h                     3.87639   0.27846  -3.92825  l 
 h                     5.52851   0.91287  -4.37633  l 
 cl                    4.03972   2.65527  -3.70963  l 
 cl                    3.93685   1.17051  -6.14053  l 
 c                    -5.42522   1.97006  -0.38877  l 
 h                    -6.31972   1.4021   -0.06262  l 
 h                    -4.6259    1.92991   0.3815   l 
 cl                   -5.87608   3.65554  -0.68379  l 
 cl                   -4.82666   1.29048  -1.90866  l 
 c                    -1.59093   0.98138  -4.08659  l 
 h                    -1.91898   1.2981   -5.09792  l 
 h                    -2.14808   1.52694  -3.29355  l 
 cl                    0.14768   1.3012   -3.90909  l 
 cl                   -1.83342  -0.75939  -3.89721  l 
 c                    -1.40674   5.89347   0.7606   l 
 h                    -1.04398   6.11913  -0.26572  l 
 h                    -2.28923   6.51333   1.02207  l 
 cl                   -0.10213   6.20184   1.92178  l 
 cl                   -1.83244   4.17726   0.88918  l 
 c                     1.11007   0.33103   4.94152  l 
 h                     0.73404   1.33035   4.63457  l 
 h                     1.9555    0.42677   5.65218  l 
 cl                    1.63519  -0.56995   3.51358  l 
 cl                   -0.20064  -0.58219   5.70531  l 
 c                     1.06755  -2.1709   -3.02781  l 
 h                     0.18942  -2.76161  -3.35564  l 
 h                     0.7518   -1.16571  -2.67092  l 
 cl                    2.20769  -2.00434  -4.36886  l 
 cl                    1.90555  -3.0322   -1.72301  l 
 c                     1.8708    3.92713  -5.95348  l 
 h                     2.84104   3.81746  -6.48036  l 
 h                     1.77664   3.1604   -5.15745  l 
 cl                    1.76639   5.54767  -5.23668  l 
 cl                    0.53527   3.76744  -7.0964   l 
 c                    -1.52317   4.62197  -3.6836   l 
 h                    -0.54241   4.21726  -4.01107  l 
 h                    -1.53002   5.73062  -3.73396  l 
 cl                   -2.8129    3.97382  -4.70503  l 
 cl                   -1.84888   4.10883  -2.01442  l 
 c                     2.15755   5.97005  -1.62407  l 
 h                     2.77338   5.92959  -2.54601  l 
 h                     2.79746   5.9341   -0.71858  l 
 cl                    1.18553   7.44618  -1.6197   l 
 cl                    1.02328   4.60458  -1.60879  l 
 c                    -4.37742   6.87807  -1.68646  l 
 h                    -5.34945   6.93588  -2.21624  l 
 h                    -4.07528   5.81944  -1.53528  l 
 cl                   -3.14255   7.72718  -2.62831  l 
 cl                   -4.50839   7.69086  -0.12131  l 
 

 GradGradGradGradGradGradGradGradGradGradGradGradGradGradGradGradGradGrad
 Berny optimization.
 Initialization pass.
 Trust Radius=3.00D-01 FncErr=1.00D-07 GrdErr=1.00D-07 EigMax=2.50D+02 EigMin=1.00D-04
 Number of steps in this run=      2 maximum allowed number of steps=      2.
 GradGradGradGradGradGradGradGradGradGradGradGradGradGradGradGradGradGrad

 Symmetry turned off by external request.
 Stoichiometry    C23H38Cl30
 Framework group  C1[X(C23H38Cl30)]
 Deg. of freedom   267
 Full point group                 C1      NOp   1
                          Input orientation:                          
 ---------------------------------------------------------------------
 Center     Atomic      Atomic             Coordinates (Angstroms)
 Number     Number       Type             X           Y           Z
 ---------------------------------------------------------------------
      1          6           0        0.554745   -0.176602   -0.180355
      2          6           0       -0.084155   -1.294419    0.415665
      3          6           0       -0.267136    0.881262   -0.646783
      4          6           0       -1.456168   -1.356549    0.529453
      5          1           0        0.536779   -2.113084    0.774896
      6          6           0        1.975895   -0.146679   -0.309594
      7          6           0       -1.644198    0.816052   -0.510724
      8          1           0        0.185725    1.753019   -1.112750
      9          6           0       -2.252482   -0.302445    0.059431
     10          1           0       -1.918973   -2.224287    0.992412
     11          6           0        2.686355    0.888274   -1.004725
     12          1           0        2.521582   -0.998540    0.102701
     13          1           0       -2.256885    1.647987   -0.852268
     14          1           0       -3.335478   -0.357341    0.136624
     15          1           0        3.612833    1.316249   -0.630804
     16          1           0        2.331767    1.282910   -1.954878
     17          6           0        4.974492    0.556342    1.994104
     18          1           0        5.257966    1.146311    1.097256
     19          1           0        3.976959    0.860751    2.373980
     20         17           0        6.185766    0.772522    3.255776
     21         17           0        4.936079   -1.169484    1.569844
     22          6           0        5.728944   -1.068273   -1.560766
     23          1           0        4.651227   -1.113707   -1.294411
     24          1           0        6.336405   -1.674398   -0.857633
     25         17           0        6.282576    0.615708   -1.514048
     26         17           0        5.960591   -1.654990   -3.211716
     27          6           0        2.107834    3.184389    1.543102
     28          1           0        1.831101    2.146203    1.254315
     29          1           0        1.360057    3.910050    1.155909
     30         17           0        3.712008    3.579682    0.901015
     31         17           0        2.212009    3.312421    3.306227
     32          6           0       -2.260328    0.813928    3.477006
     33          1           0       -1.887802   -0.231432    3.508049
     34          1           0       -2.200160    1.293742    4.476713
     35         17           0       -3.939135    0.825370    2.910479
     36         17           0       -1.296680    1.738028    2.312764
     37          6           0       -1.049869    4.559711    4.580811
     38          1           0       -0.381805    5.434794    4.706518
     39          1           0       -0.879634    4.074362    3.596304
     40         17           0       -2.734786    5.063094    4.719859
     41         17           0       -0.733824    3.386851    5.878131
     42          6           0        4.434031    1.087895   -4.446377
     43          1           0        3.876391    0.278463   -3.928253
     44          1           0        5.528510    0.912874   -4.376327
     45         17           0        4.039721    2.655273   -3.709628
     46         17           0        3.936848    1.170514   -6.140527
     47          6           0       -5.425216    1.970056   -0.388772
     48          1           0       -6.319718    1.402098   -0.062624
     49          1           0       -4.625899    1.929911    0.381497
     50         17           0       -5.876081    3.655542   -0.683789
     51         17           0       -4.826663    1.290477   -1.908660
     52          6           0       -1.590932    0.981381   -4.086588
     53          1           0       -1.918975    1.298095   -5.097922
     54          1           0       -2.148083    1.526940   -3.293552
     55         17           0        0.147678    1.301204   -3.909088
     56         17           0       -1.833424   -0.759393   -3.897207
     57          6           0       -1.406740    5.893466    0.760596
     58          1           0       -1.043980    6.119132   -0.265724
     59          1           0       -2.289225    6.513334    1.022068
     60         17           0       -0.102131    6.201840    1.921784
     61         17           0       -1.832436    4.177258    0.889184
     62          6           0        1.110066    0.331026    4.941516
     63          1           0        0.734036    1.330345    4.634568
     64          1           0        1.955504    0.426768    5.652182
     65         17           0        1.635195   -0.569953    3.513585
     66         17           0       -0.200641   -0.582188    5.705308
     67          6           0        1.067553   -2.170895   -3.027809
     68          1           0        0.189421   -2.761606   -3.355641
     69          1           0        0.751801   -1.165706   -2.670918
     70         17           0        2.207688   -2.004343   -4.368859
     71         17           0        1.905554   -3.032199   -1.723010
     72          6           0        1.870803    3.927129   -5.953477
     73          1           0        2.841041    3.817456   -6.480365
     74          1           0        1.776644    3.160399   -5.157446
     75         17           0        1.766393    5.547673   -5.236682
     76         17           0        0.535265    3.767444   -7.096402
     77          6           0       -1.523166    4.621969   -3.683602
     78          1           0       -0.542405    4.217264   -4.011073
     79          1           0       -1.530016    5.730616   -3.733962
     80         17           0       -2.812895    3.973819   -4.705030
     81         17           0       -1.848883    4.108829   -2.014424
     82          6           0        2.157554    5.970045   -1.624071
     83          1           0        2.773379    5.929594   -2.546015
     84          1           0        2.797465    5.934104   -0.718579
     85         17           0        1.185525    7.446178   -1.619696
     86         17           0        1.023278    4.604576   -1.608792
     87          6           0       -4.377417    6.878066   -1.686459
     88          1           0       -5.349452    6.935876   -2.216242
     89          1           0       -4.075277    5.819439   -1.535279
     90         17           0       -3.142546    7.727184   -2.628309
     91         17           0       -4.508394    7.690855   -0.121309
 ---------------------------------------------------------------------
 Rotational constants (GHZ):           0.0225967           0.0200334           0.0153251
 ONIOM: saving gridpoint 17
 ONIOM: restoring gridpoint  3 on chk file.
 ONIOM: generating point  3 -- low level on real system.
 Standard basis: VSTO-6G (5D, 7F)
   400 basis functions,  2580 primitive gaussians,   430 cartesian basis functions
   170 alpha electrons      170 beta electrons
       nuclear repulsion energy      5298.5559429382 Hartrees.
 Integral buffers will be    131072 words long.
 Regular integral format.
 Two-electron integral symmetry is turned off.
 Do NDO integrals.
 One-electron integrals computed using PRISM.
 NBasis=   400 RedAO= F EigKep=  0.00D+00  NBF=   400
 NBsUse=   400 1.00D-04 EigRej=  0.00D+00 NBFU=   400
 Initial guess from the checkpoint file:  "a.chk"
 B after Tr=    -0.000158   -0.000194   -0.000262
         Rot=    1.000000   -0.000012    0.000007   -0.000007 Ang=  -0.00 deg.
 Initial guess <Sx>= 0.0000 <Sy>= 0.0000 <Sz>= 0.0000 <S**2>=-0.0000 S=-0.0000
 Keep J ints in memory in canonical form, NReq=3161508.
 Overlap will be assumed to be unity.
 Requested convergence on RMS density matrix=1.00D-08 within  64 cycles.
 Requested convergence on MAX density matrix=1.00D-06.
 Requested convergence on             energy=1.00D-06.
 No special actions if energy rises.
 SCF Done:  E(UPM6) = -0.404691741530     A.U. after   11 cycles
            NFock= 10  Conv=0.78D-08     -V/T= 0.9994
 <Sx>= 0.0000 <Sy>= 0.0000 <Sz>= 0.0000 <S**2>=-0.0000 S=-0.0000
 <L.S>=  0.00000000000    
 Annihilation of the first spin contaminant:
 S**2 before annihilation    -0.0000,   after     0.0000
 QCSCF skips out because SCF is already converged.

 **********************************************************************

            Population analysis using the SCF Density.

 **********************************************************************

 Alpha  occ. eigenvalues --   -1.11277  -1.05641  -1.05330  -1.05282  -1.05188
 Alpha  occ. eigenvalues --   -1.05143  -1.05126  -1.04942  -1.04881  -1.04791
 Alpha  occ. eigenvalues --   -1.04750  -1.04710  -1.04479  -1.04457  -1.04347
 Alpha  occ. eigenvalues --   -1.04107  -1.01812  -0.98614  -0.98297  -0.98219
 Alpha  occ. eigenvalues --   -0.98158  -0.98109  -0.97966  -0.97950  -0.97799
 Alpha  occ. eigenvalues --   -0.97773  -0.97754  -0.97633  -0.97408  -0.97341
 Alpha  occ. eigenvalues --   -0.97258  -0.97248  -0.97000  -0.92327  -0.88788
 Alpha  occ. eigenvalues --   -0.88704  -0.88585  -0.88404  -0.88363  -0.88255
 Alpha  occ. eigenvalues --   -0.88221  -0.88129  -0.88089  -0.88016  -0.87888
 Alpha  occ. eigenvalues --   -0.87656  -0.87560  -0.87514  -0.87211  -0.82657
 Alpha  occ. eigenvalues --   -0.79207  -0.72952  -0.65435  -0.62720  -0.62382
 Alpha  occ. eigenvalues --   -0.62117  -0.61860  -0.61648  -0.61543  -0.61491
 Alpha  occ. eigenvalues --   -0.61310  -0.61255  -0.61162  -0.61058  -0.60908
 Alpha  occ. eigenvalues --   -0.60381  -0.60305  -0.60127  -0.60051  -0.60010
 Alpha  occ. eigenvalues --   -0.59775  -0.59614  -0.59535  -0.59461  -0.59372
 Alpha  occ. eigenvalues --   -0.59271  -0.59204  -0.59111  -0.58995  -0.58942
 Alpha  occ. eigenvalues --   -0.58742  -0.58604  -0.58574  -0.58486  -0.58333
 Alpha  occ. eigenvalues --   -0.58271  -0.58069  -0.57794  -0.57730  -0.57709
 Alpha  occ. eigenvalues --   -0.57672  -0.57584  -0.57522  -0.57506  -0.57428
 Alpha  occ. eigenvalues --   -0.57233  -0.57104  -0.57069  -0.56887  -0.56780
 Alpha  occ. eigenvalues --   -0.55186  -0.53413  -0.52323  -0.51052  -0.49677
 Alpha  occ. eigenvalues --   -0.46196  -0.45290  -0.45093  -0.44803  -0.44274
 Alpha  occ. eigenvalues --   -0.44248  -0.44111  -0.43993  -0.43935  -0.43856
 Alpha  occ. eigenvalues --   -0.43760  -0.43704  -0.43588  -0.43494  -0.43461
 Alpha  occ. eigenvalues --   -0.43424  -0.43416  -0.43391  -0.43314  -0.43289
 Alpha  occ. eigenvalues --   -0.43225  -0.43149  -0.43124  -0.43047  -0.42973
 Alpha  occ. eigenvalues --   -0.42904  -0.42863  -0.42803  -0.42759  -0.42626
 Alpha  occ. eigenvalues --   -0.42585  -0.42474  -0.42415  -0.42338  -0.42126
 Alpha  occ. eigenvalues --   -0.42017  -0.41912  -0.41903  -0.41792  -0.41787
 Alpha  occ. eigenvalues --   -0.41708  -0.41687  -0.41623  -0.41609  -0.41480
 Alpha  occ. eigenvalues --   -0.41362  -0.41298  -0.41286  -0.41236  -0.41204
 Alpha  occ. eigenvalues --   -0.41161  -0.41135  -0.41049  -0.41040  -0.40908
 Alpha  occ. eigenvalues --   -0.40865  -0.40760  -0.40599  -0.40584  -0.40514
 Alpha  occ. eigenvalues --   -0.40372  -0.40322  -0.39599  -0.36947  -0.32892
 Alpha virt. eigenvalues --   -0.03657  -0.01315  -0.00983  -0.00949  -0.00889
 Alpha virt. eigenvalues --   -0.00663  -0.00641  -0.00590  -0.00547  -0.00485
 Alpha virt. eigenvalues --   -0.00454  -0.00445  -0.00393  -0.00364  -0.00276
 Alpha virt. eigenvalues --   -0.00253  -0.00235  -0.00226  -0.00201  -0.00196
 Alpha virt. eigenvalues --   -0.00157  -0.00131  -0.00054  -0.00013   0.00045
 Alpha virt. eigenvalues --    0.00347   0.00391   0.00463   0.00490   0.00497
 Alpha virt. eigenvalues --    0.00600   0.00698   0.02621   0.08908   0.14220
 Alpha virt. eigenvalues --    0.14252   0.14431   0.14550   0.14696   0.14768
 Alpha virt. eigenvalues --    0.14871   0.14964   0.14981   0.15031   0.15066
 Alpha virt. eigenvalues --    0.15124   0.15157   0.15159   0.15249   0.15358
 Alpha virt. eigenvalues --    0.15413   0.15439   0.15497   0.15570   0.15618
 Alpha virt. eigenvalues --    0.15735   0.15789   0.15859   0.15915   0.15932
 Alpha virt. eigenvalues --    0.15963   0.15980   0.16096   0.16347   0.16405
 Alpha virt. eigenvalues --    0.16419   0.16720   0.17006   0.17226   0.17964
 Alpha virt. eigenvalues --    0.18571   0.19301   0.19815   0.20393   0.21104
 Alpha virt. eigenvalues --    0.21284   0.21599   0.21802   0.22176   0.22294
 Alpha virt. eigenvalues --    3.16389   3.16813   3.17316   3.17937   3.18103
 Alpha virt. eigenvalues --    3.18346   3.18621   3.18720   3.18965   3.19080
 Alpha virt. eigenvalues --    3.19093   3.19263   3.19321   3.19535   3.19630
 Alpha virt. eigenvalues --    3.19635   3.19698   3.19833   3.19902   3.19990
 Alpha virt. eigenvalues --    3.20017   3.20178   3.20270   3.20302   3.20428
 Alpha virt. eigenvalues --    3.20469   3.20537   3.20549   3.20621   3.20660
 Alpha virt. eigenvalues --    3.20696   3.20827   3.20869   3.20964   3.21003
 Alpha virt. eigenvalues --    3.21058   3.21100   3.21159   3.21176   3.21230
 Alpha virt. eigenvalues --    3.21404   3.21445   3.21559   3.21716   3.21832
 Alpha virt. eigenvalues --    3.21969   3.22060   3.22132   3.22163   3.22306
 Alpha virt. eigenvalues --    3.22439   3.22496   3.22523   3.22587   3.22732
 Alpha virt. eigenvalues --    3.22784   3.22939   3.22988   3.23132   3.23165
 Alpha virt. eigenvalues --    3.23187   3.23287   3.23368   3.23415   3.23478
 Alpha virt. eigenvalues --    3.23499   3.23572   3.23648   3.23739   3.23789
 Alpha virt. eigenvalues --    3.23851   3.23943   3.23965   3.23997   3.24089
 Alpha virt. eigenvalues --    3.24132   3.24150   3.24231   3.24273   3.24309
 Alpha virt. eigenvalues --    3.24371   3.24476   3.24483   3.24537   3.24637
 Alpha virt. eigenvalues --    3.24663   3.24719   3.24804   3.24852   3.24934
 Alpha virt. eigenvalues --    3.24955   3.25024   3.25059   3.25077   3.25100
 Alpha virt. eigenvalues --    3.25141   3.25300   3.25378   3.25455   3.25514
 Alpha virt. eigenvalues --    3.25537   3.25676   3.25731   3.25757   3.25852
 Alpha virt. eigenvalues --    3.25879   3.25923   3.25992   3.26104   3.26216
 Alpha virt. eigenvalues --    3.26278   3.26325   3.26418   3.26453   3.26786
 Alpha virt. eigenvalues --    3.26841   3.26905   3.26993   3.27025   3.27157
 Alpha virt. eigenvalues --    3.27235   3.27331   3.27380   3.27395   3.27466
 Alpha virt. eigenvalues --    3.27537   3.27631   3.27732   3.27751   3.27834
 Alpha virt. eigenvalues --    3.27856   3.27951   3.28147   3.28159   3.28204
 Alpha virt. eigenvalues --    3.28281   3.28380   3.28469   3.28546   3.28582
 Alpha virt. eigenvalues --    3.28638   3.28675   3.28728   3.28825   3.28917
 Alpha virt. eigenvalues --    3.29129   3.29255   3.29344   3.29702   3.29961
  Beta  occ. eigenvalues --   -1.11277  -1.05641  -1.05330  -1.05282  -1.05188
  Beta  occ. eigenvalues --   -1.05143  -1.05126  -1.04942  -1.04881  -1.04791
  Beta  occ. eigenvalues --   -1.04750  -1.04710  -1.04479  -1.04457  -1.04347
  Beta  occ. eigenvalues --   -1.04107  -1.01812  -0.98614  -0.98297  -0.98219
  Beta  occ. eigenvalues --   -0.98158  -0.98109  -0.97966  -0.97950  -0.97799
  Beta  occ. eigenvalues --   -0.97773  -0.97754  -0.97633  -0.97408  -0.97341
  Beta  occ. eigenvalues --   -0.97258  -0.97248  -0.97000  -0.92327  -0.88788
  Beta  occ. eigenvalues --   -0.88704  -0.88585  -0.88404  -0.88363  -0.88255
  Beta  occ. eigenvalues --   -0.88221  -0.88129  -0.88089  -0.88016  -0.87888
  Beta  occ. eigenvalues --   -0.87656  -0.87560  -0.87514  -0.87211  -0.82657
  Beta  occ. eigenvalues --   -0.79207  -0.72952  -0.65435  -0.62720  -0.62382
  Beta  occ. eigenvalues --   -0.62117  -0.61860  -0.61648  -0.61543  -0.61491
  Beta  occ. eigenvalues --   -0.61310  -0.61255  -0.61162  -0.61058  -0.60908
  Beta  occ. eigenvalues --   -0.60381  -0.60305  -0.60127  -0.60051  -0.60010
  Beta  occ. eigenvalues --   -0.59775  -0.59614  -0.59535  -0.59461  -0.59372
  Beta  occ. eigenvalues --   -0.59271  -0.59204  -0.59111  -0.58995  -0.58942
  Beta  occ. eigenvalues --   -0.58742  -0.58604  -0.58574  -0.58486  -0.58333
  Beta  occ. eigenvalues --   -0.58271  -0.58069  -0.57794  -0.57730  -0.57709
  Beta  occ. eigenvalues --   -0.57672  -0.57584  -0.57522  -0.57506  -0.57428
  Beta  occ. eigenvalues --   -0.57233  -0.57104  -0.57069  -0.56887  -0.56780
  Beta  occ. eigenvalues --   -0.55186  -0.53413  -0.52323  -0.51052  -0.49677
  Beta  occ. eigenvalues --   -0.46196  -0.45290  -0.45093  -0.44803  -0.44274
  Beta  occ. eigenvalues --   -0.44248  -0.44111  -0.43993  -0.43935  -0.43856
  Beta  occ. eigenvalues --   -0.43760  -0.43704  -0.43588  -0.43494  -0.43461
  Beta  occ. eigenvalues --   -0.43424  -0.43416  -0.43391  -0.43314  -0.43289
  Beta  occ. eigenvalues --   -0.43225  -0.43149  -0.43124  -0.43047  -0.42973
  Beta  occ. eigenvalues --   -0.42904  -0.42863  -0.42803  -0.42759  -0.42626
  Beta  occ. eigenvalues --   -0.42585  -0.42474  -0.42415  -0.42338  -0.42126
  Beta  occ. eigenvalues --   -0.42017  -0.41912  -0.41903  -0.41792  -0.41787
  Beta  occ. eigenvalues --   -0.41708  -0.41687  -0.41623  -0.41609  -0.41480
  Beta  occ. eigenvalues --   -0.41362  -0.41298  -0.41286  -0.41236  -0.41204
  Beta  occ. eigenvalues --   -0.41161  -0.41135  -0.41049  -0.41040  -0.40908
  Beta  occ. eigenvalues --   -0.40865  -0.40760  -0.40599  -0.40584  -0.40514
  Beta  occ. eigenvalues --   -0.40372  -0.40322  -0.39599  -0.36947  -0.32892
  Beta virt. eigenvalues --   -0.03657  -0.01315  -0.00983  -0.00949  -0.00889
  Beta virt. eigenvalues --   -0.00663  -0.00641  -0.00590  -0.00547  -0.00485
  Beta virt. eigenvalues --   -0.00454  -0.00445  -0.00393  -0.00364  -0.00276
  Beta virt. eigenvalues --   -0.00253  -0.00235  -0.00226  -0.00201  -0.00196
  Beta virt. eigenvalues --   -0.00157  -0.00131  -0.00054  -0.00013   0.00045
  Beta virt. eigenvalues --    0.00347   0.00391   0.00463   0.00490   0.00497
  Beta virt. eigenvalues --    0.00600   0.00698   0.02621   0.08908   0.14220
  Beta virt. eigenvalues --    0.14252   0.14431   0.14550   0.14696   0.14768
  Beta virt. eigenvalues --    0.14871   0.14964   0.14981   0.15031   0.15066
  Beta virt. eigenvalues --    0.15124   0.15157   0.15159   0.15249   0.15358
  Beta virt. eigenvalues --    0.15413   0.15439   0.15497   0.15570   0.15618
  Beta virt. eigenvalues --    0.15735   0.15789   0.15859   0.15915   0.15932
  Beta virt. eigenvalues --    0.15963   0.15980   0.16096   0.16347   0.16405
  Beta virt. eigenvalues --    0.16419   0.16720   0.17006   0.17226   0.17964
  Beta virt. eigenvalues --    0.18571   0.19301   0.19815   0.20393   0.21104
  Beta virt. eigenvalues --    0.21284   0.21599   0.21802   0.22176   0.22294
  Beta virt. eigenvalues --    3.16389   3.16813   3.17316   3.17937   3.18103
  Beta virt. eigenvalues --    3.18346   3.18621   3.18720   3.18965   3.19080
  Beta virt. eigenvalues --    3.19093   3.19263   3.19321   3.19535   3.19630
  Beta virt. eigenvalues --    3.19635   3.19698   3.19833   3.19902   3.19990
  Beta virt. eigenvalues --    3.20017   3.20178   3.20270   3.20302   3.20428
  Beta virt. eigenvalues --    3.20469   3.20537   3.20549   3.20621   3.20660
  Beta virt. eigenvalues --    3.20696   3.20827   3.20869   3.20964   3.21003
  Beta virt. eigenvalues --    3.21058   3.21100   3.21159   3.21176   3.21230
  Beta virt. eigenvalues --    3.21404   3.21445   3.21559   3.21716   3.21832
  Beta virt. eigenvalues --    3.21969   3.22060   3.22132   3.22163   3.22306
  Beta virt. eigenvalues --    3.22439   3.22496   3.22523   3.22587   3.22732
  Beta virt. eigenvalues --    3.22784   3.22939   3.22988   3.23132   3.23165
  Beta virt. eigenvalues --    3.23187   3.23287   3.23368   3.23415   3.23478
  Beta virt. eigenvalues --    3.23499   3.23572   3.23648   3.23739   3.23789
  Beta virt. eigenvalues --    3.23851   3.23943   3.23965   3.23997   3.24089
  Beta virt. eigenvalues --    3.24132   3.24150   3.24231   3.24273   3.24309
  Beta virt. eigenvalues --    3.24371   3.24476   3.24483   3.24537   3.24637
  Beta virt. eigenvalues --    3.24663   3.24719   3.24804   3.24852   3.24934
  Beta virt. eigenvalues --    3.24955   3.25024   3.25059   3.25077   3.25100
  Beta virt. eigenvalues --    3.25141   3.25300   3.25378   3.25455   3.25514
  Beta virt. eigenvalues --    3.25537   3.25676   3.25731   3.25757   3.25852
  Beta virt. eigenvalues --    3.25879   3.25923   3.25992   3.26104   3.26216
  Beta virt. eigenvalues --    3.26278   3.26325   3.26418   3.26453   3.26786
  Beta virt. eigenvalues --    3.26841   3.26905   3.26993   3.27025   3.27157
  Beta virt. eigenvalues --    3.27235   3.27331   3.27380   3.27395   3.27466
  Beta virt. eigenvalues --    3.27537   3.27631   3.27732   3.27751   3.27834
  Beta virt. eigenvalues --    3.27856   3.27951   3.28147   3.28159   3.28204
  Beta virt. eigenvalues --    3.28281   3.28380   3.28469   3.28546   3.28582
  Beta virt. eigenvalues --    3.28638   3.28675   3.28728   3.28825   3.28917
  Beta virt. eigenvalues --    3.29129   3.29255   3.29344   3.29702   3.29961
          Condensed to atoms (all electrons):
          Atomic-Atomic Spin Densities.
 Mulliken charges and spin densities:
               1          2
     1  C   -0.015988   0.000000
     2  C   -0.142134   0.000000
     3  C   -0.148928   0.000000
     4  C   -0.156473   0.000000
     5  H    0.153387   0.000000
     6  C   -0.126894   0.000000
     7  C   -0.152084   0.000000
     8  H    0.155120   0.000000
     9  C   -0.117506   0.000000
    10  H    0.149325   0.000000
    11  C   -0.368795   0.000000
    12  H    0.157079   0.000000
    13  H    0.150764   0.000000
    14  H    0.145700   0.000000
    15  H    0.158466   0.000000
    16  H    0.161798   0.000000
    17  C   -0.139136   0.000000
    18  H    0.187897   0.000000
    19  H    0.186150   0.000000
    20  Cl  -0.094968   0.000000
    21  Cl  -0.140434   0.000000
    22  C   -0.144433   0.000000
    23  H    0.192869   0.000000
    24  H    0.191571   0.000000
    25  Cl  -0.127754   0.000000
    26  Cl  -0.111577   0.000000
    27  C   -0.143564   0.000000
    28  H    0.198306   0.000000
    29  H    0.196906   0.000000
    30  Cl  -0.126306   0.000000
    31  Cl  -0.126128   0.000000
    32  C   -0.129030   0.000000
    33  H    0.192368   0.000000
    34  H    0.191975   0.000000
    35  Cl  -0.129995   0.000000
    36  Cl  -0.123504   0.000000
    37  C   -0.137575   0.000000
    38  H    0.184829   0.000000
    39  H    0.194179   0.000000
    40  Cl  -0.100909   0.000000
    41  Cl  -0.142186   0.000000
    42  C   -0.133000   0.000000
    43  H    0.194009   0.000000
    44  H    0.195195   0.000000
    45  Cl  -0.141510   0.000000
    46  Cl  -0.114606   0.000000
    47  C   -0.141875   0.000000
    48  H    0.183086   0.000000
    49  H    0.191479   0.000000
    50  Cl  -0.117459   0.000000
    51  Cl  -0.114961   0.000000
    52  C   -0.127031   0.000000
    53  H    0.190331   0.000000
    54  H    0.195679   0.000000
    55  Cl  -0.142019   0.000000
    56  Cl  -0.116702   0.000000
    57  C   -0.139064   0.000000
    58  H    0.198883   0.000000
    59  H    0.193845   0.000000
    60  Cl  -0.134618   0.000000
    61  Cl  -0.113459   0.000000
    62  C   -0.145576   0.000000
    63  H    0.191164   0.000000
    64  H    0.186446   0.000000
    65  Cl  -0.112355   0.000000
    66  Cl  -0.120322   0.000000
    67  C   -0.132901   0.000000
    68  H    0.183965   0.000000
    69  H    0.198511   0.000000
    70  Cl  -0.116841   0.000000
    71  Cl  -0.133600   0.000000
    72  C   -0.139006   0.000000
    73  H    0.191457   0.000000
    74  H    0.189634   0.000000
    75  Cl  -0.137068   0.000000
    76  Cl  -0.106374   0.000000
    77  C   -0.143104   0.000000
    78  H    0.193015   0.000000
    79  H    0.194021   0.000000
    80  Cl  -0.119759   0.000000
    81  Cl  -0.127211   0.000000
    82  C   -0.143772   0.000000
    83  H    0.188930   0.000000
    84  H    0.188269   0.000000
    85  Cl  -0.106822   0.000000
    86  Cl  -0.130486   0.000000
    87  C   -0.149268   0.000000
    88  H    0.186219   0.000000
    89  H    0.193230   0.000000
    90  Cl  -0.116888   0.000000
    91  Cl  -0.112096   0.000000
 Sum of Mulliken charges =  -0.00000   0.00000
 Mulliken charges and spin densities with hydrogens summed into heavy atoms:
               1          2
     1  C   -0.015988   0.000000
     2  C    0.011253   0.000000
     3  C    0.006192   0.000000
     4  C   -0.007148   0.000000
     6  C    0.030185   0.000000
     7  C   -0.001320   0.000000
     9  C    0.028193   0.000000
    11  C   -0.048531   0.000000
    17  C    0.234912   0.000000
    20  Cl  -0.094968   0.000000
    21  Cl  -0.140434   0.000000
    22  C    0.240007   0.000000
    25  Cl  -0.127754   0.000000
    26  Cl  -0.111577   0.000000
    27  C    0.251648   0.000000
    30  Cl  -0.126306   0.000000
    31  Cl  -0.126128   0.000000
    32  C    0.255313   0.000000
    35  Cl  -0.129995   0.000000
    36  Cl  -0.123504   0.000000
    37  C    0.241432   0.000000
    40  Cl  -0.100909   0.000000
    41  Cl  -0.142186   0.000000
    42  C    0.256204   0.000000
    45  Cl  -0.141510   0.000000
    46  Cl  -0.114606   0.000000
    47  C    0.232691   0.000000
    50  Cl  -0.117459   0.000000
    51  Cl  -0.114961   0.000000
    52  C    0.258978   0.000000
    55  Cl  -0.142019   0.000000
    56  Cl  -0.116702   0.000000
    57  C    0.253663   0.000000
    60  Cl  -0.134618   0.000000
    61  Cl  -0.113459   0.000000
    62  C    0.232034   0.000000
    65  Cl  -0.112355   0.000000
    66  Cl  -0.120322   0.000000
    67  C    0.249575   0.000000
    70  Cl  -0.116841   0.000000
    71  Cl  -0.133600   0.000000
    72  C    0.242085   0.000000
    75  Cl  -0.137068   0.000000
    76  Cl  -0.106374   0.000000
    77  C    0.243932   0.000000
    80  Cl  -0.119759   0.000000
    81  Cl  -0.127211   0.000000
    82  C    0.233427   0.000000
    85  Cl  -0.106822   0.000000
    86  Cl  -0.130486   0.000000
    87  C    0.230181   0.000000
    90  Cl  -0.116888   0.000000
    91  Cl  -0.112096   0.000000
 Charge=             -0.0000 electrons
 Dipole moment (field-independent basis, Debye):
    X=             -0.8918    Y=             -0.1775    Z=              0.4974  Tot=              1.0365
 N-N= 5.298555942938D+03 E-N=-9.742274191150D+03  KE=-6.384509278957D+02
 Calling FoFJK, ICntrl=      2127 FMM=F ISym2X=0 I1Cent= 0 IOpClX= 1 NMat=1 NMatS=1 NMatT=0.
 Cartesian Forces:  Max     0.062799987 RMS     0.008465598
 SvSCFP is copying densities from files   528 and   530 to   603.
 ONIOM: saving gridpoint  3
 ONIOM: restoring gridpoint 17
 ONIOM: restoring gridpoint  2 on chk file.
 ONIOM: generating point  2 -- high level on model system.
 Standard basis: 6-31G(d) (6D, 7F)
   136 basis functions,   256 primitive gaussians,   136 cartesian basis functions
    28 alpha electrons       28 beta electrons
       nuclear repulsion energy       319.2474594493 Hartrees.
 NAtoms=   91 NActive=   16 NUniq=   16 SFac= 1.00D+00 NAtFMM=   60 NAOKFM=F Big=F
 Integral buffers will be    131072 words long.
 Regular integral format.
 Two-electron integral symmetry is turned off.
 Nuclear repulsion after empirical dispersion term =      319.2198238254 Hartrees.
 One-electron integrals computed using PRISM.
 NBasis=   136 RedAO= T EigKep=  4.71D-04  NBF=   136
 NBsUse=   136 1.00D-06 EigRej= -1.00D+00 NBFU=   136
 Initial guess from the checkpoint file:  "a.chk"
 B after Tr=     0.000843   -0.000009    0.000749
         Rot=    1.000000   -0.000140   -0.000153    0.000106 Ang=  -0.03 deg.
 Initial guess <Sx>= 0.0000 <Sy>= 0.0000 <Sz>= 0.0000 <S**2>=-0.0000 S=-0.0000
 Requested convergence on RMS density matrix=1.00D-08 within  64 cycles.
 Requested convergence on MAX density matrix=1.00D-06.
 Requested convergence on             energy=1.00D-06.
 No special actions if energy rises.
 SCF Done:  E(UB3LYP) =  -309.636202672     A.U. after    9 cycles
            NFock=  9  Conv=0.49D-08     -V/T= 2.0104
 <Sx>= 0.0000 <Sy>= 0.0000 <Sz>= 0.0000 <S**2>=-0.0000 S=-0.0000
 <L.S>=  0.00000000000    
 Annihilation of the first spin contaminant:
 S**2 before annihilation    -0.0000,   after    -0.0000
 QCSCF skips out because SCF is already converged.
 DoSCS=F DFT=T ScalE2(SS,OS)=  1.000000  1.000000
 ExpMin= 1.61D-01 ExpMax= 3.05D+03 ExpMxC= 4.57D+02 IAcc=3 IRadAn=         5 AccDes= 0.00D+00
 HarFok:  IExCor=  205 AccDes= 0.00D+00 IRadAn=         5 IDoV=-2 UseB2=F ITyADJ=14
 ICtDFT= 12500011 ScaDFX=  1.000000  1.000000  1.000000  1.000000
 Range of M.O.s used for correlation:     9   136
 NBasis=   136 NAE=    28 NBE=    28 NFC=     8 NFV=     0
 NROrb=    128 NOA=    20 NOB=    20 NVA=   108 NVB=   108
 Keep R1, R2, and R3 ints in memory in canonical form, NReq=183338682.
    12 initial guesses have been made.
 Convergence on wavefunction:    0.000001000000000
 Iteration     1 Dimension    12 NMult     0 NNew     12
 CISAX will form    12 AO SS matrices at one time.
 New state      2 was old state      3
 New state      3 was old state      8
 Iteration     2 Dimension    18 NMult    12 NNew      6
 New state      2 was old state      3
 New state      3 was old state      2
 Iteration     3 Dimension    24 NMult    18 NNew      6
 Iteration     4 Dimension    30 NMult    24 NNew      6
 Iteration     5 Dimension    36 NMult    30 NNew      6
 Iteration     6 Dimension    42 NMult    36 NNew      6
 Iteration     7 Dimension    48 NMult    42 NNew      6
 Iteration     8 Dimension    54 NMult    48 NNew      6
 Iteration     9 Dimension    58 NMult    54 NNew      4
 ***********************************************************************
 Excited states from <AA,BB:AA,BB> singles matrix:
 ***********************************************************************
 
 ExtSpn:  IState=     1 X2= 1.368 Y2= 0.368 X2-Y2-1=-2.22D-16
          S2Grnd= -0.000 Ra=  0.500 Rb=  0.500 T=  1.000 S2Ext=  2.000 S2=  2.000
 ExtSpn:  IState=     2 X2= 1.026 Y2= 0.026 X2-Y2-1= 4.44D-16
          S2Grnd= -0.000 Ra=  0.500 Rb=  0.500 T=  1.000 S2Ext=  2.000 S2=  2.000
 ExtSpn:  IState=     3 X2= 1.007 Y2= 0.007 X2-Y2-1= 2.22D-16
          S2Grnd= -0.000 Ra=  0.500 Rb=  0.500 T=  1.000 S2Ext=  2.000 S2=  2.000
 Ground to excited state transition densities written to RWF  633
 Ground to excited state transition electric dipole moments (Au):
       state          X           Y           Z        Dip. S.      Osc.
         1        -0.0000     -0.0000      0.0000      0.0000      0.0000
         2        -0.0000      0.0000     -0.0000      0.0000      0.0000
         3        -0.0000     -0.0000      0.0000      0.0000      0.0000
 Ground to excited state transition velocity dipole moments (Au):
       state          X           Y           Z        Dip. S.      Osc.
         1         0.0000      0.0000     -0.0000      0.0000      0.0000
         2         0.0000      0.0000     -0.0000      0.0000      0.0000
         3         0.0000      0.0000     -0.0000      0.0000      0.0000
 Ground to excited state transition magnetic dipole moments (Au):
       state          X           Y           Z
         1         0.0000      0.0000      0.0000
         2         0.0000     -0.0000     -0.0000
         3         0.0000      0.0000      0.0000
 Ground to excited state transition velocity quadrupole moments (Au):
       state          XX          YY          ZZ          XY          XZ          YZ
         1         0.0000     -0.0000      0.0000      0.0000     -0.0000     -0.0000
         2        -0.0000     -0.0000     -0.0000      0.0000     -0.0000      0.0000
         3        -0.0000      0.0000      0.0000     -0.0000     -0.0000     -0.0000
 <0|del|b> * <b|rxdel|0> + <0|del|b> * <b|delr+rdel|0>
 Rotatory Strengths (R) in cgs (10**-40 erg-esu-cm/Gauss)
       state          XX          YY          ZZ    R(velocity)    E-M Angle
         1         0.0000      0.0000      0.0000      0.0000       90.00
         2        -0.0000      0.0000     -0.0000      0.0000       90.00
         3         0.0000     -0.0000      0.0000      0.0000       90.00
 1/2[<0|r|b>*<b|rxdel|0> + (<0|rxdel|b>*<b|r|0>)*]
 Rotatory Strengths (R) in cgs (10**-40 erg-esu-cm/Gauss)
       state          XX          YY          ZZ     R(length)
         1         0.0000      0.0000     -0.0000      0.0000
         2         0.0000      0.0000     -0.0000      0.0000
         3         0.0000      0.0000     -0.0000      0.0000
  1/2[<0|del|b>*<b|r|0> + (<0|r|b>*<b|del|0>)*] (Au)
       state          X           Y           Z        Dip. S.   Osc.(frdel)
         1        -0.0000     -0.0000     -0.0000      0.0000      0.0000
         2        -0.0000      0.0000      0.0000     -0.0000     -0.0000
         3        -0.0000     -0.0000     -0.0000      0.0000      0.0000

 Excitation energies and oscillator strengths:
 
 Excited state symmetry could not be determined.
 Excited State   1:  3.000-?Sym    0.8717 eV 1422.35 nm  f=0.0000  <S**2>=2.000
     26A -> 29A        0.14466
     26A -> 31A        0.12704
     28A -> 29A       -0.78211
     28A -> 31A       -0.12711
     26B -> 29B       -0.14466
     26B -> 31B       -0.12704
     28B -> 29B        0.78211
     28B -> 31B        0.12711
     28A <- 29A       -0.38502
     28B <- 29B        0.38502
 This state for optimization and/or second-order correction.
 Total Energy, E(TD-HF/TD-DFT) =  -309.604168834    
 Copying the excited state density for this state as the 1-particle RhoCI density.
 
 Excited state symmetry could not be determined.
 Excited State   2:  3.000-?Sym    3.7359 eV  331.88 nm  f=0.0000  <S**2>=2.000
     26A -> 29A       -0.45822
     27A -> 29A        0.29109
     27A -> 30A       -0.27731
     28A -> 31A        0.31823
     26B -> 29B        0.45822
     27B -> 29B       -0.29109
     27B -> 30B        0.27731
     28B -> 31B       -0.31823
 
 Excited state symmetry could not be determined.
 Excited State   3:  3.000-?Sym    3.8727 eV  320.15 nm  f=0.0000  <S**2>=2.000
     26A -> 29A        0.23079
     27A -> 29A        0.54608
     27A -> 30A        0.11051
     28A -> 30A        0.31622
     28A -> 31A       -0.14671
     26B -> 29B       -0.23079
     27B -> 29B       -0.54608
     27B -> 30B       -0.11051
     28B -> 30B       -0.31622
     28B -> 31B        0.14671
 SavETr:  write IOETrn=   770 NScale= 10 NData=  16 NLR=1 NState=    3 LETran=      64.
          IDoAtm=11111111111111110000000000000000000000000000000000
          IDoAtm=00000000000000000000000000000000000000000
          Differentiating once with respect to electric field.
                with respect to dipole field.
          Differentiating once with respect to nuclear coordinates.
 Keep R1 and R2 ints in memory in canonical form, NReq=114009024.
          There are     1 degrees of freedom in the 1st order CPHF.  IDoFFX=0 NUNeed=     1.
 LinEq1:  Iter=  0 NonCon=     1 RMS=2.34D-03 Max=4.62D-02 NDo=     1
 AX will form     1 AO Fock derivatives at one time.
 LinEq1:  Iter=  1 NonCon=     1 RMS=2.95D-03 Max=1.30D-01 NDo=     1
 LinEq1:  Iter=  2 NonCon=     1 RMS=1.12D-03 Max=1.43D-02 NDo=     1
 LinEq1:  Iter=  3 NonCon=     1 RMS=5.62D-04 Max=1.14D-02 NDo=     1
 LinEq1:  Iter=  4 NonCon=     1 RMS=3.16D-04 Max=8.84D-03 NDo=     1
 LinEq1:  Iter=  5 NonCon=     1 RMS=2.08D-04 Max=4.48D-03 NDo=     1
 LinEq1:  Iter=  6 NonCon=     1 RMS=9.80D-05 Max=1.41D-03 NDo=     1
 LinEq1:  Iter=  7 NonCon=     1 RMS=4.85D-05 Max=1.06D-03 NDo=     1
 LinEq1:  Iter=  8 NonCon=     1 RMS=2.98D-05 Max=6.30D-04 NDo=     1
 LinEq1:  Iter=  9 NonCon=     1 RMS=1.94D-05 Max=3.09D-04 NDo=     1
 LinEq1:  Iter= 10 NonCon=     1 RMS=1.00D-05 Max=1.63D-04 NDo=     1
 LinEq1:  Iter= 11 NonCon=     1 RMS=4.98D-06 Max=5.94D-05 NDo=     1
 LinEq1:  Iter= 12 NonCon=     1 RMS=1.52D-06 Max=1.83D-05 NDo=     1
 LinEq1:  Iter= 13 NonCon=     1 RMS=5.29D-07 Max=1.08D-05 NDo=     1
 LinEq1:  Iter= 14 NonCon=     1 RMS=3.22D-07 Max=4.64D-06 NDo=     1
 LinEq1:  Iter= 15 NonCon=     1 RMS=9.28D-08 Max=9.94D-07 NDo=     1
 LinEq1:  Iter= 16 NonCon=     1 RMS=1.95D-08 Max=2.23D-07 NDo=     1
 LinEq1:  Iter= 17 NonCon=     1 RMS=5.68D-09 Max=7.63D-08 NDo=     1
 LinEq1:  Iter= 18 NonCon=     1 RMS=3.55D-09 Max=6.14D-08 NDo=     1
 LinEq1:  Iter= 19 NonCon=     1 RMS=9.21D-10 Max=1.45D-08 NDo=     1
 LinEq1:  Iter= 20 NonCon=     1 RMS=1.79D-10 Max=1.73D-09 NDo=     1
 LinEq1:  Iter= 21 NonCon=     0 RMS=3.52D-11 Max=3.46D-10 NDo=     1
 Linear equations converged to 1.000D-10 1.000D-09 after    21 iterations.
 End of Minotr F.D. properties file   721 does not exist.
 End of Minotr F.D. properties file   722 does not exist.
 End of Minotr F.D. properties file   788 does not exist.

 **********************************************************************

            Population analysis using the SCF Density.

 **********************************************************************

 Alpha  occ. eigenvalues --  -10.20153 -10.19604 -10.19113 -10.19031 -10.18941
 Alpha  occ. eigenvalues --  -10.18870 -10.18849 -10.18737  -0.85530  -0.78172
 Alpha  occ. eigenvalues --   -0.74543  -0.70812  -0.62600  -0.59988  -0.55879
 Alpha  occ. eigenvalues --   -0.50837  -0.46710  -0.45120  -0.43060  -0.41911
 Alpha  occ. eigenvalues --   -0.40177  -0.38960  -0.36600  -0.34965  -0.33508
 Alpha  occ. eigenvalues --   -0.28023  -0.25149  -0.19767
 Alpha virt. eigenvalues --   -0.05884   0.00388   0.04253   0.09751   0.12104
 Alpha virt. eigenvalues --    0.13405   0.16015   0.16274   0.17312   0.18402
 Alpha virt. eigenvalues --    0.19899   0.21607   0.26855   0.28300   0.30701
 Alpha virt. eigenvalues --    0.33672   0.36458   0.37660   0.46189   0.52013
 Alpha virt. eigenvalues --    0.52786   0.54298   0.55046   0.56555   0.57432
 Alpha virt. eigenvalues --    0.58860   0.59110   0.59706   0.61238   0.62065
 Alpha virt. eigenvalues --    0.62285   0.63622   0.65033   0.66020   0.69011
 Alpha virt. eigenvalues --    0.71963   0.77269   0.82688   0.83646   0.83899
 Alpha virt. eigenvalues --    0.85026   0.85447   0.88974   0.90646   0.92768
 Alpha virt. eigenvalues --    0.93647   0.93989   0.95535   0.99345   1.01433
 Alpha virt. eigenvalues --    1.04860   1.08751   1.14645   1.16730   1.18322
 Alpha virt. eigenvalues --    1.25920   1.29426   1.33327   1.39477   1.43973
 Alpha virt. eigenvalues --    1.44770   1.45556   1.48567   1.49545   1.51402
 Alpha virt. eigenvalues --    1.65140   1.71641   1.77708   1.80279   1.85125
 Alpha virt. eigenvalues --    1.88512   1.89875   1.91685   1.95261   1.97245
 Alpha virt. eigenvalues --    1.98531   2.05063   2.10929   2.11413   2.14751
 Alpha virt. eigenvalues --    2.15030   2.17983   2.22588   2.26932   2.32245
 Alpha virt. eigenvalues --    2.33385   2.35580   2.48075   2.51238   2.57610
 Alpha virt. eigenvalues --    2.59629   2.62505   2.66036   2.74102   2.75523
 Alpha virt. eigenvalues --    2.77024   2.86072   2.91989   3.13758   3.41715
 Alpha virt. eigenvalues --    4.07499   4.09652   4.12227   4.13984   4.25024
 Alpha virt. eigenvalues --    4.32827   4.42463   4.71125
  Beta  occ. eigenvalues --  -10.20153 -10.19604 -10.19113 -10.19031 -10.18941
  Beta  occ. eigenvalues --  -10.18870 -10.18849 -10.18737  -0.85530  -0.78172
  Beta  occ. eigenvalues --   -0.74543  -0.70812  -0.62600  -0.59988  -0.55879
  Beta  occ. eigenvalues --   -0.50837  -0.46710  -0.45120  -0.43060  -0.41911
  Beta  occ. eigenvalues --   -0.40177  -0.38960  -0.36600  -0.34965  -0.33508
  Beta  occ. eigenvalues --   -0.28023  -0.25149  -0.19767
  Beta virt. eigenvalues --   -0.05884   0.00388   0.04253   0.09751   0.12104
  Beta virt. eigenvalues --    0.13405   0.16015   0.16274   0.17312   0.18402
  Beta virt. eigenvalues --    0.19899   0.21607   0.26855   0.28300   0.30701
  Beta virt. eigenvalues --    0.33672   0.36458   0.37660   0.46189   0.52013
  Beta virt. eigenvalues --    0.52786   0.54298   0.55046   0.56555   0.57432
  Beta virt. eigenvalues --    0.58860   0.59110   0.59706   0.61238   0.62065
  Beta virt. eigenvalues --    0.62285   0.63622   0.65033   0.66020   0.69011
  Beta virt. eigenvalues --    0.71963   0.77269   0.82688   0.83646   0.83899
  Beta virt. eigenvalues --    0.85026   0.85447   0.88974   0.90646   0.92768
  Beta virt. eigenvalues --    0.93647   0.93989   0.95535   0.99345   1.01433
  Beta virt. eigenvalues --    1.04860   1.08751   1.14645   1.16730   1.18322
  Beta virt. eigenvalues --    1.25920   1.29426   1.33327   1.39477   1.43973
  Beta virt. eigenvalues --    1.44770   1.45556   1.48567   1.49545   1.51402
  Beta virt. eigenvalues --    1.65140   1.71641   1.77708   1.80279   1.85125
  Beta virt. eigenvalues --    1.88512   1.89875   1.91685   1.95261   1.97245
  Beta virt. eigenvalues --    1.98531   2.05063   2.10929   2.11413   2.14751
  Beta virt. eigenvalues --    2.15030   2.17983   2.22588   2.26932   2.32245
  Beta virt. eigenvalues --    2.33385   2.35580   2.48075   2.51238   2.57610
  Beta virt. eigenvalues --    2.59629   2.62505   2.66036   2.74102   2.75523
  Beta virt. eigenvalues --    2.77024   2.86072   2.91989   3.13758   3.41715
  Beta virt. eigenvalues --    4.07499   4.09652   4.12227   4.13984   4.25024
  Beta virt. eigenvalues --    4.32827   4.42463   4.71125
          Condensed to atoms (all electrons):
          Atomic-Atomic Spin Densities.
 Mulliken charges and spin densities:
               1          2
     1  C    0.185598  -0.000000
     2  C   -0.187909   0.000000
     3  C   -0.175073   0.000000
     4  C   -0.127705  -0.000000
     5  H    0.127067   0.000000
     6  C   -0.159588   0.000000
     7  C   -0.127322  -0.000000
     8  H    0.129375   0.000000
     9  C   -0.130680   0.000000
    10  H    0.130173   0.000000
    11  C   -0.370522  -0.000000
    12  H    0.138592   0.000000
    13  H    0.129743   0.000000
    14  H    0.130394  -0.000000
    15  H    0.153064   0.000000
    16  H    0.154791   0.000000
    17  C    0.000000   0.000000
    18  H    0.000000   0.000000
    19  H    0.000000   0.000000
    20  Cl   0.000000   0.000000
    21  Cl   0.000000   0.000000
    22  C    0.000000   0.000000
    23  H    0.000000   0.000000
    24  H    0.000000   0.000000
    25  Cl   0.000000   0.000000
    26  Cl   0.000000   0.000000
    27  C    0.000000   0.000000
    28  H    0.000000   0.000000
    29  H    0.000000   0.000000
    30  Cl   0.000000   0.000000
    31  Cl   0.000000   0.000000
    32  C    0.000000   0.000000
    33  H    0.000000   0.000000
    34  H    0.000000   0.000000
    35  Cl   0.000000   0.000000
    36  Cl   0.000000   0.000000
    37  C    0.000000   0.000000
    38  H    0.000000   0.000000
    39  H    0.000000   0.000000
    40  Cl   0.000000   0.000000
    41  Cl   0.000000   0.000000
    42  C    0.000000   0.000000
    43  H    0.000000   0.000000
    44  H    0.000000   0.000000
    45  Cl   0.000000   0.000000
    46  Cl   0.000000   0.000000
    47  C    0.000000   0.000000
    48  H    0.000000   0.000000
    49  H    0.000000   0.000000
    50  Cl   0.000000   0.000000
    51  Cl   0.000000   0.000000
    52  C    0.000000   0.000000
    53  H    0.000000   0.000000
    54  H    0.000000   0.000000
    55  Cl   0.000000   0.000000
    56  Cl   0.000000   0.000000
    57  C    0.000000   0.000000
    58  H    0.000000   0.000000
    59  H    0.000000   0.000000
    60  Cl   0.000000   0.000000
    61  Cl   0.000000   0.000000
    62  C    0.000000   0.000000
    63  H    0.000000   0.000000
    64  H    0.000000   0.000000
    65  Cl   0.000000   0.000000
    66  Cl   0.000000   0.000000
    67  C    0.000000   0.000000
    68  H    0.000000   0.000000
    69  H    0.000000   0.000000
    70  Cl   0.000000   0.000000
    71  Cl   0.000000   0.000000
    72  C    0.000000   0.000000
    73  H    0.000000   0.000000
    74  H    0.000000   0.000000
    75  Cl   0.000000   0.000000
    76  Cl   0.000000   0.000000
    77  C    0.000000   0.000000
    78  H    0.000000   0.000000
    79  H    0.000000   0.000000
    80  Cl   0.000000   0.000000
    81  Cl   0.000000   0.000000
    82  C    0.000000   0.000000
    83  H    0.000000   0.000000
    84  H    0.000000   0.000000
    85  Cl   0.000000   0.000000
    86  Cl   0.000000   0.000000
    87  C    0.000000   0.000000
    88  H    0.000000   0.000000
    89  H    0.000000   0.000000
    90  Cl   0.000000   0.000000
    91  Cl   0.000000   0.000000
 Sum of Mulliken charges =  -0.00000   0.00000
 Mulliken charges and spin densities with hydrogens summed into heavy atoms:
               1          2
     1  C    0.185598  -0.000000
     2  C   -0.060842   0.000000
     3  C   -0.045698   0.000000
     4  C    0.002469  -0.000000
     6  C   -0.020995   0.000000
     7  C    0.002421  -0.000000
     9  C   -0.000286   0.000000
    11  C   -0.062666  -0.000000
    17  C    0.000000   0.000000
    20  Cl   0.000000   0.000000
    21  Cl   0.000000   0.000000
    22  C    0.000000   0.000000
    25  Cl   0.000000   0.000000
    26  Cl   0.000000   0.000000
    27  C    0.000000   0.000000
    30  Cl   0.000000   0.000000
    31  Cl   0.000000   0.000000
    32  C    0.000000   0.000000
    35  Cl   0.000000   0.000000
    36  Cl   0.000000   0.000000
    37  C    0.000000   0.000000
    40  Cl   0.000000   0.000000
    41  Cl   0.000000   0.000000
    42  C    0.000000   0.000000
    45  Cl   0.000000   0.000000
    46  Cl   0.000000   0.000000
    47  C    0.000000   0.000000
    50  Cl   0.000000   0.000000
    51  Cl   0.000000   0.000000
    52  C    0.000000   0.000000
    55  Cl   0.000000   0.000000
    56  Cl   0.000000   0.000000
    57  C    0.000000   0.000000
    60  Cl   0.000000   0.000000
    61  Cl   0.000000   0.000000
    62  C    0.000000   0.000000
    65  Cl   0.000000   0.000000
    66  Cl   0.000000   0.000000
    67  C    0.000000   0.000000
    70  Cl   0.000000   0.000000
    71  Cl   0.000000   0.000000
    72  C    0.000000   0.000000
    75  Cl   0.000000   0.000000
    76  Cl   0.000000   0.000000
    77  C    0.000000   0.000000
    80  Cl   0.000000   0.000000
    81  Cl   0.000000   0.000000
    82  C    0.000000   0.000000
    85  Cl   0.000000   0.000000
    86  Cl   0.000000   0.000000
    87  C    0.000000   0.000000
    90  Cl   0.000000   0.000000
    91  Cl   0.000000   0.000000
 Electronic spatial extent (au):  <R**2>=            993.9804
 Charge=             -0.0000 electrons
 Dipole moment (field-independent basis, Debye):
    X=             -0.2852    Y=             -0.1031    Z=              0.0152  Tot=              0.3037
 Quadrupole moment (field-independent basis, Debye-Ang):
   XX=            -43.1616   YY=            -44.2105   ZZ=            -48.8012
   XY=              0.0932   XZ=              0.0782   YZ=             -3.6527
 Traceless Quadrupole moment (field-independent basis, Debye-Ang):
   XX=              2.2295   YY=              1.1806   ZZ=             -3.4101
   XY=              0.0932   XZ=              0.0782   YZ=             -3.6527
 Octapole moment (field-independent basis, Debye-Ang**2):
  XXX=             -5.8649  YYY=              6.9718  ZZZ=             30.2831  XYY=              0.7081
  XXY=              5.2114  XXZ=             13.1728  XZZ=              1.8583  YZZ=              5.7284
  YYZ=             11.1060  XYZ=              0.2551
 Hexadecapole moment (field-independent basis, Debye-Ang**3):
 XXXX=           -855.4719 YYYY=           -304.7245 ZZZZ=           -155.2612 XXXY=            -48.6291
 XXXZ=             75.3989 YYYX=            -64.1032 YYYZ=             58.2848 ZZZX=             65.7860
 ZZZY=             67.3095 XXYY=           -187.8972 XXZZ=           -186.2633 YYZZ=            -73.8238
 XXYZ=             10.6198 YYXZ=             19.6157 ZZXY=            -17.1709
 N-N= 3.192198238254D+02 E-N=-1.354695103094D+03  KE= 3.064435779681D+02
                          Isotropic Fermi Contact Couplings
        Atom                 a.u.       MegaHertz       Gauss      10(-4) cm-1
     1  C(13)              0.00000       0.00000       0.00000       0.00000
     2  C(13)             -0.00000      -0.00000      -0.00000      -0.00000
     3  C(13)              0.00000       0.00000       0.00000       0.00000
     4  C(13)             -0.00000      -0.00000      -0.00000      -0.00000
     5  H(1)               0.00000       0.00000       0.00000       0.00000
     6  C(13)             -0.00000      -0.00000      -0.00000      -0.00000
     7  C(13)              0.00000       0.00000       0.00000       0.00000
     8  H(1)               0.00000       0.00000       0.00000       0.00000
     9  C(13)              0.00000       0.00000       0.00000       0.00000
    10  H(1)              -0.00000      -0.00000      -0.00000      -0.00000
    11  C(13)              0.00000       0.00000       0.00000       0.00000
    12  H(1)               0.00000       0.00000       0.00000       0.00000
    13  H(1)              -0.00000      -0.00000      -0.00000      -0.00000
    14  H(1)               0.00000       0.00000       0.00000       0.00000
    15  H(1)              -0.00000      -0.00000      -0.00000      -0.00000
    16  H(1)              -0.00000      -0.00000      -0.00000      -0.00000
 --------------------------------------------------------
       Center         ----  Spin Dipole Couplings  ----
                      3XX-RR        3YY-RR        3ZZ-RR
 --------------------------------------------------------
     1   Atom        0.000000      0.000000      0.000000
     2   Atom        0.000000      0.000000      0.000000
     3   Atom        0.000000      0.000000      0.000000
     4   Atom        0.000000      0.000000      0.000000
     5   Atom        0.000000      0.000000      0.000000
     6   Atom        0.000000      0.000000      0.000000
     7   Atom        0.000000      0.000000      0.000000
     8   Atom        0.000000      0.000000      0.000000
     9   Atom        0.000000      0.000000      0.000000
    10   Atom        0.000000      0.000000      0.000000
    11   Atom        0.000000      0.000000      0.000000
    12   Atom        0.000000      0.000000      0.000000
    13   Atom        0.000000      0.000000      0.000000
    14   Atom        0.000000      0.000000      0.000000
    15   Atom        0.000000      0.000000      0.000000
    16   Atom        0.000000      0.000000      0.000000
 --------------------------------------------------------
                        XY            XZ            YZ
 --------------------------------------------------------
     1   Atom        0.000000      0.000000      0.000000
     2   Atom        0.000000      0.000000      0.000000
     3   Atom        0.000000      0.000000      0.000000
     4   Atom        0.000000      0.000000      0.000000
     5   Atom        0.000000      0.000000      0.000000
     6   Atom        0.000000      0.000000      0.000000
     7   Atom        0.000000      0.000000      0.000000
     8   Atom        0.000000      0.000000      0.000000
     9   Atom        0.000000      0.000000      0.000000
    10   Atom        0.000000      0.000000      0.000000
    11   Atom        0.000000      0.000000      0.000000
    12   Atom        0.000000      0.000000      0.000000
    13   Atom        0.000000      0.000000      0.000000
    14   Atom        0.000000      0.000000      0.000000
    15   Atom        0.000000      0.000000      0.000000
    16   Atom        0.000000      0.000000      0.000000
 --------------------------------------------------------


 ---------------------------------------------------------------------------------
              Anisotropic Spin Dipole Couplings in Principal Axis System
 ---------------------------------------------------------------------------------

       Atom             a.u.   MegaHertz   Gauss  10(-4) cm-1        Axes

              Baa     0.0000     0.000     0.000     0.000  1.0000  0.0000  0.0000
     1 C(13)  Bbb     0.0000     0.000     0.000     0.000 -0.0000  1.0000  0.0000
              Bcc     0.0000     0.000     0.000     0.000  0.0000  0.0000  1.0000
 
              Baa     0.0000     0.000     0.000     0.000  1.0000  0.0000  0.0000
     2 C(13)  Bbb     0.0000     0.000     0.000     0.000 -0.0000  1.0000  0.0000
              Bcc     0.0000     0.000     0.000     0.000  0.0000  0.0000  1.0000
 
              Baa     0.0000     0.000     0.000     0.000  1.0000  0.0000  0.0000
     3 C(13)  Bbb     0.0000     0.000     0.000     0.000 -0.0000  1.0000  0.0000
              Bcc     0.0000     0.000     0.000     0.000  0.0000  0.0000  1.0000
 
              Baa     0.0000     0.000     0.000     0.000  1.0000  0.0000  0.0000
     4 C(13)  Bbb     0.0000     0.000     0.000     0.000 -0.0000  1.0000  0.0000
              Bcc     0.0000     0.000     0.000     0.000  0.0000  0.0000  1.0000
 
              Baa     0.0000     0.000     0.000     0.000  1.0000  0.0000  0.0000
     5 H(1)   Bbb     0.0000     0.000     0.000     0.000 -0.0000  1.0000  0.0000
              Bcc     0.0000     0.000     0.000     0.000  0.0000  0.0000  1.0000
 
              Baa     0.0000     0.000     0.000     0.000  1.0000  0.0000  0.0000
     6 C(13)  Bbb     0.0000     0.000     0.000     0.000 -0.0000  1.0000  0.0000
              Bcc     0.0000     0.000     0.000     0.000  0.0000  0.0000  1.0000
 
              Baa     0.0000     0.000     0.000     0.000  1.0000  0.0000  0.0000
     7 C(13)  Bbb     0.0000     0.000     0.000     0.000 -0.0000  1.0000  0.0000
              Bcc     0.0000     0.000     0.000     0.000  0.0000  0.0000  1.0000
 
              Baa     0.0000     0.000     0.000     0.000  1.0000  0.0000  0.0000
     8 H(1)   Bbb     0.0000     0.000     0.000     0.000 -0.0000  1.0000  0.0000
              Bcc     0.0000     0.000     0.000     0.000  0.0000  0.0000  1.0000
 
              Baa     0.0000     0.000     0.000     0.000  1.0000  0.0000  0.0000
     9 C(13)  Bbb     0.0000     0.000     0.000     0.000 -0.0000  1.0000  0.0000
              Bcc     0.0000     0.000     0.000     0.000  0.0000  0.0000  1.0000
 
              Baa     0.0000     0.000     0.000     0.000  1.0000  0.0000  0.0000
    10 H(1)   Bbb     0.0000     0.000     0.000     0.000 -0.0000  1.0000  0.0000
              Bcc     0.0000     0.000     0.000     0.000  0.0000  0.0000  1.0000
 
              Baa     0.0000     0.000     0.000     0.000  1.0000  0.0000  0.0000
    11 C(13)  Bbb     0.0000     0.000     0.000     0.000 -0.0000  1.0000  0.0000
              Bcc     0.0000     0.000     0.000     0.000  0.0000  0.0000  1.0000
 
              Baa     0.0000     0.000     0.000     0.000  1.0000  0.0000  0.0000
    12 H(1)   Bbb     0.0000     0.000     0.000     0.000 -0.0000  1.0000  0.0000
              Bcc     0.0000     0.000     0.000     0.000  0.0000  0.0000  1.0000
 
              Baa     0.0000     0.000     0.000     0.000  1.0000  0.0000  0.0000
    13 H(1)   Bbb     0.0000     0.000     0.000     0.000 -0.0000  1.0000  0.0000
              Bcc     0.0000     0.000     0.000     0.000  0.0000  0.0000  1.0000
 
              Baa     0.0000     0.000     0.000     0.000  1.0000  0.0000  0.0000
    14 H(1)   Bbb     0.0000     0.000     0.000     0.000 -0.0000  1.0000  0.0000
              Bcc     0.0000     0.000     0.000     0.000  0.0000  0.0000  1.0000
 
              Baa     0.0000     0.000     0.000     0.000  1.0000  0.0000  0.0000
    15 H(1)   Bbb     0.0000     0.000     0.000     0.000 -0.0000  1.0000  0.0000
              Bcc     0.0000     0.000     0.000     0.000  0.0000  0.0000  1.0000
 
              Baa     0.0000     0.000     0.000     0.000  1.0000  0.0000  0.0000
    16 H(1)   Bbb     0.0000     0.000     0.000     0.000 -0.0000  1.0000  0.0000
              Bcc     0.0000     0.000     0.000     0.000  0.0000  0.0000  1.0000
 

 ---------------------------------------------------------------------------------

 Calling FoFJK, ICntrl=  10005127 FMM=F ISym2X=0 I1Cent= 0 IOpClX= 1 NMat=1 NMatS=1 NMatT=0.
 Cartesian Forces:  Max     0.080399522 RMS     0.010777418
 SvSCFP is copying densities from files   528 and   530 to   603.
 ONIOM: saving gridpoint  2
 ONIOM: restoring gridpoint 17
 ONIOM: restoring gridpoint  1 on chk file.
 ONIOM: generating point  1 -- low level on model system.
 Standard basis: VSTO-6G (5D, 7F)
    40 basis functions,   240 primitive gaussians,    40 cartesian basis functions
    20 alpha electrons       20 beta electrons
       nuclear repulsion energy       184.5872776855 Hartrees.
 Integral buffers will be    131072 words long.
 Regular integral format.
 Two-electron integral symmetry is turned off.
 Do NDO integrals.
 One-electron integrals computed using PRISM.
 NBasis=    40 RedAO= F EigKep=  0.00D+00  NBF=    40
 NBsUse=    40 1.00D-04 EigRej=  0.00D+00 NBFU=    40
 Initial guess from the checkpoint file:  "a.chk"
 B after Tr=     0.000843   -0.000009    0.000749
         Rot=    1.000000   -0.000140   -0.000153    0.000106 Ang=  -0.03 deg.
 Initial guess <Sx>= 0.0000 <Sy>= 0.0000 <Sz>= 0.0000 <S**2>= 0.8658 S= 0.5563
 Keep J ints in memory in canonical form, NReq=867663.
 Overlap will be assumed to be unity.
 Requested convergence on RMS density matrix=1.00D-08 within  64 cycles.
 Requested convergence on MAX density matrix=1.00D-06.
 Requested convergence on             energy=1.00D-06.
 No special actions if energy rises.
 SCF Done:  E(UPM6) =  0.859956240790E-01 A.U. after   16 cycles
            NFock= 15  Conv=0.46D-08     -V/T= 1.0014
 <Sx>= 0.0000 <Sy>= 0.0000 <Sz>= 0.0000 <S**2>= 0.8647 S= 0.5558
 <L.S>=  0.00000000000    
 Annihilation of the first spin contaminant:
 S**2 before annihilation     0.8647,   after     1.1077
 QCSCF skips out because SCF is already converged.

 **********************************************************************

            Population analysis using the SCF Density.

 **********************************************************************

 Alpha  occ. eigenvalues --   -1.09813  -1.00262  -0.95884  -0.90602  -0.81245
 Alpha  occ. eigenvalues --   -0.77838  -0.71434  -0.63774  -0.58659  -0.56677
 Alpha  occ. eigenvalues --   -0.54030  -0.52325  -0.50890  -0.49745  -0.48179
 Alpha  occ. eigenvalues --   -0.44834  -0.43226  -0.39548  -0.36789  -0.32086
 Alpha virt. eigenvalues --    0.00618   0.01799   0.04421   0.10006   0.15594
 Alpha virt. eigenvalues --    0.15639   0.17729   0.18316   0.18549   0.19284
 Alpha virt. eigenvalues --    0.19850   0.20423   0.21120   0.21557   0.22342
 Alpha virt. eigenvalues --    0.22663   0.22821   0.22939   0.23440   0.23466
  Beta  occ. eigenvalues --   -1.09754  -1.00188  -0.95837  -0.90741  -0.81278
  Beta  occ. eigenvalues --   -0.77848  -0.71523  -0.63600  -0.58576  -0.56741
  Beta  occ. eigenvalues --   -0.54153  -0.52283  -0.50902  -0.49538  -0.48038
  Beta  occ. eigenvalues --   -0.44717  -0.43232  -0.38715  -0.36157  -0.34111
  Beta virt. eigenvalues --   -0.01176   0.02384   0.05194   0.10527   0.15538
  Beta virt. eigenvalues --    0.15802   0.17710   0.18390   0.18615   0.19288
  Beta virt. eigenvalues --    0.19900   0.20611   0.21068   0.21505   0.22292
  Beta virt. eigenvalues --    0.22406   0.22742   0.23006   0.23414   0.23518
          Condensed to atoms (all electrons):
          Atomic-Atomic Spin Densities.
 Mulliken charges and spin densities:
               1          2
     1  C    0.029351  -0.393395
     2  C   -0.172028   0.380550
     3  C   -0.158079   0.390175
     4  C   -0.135378  -0.320933
     5  H    0.147458  -0.013332
     6  C   -0.149091   0.705272
     7  C   -0.141757  -0.322008
     8  H    0.150939  -0.013382
     9  C   -0.146733   0.381236
    10  H    0.144597   0.011197
    11  C   -0.310643  -0.841229
    12  H    0.149823  -0.034131
    13  H    0.144558   0.011281
    14  H    0.145011  -0.013140
    15  H    0.151003   0.035354
    16  H    0.150969   0.036487
    17  C    0.000000   0.000000
    18  H    0.000000   0.000000
    19  H    0.000000   0.000000
    20  Cl   0.000000   0.000000
    21  Cl   0.000000   0.000000
    22  C    0.000000   0.000000
    23  H    0.000000   0.000000
    24  H    0.000000   0.000000
    25  Cl   0.000000   0.000000
    26  Cl   0.000000   0.000000
    27  C    0.000000   0.000000
    28  H    0.000000   0.000000
    29  H    0.000000   0.000000
    30  Cl   0.000000   0.000000
    31  Cl   0.000000   0.000000
    32  C    0.000000   0.000000
    33  H    0.000000   0.000000
    34  H    0.000000   0.000000
    35  Cl   0.000000   0.000000
    36  Cl   0.000000   0.000000
    37  C    0.000000   0.000000
    38  H    0.000000   0.000000
    39  H    0.000000   0.000000
    40  Cl   0.000000   0.000000
    41  Cl   0.000000   0.000000
    42  C    0.000000   0.000000
    43  H    0.000000   0.000000
    44  H    0.000000   0.000000
    45  Cl   0.000000   0.000000
    46  Cl   0.000000   0.000000
    47  C    0.000000   0.000000
    48  H    0.000000   0.000000
    49  H    0.000000   0.000000
    50  Cl   0.000000   0.000000
    51  Cl   0.000000   0.000000
    52  C    0.000000   0.000000
    53  H    0.000000   0.000000
    54  H    0.000000   0.000000
    55  Cl   0.000000   0.000000
    56  Cl   0.000000   0.000000
    57  C    0.000000   0.000000
    58  H    0.000000   0.000000
    59  H    0.000000   0.000000
    60  Cl   0.000000   0.000000
    61  Cl   0.000000   0.000000
    62  C    0.000000   0.000000
    63  H    0.000000   0.000000
    64  H    0.000000   0.000000
    65  Cl   0.000000   0.000000
    66  Cl   0.000000   0.000000
    67  C    0.000000   0.000000
    68  H    0.000000   0.000000
    69  H    0.000000   0.000000
    70  Cl   0.000000   0.000000
    71  Cl   0.000000   0.000000
    72  C    0.000000   0.000000
    73  H    0.000000   0.000000
    74  H    0.000000   0.000000
    75  Cl   0.000000   0.000000
    76  Cl   0.000000   0.000000
    77  C    0.000000   0.000000
    78  H    0.000000   0.000000
    79  H    0.000000   0.000000
    80  Cl   0.000000   0.000000
    81  Cl   0.000000   0.000000
    82  C    0.000000   0.000000
    83  H    0.000000   0.000000
    84  H    0.000000   0.000000
    85  Cl   0.000000   0.000000
    86  Cl   0.000000   0.000000
    87  C    0.000000   0.000000
    88  H    0.000000   0.000000
    89  H    0.000000   0.000000
    90  Cl   0.000000   0.000000
    91  Cl   0.000000   0.000000
 Sum of Mulliken charges =   0.00000   0.00000
 Mulliken charges and spin densities with hydrogens summed into heavy atoms:
               1          2
     1  C    0.029351  -0.393395
     2  C   -0.024570   0.367218
     3  C   -0.007140   0.376793
     4  C    0.009219  -0.309736
     6  C    0.000731   0.671141
     7  C    0.002801  -0.310728
     9  C   -0.001722   0.368096
    11  C   -0.008671  -0.769389
    17  C    0.000000   0.000000
    20  Cl   0.000000   0.000000
    21  Cl   0.000000   0.000000
    22  C    0.000000   0.000000
    25  Cl   0.000000   0.000000
    26  Cl   0.000000   0.000000
    27  C    0.000000   0.000000
    30  Cl   0.000000   0.000000
    31  Cl   0.000000   0.000000
    32  C    0.000000   0.000000
    35  Cl   0.000000   0.000000
    36  Cl   0.000000   0.000000
    37  C    0.000000   0.000000
    40  Cl   0.000000   0.000000
    41  Cl   0.000000   0.000000
    42  C    0.000000   0.000000
    45  Cl   0.000000   0.000000
    46  Cl   0.000000   0.000000
    47  C    0.000000   0.000000
    50  Cl   0.000000   0.000000
    51  Cl   0.000000   0.000000
    52  C    0.000000   0.000000
    55  Cl   0.000000   0.000000
    56  Cl   0.000000   0.000000
    57  C    0.000000   0.000000
    60  Cl   0.000000   0.000000
    61  Cl   0.000000   0.000000
    62  C    0.000000   0.000000
    65  Cl   0.000000   0.000000
    66  Cl   0.000000   0.000000
    67  C    0.000000   0.000000
    70  Cl   0.000000   0.000000
    71  Cl   0.000000   0.000000
    72  C    0.000000   0.000000
    75  Cl   0.000000   0.000000
    76  Cl   0.000000   0.000000
    77  C    0.000000   0.000000
    80  Cl   0.000000   0.000000
    81  Cl   0.000000   0.000000
    82  C    0.000000   0.000000
    85  Cl   0.000000   0.000000
    86  Cl   0.000000   0.000000
    87  C    0.000000   0.000000
    90  Cl   0.000000   0.000000
    91  Cl   0.000000   0.000000
 Charge=              0.0000 electrons
 Dipole moment (field-independent basis, Debye):
    X=              0.0087    Y=             -0.0168    Z=             -0.1010  Tot=              0.1028
 N-N= 1.845872776855D+02 E-N=-2.806156398573D+02  KE=-6.322921883127D+01
 Calling FoFJK, ICntrl=      2127 FMM=F ISym2X=0 I1Cent= 0 IOpClX= 1 NMat=1 NMatS=1 NMatT=0.
 Cartesian Forces:  Max     0.029682345 RMS     0.004232477
 SvSCFP is copying densities from files   528 and   530 to   603.
 ONIOM: saving gridpoint  1
 ONIOM: restoring gridpoint  3
 ONIOM: calculating energy.
 ONIOM: gridpoint  1 method:  low   system:  model energy:     0.085995624079
 ONIOM: gridpoint  2 method:  high  system:  model energy:  -309.604168833846
 ONIOM: gridpoint  3 method:  low   system:  real  energy:    -0.404691741530
 ONIOM: extrapolated energy =    -310.094856199455
 ONIOM: calculating first derivatives.
 ONIOM: calculating electric field derivatives.
 ONIOM: Integrating ONIOM file  4 number   619
 ONIOM: Dipole        =-8.42267854D-02 2.12189515D-02 1.61233759D-01
 ONIOM: Dipole moment (Debye):
    X=    -0.2141    Y=     0.0539    Z=     0.4098  Tot=     0.4655
 ONIOM: Integrating ONIOM file  5 number   695
 Anisotropic Hyperfine tensors: 
                 1             2             3             4             5 
      1   0.000000D+00  0.000000D+00  0.000000D+00  0.000000D+00  0.000000D+00
      2   0.000000D+00  0.000000D+00  0.000000D+00  0.000000D+00  0.000000D+00
      3   0.000000D+00  0.000000D+00  0.000000D+00  0.000000D+00  0.000000D+00
      4   0.000000D+00  0.000000D+00  0.000000D+00  0.000000D+00  0.000000D+00
      5   0.000000D+00  0.000000D+00  0.000000D+00  0.000000D+00  0.000000D+00
      6   0.000000D+00  0.000000D+00  0.000000D+00  0.000000D+00  0.000000D+00
                 6             7             8             9            10 
      1   0.000000D+00  0.000000D+00  0.000000D+00  0.000000D+00  0.000000D+00
      2   0.000000D+00  0.000000D+00  0.000000D+00  0.000000D+00  0.000000D+00
      3   0.000000D+00  0.000000D+00  0.000000D+00  0.000000D+00  0.000000D+00
      4   0.000000D+00  0.000000D+00  0.000000D+00  0.000000D+00  0.000000D+00
      5   0.000000D+00  0.000000D+00  0.000000D+00  0.000000D+00  0.000000D+00
      6   0.000000D+00  0.000000D+00  0.000000D+00  0.000000D+00  0.000000D+00
                11            12            13            14            15 
      1   0.000000D+00  0.000000D+00  0.000000D+00  0.000000D+00  0.000000D+00
      2   0.000000D+00  0.000000D+00  0.000000D+00  0.000000D+00  0.000000D+00
      3   0.000000D+00  0.000000D+00  0.000000D+00  0.000000D+00  0.000000D+00
      4   0.000000D+00  0.000000D+00  0.000000D+00  0.000000D+00  0.000000D+00
      5   0.000000D+00  0.000000D+00  0.000000D+00  0.000000D+00  0.000000D+00
      6   0.000000D+00  0.000000D+00  0.000000D+00  0.000000D+00  0.000000D+00
                16            17            18            19            20 
      1   0.000000D+00  0.000000D+00  0.000000D+00  0.000000D+00  0.000000D+00
      2   0.000000D+00  0.000000D+00  0.000000D+00  0.000000D+00  0.000000D+00
      3   0.000000D+00  0.000000D+00  0.000000D+00  0.000000D+00  0.000000D+00
      4   0.000000D+00  0.000000D+00  0.000000D+00  0.000000D+00  0.000000D+00
      5   0.000000D+00  0.000000D+00  0.000000D+00  0.000000D+00  0.000000D+00
      6   0.000000D+00  0.000000D+00  0.000000D+00  0.000000D+00  0.000000D+00
                21            22            23            24            25 
      1   0.000000D+00  0.000000D+00  0.000000D+00  0.000000D+00  0.000000D+00
      2   0.000000D+00  0.000000D+00  0.000000D+00  0.000000D+00  0.000000D+00
      3   0.000000D+00  0.000000D+00  0.000000D+00  0.000000D+00  0.000000D+00
      4   0.000000D+00  0.000000D+00  0.000000D+00  0.000000D+00  0.000000D+00
      5   0.000000D+00  0.000000D+00  0.000000D+00  0.000000D+00  0.000000D+00
      6   0.000000D+00  0.000000D+00  0.000000D+00  0.000000D+00  0.000000D+00
                26            27            28            29            30 
      1   0.000000D+00  0.000000D+00  0.000000D+00  0.000000D+00  0.000000D+00
      2   0.000000D+00  0.000000D+00  0.000000D+00  0.000000D+00  0.000000D+00
      3   0.000000D+00  0.000000D+00  0.000000D+00  0.000000D+00  0.000000D+00
      4   0.000000D+00  0.000000D+00  0.000000D+00  0.000000D+00  0.000000D+00
      5   0.000000D+00  0.000000D+00  0.000000D+00  0.000000D+00  0.000000D+00
      6   0.000000D+00  0.000000D+00  0.000000D+00  0.000000D+00  0.000000D+00
                31            32            33            34            35 
[...]
   Y21       -2.21000  -0.00002   0.00000  -0.00078  -0.00026  -2.21027
   Z21        2.96658   0.00001   0.00000  -0.00131  -0.00021   2.96637
   X22       10.82613   0.00002   0.00000   0.00027   0.00023  10.82636
   Y22       -2.01874   0.00001   0.00000  -0.00011   0.00014  -2.01860
   Z22       -2.94942   0.00000   0.00000  -0.00109  -0.00002  -2.94944
   X23        8.78954   0.00002   0.00000   0.00026   0.00023   8.78977
   Y23       -2.10460   0.00003   0.00000   0.00036   0.00061  -2.10399
   Z23       -2.44608   0.00000   0.00000  -0.00094   0.00016  -2.44592
   X24       11.97407  -0.00004   0.00000  -0.00031  -0.00032  11.97375
   Y24       -3.16415  -0.00006   0.00000  -0.00096  -0.00064  -3.16479
   Z24       -1.62069  -0.00002   0.00000  -0.00127  -0.00017  -1.62086
   X25       11.87235   0.00010   0.00000   0.00137   0.00130  11.87365
   Y25        1.16352  -0.00002   0.00000  -0.00053  -0.00026   1.16326
   Z25       -2.86114   0.00010   0.00000   0.00017   0.00107  -2.86006
   X26       11.26388   0.00002   0.00000   0.00027   0.00020  11.26408
   Y26       -3.12748   0.00013   0.00000   0.00148   0.00159  -3.12589
   Z26       -6.06926  -0.00004   0.00000  -0.00176  -0.00064  -6.06991
   X27        3.98323  -0.00008   0.00000  -0.00110  -0.00114   3.98209
   Y27        6.01762   0.00004   0.00000   0.00014   0.00060   6.01822
   Z27        2.91604  -0.00001   0.00000  -0.00091  -0.00012   2.91592
   X28        3.46028  -0.00019   0.00000  -0.00204  -0.00207   3.45821
   Y28        4.05574   0.00010   0.00000   0.00084   0.00126   4.05700
   Z28        2.37031  -0.00012   0.00000  -0.00232  -0.00143   2.36888
   X29        2.57013  -0.00007   0.00000  -0.00095  -0.00102   2.56912
   Y29        7.38892   0.00006   0.00000   0.00093   0.00134   7.39026
   Z29        2.18435   0.00005   0.00000   0.00039   0.00113   2.18548
   X30        7.01468  -0.00007   0.00000  -0.00093  -0.00100   7.01368
   Y30        6.76462   0.00013   0.00000   0.00089   0.00132   6.76594
   Z30        1.70267   0.00011   0.00000  -0.00003   0.00067   1.70335
   X31        4.18009   0.00002   0.00000  -0.00009  -0.00009   4.18000
   Y31        6.25957  -0.00015   0.00000  -0.00283  -0.00222   6.25735
   Z31        6.24786  -0.00001   0.00000  -0.00085  -0.00008   6.24778
   X32       -4.27140  -0.00003   0.00000  -0.00054  -0.00049  -4.27189
   Y32        1.53810  -0.00006   0.00000  -0.00120  -0.00066   1.53744
   Z32        6.57059  -0.00001   0.00000  -0.00119  -0.00008   6.57050
   X33       -3.56743  -0.00014   0.00000  -0.00157  -0.00150  -3.56893
   Y33       -0.43734  -0.00010   0.00000  -0.00156  -0.00101  -0.43835
   Z33        6.62925  -0.00009   0.00000  -0.00131  -0.00012   6.62914
   X34       -4.15770  -0.00005   0.00000  -0.00082  -0.00075  -4.15845
   Y34        2.44482   0.00003   0.00000  -0.00073  -0.00010   2.44472
   Z34        8.45976  -0.00005   0.00000  -0.00130  -0.00024   8.45952
   X35       -7.44389  -0.00002   0.00000  -0.00023  -0.00020  -7.44408
   Y35        1.55972  -0.00003   0.00000  -0.00068  -0.00022   1.55950
   Z35        5.50001  -0.00001   0.00000  -0.00208  -0.00093   5.49908
   X36       -2.45037   0.00013   0.00000   0.00143   0.00143  -2.44894
   Y36        3.28440  -0.00010   0.00000  -0.00196  -0.00151   3.28289
   Z36        4.37049   0.00013   0.00000  -0.00013   0.00087   4.37136
   X37       -1.98397  -0.00008   0.00000  -0.00117  -0.00116  -1.98512
   Y37        8.61661   0.00004   0.00000  -0.00002   0.00064   8.61725
   Z37        8.65648   0.00009   0.00000   0.00056   0.00131   8.65778
   X38       -0.72151  -0.00012   0.00000  -0.00164  -0.00165  -0.72315
   Y38       10.27027   0.00005   0.00000   0.00009   0.00077  10.27105
   Z38        8.89403   0.00022   0.00000   0.00266   0.00331   8.89734
   X39       -1.66227  -0.00003   0.00000  -0.00026  -0.00027  -1.66254
   Y39        7.69943   0.00015   0.00000   0.00174   0.00232   7.70174
   Z39        6.79603   0.00005   0.00000  -0.00008   0.00070   6.79673
   X40       -5.16800  -0.00010   0.00000  -0.00144  -0.00144  -5.16943
   Y40        9.56786   0.00000   0.00000  -0.00091  -0.00026   9.56760
   Z40        8.91924   0.00008   0.00000   0.00002   0.00076   8.92000
   X41       -1.38673  -0.00013   0.00000  -0.00189  -0.00183  -1.38855
   Y41        6.40022  -0.00009   0.00000  -0.00241  -0.00162   6.39860
   Z41       11.10806  -0.00002   0.00000  -0.00144  -0.00060  11.10745
   X42        8.37910  -0.00003   0.00000  -0.00023  -0.00039   8.37871
   Y42        2.05582   0.00010   0.00000   0.00143   0.00139   2.05721
   Z42       -8.40244  -0.00001   0.00000  -0.00106  -0.00015  -8.40259
   X43        7.32532  -0.00006   0.00000  -0.00084  -0.00097   7.32435
   Y43        0.52622   0.00009   0.00000   0.00148   0.00148   0.52769
   Z43       -7.42332  -0.00006   0.00000  -0.00151  -0.00051  -7.42383
   X44       10.44737  -0.00004   0.00000  -0.00037  -0.00053  10.44684
   Y44        1.72508   0.00009   0.00000   0.00102   0.00101   1.72609
   Z44       -8.27006   0.00004   0.00000  -0.00025   0.00064  -8.26942
   X45        7.63397   0.00005   0.00000   0.00071   0.00054   7.63451
   Y45        5.01774   0.00011   0.00000   0.00157   0.00159   5.01933
   Z45       -7.01018   0.00000   0.00000  -0.00097  -0.00019  -7.01037
   X46        7.43956   0.00001   0.00000   0.00061   0.00041   7.43997
   Y46        2.21195   0.00017   0.00000   0.00247   0.00227   2.21422
   Z46      -11.60392  -0.00002   0.00000  -0.00133  -0.00042 -11.60433
   X47      -10.25217   0.00012   0.00000   0.00183   0.00176 -10.25042
   Y47        3.72287   0.00014   0.00000   0.00190   0.00203   3.72489
   Z47       -0.73467   0.00003   0.00000  -0.00066   0.00043  -0.73425
   X48      -11.94254   0.00011   0.00000   0.00147   0.00142 -11.94112
   Y48        2.64958   0.00029   0.00000   0.00372   0.00386   2.65345
   Z48       -0.11834   0.00019   0.00000   0.00156   0.00273  -0.11561
   X49       -8.74168   0.00020   0.00000   0.00282   0.00277  -8.73891
   Y49        3.64700   0.00011   0.00000   0.00148   0.00169   3.64870
   Z49        0.72093  -0.00007   0.00000  -0.00171  -0.00064   0.72028
   X50      -11.10418   0.00028   0.00000   0.00394   0.00383 -11.10036
   Y50        6.90797   0.00017   0.00000   0.00223   0.00233   6.91030
   Z50       -1.29217  -0.00004   0.00000  -0.00184  -0.00089  -1.29307
   X51       -9.12107  -0.00009   0.00000  -0.00125  -0.00135  -9.12242
   Y51        2.43865  -0.00000   0.00000  -0.00023  -0.00022   2.43842
   Z51       -3.60685   0.00003   0.00000  -0.00098   0.00015  -3.60669
   X52       -3.00643   0.00000   0.00000   0.00019   0.00004  -3.00638
   Y52        1.85454   0.00002   0.00000   0.00038   0.00026   1.85480
   Z52       -7.72253   0.00007   0.00000  -0.00009   0.00099  -7.72154
   X53       -3.62634   0.00005   0.00000   0.00068   0.00050  -3.62584
   Y53        2.45304   0.00004   0.00000   0.00070   0.00048   2.45352
   Z53       -9.63368   0.00005   0.00000  -0.00008   0.00098  -9.63270
   X54       -4.05929  -0.00008   0.00000  -0.00077  -0.00090  -4.06019
   Y54        2.88550  -0.00004   0.00000  -0.00048  -0.00054   2.88496
   Z54       -6.22391   0.00004   0.00000  -0.00010   0.00094  -6.22297
   X55        0.27907  -0.00002   0.00000  -0.00004  -0.00019   0.27888
   Y55        2.45892   0.00006   0.00000   0.00106   0.00099   2.45991
   Z55       -7.38711   0.00017   0.00000   0.00097   0.00197  -7.38513
   X56       -3.46467   0.00007   0.00000   0.00111   0.00100  -3.46367
   Y56       -1.43504   0.00001   0.00000   0.00017   0.00006  -1.43498
   Z56       -7.36465   0.00005   0.00000  -0.00120   0.00004  -7.36462
   X57       -2.65835   0.00010   0.00000   0.00143   0.00132  -2.65704
   Y57       11.13704   0.00008   0.00000   0.00074   0.00105  11.13809
   Z57        1.43732  -0.00012   0.00000  -0.00211  -0.00148   1.43584
   X58       -1.97284   0.00020   0.00000   0.00270   0.00255  -1.97029
   Y58       11.56348   0.00009   0.00000   0.00162   0.00185  11.56533
   Z58       -0.50214  -0.00008   0.00000  -0.00146  -0.00085  -0.50300
   X59       -4.32601   0.00017   0.00000   0.00213   0.00200  -4.32401
   Y59       12.30842   0.00014   0.00000   0.00148   0.00180  12.31022
   Z59        1.93143  -0.00004   0.00000  -0.00149  -0.00088   1.93054
   X60       -0.19300  -0.00001   0.00000   0.00042   0.00033  -0.19267
   Y60       11.71978  -0.00006   0.00000  -0.00189  -0.00145  11.71833
   Z60        3.63165   0.00003   0.00000  -0.00039   0.00019   3.63183
   X61       -3.46280  -0.00006   0.00000  -0.00060  -0.00068  -3.46348
   Y61        7.89387   0.00010   0.00000   0.00098   0.00129   7.89517
   Z61        1.68031  -0.00034   0.00000  -0.00551  -0.00471   1.67561
   X62        2.09772  -0.00004   0.00000  -0.00065  -0.00055   2.09717
   Y62        0.62555   0.00003   0.00000  -0.00042   0.00032   0.62586
   Z62        9.33811  -0.00011   0.00000  -0.00261  -0.00155   9.33657
   X63        1.38713   0.00000   0.00000   0.00000   0.00007   1.38720
   Y63        2.51399   0.00002   0.00000  -0.00025   0.00045   2.51444
   Z63        8.75806  -0.00017   0.00000  -0.00294  -0.00196   8.75611
   X64        3.69537  -0.00007   0.00000  -0.00112  -0.00101   3.69436
   Y64        0.80648   0.00001   0.00000  -0.00051   0.00031   0.80679
   Z64       10.68108  -0.00007   0.00000  -0.00194  -0.00091  10.68017
   X65        3.09007  -0.00004   0.00000  -0.00057  -0.00048   3.08959
   Y65       -1.07706  -0.00004   0.00000  -0.00119  -0.00057  -1.07762
   Z65        6.63971  -0.00006   0.00000  -0.00222  -0.00108   6.63863
   X66       -0.37916  -0.00010   0.00000  -0.00153  -0.00139  -0.38055
   Y66       -1.10018   0.00011   0.00000   0.00041   0.00119  -1.09898
   Z66       10.78147  -0.00010   0.00000  -0.00311  -0.00193  10.77954
   X67        2.01738   0.00005   0.00000   0.00080   0.00074   2.01812
   Y67       -4.10240   0.00000   0.00000  -0.00003  -0.00000  -4.10240
   Z67       -5.72173   0.00002   0.00000  -0.00106   0.00023  -5.72150
   X68        0.35795   0.00010   0.00000   0.00079   0.00073   0.35869
   Y68       -5.21868  -0.00004   0.00000   0.00005   0.00002  -5.21865
   Z68       -6.34124  -0.00004   0.00000  -0.00111   0.00026  -6.34098
   X69        1.42070   0.00015   0.00000   0.00154   0.00147   1.42217
   Y69       -2.20286  -0.00004   0.00000  -0.00062  -0.00057  -2.20344
   Z69       -5.04730   0.00021   0.00000   0.00138   0.00259  -5.04471
   X70        4.17193  -0.00010   0.00000  -0.00098  -0.00107   4.17085
   Y70       -3.78766   0.00013   0.00000   0.00184   0.00177  -3.78589
   Z70       -8.25595  -0.00009   0.00000  -0.00244  -0.00119  -8.25714
   X71        3.60098   0.00003   0.00000   0.00121   0.00120   3.60218
   Y71       -5.73002  -0.00008   0.00000  -0.00168  -0.00152  -5.73155
   Z71       -3.25602  -0.00003   0.00000  -0.00258  -0.00124  -3.25725
   X72        3.53531  -0.00005   0.00000  -0.00043  -0.00069   3.53462
   Y72        7.42120  -0.00001   0.00000   0.00008  -0.00014   7.42106
   Z72      -11.25044  -0.00009   0.00000  -0.00193  -0.00120 -11.25165
   X73        5.36879  -0.00004   0.00000  -0.00026  -0.00053   5.36826
   Y73        7.21395   0.00005   0.00000   0.00081   0.00056   7.21451
   Z73      -12.24611  -0.00009   0.00000  -0.00168  -0.00097 -12.24708
   X74        3.35737  -0.00001   0.00000  -0.00011  -0.00033   3.35704
   Y74        5.97229  -0.00002   0.00000  -0.00012  -0.00027   5.97202
   Z74       -9.74616  -0.00011   0.00000  -0.00204  -0.00125  -9.74741
   X75        3.33800  -0.00015   0.00000  -0.00157  -0.00184   3.33616
   Y75       10.48358  -0.00003   0.00000  -0.00013  -0.00029  10.48329
   Z75       -9.89590  -0.00007   0.00000  -0.00169  -0.00111  -9.89700
   X76        1.01150  -0.00003   0.00000  -0.00003  -0.00031   1.01119
   Y76        7.11944  -0.00006   0.00000  -0.00036  -0.00071   7.11872
   Z76      -13.41026  -0.00009   0.00000  -0.00233  -0.00156 -13.41182
   X77       -2.87837   0.00020   0.00000   0.00290   0.00269  -2.87568
   Y77        8.73425  -0.00003   0.00000  -0.00014  -0.00022   8.73403
   Z77       -6.96100   0.00006   0.00000  -0.00010   0.00065  -6.96034
   X78       -1.02500   0.00020   0.00000   0.00231   0.00210  -1.02289
   Y78        7.96947   0.00016   0.00000   0.00017   0.00007   7.96954
   Z78       -7.57983  -0.00018   0.00000  -0.00215  -0.00139  -7.58122
   X79       -2.89131   0.00047   0.00000   0.00459   0.00436  -2.88695
   Y79       10.82929  -0.00006   0.00000  -0.00032  -0.00040  10.82889
   Z79       -7.05617  -0.00013   0.00000  -0.00189  -0.00124  -7.05740
   X80       -5.31560  -0.00014   0.00000  -0.00089  -0.00112  -5.31672
   Y80        7.50943  -0.00026   0.00000  -0.00226  -0.00246   7.50696
   Z80       -8.89122   0.00067   0.00000   0.00611   0.00695  -8.88426
   X81       -3.49388   0.00012   0.00000   0.00376   0.00361  -3.49027
   Y81        7.76456   0.00012   0.00000   0.00205   0.00210   7.76667
   Z81       -3.80671   0.00006   0.00000   0.00061   0.00141  -3.80530
   X82        4.07719  -0.00019   0.00000  -0.00236  -0.00254   4.07464
   Y82       11.28175  -0.00024   0.00000  -0.00316  -0.00299  11.27876
   Z82       -3.06905  -0.00008   0.00000  -0.00148  -0.00095  -3.07000
   X83        5.24093  -0.00033   0.00000  -0.00293  -0.00313   5.23779
   Y83       11.20531  -0.00021   0.00000  -0.00326  -0.00315  11.20215
   Z83       -4.81127  -0.00017   0.00000  -0.00181  -0.00129  -4.81256
   X84        5.28644  -0.00039   0.00000  -0.00377  -0.00393   5.28251
   Y84       11.21383  -0.00039   0.00000  -0.00555  -0.00529  11.20854
   Z84       -1.35792   0.00005   0.00000  -0.00059  -0.00007  -1.35799
   X85        2.24032   0.00028   0.00000   0.00270   0.00248   2.24280
   Y85       14.07124   0.00006   0.00000   0.00006   0.00022  14.07145
   Z85       -3.06078   0.00001   0.00000  -0.00042   0.00000  -3.06078
   X86        1.93371  -0.00021   0.00000  -0.00397  -0.00413   1.92959
   Y86        8.70139  -0.00016   0.00000  -0.00174  -0.00159   8.69980
   Z86       -3.04018  -0.00016   0.00000  -0.00332  -0.00263  -3.04281
   X87       -8.27212   0.00001   0.00000   0.00038   0.00018  -8.27194
   Y87       12.99766  -0.00015   0.00000  -0.00215  -0.00212  12.99555
   Z87       -3.18694  -0.00001   0.00000  -0.00083  -0.00021  -3.18715
   X88      -10.10900   0.00002   0.00000   0.00056   0.00035 -10.10865
   Y88       13.10691  -0.00008   0.00000  -0.00107  -0.00110  13.10581
   Z88       -4.18809  -0.00004   0.00000  -0.00105  -0.00041  -4.18850
   X89       -7.70116   0.00003   0.00000   0.00047   0.00029  -7.70086
   Y89       10.99715  -0.00016   0.00000  -0.00239  -0.00233  10.99481
   Z89       -2.90126  -0.00017   0.00000  -0.00284  -0.00213  -2.90339
   X90       -5.93855   0.00005   0.00000   0.00098   0.00074  -5.93781
   Y90       14.60226  -0.00001   0.00000  -0.00009  -0.00011  14.60215
   Z90       -4.96678   0.00019   0.00000   0.00179   0.00230  -4.96448
   X91       -8.51963  -0.00007   0.00000  -0.00062  -0.00080  -8.52043
   Y91       14.53361  -0.00042   0.00000  -0.00571  -0.00554  14.52807
   Z91       -0.22924   0.00010   0.00000   0.00084   0.00140  -0.22784
         Item               Value     Threshold  Converged?
 Maximum Force            0.047719     0.000450     NO 
 RMS     Force            0.006226     0.000300     NO 
 Maximum Displacement     0.142851     0.001800     NO 
 RMS     Displacement     0.018157     0.001200     NO 
 Predicted change in Energy=-1.151235D-02
 GradGradGradGradGradGradGradGradGradGradGradGradGradGradGradGradGradGrad

 Unable to Open any file for archive entry.
 1\1\GINC-X10P1N23\Force\ONIOM(B3LYP TD-FC/6-31G(d):PM6)\Mixed\C23H38Cl
 30\MAYUMIAO\12-Jul-2024\0\\# scf=(xqc,maxcycle=64) force guess=read on
 iom(td/b3lyp/em=gd3bj/6-31g(d):pm6) nosymm\\Title Card\\0,1\C,0.554744
 64,-0.17660195,-0.18035494\C,-0.08415523,-1.29441855,0.41566494\C,-0.2
 671357,0.8812618,-0.64678293\C,-1.45616825,-1.35654905,0.52945301\H,0.
 53677931,-2.11308391,0.77489597\C,1.97589508,-0.14667865,-0.30959362\C
 ,-1.64419849,0.81605197,-0.5107241\H,0.18572468,1.75301945,-1.11275015
 \C,-2.25248231,-0.3024445,0.05943052\H,-1.91897277,-2.22428708,0.99241
 206\C,2.68635466,0.88827354,-1.00472507\H,2.52158223,-0.99853996,0.102
 70089\H,-2.25688531,1.64798699,-0.85226817\H,-3.33547772,-0.35734135,0
 .13662417\H,3.6128325,1.31624881,-0.63080374\H,2.33176709,1.28291028,-
 1.95487832\C,4.97449236,0.55634188,1.99410394\H,5.2579657,1.1463105,1.
 09725622\H,3.976959,0.8607514,2.37397952\Cl,6.18576626,0.77252241,3.25
 57765\Cl,4.93607896,-1.16948385,1.56984411\C,5.72894361,-1.06827256,-1
 .56076638\H,4.65122674,-1.11370668,-1.29441124\H,6.33640452,-1.6743981
 5,-0.85763257\Cl,6.28257641,0.61570842,-1.51404765\Cl,5.96059077,-1.65
 498997,-3.21171597\C,2.10783447,3.18438924,1.54310152\H,1.83110076,2.1
 4620312,1.25431509\H,1.36005669,3.91005046,1.15590867\Cl,3.71200757,3.
 57968225,0.90101519\Cl,2.21200916,3.31242122,3.30622736\C,-2.26032792,
 0.81392776,3.47700579\H,-1.88780219,-0.23143178,3.50804937\H,-2.200159
 8,1.29374163,4.47671259\Cl,-3.93913494,0.82536999,2.9104786\Cl,-1.2966
 8021,1.73802842,2.31276373\C,-1.04986941,4.5597114,4.58081076\H,-0.381
 80493,5.43479391,4.70651805\H,-0.87963393,4.07436183,3.59630386\Cl,-2.
 73478599,5.0630936,4.71985859\Cl,-0.73382407,3.38685125,5.87813129\C,4
 .43403095,1.08789486,-4.44637739\H,3.87639106,0.27846264,-3.92825263\H
 ,5.52850994,0.912874,-4.37632711\Cl,4.03972093,2.6552726,-3.70962829\C
 l,3.9368479,1.17051384,-6.14052747\C,-5.42521634,1.97005552,-0.3887721
 1\H,-6.31971779,1.40209834,-0.06262353\H,-4.62589939,1.92991057,0.3814
 9744\Cl,-5.87608138,3.65554173,-0.68378874\Cl,-4.82666344,1.29047726,-
 1.9086604\C,-1.59093241,0.98138055,-4.08658783\H,-1.91897545,1.2980952
 2,-5.09792231\H,-2.14808271,1.52694027,-3.29355235\Cl,0.14767791,1.301
 20398,-3.90908825\Cl,-1.83342444,-0.75939291,-3.8972073\C,-1.40674044,
 5.8934657,0.76059612\H,-1.04398015,6.1191322,-0.2657236\H,-2.28922546,
 6.51333393,1.02206811\Cl,-0.10213145,6.20184017,1.92178442\Cl,-1.83243
 633,4.17725761,0.88918414\C,1.11006589,0.33102565,4.94151591\H,0.73403
 601,1.33034528,4.63456818\H,1.95550357,0.42676848,5.652182\Cl,1.635194
 67,-0.56995306,3.51358451\Cl,-0.20064108,-0.58218826,5.70530785\C,1.06
 755263,-2.17089521,-3.02780911\H,0.1894213,-2.76160593,-3.35564118\H,0
 .75180132,-1.16570582,-2.67091834\Cl,2.20768842,-2.00434294,-4.3688593
 \Cl,1.90555444,-3.03219858,-1.7230099\C,1.87080341,3.92712913,-5.95347
 737\H,2.84104122,3.81745628,-6.48036482\H,1.77664363,3.16039856,-5.157
 44555\Cl,1.76639277,5.54767253,-5.2366825\Cl,0.53526532,3.76744375,-7.
 09640244\C,-1.52316577,4.62196858,-3.68360211\H,-0.54240517,4.21726388
 ,-4.01107296\H,-1.53001648,5.73061569,-3.73396241\Cl,-2.81289539,3.973
 81884,-4.70503036\Cl,-1.84888316,4.10882894,-2.0144241\C,2.15755374,5.
 97004543,-1.62407055\H,2.77337948,5.92959368,-2.54601474\H,2.79746496,
 5.9341042,-0.71857931\Cl,1.18552513,7.44617791,-1.61969625\Cl,1.023277
 84,4.60457584,-1.60879213\C,-4.37741705,6.87806637,-1.68645854\H,-5.34
 945179,6.93587632,-2.21624182\H,-4.07527695,5.81943884,-1.53527941\Cl,
 -3.14254595,7.72718427,-2.62830855\Cl,-4.50839367,7.69085534,-0.121308
 87\\Version=ES64L-G16RevC.01\HF=0.0859956\S2=0.864689\S2-1=0.\S2A=1.10
 7689\RMSD=4.573e-09\RMSF=6.226e-03\Dipole=-0.0842268,0.021219,0.161233
 8\PG=C01 [X(C23H38Cl30)]\\@
 The archive entry for this job was punched.


 SIC AS THE CAWSE OF EWERY THING IS, SIC WILBE THE EFFECT.
 -- PROVERBS AND REASONS OF THE YEAR 1585
           AS REPRINTED IN PAISLEY MAGAZINE 1828.
 Job cpu time:       0 days  0 hours 18 minutes 56.3 seconds.
 Elapsed time:       0 days  0 hours  0 minutes 45.2 seconds.
 File lengths (MBytes):  RWF=    173 Int=      0 D2E=      0 Chk=     37 Scr=      1
 Normal termination of Gaussian 16 at Fri Jul 12 22:52:39 2024.
