 Entering Gaussian System, Link 0=g16
 Input=JOBS/10_B.gjf
 Output=JOBS/10_B.log
 Initial command:
 /data/app/gaussian/C01-avx2//g16/l1.exe "/tmp/Gau-1773928.inp" -scrdir="/tmp/"
 Entering Link 1 = /data/app/gaussian/C01-avx2//g16/l1.exe PID=   1773929.
  
 Copyright (c) 1988-2019, Gaussian, Inc.  All Rights Reserved.
  
 This is part of the Gaussian(R) 16 program.  It is based on
 the Gaussian(R) 09 system (copyright 2009, Gaussian, Inc.),
 the Gaussian(R) 03 system (copyright 2003, Gaussian, Inc.),
 the Gaussian(R) 98 system (copyright 1998, Gaussian, Inc.),
 the Gaussian(R) 94 system (copyright 1995, Gaussian, Inc.),
 the Gaussian 92(TM) system (copyright 1992, Gaussian, Inc.),
 the Gaussian 90(TM) system (copyright 1990, Gaussian, Inc.),
 the Gaussian 88(TM) system (copyright 1988, Gaussian, Inc.),
 the Gaussian 86(TM) system (copyright 1986, Carnegie Mellon
 University), and the Gaussian 82(TM) system (copyright 1983,
 Carnegie Mellon University). Gaussian is a federally registered
 trademark of Gaussian, Inc.
  
 This software contains proprietary and confidential information,
 including trade secrets, belonging to Gaussian, Inc.
  
 This software is provided under written license and may be
 used, copied, transmitted, or stored only in accord with that
 written license.
  
 The following legend is applicable only to US Government
 contracts under FAR:
  
                    RESTRICTED RIGHTS LEGEND
  
 Use, reproduction and disclosure by the US Government is
 subject to restrictions as set forth in subparagraphs (a)
 and (c) of the Commercial Computer Software - Restricted
 Rights clause in FAR 52.227-19.
  
 Gaussian, Inc.
 340 Quinnipiac St., Bldg. 40, Wallingford CT 06492
  
  
 ---------------------------------------------------------------
 Warning -- This program may not be used in any manner that
 competes with the business of Gaussian, Inc. or will provide
 assistance to any competitor of Gaussian, Inc.  The licensee
 of this program is prohibited from giving any competitor of
 Gaussian, Inc. access to this program.  By using this program,
 the user acknowledges that Gaussian, Inc. is engaged in the
 business of creating and licensing software in the field of
 computational chemistry and represents and warrants to the
 licensee that it is not a competitor of Gaussian, Inc. and that
 it will not use this program in any manner prohibited above.
 ---------------------------------------------------------------
  

 Cite this work as:
 Gaussian 16, Revision C.01,
 M. J. Frisch, G. W. Trucks, H. B. Schlegel, G. E. Scuseria, 
 M. A. Robb, J. R. Cheeseman, G. Scalmani, V. Barone, 
 G. A. Petersson, H. Nakatsuji, X. Li, M. Caricato, A. V. Marenich, 
 J. Bloino, B. G. Janesko, R. Gomperts, B. Mennucci, H. P. Hratchian, 
 J. V. Ortiz, A. F. Izmaylov, J. L. Sonnenberg, D. Williams-Young, 
 F. Ding, F. Lipparini, F. Egidi, J. Goings, B. Peng, A. Petrone, 
 T. Henderson, D. Ranasinghe, V. G. Zakrzewski, J. Gao, N. Rega, 
 G. Zheng, W. Liang, M. Hada, M. Ehara, K. Toyota, R. Fukuda, 
 J. Hasegawa, M. Ishida, T. Nakajima, Y. Honda, O. Kitao, H. Nakai, 
 T. Vreven, K. Throssell, J. A. Montgomery, Jr., J. E. Peralta, 
 F. Ogliaro, M. J. Bearpark, J. J. Heyd, E. N. Brothers, K. N. Kudin, 
 V. N. Staroverov, T. A. Keith, R. Kobayashi, J. Normand, 
 K. Raghavachari, A. P. Rendell, J. C. Burant, S. S. Iyengar, 
 J. Tomasi, M. Cossi, J. M. Millam, M. Klene, C. Adamo, R. Cammi, 
 J. W. Ochterski, R. L. Martin, K. Morokuma, O. Farkas, 
 J. B. Foresman, and D. J. Fox, Gaussian, Inc., Wallingford CT, 2019.
 
 ******************************************
 Gaussian 16:  ES64L-G16RevC.01  3-Jul-2019
                12-Jul-2024 
 ******************************************
 %chk=b.chk
 %nprocshared=28
 Will use up to   28 processors via shared memory.
 %mem=48gb
 ----------------------------------------------------------------------
 # scf=(xqc,maxcycle=64) force guess=read oniom(b3lyp/em=gd3bj/6-31g(d)
 :pm6) nosymm
 ----------------------------------------------------------------------
 1/10=7,30=1,38=1,52=2/1,3;
 2/12=2,15=1,17=6,18=5,40=1/2;
 1/10=7,30=1,38=1,52=2,53=3172/20;
 3/5=2,25=1,41=3900000,71=1,116=-2/1,2,3;
 4/5=1,35=1/1;
 5/5=2,7=64,8=3,13=1,35=1,38=6/2,8;
 6/7=2,8=2,9=2,10=2,28=1/1;
 7/7=1,30=1,33=-1/1,2,3,16;
 1/10=7,30=1,52=2,53=2032/20;
 3/5=1,6=6,7=1,11=2,25=1,30=1,71=1,74=-5,116=-2,124=41/1,2,3;
 4/5=1/1;
 5/5=2,7=64,8=3,13=1,38=6/2,8;
 6/7=2,8=2,9=2,10=2,28=1/1;
 7/7=1,30=1,33=-1/1,2,3,16;
 1/10=7,30=1,52=2,53=1022/20;
 3/5=2,25=1,41=3900000,71=1,116=-2/1,2,3;
 4/5=1,35=1/1;
 5/5=2,7=64,8=3,13=1,35=1,38=6/2,8;
 6/7=2,8=2,9=2,10=2,28=1/1;
 7/7=1,30=1,33=-1/1,2,3,16;
 1/10=7,30=1,52=2,53=3015/20;
 7/9=1,29=1,44=-1,126=2/16;
 1/10=7,30=1,52=2/3;
 99//99;
 ONIOM: restoring gridpoint  3 on chk file.
 ----------
 Title Card
 ----------
 Symbolic Z-matrix:
 Charge =  0 Multiplicity = 1 for low   level calculation on real  system.
 Charge =  0 Multiplicity = 3 for high  level calculation on model system.
 Charge =  0 Multiplicity = 3 for low   level calculation on model system.
 c                     0.55474  -0.1766   -0.18035  h 
 c                    -0.08416  -1.29442   0.41566  h 
 c                    -0.26714   0.88126  -0.64678  h 
 c                    -1.45617  -1.35655   0.52945  h 
 h                     0.53678  -2.11308   0.7749   h 
 c                     1.9759   -0.14668  -0.30959  h 
 c                    -1.6442    0.81605  -0.51072  h 
 h                     0.18572   1.75302  -1.11275  h 
 c                    -2.25248  -0.30244   0.05943  h 
 h                    -1.91897  -2.22429   0.99241  h 
 c                     2.68635   0.88827  -1.00473  h 
 h                     2.52158  -0.99854   0.1027   h 
 h                    -2.25689   1.64799  -0.85227  h 
 h                    -3.33548  -0.35734   0.13662  h 
 h                     3.61283   1.31625  -0.6308   h 
 h                     2.33177   1.28291  -1.95488  h 
 c                     4.97449   0.55634   1.9941   l 
 h                     5.25797   1.14631   1.09726  l 
 h                     3.97696   0.86075   2.37398  l 
 cl                    6.18577   0.77252   3.25578  l 
 cl                    4.93608  -1.16948   1.56984  l 
 c                     5.72894  -1.06827  -1.56077  l 
 h                     4.65123  -1.11371  -1.29441  l 
 h                     6.3364   -1.6744   -0.85763  l 
 cl                    6.28258   0.61571  -1.51405  l 
 cl                    5.96059  -1.65499  -3.21172  l 
 c                     2.10783   3.18439   1.5431   l 
 h                     1.8311    2.1462    1.25432  l 
 h                     1.36006   3.91005   1.15591  l 
 cl                    3.71201   3.57968   0.90102  l 
 cl                    2.21201   3.31242   3.30623  l 
 c                    -2.26033   0.81393   3.47701  l 
 h                    -1.8878   -0.23143   3.50805  l 
 h                    -2.20016   1.29374   4.47671  l 
 cl                   -3.93913   0.82537   2.91048  l 
 cl                   -1.29668   1.73803   2.31276  l 
 c                    -1.04987   4.55971   4.58081  l 
 h                    -0.3818    5.43479   4.70652  l 
 h                    -0.87963   4.07436   3.5963   l 
 cl                   -2.73479   5.06309   4.71986  l 
 cl                   -0.73382   3.38685   5.87813  l 
 c                     4.43403   1.08789  -4.44638  l 
 h                     3.87639   0.27846  -3.92825  l 
 h                     5.52851   0.91287  -4.37633  l 
 cl                    4.03972   2.65527  -3.70963  l 
 cl                    3.93685   1.17051  -6.14053  l 
 c                    -5.42522   1.97006  -0.38877  l 
 h                    -6.31972   1.4021   -0.06262  l 
 h                    -4.6259    1.92991   0.3815   l 
 cl                   -5.87608   3.65554  -0.68379  l 
 cl                   -4.82666   1.29048  -1.90866  l 
 c                    -1.59093   0.98138  -4.08659  l 
 h                    -1.91898   1.2981   -5.09792  l 
 h                    -2.14808   1.52694  -3.29355  l 
 cl                    0.14768   1.3012   -3.90909  l 
 cl                   -1.83342  -0.75939  -3.89721  l 
 c                    -1.40674   5.89347   0.7606   l 
 h                    -1.04398   6.11913  -0.26572  l 
 h                    -2.28923   6.51333   1.02207  l 
 cl                   -0.10213   6.20184   1.92178  l 
 cl                   -1.83244   4.17726   0.88918  l 
 c                     1.11007   0.33103   4.94152  l 
 h                     0.73404   1.33035   4.63457  l 
 h                     1.9555    0.42677   5.65218  l 
 cl                    1.63519  -0.56995   3.51358  l 
 cl                   -0.20064  -0.58219   5.70531  l 
 c                     1.06755  -2.1709   -3.02781  l 
 h                     0.18942  -2.76161  -3.35564  l 
 h                     0.7518   -1.16571  -2.67092  l 
 cl                    2.20769  -2.00434  -4.36886  l 
 cl                    1.90555  -3.0322   -1.72301  l 
 c                     1.8708    3.92713  -5.95348  l 
 h                     2.84104   3.81746  -6.48036  l 
 h                     1.77664   3.1604   -5.15745  l 
 cl                    1.76639   5.54767  -5.23668  l 
 cl                    0.53527   3.76744  -7.0964   l 
 c                    -1.52317   4.62197  -3.6836   l 
 h                    -0.54241   4.21726  -4.01107  l 
 h                    -1.53002   5.73062  -3.73396  l 
 cl                   -2.8129    3.97382  -4.70503  l 
 cl                   -1.84888   4.10883  -2.01442  l 
 c                     2.15755   5.97005  -1.62407  l 
 h                     2.77338   5.92959  -2.54601  l 
 h                     2.79746   5.9341   -0.71858  l 
 cl                    1.18553   7.44618  -1.6197   l 
 cl                    1.02328   4.60458  -1.60879  l 
 c                    -4.37742   6.87807  -1.68646  l 
 h                    -5.34945   6.93588  -2.21624  l 
 h                    -4.07528   5.81944  -1.53528  l 
 cl                   -3.14255   7.72718  -2.62831  l 
 cl                   -4.50839   7.69086  -0.12131  l 
 

 GradGradGradGradGradGradGradGradGradGradGradGradGradGradGradGradGradGrad
 Berny optimization.
 Initialization pass.
 Trust Radius=3.00D-01 FncErr=1.00D-07 GrdErr=1.00D-07 EigMax=2.50D+02 EigMin=1.00D-04
 Number of steps in this run=      2 maximum allowed number of steps=      2.
 GradGradGradGradGradGradGradGradGradGradGradGradGradGradGradGradGradGrad

 Symmetry turned off by external request.
 Stoichiometry    C23H38Cl30
 Framework group  C1[X(C23H38Cl30)]
 Deg. of freedom   267
 Full point group                 C1      NOp   1
                          Input orientation:                          
 ---------------------------------------------------------------------
 Center     Atomic      Atomic             Coordinates (Angstroms)
 Number     Number       Type             X           Y           Z
 ---------------------------------------------------------------------
      1          6           0        0.554745   -0.176602   -0.180355
      2          6           0       -0.084155   -1.294419    0.415665
      3          6           0       -0.267136    0.881262   -0.646783
      4          6           0       -1.456168   -1.356549    0.529453
      5          1           0        0.536779   -2.113084    0.774896
      6          6           0        1.975895   -0.146679   -0.309594
      7          6           0       -1.644198    0.816052   -0.510724
      8          1           0        0.185725    1.753019   -1.112750
      9          6           0       -2.252482   -0.302445    0.059431
     10          1           0       -1.918973   -2.224287    0.992412
     11          6           0        2.686355    0.888274   -1.004725
     12          1           0        2.521582   -0.998540    0.102701
     13          1           0       -2.256885    1.647987   -0.852268
     14          1           0       -3.335478   -0.357341    0.136624
     15          1           0        3.612833    1.316249   -0.630804
     16          1           0        2.331767    1.282910   -1.954878
     17          6           0        4.974492    0.556342    1.994104
     18          1           0        5.257966    1.146311    1.097256
     19          1           0        3.976959    0.860751    2.373980
     20         17           0        6.185766    0.772522    3.255776
     21         17           0        4.936079   -1.169484    1.569844
     22          6           0        5.728944   -1.068273   -1.560766
     23          1           0        4.651227   -1.113707   -1.294411
     24          1           0        6.336405   -1.674398   -0.857633
     25         17           0        6.282576    0.615708   -1.514048
     26         17           0        5.960591   -1.654990   -3.211716
     27          6           0        2.107834    3.184389    1.543102
     28          1           0        1.831101    2.146203    1.254315
     29          1           0        1.360057    3.910050    1.155909
     30         17           0        3.712008    3.579682    0.901015
     31         17           0        2.212009    3.312421    3.306227
     32          6           0       -2.260328    0.813928    3.477006
     33          1           0       -1.887802   -0.231432    3.508049
     34          1           0       -2.200160    1.293742    4.476713
     35         17           0       -3.939135    0.825370    2.910479
     36         17           0       -1.296680    1.738028    2.312764
     37          6           0       -1.049869    4.559711    4.580811
     38          1           0       -0.381805    5.434794    4.706518
     39          1           0       -0.879634    4.074362    3.596304
     40         17           0       -2.734786    5.063094    4.719859
     41         17           0       -0.733824    3.386851    5.878131
     42          6           0        4.434031    1.087895   -4.446377
     43          1           0        3.876391    0.278463   -3.928253
     44          1           0        5.528510    0.912874   -4.376327
     45         17           0        4.039721    2.655273   -3.709628
     46         17           0        3.936848    1.170514   -6.140527
     47          6           0       -5.425216    1.970056   -0.388772
     48          1           0       -6.319718    1.402098   -0.062624
     49          1           0       -4.625899    1.929911    0.381497
     50         17           0       -5.876081    3.655542   -0.683789
     51         17           0       -4.826663    1.290477   -1.908660
     52          6           0       -1.590932    0.981381   -4.086588
     53          1           0       -1.918975    1.298095   -5.097922
     54          1           0       -2.148083    1.526940   -3.293552
     55         17           0        0.147678    1.301204   -3.909088
     56         17           0       -1.833424   -0.759393   -3.897207
     57          6           0       -1.406740    5.893466    0.760596
     58          1           0       -1.043980    6.119132   -0.265724
     59          1           0       -2.289225    6.513334    1.022068
     60         17           0       -0.102131    6.201840    1.921784
     61         17           0       -1.832436    4.177258    0.889184
     62          6           0        1.110066    0.331026    4.941516
     63          1           0        0.734036    1.330345    4.634568
     64          1           0        1.955504    0.426768    5.652182
     65         17           0        1.635195   -0.569953    3.513585
     66         17           0       -0.200641   -0.582188    5.705308
     67          6           0        1.067553   -2.170895   -3.027809
     68          1           0        0.189421   -2.761606   -3.355641
     69          1           0        0.751801   -1.165706   -2.670918
     70         17           0        2.207688   -2.004343   -4.368859
     71         17           0        1.905554   -3.032199   -1.723010
     72          6           0        1.870803    3.927129   -5.953477
     73          1           0        2.841041    3.817456   -6.480365
     74          1           0        1.776644    3.160399   -5.157446
     75         17           0        1.766393    5.547673   -5.236682
     76         17           0        0.535265    3.767444   -7.096402
     77          6           0       -1.523166    4.621969   -3.683602
     78          1           0       -0.542405    4.217264   -4.011073
     79          1           0       -1.530016    5.730616   -3.733962
     80         17           0       -2.812895    3.973819   -4.705030
     81         17           0       -1.848883    4.108829   -2.014424
     82          6           0        2.157554    5.970045   -1.624071
     83          1           0        2.773379    5.929594   -2.546015
     84          1           0        2.797465    5.934104   -0.718579
     85         17           0        1.185525    7.446178   -1.619696
     86         17           0        1.023278    4.604576   -1.608792
     87          6           0       -4.377417    6.878066   -1.686459
     88          1           0       -5.349452    6.935876   -2.216242
     89          1           0       -4.075277    5.819439   -1.535279
     90         17           0       -3.142546    7.727184   -2.628309
     91         17           0       -4.508394    7.690855   -0.121309
 ---------------------------------------------------------------------
 Rotational constants (GHZ):           0.0225967           0.0200334           0.0153251
 ONIOM: saving gridpoint 17
 ONIOM: restoring gridpoint  3 on chk file.
 ONIOM: generating point  3 -- low level on real system.
 Standard basis: VSTO-6G (5D, 7F)
   400 basis functions,  2580 primitive gaussians,   430 cartesian basis functions
   170 alpha electrons      170 beta electrons
       nuclear repulsion energy      5298.5559429382 Hartrees.
 Integral buffers will be    131072 words long.
 Regular integral format.
 Two-electron integral symmetry is turned off.
 Do NDO integrals.
 One-electron integrals computed using PRISM.
 NBasis=   400 RedAO= F EigKep=  0.00D+00  NBF=   400
 NBsUse=   400 1.00D-04 EigRej=  0.00D+00 NBFU=   400
 Initial guess from the checkpoint file:  "b.chk"
 B after Tr=    -0.000158   -0.000194   -0.000262
         Rot=    1.000000   -0.000012    0.000007   -0.000007 Ang=  -0.00 deg.
 Initial guess <Sx>= 0.0000 <Sy>= 0.0000 <Sz>= 0.0000 <S**2>=-0.0000 S=-0.0000
 Keep J ints in memory in canonical form, NReq=3161508.
 Overlap will be assumed to be unity.
 Requested convergence on RMS density matrix=1.00D-08 within  64 cycles.
 Requested convergence on MAX density matrix=1.00D-06.
 Requested convergence on             energy=1.00D-06.
 No special actions if energy rises.
 SCF Done:  E(UPM6) = -0.404691741530     A.U. after   11 cycles
            NFock= 10  Conv=0.78D-08     -V/T= 0.9994
 <Sx>= 0.0000 <Sy>= 0.0000 <Sz>= 0.0000 <S**2>=-0.0000 S=-0.0000
 <L.S>=  0.00000000000    
 Annihilation of the first spin contaminant:
 S**2 before annihilation    -0.0000,   after     0.0000
 QCSCF skips out because SCF is already converged.

 **********************************************************************

            Population analysis using the SCF Density.

 **********************************************************************

 Alpha  occ. eigenvalues --   -1.11277  -1.05641  -1.05330  -1.05282  -1.05188
 Alpha  occ. eigenvalues --   -1.05143  -1.05126  -1.04942  -1.04881  -1.04791
 Alpha  occ. eigenvalues --   -1.04750  -1.04710  -1.04479  -1.04457  -1.04347
 Alpha  occ. eigenvalues --   -1.04107  -1.01812  -0.98614  -0.98297  -0.98219
 Alpha  occ. eigenvalues --   -0.98158  -0.98109  -0.97966  -0.97950  -0.97799
 Alpha  occ. eigenvalues --   -0.97773  -0.97754  -0.97633  -0.97408  -0.97341
 Alpha  occ. eigenvalues --   -0.97258  -0.97248  -0.97000  -0.92327  -0.88788
 Alpha  occ. eigenvalues --   -0.88704  -0.88585  -0.88404  -0.88363  -0.88255
 Alpha  occ. eigenvalues --   -0.88221  -0.88129  -0.88089  -0.88016  -0.87888
 Alpha  occ. eigenvalues --   -0.87656  -0.87560  -0.87514  -0.87211  -0.82657
 Alpha  occ. eigenvalues --   -0.79207  -0.72952  -0.65435  -0.62720  -0.62382
 Alpha  occ. eigenvalues --   -0.62117  -0.61860  -0.61648  -0.61543  -0.61491
 Alpha  occ. eigenvalues --   -0.61310  -0.61255  -0.61162  -0.61058  -0.60908
 Alpha  occ. eigenvalues --   -0.60381  -0.60305  -0.60127  -0.60051  -0.60010
 Alpha  occ. eigenvalues --   -0.59775  -0.59614  -0.59535  -0.59461  -0.59372
 Alpha  occ. eigenvalues --   -0.59271  -0.59204  -0.59111  -0.58995  -0.58942
 Alpha  occ. eigenvalues --   -0.58742  -0.58604  -0.58574  -0.58486  -0.58333
 Alpha  occ. eigenvalues --   -0.58271  -0.58069  -0.57794  -0.57730  -0.57709
 Alpha  occ. eigenvalues --   -0.57672  -0.57584  -0.57522  -0.57506  -0.57428
 Alpha  occ. eigenvalues --   -0.57233  -0.57104  -0.57069  -0.56887  -0.56780
 Alpha  occ. eigenvalues --   -0.55186  -0.53413  -0.52323  -0.51052  -0.49677
 Alpha  occ. eigenvalues --   -0.46196  -0.45290  -0.45093  -0.44803  -0.44274
 Alpha  occ. eigenvalues --   -0.44248  -0.44111  -0.43993  -0.43935  -0.43856
 Alpha  occ. eigenvalues --   -0.43760  -0.43704  -0.43588  -0.43494  -0.43461
 Alpha  occ. eigenvalues --   -0.43424  -0.43416  -0.43391  -0.43314  -0.43289
 Alpha  occ. eigenvalues --   -0.43225  -0.43149  -0.43124  -0.43047  -0.42973
 Alpha  occ. eigenvalues --   -0.42904  -0.42863  -0.42803  -0.42759  -0.42626
 Alpha  occ. eigenvalues --   -0.42585  -0.42474  -0.42415  -0.42338  -0.42126
 Alpha  occ. eigenvalues --   -0.42017  -0.41912  -0.41903  -0.41792  -0.41787
 Alpha  occ. eigenvalues --   -0.41708  -0.41687  -0.41623  -0.41609  -0.41480
 Alpha  occ. eigenvalues --   -0.41362  -0.41298  -0.41286  -0.41236  -0.41204
 Alpha  occ. eigenvalues --   -0.41161  -0.41135  -0.41049  -0.41040  -0.40908
 Alpha  occ. eigenvalues --   -0.40865  -0.40760  -0.40599  -0.40584  -0.40514
 Alpha  occ. eigenvalues --   -0.40372  -0.40322  -0.39599  -0.36947  -0.32892
 Alpha virt. eigenvalues --   -0.03657  -0.01315  -0.00983  -0.00949  -0.00889
 Alpha virt. eigenvalues --   -0.00663  -0.00641  -0.00590  -0.00547  -0.00485
 Alpha virt. eigenvalues --   -0.00454  -0.00445  -0.00393  -0.00364  -0.00276
 Alpha virt. eigenvalues --   -0.00253  -0.00235  -0.00226  -0.00201  -0.00196
 Alpha virt. eigenvalues --   -0.00157  -0.00131  -0.00054  -0.00013   0.00045
 Alpha virt. eigenvalues --    0.00347   0.00391   0.00463   0.00490   0.00497
 Alpha virt. eigenvalues --    0.00600   0.00698   0.02621   0.08908   0.14220
 Alpha virt. eigenvalues --    0.14252   0.14431   0.14550   0.14696   0.14768
 Alpha virt. eigenvalues --    0.14871   0.14964   0.14981   0.15031   0.15066
 Alpha virt. eigenvalues --    0.15124   0.15157   0.15159   0.15249   0.15358
 Alpha virt. eigenvalues --    0.15413   0.15439   0.15497   0.15570   0.15618
 Alpha virt. eigenvalues --    0.15735   0.15789   0.15859   0.15915   0.15932
 Alpha virt. eigenvalues --    0.15963   0.15980   0.16096   0.16347   0.16405
 Alpha virt. eigenvalues --    0.16419   0.16720   0.17006   0.17226   0.17964
 Alpha virt. eigenvalues --    0.18571   0.19301   0.19815   0.20393   0.21104
 Alpha virt. eigenvalues --    0.21284   0.21599   0.21802   0.22176   0.22294
 Alpha virt. eigenvalues --    3.16389   3.16813   3.17316   3.17937   3.18103
 Alpha virt. eigenvalues --    3.18346   3.18621   3.18720   3.18965   3.19080
 Alpha virt. eigenvalues --    3.19093   3.19263   3.19321   3.19535   3.19630
 Alpha virt. eigenvalues --    3.19635   3.19698   3.19833   3.19902   3.19990
 Alpha virt. eigenvalues --    3.20017   3.20178   3.20270   3.20302   3.20428
 Alpha virt. eigenvalues --    3.20469   3.20537   3.20549   3.20621   3.20660
 Alpha virt. eigenvalues --    3.20696   3.20827   3.20869   3.20964   3.21003
 Alpha virt. eigenvalues --    3.21058   3.21100   3.21159   3.21176   3.21230
 Alpha virt. eigenvalues --    3.21404   3.21445   3.21559   3.21716   3.21832
 Alpha virt. eigenvalues --    3.21969   3.22060   3.22132   3.22163   3.22306
 Alpha virt. eigenvalues --    3.22439   3.22496   3.22523   3.22587   3.22732
 Alpha virt. eigenvalues --    3.22784   3.22939   3.22988   3.23132   3.23165
 Alpha virt. eigenvalues --    3.23187   3.23287   3.23368   3.23415   3.23478
 Alpha virt. eigenvalues --    3.23499   3.23572   3.23648   3.23739   3.23789
 Alpha virt. eigenvalues --    3.23851   3.23943   3.23965   3.23997   3.24089
 Alpha virt. eigenvalues --    3.24132   3.24150   3.24231   3.24273   3.24309
 Alpha virt. eigenvalues --    3.24371   3.24476   3.24483   3.24537   3.24637
 Alpha virt. eigenvalues --    3.24663   3.24719   3.24804   3.24852   3.24934
 Alpha virt. eigenvalues --    3.24955   3.25024   3.25059   3.25077   3.25100
 Alpha virt. eigenvalues --    3.25141   3.25300   3.25378   3.25455   3.25514
 Alpha virt. eigenvalues --    3.25537   3.25676   3.25731   3.25757   3.25852
 Alpha virt. eigenvalues --    3.25879   3.25923   3.25992   3.26104   3.26216
 Alpha virt. eigenvalues --    3.26278   3.26325   3.26418   3.26453   3.26786
 Alpha virt. eigenvalues --    3.26841   3.26905   3.26993   3.27025   3.27157
 Alpha virt. eigenvalues --    3.27235   3.27331   3.27380   3.27395   3.27466
 Alpha virt. eigenvalues --    3.27537   3.27631   3.27732   3.27751   3.27834
 Alpha virt. eigenvalues --    3.27856   3.27951   3.28147   3.28159   3.28204
 Alpha virt. eigenvalues --    3.28281   3.28380   3.28469   3.28546   3.28582
 Alpha virt. eigenvalues --    3.28638   3.28675   3.28728   3.28825   3.28917
 Alpha virt. eigenvalues --    3.29129   3.29255   3.29344   3.29702   3.29961
  Beta  occ. eigenvalues --   -1.11277  -1.05641  -1.05330  -1.05282  -1.05188
  Beta  occ. eigenvalues --   -1.05143  -1.05126  -1.04942  -1.04881  -1.04791
  Beta  occ. eigenvalues --   -1.04750  -1.04710  -1.04479  -1.04457  -1.04347
  Beta  occ. eigenvalues --   -1.04107  -1.01812  -0.98614  -0.98297  -0.98219
  Beta  occ. eigenvalues --   -0.98158  -0.98109  -0.97966  -0.97950  -0.97799
  Beta  occ. eigenvalues --   -0.97773  -0.97754  -0.97633  -0.97408  -0.97341
  Beta  occ. eigenvalues --   -0.97258  -0.97248  -0.97000  -0.92327  -0.88788
  Beta  occ. eigenvalues --   -0.88704  -0.88585  -0.88404  -0.88363  -0.88255
  Beta  occ. eigenvalues --   -0.88221  -0.88129  -0.88089  -0.88016  -0.87888
  Beta  occ. eigenvalues --   -0.87656  -0.87560  -0.87514  -0.87211  -0.82657
  Beta  occ. eigenvalues --   -0.79207  -0.72952  -0.65435  -0.62720  -0.62382
  Beta  occ. eigenvalues --   -0.62117  -0.61860  -0.61648  -0.61543  -0.61491
  Beta  occ. eigenvalues --   -0.61310  -0.61255  -0.61162  -0.61058  -0.60908
  Beta  occ. eigenvalues --   -0.60381  -0.60305  -0.60127  -0.60051  -0.60010
  Beta  occ. eigenvalues --   -0.59775  -0.59614  -0.59535  -0.59461  -0.59372
  Beta  occ. eigenvalues --   -0.59271  -0.59204  -0.59111  -0.58995  -0.58942
  Beta  occ. eigenvalues --   -0.58742  -0.58604  -0.58574  -0.58486  -0.58333
  Beta  occ. eigenvalues --   -0.58271  -0.58069  -0.57794  -0.57730  -0.57709
  Beta  occ. eigenvalues --   -0.57672  -0.57584  -0.57522  -0.57506  -0.57428
  Beta  occ. eigenvalues --   -0.57233  -0.57104  -0.57069  -0.56887  -0.56780
  Beta  occ. eigenvalues --   -0.55186  -0.53413  -0.52323  -0.51052  -0.49677
  Beta  occ. eigenvalues --   -0.46196  -0.45290  -0.45093  -0.44803  -0.44274
  Beta  occ. eigenvalues --   -0.44248  -0.44111  -0.43993  -0.43935  -0.43856
  Beta  occ. eigenvalues --   -0.43760  -0.43704  -0.43588  -0.43494  -0.43461
  Beta  occ. eigenvalues --   -0.43424  -0.43416  -0.43391  -0.43314  -0.43289
  Beta  occ. eigenvalues --   -0.43225  -0.43149  -0.43124  -0.43047  -0.42973
  Beta  occ. eigenvalues --   -0.42904  -0.42863  -0.42803  -0.42759  -0.42626
  Beta  occ. eigenvalues --   -0.42585  -0.42474  -0.42415  -0.42338  -0.42126
  Beta  occ. eigenvalues --   -0.42017  -0.41912  -0.41903  -0.41792  -0.41787
  Beta  occ. eigenvalues --   -0.41708  -0.41687  -0.41623  -0.41609  -0.41480
  Beta  occ. eigenvalues --   -0.41362  -0.41298  -0.41286  -0.41236  -0.41204
  Beta  occ. eigenvalues --   -0.41161  -0.41135  -0.41049  -0.41040  -0.40908
  Beta  occ. eigenvalues --   -0.40865  -0.40760  -0.40599  -0.40584  -0.40514
  Beta  occ. eigenvalues --   -0.40372  -0.40322  -0.39599  -0.36947  -0.32892
  Beta virt. eigenvalues --   -0.03657  -0.01315  -0.00983  -0.00949  -0.00889
  Beta virt. eigenvalues --   -0.00663  -0.00641  -0.00590  -0.00547  -0.00485
  Beta virt. eigenvalues --   -0.00454  -0.00445  -0.00393  -0.00364  -0.00276
  Beta virt. eigenvalues --   -0.00253  -0.00235  -0.00226  -0.00201  -0.00196
  Beta virt. eigenvalues --   -0.00157  -0.00131  -0.00054  -0.00013   0.00045
  Beta virt. eigenvalues --    0.00347   0.00391   0.00463   0.00490   0.00497
  Beta virt. eigenvalues --    0.00600   0.00698   0.02621   0.08908   0.14220
  Beta virt. eigenvalues --    0.14252   0.14431   0.14550   0.14696   0.14768
  Beta virt. eigenvalues --    0.14871   0.14964   0.14981   0.15031   0.15066
  Beta virt. eigenvalues --    0.15124   0.15157   0.15159   0.15249   0.15358
  Beta virt. eigenvalues --    0.15413   0.15439   0.15497   0.15570   0.15618
  Beta virt. eigenvalues --    0.15735   0.15789   0.15859   0.15915   0.15932
  Beta virt. eigenvalues --    0.15963   0.15980   0.16096   0.16347   0.16405
  Beta virt. eigenvalues --    0.16419   0.16720   0.17006   0.17226   0.17964
  Beta virt. eigenvalues --    0.18571   0.19301   0.19815   0.20393   0.21104
  Beta virt. eigenvalues --    0.21284   0.21599   0.21802   0.22176   0.22294
  Beta virt. eigenvalues --    3.16389   3.16813   3.17316   3.17937   3.18103
  Beta virt. eigenvalues --    3.18346   3.18621   3.18720   3.18965   3.19080
  Beta virt. eigenvalues --    3.19093   3.19263   3.19321   3.19535   3.19630
  Beta virt. eigenvalues --    3.19635   3.19698   3.19833   3.19902   3.19990
  Beta virt. eigenvalues --    3.20017   3.20178   3.20270   3.20302   3.20428
  Beta virt. eigenvalues --    3.20469   3.20537   3.20549   3.20621   3.20660
  Beta virt. eigenvalues --    3.20696   3.20827   3.20869   3.20964   3.21003
  Beta virt. eigenvalues --    3.21058   3.21100   3.21159   3.21176   3.21230
  Beta virt. eigenvalues --    3.21404   3.21445   3.21559   3.21716   3.21832
  Beta virt. eigenvalues --    3.21969   3.22060   3.22132   3.22163   3.22306
  Beta virt. eigenvalues --    3.22439   3.22496   3.22523   3.22587   3.22732
  Beta virt. eigenvalues --    3.22784   3.22939   3.22988   3.23132   3.23165
  Beta virt. eigenvalues --    3.23187   3.23287   3.23368   3.23415   3.23478
  Beta virt. eigenvalues --    3.23499   3.23572   3.23648   3.23739   3.23789
  Beta virt. eigenvalues --    3.23851   3.23943   3.23965   3.23997   3.24089
  Beta virt. eigenvalues --    3.24132   3.24150   3.24231   3.24273   3.24309
  Beta virt. eigenvalues --    3.24371   3.24476   3.24483   3.24537   3.24637
  Beta virt. eigenvalues --    3.24663   3.24719   3.24804   3.24852   3.24934
  Beta virt. eigenvalues --    3.24955   3.25024   3.25059   3.25077   3.25100
  Beta virt. eigenvalues --    3.25141   3.25300   3.25378   3.25455   3.25514
  Beta virt. eigenvalues --    3.25537   3.25676   3.25731   3.25757   3.25852
  Beta virt. eigenvalues --    3.25879   3.25923   3.25992   3.26104   3.26216
  Beta virt. eigenvalues --    3.26278   3.26325   3.26418   3.26453   3.26786
  Beta virt. eigenvalues --    3.26841   3.26905   3.26993   3.27025   3.27157
  Beta virt. eigenvalues --    3.27235   3.27331   3.27380   3.27395   3.27466
  Beta virt. eigenvalues --    3.27537   3.27631   3.27732   3.27751   3.27834
  Beta virt. eigenvalues --    3.27856   3.27951   3.28147   3.28159   3.28204
  Beta virt. eigenvalues --    3.28281   3.28380   3.28469   3.28546   3.28582
  Beta virt. eigenvalues --    3.28638   3.28675   3.28728   3.28825   3.28917
  Beta virt. eigenvalues --    3.29129   3.29255   3.29344   3.29702   3.29961
          Condensed to atoms (all electrons):
          Atomic-Atomic Spin Densities.
 Mulliken charges and spin densities:
               1          2
     1  C   -0.015988   0.000000
     2  C   -0.142134   0.000000
     3  C   -0.148928   0.000000
     4  C   -0.156473   0.000000
     5  H    0.153387   0.000000
     6  C   -0.126894   0.000000
     7  C   -0.152084   0.000000
     8  H    0.155120   0.000000
     9  C   -0.117506   0.000000
    10  H    0.149325   0.000000
    11  C   -0.368795   0.000000
    12  H    0.157079   0.000000
    13  H    0.150764   0.000000
    14  H    0.145700   0.000000
    15  H    0.158466   0.000000
    16  H    0.161798   0.000000
    17  C   -0.139136   0.000000
    18  H    0.187897   0.000000
    19  H    0.186150   0.000000
    20  Cl  -0.094968   0.000000
    21  Cl  -0.140434   0.000000
    22  C   -0.144433   0.000000
    23  H    0.192869   0.000000
    24  H    0.191571   0.000000
    25  Cl  -0.127754   0.000000
    26  Cl  -0.111577   0.000000
    27  C   -0.143564   0.000000
    28  H    0.198306   0.000000
    29  H    0.196906   0.000000
    30  Cl  -0.126306   0.000000
    31  Cl  -0.126128   0.000000
    32  C   -0.129030   0.000000
    33  H    0.192368   0.000000
    34  H    0.191975   0.000000
    35  Cl  -0.129995   0.000000
    36  Cl  -0.123504   0.000000
    37  C   -0.137575   0.000000
    38  H    0.184829   0.000000
    39  H    0.194179   0.000000
    40  Cl  -0.100909   0.000000
    41  Cl  -0.142186   0.000000
    42  C   -0.133000   0.000000
    43  H    0.194009   0.000000
    44  H    0.195195   0.000000
    45  Cl  -0.141510   0.000000
    46  Cl  -0.114606   0.000000
    47  C   -0.141875   0.000000
    48  H    0.183086   0.000000
    49  H    0.191479   0.000000
    50  Cl  -0.117459   0.000000
    51  Cl  -0.114961   0.000000
    52  C   -0.127031   0.000000
    53  H    0.190331   0.000000
    54  H    0.195679   0.000000
    55  Cl  -0.142019   0.000000
    56  Cl  -0.116702   0.000000
    57  C   -0.139064   0.000000
    58  H    0.198883   0.000000
    59  H    0.193845   0.000000
    60  Cl  -0.134618   0.000000
    61  Cl  -0.113459   0.000000
    62  C   -0.145576   0.000000
    63  H    0.191164   0.000000
    64  H    0.186446   0.000000
    65  Cl  -0.112355   0.000000
    66  Cl  -0.120322   0.000000
    67  C   -0.132901   0.000000
    68  H    0.183965   0.000000
    69  H    0.198511   0.000000
    70  Cl  -0.116841   0.000000
    71  Cl  -0.133600   0.000000
    72  C   -0.139006   0.000000
    73  H    0.191457   0.000000
    74  H    0.189634   0.000000
    75  Cl  -0.137068   0.000000
    76  Cl  -0.106374   0.000000
    77  C   -0.143104   0.000000
    78  H    0.193015   0.000000
    79  H    0.194021   0.000000
    80  Cl  -0.119759   0.000000
    81  Cl  -0.127211   0.000000
    82  C   -0.143772   0.000000
    83  H    0.188930   0.000000
    84  H    0.188269   0.000000
    85  Cl  -0.106822   0.000000
    86  Cl  -0.130486   0.000000
    87  C   -0.149268   0.000000
    88  H    0.186219   0.000000
    89  H    0.193230   0.000000
    90  Cl  -0.116888   0.000000
    91  Cl  -0.112096   0.000000
 Sum of Mulliken charges =  -0.00000   0.00000
 Mulliken charges and spin densities with hydrogens summed into heavy atoms:
               1          2
     1  C   -0.015988   0.000000
     2  C    0.011253   0.000000
     3  C    0.006192   0.000000
     4  C   -0.007148   0.000000
     6  C    0.030185   0.000000
     7  C   -0.001320   0.000000
     9  C    0.028193   0.000000
    11  C   -0.048531   0.000000
    17  C    0.234912   0.000000
    20  Cl  -0.094968   0.000000
    21  Cl  -0.140434   0.000000
    22  C    0.240007   0.000000
    25  Cl  -0.127754   0.000000
    26  Cl  -0.111577   0.000000
    27  C    0.251648   0.000000
    30  Cl  -0.126306   0.000000
    31  Cl  -0.126128   0.000000
    32  C    0.255313   0.000000
    35  Cl  -0.129995   0.000000
    36  Cl  -0.123504   0.000000
    37  C    0.241432   0.000000
    40  Cl  -0.100909   0.000000
    41  Cl  -0.142186   0.000000
    42  C    0.256204   0.000000
    45  Cl  -0.141510   0.000000
    46  Cl  -0.114606   0.000000
    47  C    0.232691   0.000000
    50  Cl  -0.117459   0.000000
    51  Cl  -0.114961   0.000000
    52  C    0.258978   0.000000
    55  Cl  -0.142019   0.000000
    56  Cl  -0.116702   0.000000
    57  C    0.253663   0.000000
    60  Cl  -0.134618   0.000000
    61  Cl  -0.113459   0.000000
    62  C    0.232034   0.000000
    65  Cl  -0.112355   0.000000
    66  Cl  -0.120322   0.000000
    67  C    0.249575   0.000000
    70  Cl  -0.116841   0.000000
    71  Cl  -0.133600   0.000000
    72  C    0.242085   0.000000
    75  Cl  -0.137068   0.000000
    76  Cl  -0.106374   0.000000
    77  C    0.243932   0.000000
    80  Cl  -0.119759   0.000000
    81  Cl  -0.127211   0.000000
    82  C    0.233427   0.000000
    85  Cl  -0.106822   0.000000
    86  Cl  -0.130486   0.000000
    87  C    0.230181   0.000000
    90  Cl  -0.116888   0.000000
    91  Cl  -0.112096   0.000000
 Charge=             -0.0000 electrons
 Dipole moment (field-independent basis, Debye):
    X=             -0.8918    Y=             -0.1775    Z=              0.4974  Tot=              1.0365
 N-N= 5.298555942938D+03 E-N=-9.742274191150D+03  KE=-6.384509278957D+02
 Calling FoFJK, ICntrl=      2127 FMM=F ISym2X=0 I1Cent= 0 IOpClX= 1 NMat=1 NMatS=1 NMatT=0.
 Cartesian Forces:  Max     0.062799987 RMS     0.008465598
 SvSCFP is copying densities from files   528 and   530 to   603.
 ONIOM: saving gridpoint  3
 ONIOM: restoring gridpoint 17
 ONIOM: restoring gridpoint  2 on chk file.
 ONIOM: generating point  2 -- high level on model system.
 Standard basis: 6-31G(d) (6D, 7F)
   136 basis functions,   256 primitive gaussians,   136 cartesian basis functions
    29 alpha electrons       27 beta electrons
       nuclear repulsion energy       319.2474594493 Hartrees.
 NAtoms=   91 NActive=   16 NUniq=   16 SFac= 1.00D+00 NAtFMM=   60 NAOKFM=F Big=F
 Integral buffers will be    131072 words long.
 Raffenetti 2 integral format.
 Two-electron integral symmetry is turned off.
 Nuclear repulsion after empirical dispersion term =      319.2198238254 Hartrees.
 One-electron integrals computed using PRISM.
 NBasis=   136 RedAO= T EigKep=  4.71D-04  NBF=   136
 NBsUse=   136 1.00D-06 EigRej= -1.00D+00 NBFU=   136
 Initial guess from the checkpoint file:  "b.chk"
 B after Tr=     0.000843   -0.000009    0.000749
         Rot=    1.000000   -0.000140   -0.000153    0.000106 Ang=  -0.03 deg.
 Initial guess <Sx>= 0.0000 <Sy>= 0.0000 <Sz>= 1.0000 <S**2>= 2.0291 S= 1.0097
 Requested convergence on RMS density matrix=1.00D-08 within  64 cycles.
 Requested convergence on MAX density matrix=1.00D-06.
 Requested convergence on             energy=1.00D-06.
 No special actions if energy rises.
 SCF Done:  E(UB3LYP) =  -309.578736273     A.U. after   11 cycles
            NFock= 11  Conv=0.67D-08     -V/T= 2.0096
 <Sx>= 0.0000 <Sy>= 0.0000 <Sz>= 1.0000 <S**2>= 2.0291 S= 1.0097
 <L.S>=  0.00000000000    
 Annihilation of the first spin contaminant:
 S**2 before annihilation     2.0291,   after     2.0004
 QCSCF skips out because SCF is already converged.

 **********************************************************************

            Population analysis using the SCF Density.

 **********************************************************************

 Alpha  occ. eigenvalues --  -10.19785 -10.19666 -10.19501 -10.18856 -10.18761
 Alpha  occ. eigenvalues --  -10.18681 -10.18580 -10.18570  -0.85688  -0.79097
 Alpha  occ. eigenvalues --   -0.74498  -0.72193  -0.63259  -0.60023  -0.56309
 Alpha  occ. eigenvalues --   -0.51007  -0.46931  -0.45260  -0.43594  -0.41809
 Alpha  occ. eigenvalues --   -0.40884  -0.39686  -0.37058  -0.34963  -0.33513
 Alpha  occ. eigenvalues --   -0.29769  -0.25545  -0.23537  -0.13985
 Alpha virt. eigenvalues --    0.00218   0.02727   0.09779   0.11753   0.12816
 Alpha virt. eigenvalues --    0.15876   0.16095   0.16845   0.18164   0.19725
 Alpha virt. eigenvalues --    0.21122   0.26456   0.27923   0.30831   0.33615
 Alpha virt. eigenvalues --    0.35998   0.37338   0.46008   0.51376   0.52427
 Alpha virt. eigenvalues --    0.53712   0.54879   0.55317   0.57173   0.58058
 Alpha virt. eigenvalues --    0.58584   0.59688   0.60107   0.62028   0.62053
 Alpha virt. eigenvalues --    0.63349   0.64425   0.65126   0.68290   0.71568
 Alpha virt. eigenvalues --    0.77155   0.82437   0.83627   0.83875   0.84568
 Alpha virt. eigenvalues --    0.85454   0.88699   0.90556   0.92214   0.93011
 Alpha virt. eigenvalues --    0.93572   0.95337   0.98901   1.01441   1.04182
 Alpha virt. eigenvalues --    1.08567   1.14375   1.16643   1.18199   1.25796
 Alpha virt. eigenvalues --    1.28941   1.32734   1.38858   1.43913   1.44523
 Alpha virt. eigenvalues --    1.45491   1.48347   1.49276   1.51387   1.62663
 Alpha virt. eigenvalues --    1.69577   1.76866   1.80217   1.83980   1.87385
 Alpha virt. eigenvalues --    1.89393   1.91317   1.94228   1.96901   1.98035
 Alpha virt. eigenvalues --    2.04764   2.08756   2.10559   2.14448   2.14920
 Alpha virt. eigenvalues --    2.17879   2.22037   2.26526   2.32077   2.32537
 Alpha virt. eigenvalues --    2.34662   2.47169   2.50534   2.57042   2.59590
 Alpha virt. eigenvalues --    2.61923   2.65861   2.74045   2.75605   2.77014
 Alpha virt. eigenvalues --    2.86012   2.91823   3.13692   3.41836   4.06710
 Alpha virt. eigenvalues --    4.09481   4.12328   4.13186   4.24152   4.32899
 Alpha virt. eigenvalues --    4.42207   4.71098
  Beta  occ. eigenvalues --  -10.19587 -10.18929 -10.18768 -10.18737 -10.18435
  Beta  occ. eigenvalues --  -10.18430 -10.18360 -10.18306  -0.85083  -0.77261
  Beta  occ. eigenvalues --   -0.74127  -0.69867  -0.61546  -0.59631  -0.55131
  Beta  occ. eigenvalues --   -0.50415  -0.46264  -0.44785  -0.42775  -0.41659
  Beta  occ. eigenvalues --   -0.39822  -0.38411  -0.35804  -0.34502  -0.33282
  Beta  occ. eigenvalues --   -0.26149  -0.24531
  Beta virt. eigenvalues --   -0.11491  -0.02268   0.01133   0.06058   0.10035
  Beta virt. eigenvalues --    0.12487   0.13871   0.16360   0.16544   0.18044
  Beta virt. eigenvalues --    0.18755   0.20330   0.21995   0.27315   0.28891
  Beta virt. eigenvalues --    0.30907   0.33992   0.36833   0.37955   0.46448
  Beta virt. eigenvalues --    0.52752   0.53117   0.54756   0.55391   0.57692
  Beta virt. eigenvalues --    0.58225   0.59401   0.59657   0.60122   0.61976
  Beta virt. eigenvalues --    0.62491   0.63826   0.64130   0.65860   0.67064
  Beta virt. eigenvalues --    0.69949   0.72903   0.77634   0.83063   0.83957
  Beta virt. eigenvalues --    0.84176   0.85435   0.85691   0.89456   0.90969
  Beta virt. eigenvalues --    0.93089   0.94025   0.94673   0.95805   0.99945
  Beta virt. eigenvalues --    1.01796   1.05479   1.09188   1.15018   1.17061
  Beta virt. eigenvalues --    1.18682   1.26434   1.30053   1.34177   1.40194
  Beta virt. eigenvalues --    1.44444   1.45245   1.45891   1.49110   1.50286
  Beta virt. eigenvalues --    1.51822   1.67062   1.73211   1.78591   1.80676
  Beta virt. eigenvalues --    1.86056   1.89286   1.90751   1.92510   1.96224
  Beta virt. eigenvalues --    1.97618   1.99575   2.05555   2.11974   2.13048
  Beta virt. eigenvalues --    2.15261   2.15508   2.18615   2.23337   2.27647
  Beta virt. eigenvalues --    2.32749   2.34575   2.36737   2.49084   2.52102
  Beta virt. eigenvalues --    2.58204   2.60043   2.63402   2.66660   2.74502
  Beta virt. eigenvalues --    2.75833   2.77388   2.86413   2.92462   3.14098
  Beta virt. eigenvalues --    3.42046   4.08233   4.10237   4.12587   4.14812
  Beta virt. eigenvalues --    4.26228   4.33165   4.43124   4.71579
          Condensed to atoms (all electrons):
          Atomic-Atomic Spin Densities.
 Mulliken charges and spin densities:
               1          2
     1  C    0.191359  -0.102856
     2  C   -0.182782   0.237968
     3  C   -0.185207   0.277783
     4  C   -0.129513  -0.128222
     5  H    0.125489  -0.010555
     6  C   -0.174148   0.617912
     7  C   -0.126381  -0.144116
     8  H    0.125888  -0.010641
     9  C   -0.133839   0.318313
    10  H    0.128931   0.004840
    11  C   -0.343767   1.019142
    12  H    0.135965  -0.007632
    13  H    0.128473   0.005473
    14  H    0.128618  -0.015396
    15  H    0.154323  -0.034102
    16  H    0.156593  -0.027912
    17  C    0.000000   0.000000
    18  H    0.000000   0.000000
    19  H    0.000000   0.000000
    20  Cl   0.000000   0.000000
    21  Cl   0.000000   0.000000
    22  C    0.000000   0.000000
    23  H    0.000000   0.000000
    24  H    0.000000   0.000000
    25  Cl   0.000000   0.000000
    26  Cl   0.000000   0.000000
    27  C    0.000000   0.000000
    28  H    0.000000   0.000000
    29  H    0.000000   0.000000
    30  Cl   0.000000   0.000000
    31  Cl   0.000000   0.000000
    32  C    0.000000   0.000000
    33  H    0.000000   0.000000
    34  H    0.000000   0.000000
    35  Cl   0.000000   0.000000
    36  Cl   0.000000   0.000000
    37  C    0.000000   0.000000
    38  H    0.000000   0.000000
    39  H    0.000000   0.000000
    40  Cl   0.000000   0.000000
    41  Cl   0.000000   0.000000
    42  C    0.000000   0.000000
    43  H    0.000000   0.000000
    44  H    0.000000   0.000000
    45  Cl   0.000000   0.000000
    46  Cl   0.000000   0.000000
    47  C    0.000000   0.000000
    48  H    0.000000   0.000000
    49  H    0.000000   0.000000
    50  Cl   0.000000   0.000000
    51  Cl   0.000000   0.000000
    52  C    0.000000   0.000000
    53  H    0.000000   0.000000
    54  H    0.000000   0.000000
    55  Cl   0.000000   0.000000
    56  Cl   0.000000   0.000000
    57  C    0.000000   0.000000
    58  H    0.000000   0.000000
    59  H    0.000000   0.000000
    60  Cl   0.000000   0.000000
    61  Cl   0.000000   0.000000
    62  C    0.000000   0.000000
    63  H    0.000000   0.000000
    64  H    0.000000   0.000000
    65  Cl   0.000000   0.000000
    66  Cl   0.000000   0.000000
    67  C    0.000000   0.000000
    68  H    0.000000   0.000000
    69  H    0.000000   0.000000
    70  Cl   0.000000   0.000000
    71  Cl   0.000000   0.000000
    72  C    0.000000   0.000000
    73  H    0.000000   0.000000
    74  H    0.000000   0.000000
    75  Cl   0.000000   0.000000
    76  Cl   0.000000   0.000000
    77  C    0.000000   0.000000
    78  H    0.000000   0.000000
    79  H    0.000000   0.000000
    80  Cl   0.000000   0.000000
    81  Cl   0.000000   0.000000
    82  C    0.000000   0.000000
    83  H    0.000000   0.000000
    84  H    0.000000   0.000000
    85  Cl   0.000000   0.000000
    86  Cl   0.000000   0.000000
    87  C    0.000000   0.000000
    88  H    0.000000   0.000000
    89  H    0.000000   0.000000
    90  Cl   0.000000   0.000000
    91  Cl   0.000000   0.000000
 Sum of Mulliken charges =  -0.00000   2.00000
 Mulliken charges and spin densities with hydrogens summed into heavy atoms:
               1          2
     1  C    0.191359  -0.102856
     2  C   -0.057293   0.227413
     3  C   -0.059319   0.267142
     4  C   -0.000582  -0.123382
     6  C   -0.038183   0.610281
     7  C    0.002091  -0.138643
     9  C   -0.005221   0.302917
    11  C   -0.032852   0.957129
    17  C    0.000000   0.000000
    20  Cl   0.000000   0.000000
    21  Cl   0.000000   0.000000
    22  C    0.000000   0.000000
    25  Cl   0.000000   0.000000
    26  Cl   0.000000   0.000000
    27  C    0.000000   0.000000
    30  Cl   0.000000   0.000000
    31  Cl   0.000000   0.000000
    32  C    0.000000   0.000000
    35  Cl   0.000000   0.000000
    36  Cl   0.000000   0.000000
    37  C    0.000000   0.000000
    40  Cl   0.000000   0.000000
    41  Cl   0.000000   0.000000
    42  C    0.000000   0.000000
    45  Cl   0.000000   0.000000
    46  Cl   0.000000   0.000000
    47  C    0.000000   0.000000
    50  Cl   0.000000   0.000000
    51  Cl   0.000000   0.000000
    52  C    0.000000   0.000000
    55  Cl   0.000000   0.000000
    56  Cl   0.000000   0.000000
    57  C    0.000000   0.000000
    60  Cl   0.000000   0.000000
    61  Cl   0.000000   0.000000
    62  C    0.000000   0.000000
    65  Cl   0.000000   0.000000
    66  Cl   0.000000   0.000000
    67  C    0.000000   0.000000
    70  Cl   0.000000   0.000000
    71  Cl   0.000000   0.000000
    72  C    0.000000   0.000000
    75  Cl   0.000000   0.000000
    76  Cl   0.000000   0.000000
    77  C    0.000000   0.000000
    80  Cl   0.000000   0.000000
    81  Cl   0.000000   0.000000
    82  C    0.000000   0.000000
    85  Cl   0.000000   0.000000
    86  Cl   0.000000   0.000000
    87  C    0.000000   0.000000
    90  Cl   0.000000   0.000000
    91  Cl   0.000000   0.000000
 Electronic spatial extent (au):  <R**2>=            993.8683
 Charge=             -0.0000 electrons
 Dipole moment (field-independent basis, Debye):
    X=              0.0601    Y=             -0.0065    Z=             -0.0371  Tot=              0.0710
 Quadrupole moment (field-independent basis, Debye-Ang):
   XX=            -42.4080   YY=            -44.7102   ZZ=            -48.9044
   XY=              0.1096   XZ=             -0.1023   YZ=             -3.4639
 Traceless Quadrupole moment (field-independent basis, Debye-Ang):
   XX=              2.9329   YY=              0.6307   ZZ=             -3.5636
   XY=              0.1096   XZ=             -0.1023   YZ=             -3.4639
 Octapole moment (field-independent basis, Debye-Ang**2):
  XXX=             -1.6977  YYY=              7.2014  ZZZ=             30.7740  XYY=             -0.0675
  XXY=              4.5869  XXZ=             12.7126  XZZ=              1.9675  YZZ=              5.3862
  YYZ=             11.2748  XYZ=              0.5836
 Hexadecapole moment (field-independent basis, Debye-Ang**3):
 XXXX=           -844.3387 YYYY=           -307.3285 ZZZZ=           -157.3692 XXXY=            -51.6495
 XXXZ=             73.2708 YYYX=            -64.9479 YYYZ=             58.1754 ZZZX=             66.9720
 ZZZY=             68.3985 XXYY=           -191.3414 XXZZ=           -186.4053 YYZZ=            -73.9972
 XXYZ=             12.1620 YYXZ=             20.2136 ZZXY=            -18.1529
 N-N= 3.192198238254D+02 E-N=-1.354840800258D+03  KE= 3.066321290673D+02
                          Isotropic Fermi Contact Couplings
        Atom                 a.u.       MegaHertz       Gauss      10(-4) cm-1
     1  C(13)             -0.00388      -2.18147      -0.77840      -0.72766
     2  C(13)              0.02481      13.94514       4.97597       4.65160
     3  C(13)              0.03092      17.38278       6.20261       5.79827
     4  C(13)             -0.01948     -10.95119      -3.90766      -3.65292
     5  H(1)              -0.00370      -8.25817      -2.94672      -2.75463
     6  C(13)              0.04573      25.70620       9.17261       8.57467
     7  C(13)             -0.02155     -12.11407      -4.32260      -4.04082
     8  H(1)              -0.00406      -9.08133      -3.24045      -3.02921
     9  C(13)              0.03471      19.51069       6.96190       6.50807
    10  H(1)               0.00153       3.41534       1.21868       1.13923
    11  C(13)              0.08535      47.97702      17.11939      16.00341
    12  H(1)               0.00327       7.31176       2.60902       2.43894
    13  H(1)               0.00173       3.87636       1.38318       1.29302
    14  H(1)              -0.00477     -10.65981      -3.80368      -3.55573
    15  H(1)              -0.00693     -15.48764      -5.52638      -5.16612
    16  H(1)              -0.00576     -12.86416      -4.59025      -4.29102
 --------------------------------------------------------
       Center         ----  Spin Dipole Couplings  ----
                      3XX-RR        3YY-RR        3ZZ-RR
 --------------------------------------------------------
     1   Atom        0.075389     -0.005741     -0.069649
     2   Atom       -0.118064     -0.049188      0.167253
     3   Atom       -0.122435     -0.053046      0.175482
     4   Atom        0.055573      0.014981     -0.070553
     5   Atom       -0.005272      0.008837     -0.003565
     6   Atom       -0.346784     -0.113501      0.460285
     7   Atom        0.063091      0.021339     -0.084429
     8   Atom        0.004174      0.004256     -0.008429
     9   Atom       -0.147035     -0.076531      0.223566
    10   Atom        0.005218     -0.000992     -0.004227
    11   Atom       -0.063580      0.251290     -0.187710
    12   Atom       -0.027394      0.033404     -0.006010
    13   Atom        0.006434     -0.001989     -0.004445
    14   Atom        0.024179     -0.018294     -0.005885
    15   Atom        0.054774     -0.012882     -0.041893
    16   Atom       -0.039672     -0.020427      0.060099
 --------------------------------------------------------
                        XY            XZ            YZ
 --------------------------------------------------------
     1   Atom        0.037707      0.042847     -0.027834
     2   Atom        0.011247      0.009836      0.136844
     3   Atom        0.018166      0.027627      0.155322
     4   Atom       -0.006876     -0.009588     -0.058346
     5   Atom       -0.006844      0.003429     -0.008434
     6   Atom        0.074497      0.107661      0.437904
     7   Atom        0.001130     -0.012297     -0.062429
     8   Atom        0.003765     -0.001581     -0.010247
     9   Atom        0.009199      0.014497      0.183774
    10   Atom       -0.001311     -0.000104     -0.001704
    11   Atom       -0.599381     -0.408308      0.516245
    12   Atom       -0.033198      0.018719     -0.020932
    13   Atom        0.002531     -0.001943     -0.002047
    14   Atom        0.003083     -0.002701      0.007353
    15   Atom        0.033905      0.025173      0.040464
    16   Atom       -0.037481      0.020631     -0.030743
 --------------------------------------------------------


 ---------------------------------------------------------------------------------
              Anisotropic Spin Dipole Couplings in Principal Axis System
 ---------------------------------------------------------------------------------

       Atom             a.u.   MegaHertz   Gauss  10(-4) cm-1        Axes

              Baa    -0.0970   -13.014    -4.644    -4.341 -0.3016  0.3900  0.8700
     1 C(13)  Bbb     0.0009     0.124     0.044     0.042 -0.1807  0.8726 -0.4538
              Bcc     0.0961    12.889     4.599     4.299  0.9362  0.2941  0.1927
 
              Baa    -0.1231   -16.514    -5.892    -5.508  0.7938 -0.5600  0.2371
     2 C(13)  Bbb    -0.1110   -14.892    -5.314    -4.967  0.6069  0.7045 -0.3679
              Bcc     0.2340    31.405    11.206    10.476  0.0390  0.4360  0.8991
 
              Baa    -0.1333   -17.892    -6.384    -5.968 -0.4186  0.8258 -0.3779
     3 C(13)  Bbb    -0.1236   -16.580    -5.916    -5.530  0.9041  0.3394 -0.2598
              Bcc     0.2569    34.472    12.300    11.499  0.0863  0.4504  0.8886
 
              Baa    -0.1010   -13.553    -4.836    -4.521  0.0743  0.4517  0.8891
     4 C(13)  Bbb     0.0443     5.943     2.121     1.983  0.1455  0.8771 -0.4578
              Bcc     0.0567     7.609     2.715     2.538  0.9866 -0.1634  0.0006
 
              Baa    -0.0080    -4.293    -1.532    -1.432  0.9323  0.3598 -0.0363
     5 H(1)   Bbb    -0.0078    -4.177    -1.490    -1.393 -0.1221  0.4078  0.9049
              Bcc     0.0159     8.470     3.022     2.825 -0.3404  0.8392 -0.4241
 
              Baa    -0.3720   -49.924   -17.814   -16.653  0.8321 -0.5279  0.1701
     6 C(13)  Bbb    -0.3409   -45.739   -16.321   -15.257  0.5411  0.7052 -0.4582
              Bcc     0.7129    95.663    34.135    31.910  0.1219  0.4733  0.8724
 
              Baa    -0.1140   -15.299    -5.459    -5.103  0.0603  0.4177  0.9066
     7 C(13)  Bbb     0.0479     6.423     2.292     2.142 -0.3623  0.8555 -0.3700
              Bcc     0.0661     8.876     3.167     2.961  0.9301  0.3061 -0.2029
 
              Baa    -0.0141    -7.549    -2.694    -2.518 -0.0256  0.4903  0.8712
     8 H(1)   Bbb     0.0021     1.117     0.399     0.373  0.8885 -0.3882  0.2446
              Bcc     0.0121     6.432     2.295     2.146  0.4581  0.7803 -0.4257
 
              Baa    -0.1640   -22.007    -7.853    -7.341 -0.1272  0.8981 -0.4211
     9 C(13)  Bbb    -0.1474   -19.780    -7.058    -6.598  0.9912  0.0992 -0.0879
              Bcc     0.3114    41.787    14.911    13.939  0.0371  0.4285  0.9028
 
              Baa    -0.0050    -2.666    -0.951    -0.889  0.0616  0.4078  0.9110
    10 H(1)   Bbb    -0.0005    -0.263    -0.094    -0.088  0.1967  0.8899 -0.4116
              Bcc     0.0055     2.929     1.045     0.977  0.9785 -0.2046  0.0254
 
              Baa    -0.5387   -72.284   -25.793   -24.111  0.6329 -0.0255  0.7738
    11 C(13)  Bbb    -0.5219   -70.036   -24.991   -23.362  0.5528  0.7147 -0.4286
              Bcc     1.0606   142.320    50.783    47.473 -0.5421  0.6990  0.4664
 
              Baa    -0.0445   -23.727    -8.466    -7.914  0.9095  0.3148 -0.2714
    12 H(1)   Bbb    -0.0146    -7.804    -2.785    -2.603  0.1051  0.4575  0.8830
              Bcc     0.0591    31.531    11.251    10.517 -0.4021  0.8316 -0.3830
 
              Baa    -0.0056    -3.001    -1.071    -1.001  0.0444  0.4664  0.8834
    13 H(1)   Bbb    -0.0020    -1.070    -0.382    -0.357 -0.3484  0.8360 -0.4239
              Bcc     0.0076     4.071     1.453     1.358  0.9363  0.2889 -0.1996
 
              Baa    -0.0220   -11.762    -4.197    -3.924 -0.0849  0.9015 -0.4244
    14 H(1)   Bbb    -0.0025    -1.343    -0.479    -0.448  0.0418  0.4287  0.9025
              Bcc     0.0246    13.105     4.676     4.371  0.9955  0.0589 -0.0741
 
              Baa    -0.0704   -37.553   -13.400   -12.526 -0.0103 -0.5714  0.8206
    15 H(1)   Bbb    -0.0113    -6.054    -2.160    -2.019 -0.5380  0.6949  0.4772
              Bcc     0.0817    43.607    15.560    14.546  0.8429  0.4366  0.3145
 
              Baa    -0.0688   -36.711   -13.099   -12.245  0.7832  0.6213  0.0228
    16 H(1)   Bbb    -0.0106    -5.664    -2.021    -1.889 -0.5593  0.6881  0.4623
              Bcc     0.0794    42.375    15.120    14.135  0.2715 -0.3749  0.8864
 

 ---------------------------------------------------------------------------------

 Calling FoFJK, ICntrl=      2127 FMM=F ISym2X=0 I1Cent= 0 IOpClX= 1 NMat=1 NMatS=1 NMatT=0.
 Cartesian Forces:  Max     0.033668087 RMS     0.003791449
 SvSCFP is copying densities from files   528 and   530 to   603.
 ONIOM: saving gridpoint  2
 ONIOM: restoring gridpoint 17
 ONIOM: restoring gridpoint  1 on chk file.
 ONIOM: generating point  1 -- low level on model system.
 Standard basis: VSTO-6G (5D, 7F)
    40 basis functions,   240 primitive gaussians,    40 cartesian basis functions
    21 alpha electrons       19 beta electrons
       nuclear repulsion energy       184.5872776855 Hartrees.
 Integral buffers will be    131072 words long.
 Regular integral format.
 Two-electron integral symmetry is turned off.
 Do NDO integrals.
 One-electron integrals computed using PRISM.
 NBasis=    40 RedAO= F EigKep=  0.00D+00  NBF=    40
 NBsUse=    40 1.00D-04 EigRej=  0.00D+00 NBFU=    40
 Initial guess from the checkpoint file:  "b.chk"
 B after Tr=     0.000843   -0.000009    0.000749
         Rot=    1.000000   -0.000140   -0.000153    0.000106 Ang=  -0.03 deg.
 Initial guess <Sx>= 0.0000 <Sy>= 0.0000 <Sz>= 1.0000 <S**2>= 2.3236 S= 1.1042
 Keep J ints in memory in canonical form, NReq=867663.
 Overlap will be assumed to be unity.
 Requested convergence on RMS density matrix=1.00D-08 within  64 cycles.
 Requested convergence on MAX density matrix=1.00D-06.
 Requested convergence on             energy=1.00D-06.
 No special actions if energy rises.
 SCF Done:  E(UPM6) =  0.111581644249     A.U. after   14 cycles
            NFock= 13  Conv=0.84D-08     -V/T= 1.0018
 <Sx>= 0.0000 <Sy>= 0.0000 <Sz>= 1.0000 <S**2>= 2.3227 S= 1.1040
 <L.S>=  0.00000000000    
 Annihilation of the first spin contaminant:
 S**2 before annihilation     2.3227,   after     2.0535
 QCSCF skips out because SCF is already converged.

 **********************************************************************

            Population analysis using the SCF Density.

 **********************************************************************

 Alpha  occ. eigenvalues --   -1.09868  -1.00453  -0.95936  -0.91046  -0.81641
 Alpha  occ. eigenvalues --   -0.77966  -0.71805  -0.63958  -0.58918  -0.56894
 Alpha  occ. eigenvalues --   -0.54581  -0.52393  -0.51435  -0.50341  -0.48610
 Alpha  occ. eigenvalues --   -0.45093  -0.43346  -0.40838  -0.37162  -0.35899
 Alpha  occ. eigenvalues --   -0.29954
 Alpha virt. eigenvalues --    0.01861   0.02556   0.09678   0.15245   0.15596
 Alpha virt. eigenvalues --    0.17229   0.18213   0.18332   0.18975   0.19640
 Alpha virt. eigenvalues --    0.20339   0.20864   0.21471   0.22039   0.22267
 Alpha virt. eigenvalues --    0.22493   0.22807   0.23161   0.23398
  Beta  occ. eigenvalues --   -1.09739  -0.99776  -0.95830  -0.89992  -0.80946
  Beta  occ. eigenvalues --   -0.77731  -0.71107  -0.63360  -0.58271  -0.56513
  Beta  occ. eigenvalues --   -0.53597  -0.52257  -0.50215  -0.48890  -0.47639
  Beta  occ. eigenvalues --   -0.44550  -0.43122  -0.36813  -0.36272
  Beta virt. eigenvalues --   -0.03393   0.02200   0.02682   0.07014   0.10834
  Beta virt. eigenvalues --    0.15688   0.15952   0.17921   0.18475   0.18871
  Beta virt. eigenvalues --    0.19467   0.20248   0.20700   0.21328   0.21789
  Beta virt. eigenvalues --    0.22348   0.22897   0.22962   0.23189   0.23506
  Beta virt. eigenvalues --    0.23824
          Condensed to atoms (all electrons):
          Atomic-Atomic Spin Densities.
 Mulliken charges and spin densities:
               1          2
     1  C    0.041680  -0.375616
     2  C   -0.173742   0.443194
     3  C   -0.160612   0.459033
     4  C   -0.134492  -0.362878
     5  H    0.148104  -0.015525
     6  C   -0.171221   0.791199
     7  C   -0.140857  -0.365586
     8  H    0.150904  -0.016164
     9  C   -0.146987   0.447738
    10  H    0.144724   0.012631
    11  C   -0.305314   1.037807
    12  H    0.153283  -0.010527
    13  H    0.144621   0.012792
    14  H    0.145199  -0.015424
    15  H    0.151958  -0.022151
    16  H    0.152753  -0.020523
    17  C    0.000000   0.000000
    18  H    0.000000   0.000000
    19  H    0.000000   0.000000
    20  Cl   0.000000   0.000000
    21  Cl   0.000000   0.000000
    22  C    0.000000   0.000000
    23  H    0.000000   0.000000
    24  H    0.000000   0.000000
    25  Cl   0.000000   0.000000
    26  Cl   0.000000   0.000000
    27  C    0.000000   0.000000
    28  H    0.000000   0.000000
    29  H    0.000000   0.000000
    30  Cl   0.000000   0.000000
    31  Cl   0.000000   0.000000
    32  C    0.000000   0.000000
    33  H    0.000000   0.000000
    34  H    0.000000   0.000000
    35  Cl   0.000000   0.000000
    36  Cl   0.000000   0.000000
    37  C    0.000000   0.000000
    38  H    0.000000   0.000000
    39  H    0.000000   0.000000
    40  Cl   0.000000   0.000000
    41  Cl   0.000000   0.000000
    42  C    0.000000   0.000000
    43  H    0.000000   0.000000
    44  H    0.000000   0.000000
    45  Cl   0.000000   0.000000
    46  Cl   0.000000   0.000000
    47  C    0.000000   0.000000
    48  H    0.000000   0.000000
    49  H    0.000000   0.000000
    50  Cl   0.000000   0.000000
    51  Cl   0.000000   0.000000
    52  C    0.000000   0.000000
    53  H    0.000000   0.000000
    54  H    0.000000   0.000000
    55  Cl   0.000000   0.000000
    56  Cl   0.000000   0.000000
    57  C    0.000000   0.000000
    58  H    0.000000   0.000000
    59  H    0.000000   0.000000
    60  Cl   0.000000   0.000000
    61  Cl   0.000000   0.000000
    62  C    0.000000   0.000000
    63  H    0.000000   0.000000
    64  H    0.000000   0.000000
    65  Cl   0.000000   0.000000
    66  Cl   0.000000   0.000000
    67  C    0.000000   0.000000
    68  H    0.000000   0.000000
    69  H    0.000000   0.000000
    70  Cl   0.000000   0.000000
    71  Cl   0.000000   0.000000
    72  C    0.000000   0.000000
    73  H    0.000000   0.000000
    74  H    0.000000   0.000000
    75  Cl   0.000000   0.000000
    76  Cl   0.000000   0.000000
    77  C    0.000000   0.000000
    78  H    0.000000   0.000000
    79  H    0.000000   0.000000
    80  Cl   0.000000   0.000000
    81  Cl   0.000000   0.000000
    82  C    0.000000   0.000000
    83  H    0.000000   0.000000
    84  H    0.000000   0.000000
    85  Cl   0.000000   0.000000
    86  Cl   0.000000   0.000000
    87  C    0.000000   0.000000
    88  H    0.000000   0.000000
    89  H    0.000000   0.000000
    90  Cl   0.000000   0.000000
    91  Cl   0.000000   0.000000
 Sum of Mulliken charges =  -0.00000   2.00000
 Mulliken charges and spin densities with hydrogens summed into heavy atoms:
               1          2
     1  C    0.041680  -0.375616
     2  C   -0.025638   0.427669
     3  C   -0.009708   0.442869
     4  C    0.010231  -0.350248
     6  C   -0.017938   0.780672
     7  C    0.003764  -0.352794
     9  C   -0.001788   0.432314
    11  C   -0.000603   0.995133
    17  C    0.000000   0.000000
    20  Cl   0.000000   0.000000
    21  Cl   0.000000   0.000000
    22  C    0.000000   0.000000
    25  Cl   0.000000   0.000000
    26  Cl   0.000000   0.000000
    27  C    0.000000   0.000000
    30  Cl   0.000000   0.000000
    31  Cl   0.000000   0.000000
    32  C    0.000000   0.000000
    35  Cl   0.000000   0.000000
    36  Cl   0.000000   0.000000
    37  C    0.000000   0.000000
    40  Cl   0.000000   0.000000
    41  Cl   0.000000   0.000000
    42  C    0.000000   0.000000
    45  Cl   0.000000   0.000000
    46  Cl   0.000000   0.000000
    47  C    0.000000   0.000000
    50  Cl   0.000000   0.000000
    51  Cl   0.000000   0.000000
    52  C    0.000000   0.000000
    55  Cl   0.000000   0.000000
    56  Cl   0.000000   0.000000
    57  C    0.000000   0.000000
    60  Cl   0.000000   0.000000
    61  Cl   0.000000   0.000000
    62  C    0.000000   0.000000
    65  Cl   0.000000   0.000000
    66  Cl   0.000000   0.000000
    67  C    0.000000   0.000000
    70  Cl   0.000000   0.000000
    71  Cl   0.000000   0.000000
    72  C    0.000000   0.000000
    75  Cl   0.000000   0.000000
    76  Cl   0.000000   0.000000
    77  C    0.000000   0.000000
    80  Cl   0.000000   0.000000
    81  Cl   0.000000   0.000000
    82  C    0.000000   0.000000
    85  Cl   0.000000   0.000000
    86  Cl   0.000000   0.000000
    87  C    0.000000   0.000000
    90  Cl   0.000000   0.000000
    91  Cl   0.000000   0.000000
 Charge=             -0.0000 electrons
 Dipole moment (field-independent basis, Debye):
    X=             -0.0147    Y=              0.0257    Z=             -0.0730  Tot=              0.0788
 N-N= 1.845872776855D+02 E-N=-2.806102494748D+02  KE=-6.319356272339D+01
 Calling FoFJK, ICntrl=      2127 FMM=F ISym2X=0 I1Cent= 0 IOpClX= 1 NMat=1 NMatS=1 NMatT=0.
 Cartesian Forces:  Max     0.021561047 RMS     0.003022390
 SvSCFP is copying densities from files   528 and   530 to   603.
 ONIOM: saving gridpoint  1
 ONIOM: restoring gridpoint  3
 ONIOM: calculating energy.
 ONIOM: gridpoint  1 method:  low   system:  model energy:     0.111581644249
 ONIOM: gridpoint  2 method:  high  system:  model energy:  -309.578736273247
 ONIOM: gridpoint  3 method:  low   system:  real  energy:    -0.404691741530
 ONIOM: extrapolated energy =    -310.095009659025
 ONIOM: calculating first derivatives.
 ONIOM: calculating electric field derivatives.
 ONIOM: Integrating ONIOM file  4 number   619
 ONIOM: Dipole        =-3.21427612D-01-8.25084696D-02 2.09812976D-01
 ONIOM: Dipole moment (Debye):
    X=    -0.8170    Y=    -0.2097    Z=     0.5333  Tot=     0.9979
 ONIOM: Integrating ONIOM file  5 number   695
 Anisotropic Hyperfine tensors: 
                 1             2             3             4             5 
      1   0.753891D-01 -0.118064D+00 -0.122435D+00  0.555725D-01 -0.527236D-02
      2   0.377072D-01  0.112466D-01  0.181662D-01 -0.687580D-02 -0.684358D-02
      3  -0.574051D-02 -0.491882D-01 -0.530465D-01  0.149808D-01  0.883710D-02
      4   0.428474D-01  0.983600D-02  0.276273D-01 -0.958844D-02  0.342914D-02
      5  -0.278342D-01  0.136844D+00  0.155322D+00 -0.583463D-01 -0.843424D-02
      6  -0.696486D-01  0.167253D+00  0.175482D+00 -0.705533D-01 -0.356474D-02
                 6             7             8             9            10 
      1  -0.346784D+00  0.630907D-01  0.417367D-02 -0.147035D+00  0.521836D-02
      2   0.744969D-01  0.112967D-02  0.376506D-02  0.919942D-02 -0.131090D-02
      3  -0.113501D+00  0.213388D-01  0.425581D-02 -0.765308D-01 -0.991803D-03
      4   0.107661D+00 -0.122969D-01 -0.158055D-02  0.144966D-01 -0.104274D-03
      5   0.437904D+00 -0.624286D-01 -0.102467D-01  0.183774D+00 -0.170357D-02
      6   0.460285D+00 -0.844295D-01 -0.842947D-02  0.223566D+00 -0.422655D-02
                11            12            13            14            15 
      1  -0.635798D-01 -0.273937D-01  0.643401D-02  0.241789D-01  0.547745D-01
      2  -0.599381D+00 -0.331985D-01  0.253130D-02  0.308275D-02  0.339049D-01
      3   0.251290D+00  0.334038D-01 -0.198860D-02 -0.182939D-01 -0.128815D-01
      4  -0.408308D+00  0.187190D-01 -0.194311D-02 -0.270107D-02  0.251731D-01
      5   0.516245D+00 -0.209322D-01 -0.204669D-02  0.735269D-02  0.404637D-01
      6  -0.187710D+00 -0.601011D-02 -0.444541D-02 -0.588492D-02 -0.418929D-01
                16            17            18            19            20 
      1  -0.396724D-01  0.000000D+00  0.000000D+00  0.000000D+00  0.000000D+00
      2  -0.374809D-01  0.000000D+00  0.000000D+00  0.000000D+00  0.000000D+00
      3  -0.204266D-01  0.000000D+00  0.000000D+00  0.000000D+00  0.000000D+00
      4   0.206308D-01  0.000000D+00  0.000000D+00  0.000000D+00  0.000000D+00
      5  -0.307431D-01  0.000000D+00  0.000000D+00  0.000000D+00  0.000000D+00
      6   0.600990D-01  0.000000D+00  0.000000D+00  0.000000D+00  0.000000D+00
                21            22            23            24            25 
      1   0.000000D+00  0.000000D+00  0.000000D+00  0.000000D+00  0.000000D+00
      2   0.000000D+00  0.000000D+00  0.000000D+00  0.000000D+00  0.000000D+00
      3   0.000000D+00  0.000000D+00  0.000000D+00  0.000000D+00  0.000000D+00
      4   0.000000D+00  0.000000D+00  0.000000D+00  0.000000D+00  0.000000D+00
      5   0.000000D+00  0.000000D+00  0.000000D+00  0.000000D+00  0.000000D+00
      6   0.000000D+00  0.000000D+00  0.000000D+00  0.000000D+00  0.000000D+00
                26            27            28            29            30 
      1   0.000000D+00  0.000000D+00  0.000000D+00  0.000000D+00  0.000000D+00
      2   0.000000D+00  0.000000D+00  0.000000D+00  0.000000D+00  0.000000D+00
      3   0.000000D+00  0.000000D+00  0.000000D+00  0.000000D+00  0.000000D+00
      4   0.000000D+00  0.000000D+00  0.000000D+00  0.000000D+00  0.000000D+00
      5   0.000000D+00  0.000000D+00  0.000000D+00  0.000000D+00  0.000000D+00
      6   0.000000D+00  0.000000D+00  0.000000D+00  0.000000D+00  0.000000D+00
                31            32            33            34            35 
      1   0.000000D+00  0.000000D+00  0.000000D+00  0.000000D+00  0.000000D+00
      2   0.000000D+00  0.000000D+00  0.000000D+00  0.000000D+00  0.000000D+00
      3   0.000000D+00  0.000000D+00  0.000000D+00  0.000000D+00  0.000000D+00
      4   0.000000D+00  0.000000D+00  0.000000D+00  0.000000D+00  0.000000D+00
      5   0.000000D+00  0.000000D+00  0.000000D+00  0.000000D+00  0.000000D+00
      6   0.000000D+00  0.000000D+00  0.000000D+00  0.000000D+00  0.000000D+00
                36            37            38            39            40 
      1   0.000000D+00  0.000000D+00  0.000000D+00  0.000000D+00  0.000000D+00
      2   0.000000D+00  0.000000D+00  0.000000D+00  0.000000D+00  0.000000D+00
      3   0.000000D+00  0.000000D+00  0.000000D+00  0.000000D+00  0.000000D+00
      4   0.000000D+00  0.000000D+00  0.000000D+00  0.000000D+00  0.000000D+00
      5   0.000000D+00  0.000000D+00  0.000000D+00  0.000000D+00  0.000000D+00
      6   0.000000D+00  0.000000D+00  0.000000D+00  0.000000D+00  0.000000D+00
                41            42            43            44            45 
      1   0.000000D+00  0.000000D+00  0.000000D+00  0.000000D+00  0.000000D+00
      2   0.000000D+00  0.000000D+00  0.000000D+00  0.000000D+00  0.000000D+00
      3   0.000000D+00  0.000000D+00  0.000000D+00  0.000000D+00  0.000000D+00
      4   0.000000D+00  0.000000D+00  0.000000D+00  0.000000D+00  0.000000D+00
      5   0.000000D+00  0.000000D+00  0.000000D+00  0.000000D+00  0.000000D+00
      6   0.000000D+00  0.000000D+00  0.000000D+00  0.000000D+00  0.000000D+00
                46            47            48            49            50 
      1   0.000000D+00  0.000000D+00  0.000000D+00  0.000000D+00  0.000000D+00
      2   0.000000D+00  0.000000D+00  0.000000D+00  0.000000D+00  0.000000D+00
      3   0.000000D+00  0.000000D+00  0.000000D+00  0.000000D+00  0.000000D+00
      4   0.000000D+00  0.000000D+00  0.000000D+00  0.000000D+00  0.000000D+00
      5   0.000000D+00  0.000000D+00  0.000000D+00  0.000000D+00  0.000000D+00
      6   0.000000D+00  0.000000D+00  0.000000D+00  0.000000D+00  0.000000D+00
                51            52            53            54            55 
      1   0.000000D+00  0.000000D+00  0.000000D+00  0.000000D+00  0.000000D+00
      2   0.000000D+00  0.000000D+00  0.000000D+00  0.000000D+00  0.000000D+00
      3   0.000000D+00  0.000000D+00  0.000000D+00  0.000000D+00  0.000000D+00
      4   0.000000D+00  0.000000D+00  0.000000D+00  0.000000D+00  0.000000D+00
      5   0.000000D+00  0.000000D+00  0.000000D+00  0.000000D+00  0.000000D+00
      6   0.000000D+00  0.000000D+00  0.000000D+00  0.000000D+00  0.000000D+00
                56            57            58            59            60 
      1   0.000000D+00  0.000000D+00  0.000000D+00  0.000000D+00  0.000000D+00
      2   0.000000D+00  0.000000D+00  0.000000D+00  0.000000D+00  0.000000D+00
      3   0.000000D+00  0.000000D+00  0.000000D+00  0.000000D+00  0.000000D+00
      4   0.000000D+00  0.000000D+00  0.000000D+00  0.000000D+00  0.000000D+00
      5   0.000000D+00  0.000000D+00  0.000000D+00  0.000000D+00  0.000000D+00
      6   0.000000D+00  0.000000D+00  0.000000D+00  0.000000D+00  0.000000D+00
                61            62            63            64            65 
      1   0.000000D+00  0.000000D+00  0.000000D+00  0.000000D+00  0.000000D+00
      2   0.000000D+00  0.000000D+00  0.000000D+00  0.000000D+00  0.000000D+00
      3   0.000000D+00  0.000000D+00  0.000000D+00  0.000000D+00  0.000000D+00
      4   0.000000D+00  0.000000D+00  0.000000D+00  0.000000D+00  0.000000D+00
      5   0.000000D+00  0.000000D+00  0.000000D+00  0.000000D+00  0.000000D+00
      6   0.000000D+00  0.000000D+00  0.000000D+00  0.000000D+00  0.000000D+00
                66            67            68            69            70 
      1   0.000000D+00  0.000000D+00  0.000000D+00  0.000000D+00  0.000000D+00
      2   0.000000D+00  0.000000D+00  0.000000D+00  0.000000D+00  0.000000D+00
      3   0.000000D+00  0.000000D+00  0.000000D+00  0.000000D+00  0.000000D+00
      4   0.000000D+00  0.000000D+00  0.000000D+00  0.000000D+00  0.000000D+00
      5   0.000000D+00  0.000000D+00  0.000000D+00  0.000000D+00  0.000000D+00
      6   0.000000D+00  0.000000D+00  0.000000D+00  0.000000D+00  0.000000D+00
                71            72            73            74            75 
      1   0.000000D+00  0.000000D+00  0.000000D+00  0.000000D+00  0.000000D+00
      2   0.000000D+00  0.000000D+00  0.000000D+00  0.000000D+00  0.000000D+00
      3   0.000000D+00  0.000000D+00  0.000000D+00  0.000000D+00  0.000000D+00
      4   0.000000D+00  0.000000D+00  0.000000D+00  0.000000D+00  0.000000D+00
      5   0.000000D+00  0.000000D+00  0.000000D+00  0.000000D+00  0.000000D+00
      6   0.000000D+00  0.000000D+00  0.000000D+00  0.000000D+00  0.000000D+00
                76            77            78            79            80 
      1   0.000000D+00  0.000000D+00  0.000000D+00  0.000000D+00  0.000000D+00
      2   0.000000D+00  0.000000D+00  0.000000D+00  0.000000D+00  0.000000D+00
      3   0.000000D+00  0.000000D+00  0.000000D+00  0.000000D+00  0.000000D+00
      4   0.000000D+00  0.000000D+00  0.000000D+00  0.000000D+00  0.000000D+00
      5   0.000000D+00  0.000000D+00  0.000000D+00  0.000000D+00  0.000000D+00
      6   0.000000D+00  0.000000D+00  0.000000D+00  0.000000D+00  0.000000D+00
                81            82            83            84            85 
      1   0.000000D+00  0.000000D+00  0.000000D+00  0.000000D+00  0.000000D+00
      2   0.000000D+00  0.000000D+00  0.000000D+00  0.000000D+00  0.000000D+00
      3   0.000000D+00  0.000000D+00  0.000000D+00  0.000000D+00  0.000000D+00
      4   0.000000D+00  0.000000D+00  0.000000D+00  0.000000D+00  0.000000D+00
      5   0.000000D+00  0.000000D+00  0.000000D+00  0.000000D+00  0.000000D+00
      6   0.000000D+00  0.000000D+00  0.000000D+00  0.000000D+00  0.000000D+00
                86            87            88            89            90 
      1   0.000000D+00  0.000000D+00  0.000000D+00  0.000000D+00  0.000000D+00
      2   0.000000D+00  0.000000D+00  0.000000D+00  0.000000D+00  0.000000D+00
      3   0.000000D+00  0.000000D+00  0.000000D+00  0.000000D+00  0.000000D+00
      4   0.000000D+00  0.000000D+00  0.000000D+00  0.000000D+00  0.000000D+00
      5   0.000000D+00  0.000000D+00  0.000000D+00  0.000000D+00  0.000000D+00
      6   0.000000D+00  0.000000D+00  0.000000D+00  0.000000D+00  0.000000D+00
                91 
      1   0.000000D+00
      2   0.000000D+00
      3   0.000000D+00
      4   0.000000D+00
      5   0.000000D+00
      6   0.000000D+00
 ONIOM Fermi contact: 
               1
     1  C   -0.003881
     2  C    0.024809
     3  C    0.030925
     4  C   -0.019483
     5  H   -0.003695
     6  C    0.045733
     7  C   -0.021552
     8  H   -0.004063
     9  C    0.034711
    10  H    0.001528
    11  C    0.085354
    12  H    0.003272
    13  H    0.001734
    14  H   -0.004770
    15  H   -0.006930
    16  H   -0.005756
    17  C    0.000000
    18  H    0.000000
    19  H    0.000000
    20  Cl   0.000000
    21  Cl   0.000000
    22  C    0.000000
    23  H    0.000000
    24  H    0.000000
    25  Cl   0.000000
    26  Cl   0.000000
    27  C    0.000000
    28  H    0.000000
    29  H    0.000000
    30  Cl   0.000000
    31  Cl   0.000000
    32  C    0.000000
    33  H    0.000000
    34  H    0.000000
    35  Cl   0.000000
    36  Cl   0.000000
    37  C    0.000000
    38  H    0.000000
    39  H    0.000000
    40  Cl   0.000000
    41  Cl   0.000000
    42  C    0.000000
    43  H    0.000000
    44  H    0.000000
    45  Cl   0.000000
    46  Cl   0.000000
    47  C    0.000000
    48  H    0.000000
    49  H    0.000000
    50  Cl   0.000000
    51  Cl   0.000000
    52  C    0.000000
    53  H    0.000000
    54  H    0.000000
    55  Cl   0.000000
    56  Cl   0.000000
    57  C    0.000000
    58  H    0.000000
    59  H    0.000000
    60  Cl   0.000000
    61  Cl   0.000000
    62  C    0.000000
    63  H    0.000000
    64  H    0.000000
    65  Cl   0.000000
    66  Cl   0.000000
    67  C    0.000000
    68  H    0.000000
    69  H    0.000000
    70  Cl   0.000000
    71  Cl   0.000000
    72  C    0.000000
    73  H    0.000000
    74  H    0.000000
    75  Cl   0.000000
    76  Cl   0.000000
    77  C    0.000000
    78  H    0.000000
    79  H    0.000000
    80  Cl   0.000000
[...]
   Z21        2.96658   0.00001   0.00000   0.00158   0.00063   2.96721
   X22       10.82613   0.00002   0.00000   0.00008   0.00018  10.82632
   Y22       -2.01874   0.00001   0.00000   0.00015   0.00018  -2.01856
   Z22       -2.94942   0.00000   0.00000   0.00097   0.00005  -2.94938
   X23        8.78954   0.00002   0.00000   0.00003   0.00012   8.78967
   Y23       -2.10460   0.00003   0.00000   0.00045   0.00043  -2.10417
   Z23       -2.44608   0.00000   0.00000   0.00066  -0.00029  -2.44637
   X24       11.97407  -0.00004   0.00000  -0.00039  -0.00029  11.97378
   Y24       -3.16415  -0.00006   0.00000  -0.00075  -0.00078  -3.16494
   Z24       -1.62069  -0.00002   0.00000   0.00051  -0.00048  -1.62117
   X25       11.87235   0.00010   0.00000   0.00106   0.00112  11.87347
   Y25        1.16352  -0.00002   0.00000  -0.00022  -0.00018   1.16334
   Z25       -2.86114   0.00010   0.00000   0.00229   0.00155  -2.85958
   X26       11.26388   0.00002   0.00000   0.00012   0.00025  11.26414
   Y26       -3.12748   0.00013   0.00000   0.00123   0.00145  -3.12602
   Z26       -6.06926  -0.00004   0.00000   0.00068  -0.00031  -6.06958
   X27        3.98323  -0.00008   0.00000  -0.00100  -0.00103   3.98220
   Y27        6.01762   0.00004   0.00000   0.00089   0.00049   6.01812
   Z27        2.91604  -0.00001   0.00000   0.00046  -0.00004   2.91600
   X28        3.46028  -0.00019   0.00000  -0.00170  -0.00170   3.45857
   Y28        4.05574   0.00010   0.00000   0.00141   0.00104   4.05678
   Z28        2.37031  -0.00012   0.00000  -0.00090  -0.00151   2.36880
   X29        2.57013  -0.00007   0.00000  -0.00087  -0.00091   2.56922
   Y29        7.38892   0.00006   0.00000   0.00131   0.00095   7.38987
   Z29        2.18435   0.00005   0.00000   0.00112   0.00069   2.18504
   X30        7.01468  -0.00007   0.00000  -0.00082  -0.00086   7.01382
   Y30        6.76462   0.00013   0.00000   0.00178   0.00149   6.76611
   Z30        1.70267   0.00011   0.00000   0.00149   0.00106   1.70373
   X31        4.18009   0.00002   0.00000  -0.00015  -0.00021   4.17988
   Y31        6.25957  -0.00015   0.00000  -0.00102  -0.00161   6.25796
   Z31        6.24786  -0.00001   0.00000   0.00057   0.00009   6.24795
   X32       -4.27140  -0.00003   0.00000  -0.00039  -0.00040  -4.27180
   Y32        1.53810  -0.00006   0.00000  -0.00005  -0.00075   1.53735
   Z32        6.57059  -0.00001   0.00000   0.00068  -0.00014   6.57045
   X33       -3.56743  -0.00014   0.00000  -0.00146  -0.00144  -3.56887
   Y33       -0.43734  -0.00010   0.00000  -0.00051  -0.00120  -0.43855
   Z33        6.62925  -0.00009   0.00000   0.00003  -0.00090   6.62835
   X34       -4.15770  -0.00005   0.00000  -0.00048  -0.00051  -4.15821
   Y34        2.44482   0.00003   0.00000   0.00018  -0.00064   2.44418
   Z34        8.45976  -0.00005   0.00000   0.00049  -0.00027   8.45949
   X35       -7.44389  -0.00002   0.00000  -0.00031  -0.00031  -7.44419
   Y35        1.55972  -0.00003   0.00000   0.00096   0.00028   1.56001
   Z35        5.50001  -0.00001   0.00000   0.00067  -0.00017   5.49984
   X36       -2.45037   0.00013   0.00000   0.00133   0.00132  -2.44905
   Y36        3.28440  -0.00010   0.00000  -0.00029  -0.00084   3.28355
   Z36        4.37049   0.00013   0.00000   0.00203   0.00133   4.37182
   X37       -1.98397  -0.00008   0.00000  -0.00098  -0.00108  -1.98505
   Y37        8.61661   0.00004   0.00000   0.00132   0.00051   8.61712
   Z37        8.65648   0.00009   0.00000   0.00149   0.00111   8.65759
   X38       -0.72151  -0.00012   0.00000  -0.00120  -0.00132  -0.72282
   Y38       10.27027   0.00005   0.00000   0.00122   0.00042  10.27069
   Z38        8.89403   0.00022   0.00000   0.00281   0.00254   8.89657
   X39       -1.66227  -0.00003   0.00000  -0.00040  -0.00047  -1.66274
   Y39        7.69943   0.00015   0.00000   0.00233   0.00164   7.70107
   Z39        6.79603   0.00005   0.00000   0.00103   0.00060   6.79662
   X40       -5.16800  -0.00010   0.00000  -0.00102  -0.00113  -5.16913
   Y40        9.56786   0.00000   0.00000   0.00121   0.00036   9.56822
   Z40        8.91924   0.00008   0.00000   0.00142   0.00107   8.92031
   X41       -1.38673  -0.00013   0.00000  -0.00148  -0.00157  -1.38830
   Y41        6.40022  -0.00009   0.00000   0.00013  -0.00081   6.39941
   Z41       11.10806  -0.00002   0.00000   0.00051  -0.00000  11.10806
   X42        8.37910  -0.00003   0.00000  -0.00039  -0.00030   8.37880
   Y42        2.05582   0.00010   0.00000   0.00096   0.00129   2.05711
   Z42       -8.40244  -0.00001   0.00000   0.00062  -0.00008  -8.40251
   X43        7.32532  -0.00006   0.00000  -0.00084  -0.00075   7.32457
   Y43        0.52622   0.00009   0.00000   0.00093   0.00119   0.52741
   Z43       -7.42332  -0.00006   0.00000   0.00003  -0.00077  -7.42410
   X44       10.44737  -0.00004   0.00000  -0.00047  -0.00038  10.44699
   Y44        1.72508   0.00009   0.00000   0.00070   0.00105   1.72613
   Z44       -8.27006   0.00004   0.00000   0.00086   0.00015  -8.26991
   X45        7.63397   0.00005   0.00000   0.00038   0.00042   7.63439
   Y45        5.01774   0.00011   0.00000   0.00103   0.00127   5.01901
   Z45       -7.01018   0.00000   0.00000   0.00085   0.00031  -7.00987
   X46        7.43956   0.00001   0.00000  -0.00004   0.00007   7.43963
   Y46        2.21195   0.00017   0.00000   0.00146   0.00197   2.21392
   Z46      -11.60392  -0.00002   0.00000   0.00061  -0.00009 -11.60400
   X47      -10.25217   0.00012   0.00000   0.00148   0.00149 -10.25068
   Y47        3.72287   0.00014   0.00000   0.00219   0.00185   3.72472
   Z47       -0.73467   0.00003   0.00000   0.00117   0.00045  -0.73423
   X48      -11.94254   0.00011   0.00000   0.00118   0.00121 -11.94133
   Y48        2.64958   0.00029   0.00000   0.00367   0.00328   2.65286
   Z48       -0.11834   0.00019   0.00000   0.00283   0.00203  -0.11631
   X49       -8.74168   0.00020   0.00000   0.00251   0.00252  -8.73916
   Y49        3.64700   0.00011   0.00000   0.00166   0.00125   3.64825
   Z49        0.72093  -0.00007   0.00000  -0.00006  -0.00078   0.72014
   X50      -11.10418   0.00028   0.00000   0.00343   0.00342 -11.10077
   Y50        6.90797   0.00017   0.00000   0.00255   0.00223   6.91021
   Z50       -1.29217  -0.00004   0.00000   0.00032  -0.00023  -1.29240
   X51       -9.12107  -0.00009   0.00000  -0.00119  -0.00114  -9.12221
   Y51        2.43865  -0.00000   0.00000   0.00007  -0.00009   2.43856
   Z51       -3.60685   0.00003   0.00000   0.00120   0.00041  -3.60644
   X52       -3.00643   0.00000   0.00000  -0.00005   0.00003  -3.00639
   Y52        1.85454   0.00002   0.00000   0.00004   0.00020   1.85474
   Z52       -7.72253   0.00007   0.00000   0.00158   0.00079  -7.72174
   X53       -3.62634   0.00005   0.00000   0.00067   0.00075  -3.62558
   Y53        2.45304   0.00004   0.00000   0.00003   0.00029   2.45334
   Z53       -9.63368   0.00005   0.00000   0.00127   0.00051  -9.63317
   X54       -4.05929  -0.00008   0.00000  -0.00102  -0.00096  -4.06025
   Y54        2.88550  -0.00004   0.00000  -0.00031  -0.00025   2.88525
   Z54       -6.22391   0.00004   0.00000   0.00107   0.00034  -6.22358
   X55        0.27907  -0.00002   0.00000  -0.00033  -0.00025   0.27882
   Y55        2.45892   0.00006   0.00000   0.00061   0.00079   2.45971
   Z55       -7.38711   0.00017   0.00000   0.00319   0.00246  -7.38464
   X56       -3.46467   0.00007   0.00000   0.00064   0.00076  -3.46391
   Y56       -1.43504   0.00001   0.00000  -0.00003   0.00010  -1.43494
   Z56       -7.36465   0.00005   0.00000   0.00187   0.00088  -7.36378
   X57       -2.65835   0.00010   0.00000   0.00135   0.00127  -2.65709
   Y57       11.13704   0.00008   0.00000   0.00138   0.00100  11.13803
   Z57        1.43732  -0.00012   0.00000  -0.00107  -0.00131   1.43601
   X58       -1.97284   0.00020   0.00000   0.00243   0.00235  -1.97048
   Y58       11.56348   0.00009   0.00000   0.00166   0.00141  11.56489
   Z58       -0.50214  -0.00008   0.00000  -0.00067  -0.00087  -0.50302
   X59       -4.32601   0.00017   0.00000   0.00186   0.00176  -4.32424
   Y59       12.30842   0.00014   0.00000   0.00195   0.00153  12.30994
   Z59        1.93143  -0.00004   0.00000  -0.00085  -0.00102   1.93041
   X60       -0.19300  -0.00001   0.00000   0.00030   0.00020  -0.19280
   Y60       11.71978  -0.00006   0.00000  -0.00037  -0.00085  11.71893
   Z60        3.63165   0.00003   0.00000   0.00055   0.00036   3.63201
   X61       -3.46280  -0.00006   0.00000  -0.00054  -0.00058  -3.46339
   Y61        7.89387   0.00010   0.00000   0.00172   0.00132   7.89519
   Z61        1.68031  -0.00034   0.00000  -0.00326  -0.00369   1.67662
   X62        2.09772  -0.00004   0.00000  -0.00055  -0.00056   2.09716
   Y62        0.62555   0.00003   0.00000   0.00111   0.00032   0.62587
   Z62        9.33811  -0.00011   0.00000  -0.00043  -0.00126   9.33685
   X63        1.38713   0.00000   0.00000   0.00010   0.00007   1.38719
   Y63        2.51399   0.00002   0.00000   0.00099   0.00022   2.51421
   Z63        8.75806  -0.00017   0.00000  -0.00145  -0.00218   8.75589
   X64        3.69537  -0.00007   0.00000  -0.00072  -0.00075   3.69462
   Y64        0.80648   0.00001   0.00000   0.00093   0.00007   0.80655
   Z64       10.68108  -0.00007   0.00000  -0.00030  -0.00111  10.67997
   X65        3.09007  -0.00004   0.00000  -0.00050  -0.00048   3.08959
   Y65       -1.07706  -0.00004   0.00000   0.00008  -0.00054  -1.07760
   Z65        6.63971  -0.00006   0.00000   0.00036  -0.00056   6.63915
   X66       -0.37916  -0.00010   0.00000  -0.00123  -0.00124  -0.38040
   Y66       -1.10018   0.00011   0.00000   0.00255   0.00165  -1.09853
   Z66       10.78147  -0.00010   0.00000   0.00005  -0.00090  10.78057
   X67        2.01738   0.00005   0.00000   0.00048   0.00062   2.01800
   Y67       -4.10240   0.00000   0.00000  -0.00022  -0.00012  -4.10251
   Z67       -5.72173   0.00002   0.00000   0.00148   0.00037  -5.72136
   X68        0.35795   0.00010   0.00000   0.00067   0.00083   0.35878
   Y68       -5.21868  -0.00004   0.00000  -0.00014  -0.00002  -5.21870
   Z68       -6.34124  -0.00004   0.00000   0.00078  -0.00041  -6.34165
   X69        1.42070   0.00015   0.00000   0.00112   0.00124   1.42193
   Y69       -2.20286  -0.00004   0.00000  -0.00050  -0.00045  -2.20331
   Z69       -5.04730   0.00021   0.00000   0.00278   0.00178  -5.04553
   X70        4.17193  -0.00010   0.00000  -0.00078  -0.00063   4.17129
   Y70       -3.78766   0.00013   0.00000   0.00113   0.00140  -3.78626
   Z70       -8.25595  -0.00009   0.00000   0.00069  -0.00039  -8.25633
   X71        3.60098   0.00003   0.00000   0.00050   0.00064   3.60162
   Y71       -5.73002  -0.00008   0.00000  -0.00107  -0.00110  -5.73113
   Z71       -3.25602  -0.00003   0.00000   0.00093  -0.00027  -3.25628
   X72        3.53531  -0.00005   0.00000  -0.00060  -0.00056   3.53475
   Y72        7.42120  -0.00001   0.00000  -0.00053  -0.00009   7.42111
   Z72      -11.25044  -0.00009   0.00000  -0.00073  -0.00115 -11.25159
   X73        5.36879  -0.00004   0.00000  -0.00055  -0.00050   5.36829
   Y73        7.21395   0.00005   0.00000   0.00030   0.00082   7.21477
   Z73      -12.24611  -0.00009   0.00000  -0.00081  -0.00122 -12.24734
   X74        3.35737  -0.00001   0.00000  -0.00008  -0.00003   3.35734
   Y74        5.97229  -0.00002   0.00000  -0.00064  -0.00028   5.97200
   Z74       -9.74616  -0.00011   0.00000  -0.00086  -0.00137  -9.74753
   X75        3.33800  -0.00015   0.00000  -0.00180  -0.00181   3.33619
   Y75       10.48358  -0.00003   0.00000  -0.00079  -0.00043  10.48315
   Z75       -9.89590  -0.00007   0.00000  -0.00043  -0.00066  -9.89656
   X76        1.01150  -0.00003   0.00000  -0.00060  -0.00054   1.01097
   Y76        7.11944  -0.00006   0.00000  -0.00148  -0.00093   7.11850
   Z76      -13.41026  -0.00009   0.00000  -0.00054  -0.00099 -13.41125
   X77       -2.87837   0.00020   0.00000   0.00245   0.00245  -2.87592
   Y77        8.73425  -0.00003   0.00000  -0.00031  -0.00020   8.73406
   Z77       -6.96100   0.00006   0.00000   0.00108   0.00070  -6.96030
   X78       -1.02500   0.00020   0.00000   0.00187   0.00188  -1.02311
   Y78        7.96947   0.00016   0.00000   0.00002   0.00020   7.96967
   Z78       -7.57983  -0.00018   0.00000  -0.00111  -0.00153  -7.58136
   X79       -2.89131   0.00047   0.00000   0.00403   0.00400  -2.88731
   Y79       10.82929  -0.00006   0.00000  -0.00048  -0.00036  10.82893
   Z79       -7.05617  -0.00013   0.00000  -0.00108  -0.00134  -7.05751
   X80       -5.31560  -0.00014   0.00000  -0.00124  -0.00121  -5.31681
   Y80        7.50943  -0.00026   0.00000  -0.00265  -0.00245   7.50698
   Z80       -8.89122   0.00067   0.00000   0.00733   0.00686  -8.88436
   X81       -3.49388   0.00012   0.00000   0.00328   0.00327  -3.49061
   Y81        7.76456   0.00012   0.00000   0.00213   0.00205   7.76662
   Z81       -3.80671   0.00006   0.00000   0.00197   0.00152  -3.80518
   X82        4.07719  -0.00019   0.00000  -0.00224  -0.00229   4.07489
   Y82       11.28175  -0.00024   0.00000  -0.00263  -0.00267  11.27909
   Z82       -3.06905  -0.00008   0.00000  -0.00071  -0.00090  -3.06994
   X83        5.24093  -0.00033   0.00000  -0.00294  -0.00298   5.23795
   Y83       11.20531  -0.00021   0.00000  -0.00292  -0.00283  11.20247
   Z83       -4.81127  -0.00017   0.00000  -0.00118  -0.00136  -4.81263
   X84        5.28644  -0.00039   0.00000  -0.00339  -0.00346   5.28298
   Y84       11.21383  -0.00039   0.00000  -0.00470  -0.00482  11.20901
   Z84       -1.35792   0.00005   0.00000  -0.00003  -0.00021  -1.35813
   X85        2.24032   0.00028   0.00000   0.00240   0.00231   2.24263
   Y85       14.07124   0.00006   0.00000   0.00034   0.00029  14.07153
   Z85       -3.06078   0.00001   0.00000   0.00023   0.00020  -3.06058
   X86        1.93371  -0.00021   0.00000  -0.00368  -0.00371   1.93001
   Y86        8.70139  -0.00016   0.00000  -0.00133  -0.00139   8.69999
   Z86       -3.04018  -0.00016   0.00000  -0.00162  -0.00197  -3.04214
   X87       -8.27212   0.00001   0.00000   0.00020   0.00013  -8.27199
   Y87       12.99766  -0.00015   0.00000  -0.00171  -0.00188  12.99578
   Z87       -3.18694  -0.00001   0.00000   0.00002  -0.00014  -3.18709
   X88      -10.10900   0.00002   0.00000   0.00044   0.00037 -10.10863
   Y88       13.10691  -0.00008   0.00000  -0.00084  -0.00097  13.10594
   Z88       -4.18809  -0.00004   0.00000  -0.00036  -0.00053  -4.18862
   X89       -7.70116   0.00003   0.00000   0.00033   0.00028  -7.70087
   Y89       10.99715  -0.00016   0.00000  -0.00193  -0.00211  10.99504
   Z89       -2.90126  -0.00017   0.00000  -0.00185  -0.00213  -2.90339
   X90       -5.93855   0.00005   0.00000   0.00075   0.00067  -5.93788
   Y90       14.60226  -0.00001   0.00000   0.00001  -0.00003  14.60224
   Z90       -4.96678   0.00019   0.00000   0.00233   0.00227  -4.96451
   X91       -8.51963  -0.00007   0.00000  -0.00067  -0.00078  -8.52041
   Y91       14.53361  -0.00042   0.00000  -0.00458  -0.00493  14.52868
   Z91       -0.22924   0.00010   0.00000   0.00143   0.00136  -0.22788
         Item               Value     Threshold  Converged?
 Maximum Force            0.054255     0.000450     NO 
 RMS     Force            0.006999     0.000300     NO 
 Maximum Displacement     0.147078     0.001800     NO 
 RMS     Displacement     0.018169     0.001200     NO 
 Predicted change in Energy=-1.320866D-02
 GradGradGradGradGradGradGradGradGradGradGradGradGradGradGradGradGradGrad

 Unable to Open any file for archive entry.
 1\1\GINC-X10P1N23\Force\ONIOM(B3LYP/6-31G(d):PM6)\Mixed\C23H38Cl30\MAY
 UMIAO\12-Jul-2024\0\\# scf=(xqc,maxcycle=64) force guess=read oniom(b3
 lyp/em=gd3bj/6-31g(d):pm6) nosymm\\Title Card\\0,1\C,0.55474464,-0.176
 60195,-0.18035494\C,-0.08415523,-1.29441855,0.41566494\C,-0.2671357,0.
 8812618,-0.64678293\C,-1.45616825,-1.35654905,0.52945301\H,0.53677931,
 -2.11308391,0.77489597\C,1.97589508,-0.14667865,-0.30959362\C,-1.64419
 849,0.81605197,-0.5107241\H,0.18572468,1.75301945,-1.11275015\C,-2.252
 48231,-0.3024445,0.05943052\H,-1.91897277,-2.22428708,0.99241206\C,2.6
 8635466,0.88827354,-1.00472507\H,2.52158223,-0.99853996,0.10270089\H,-
 2.25688531,1.64798699,-0.85226817\H,-3.33547772,-0.35734135,0.13662417
 \H,3.6128325,1.31624881,-0.63080374\H,2.33176709,1.28291028,-1.9548783
 2\C,4.97449236,0.55634188,1.99410394\H,5.2579657,1.1463105,1.09725622\
 H,3.976959,0.8607514,2.37397952\Cl,6.18576626,0.77252241,3.2557765\Cl,
 4.93607896,-1.16948385,1.56984411\C,5.72894361,-1.06827256,-1.56076638
 \H,4.65122674,-1.11370668,-1.29441124\H,6.33640452,-1.67439815,-0.8576
 3257\Cl,6.28257641,0.61570842,-1.51404765\Cl,5.96059077,-1.65498997,-3
 .21171597\C,2.10783447,3.18438924,1.54310152\H,1.83110076,2.14620312,1
 .25431509\H,1.36005669,3.91005046,1.15590867\Cl,3.71200757,3.57968225,
 0.90101519\Cl,2.21200916,3.31242122,3.30622736\C,-2.26032792,0.8139277
 6,3.47700579\H,-1.88780219,-0.23143178,3.50804937\H,-2.2001598,1.29374
 163,4.47671259\Cl,-3.93913494,0.82536999,2.9104786\Cl,-1.29668021,1.73
 802842,2.31276373\C,-1.04986941,4.5597114,4.58081076\H,-0.38180493,5.4
 3479391,4.70651805\H,-0.87963393,4.07436183,3.59630386\Cl,-2.73478599,
 5.0630936,4.71985859\Cl,-0.73382407,3.38685125,5.87813129\C,4.43403095
 ,1.08789486,-4.44637739\H,3.87639106,0.27846264,-3.92825263\H,5.528509
 94,0.912874,-4.37632711\Cl,4.03972093,2.6552726,-3.70962829\Cl,3.93684
 79,1.17051384,-6.14052747\C,-5.42521634,1.97005552,-0.38877211\H,-6.31
 971779,1.40209834,-0.06262353\H,-4.62589939,1.92991057,0.38149744\Cl,-
 5.87608138,3.65554173,-0.68378874\Cl,-4.82666344,1.29047726,-1.9086604
 \C,-1.59093241,0.98138055,-4.08658783\H,-1.91897545,1.29809522,-5.0979
 2231\H,-2.14808271,1.52694027,-3.29355235\Cl,0.14767791,1.30120398,-3.
 90908825\Cl,-1.83342444,-0.75939291,-3.8972073\C,-1.40674044,5.8934657
 ,0.76059612\H,-1.04398015,6.1191322,-0.2657236\H,-2.28922546,6.5133339
 3,1.02206811\Cl,-0.10213145,6.20184017,1.92178442\Cl,-1.83243633,4.177
 25761,0.88918414\C,1.11006589,0.33102565,4.94151591\H,0.73403601,1.330
 34528,4.63456818\H,1.95550357,0.42676848,5.652182\Cl,1.63519467,-0.569
 95306,3.51358451\Cl,-0.20064108,-0.58218826,5.70530785\C,1.06755263,-2
 .17089521,-3.02780911\H,0.1894213,-2.76160593,-3.35564118\H,0.75180132
 ,-1.16570582,-2.67091834\Cl,2.20768842,-2.00434294,-4.3688593\Cl,1.905
 55444,-3.03219858,-1.7230099\C,1.87080341,3.92712913,-5.95347737\H,2.8
 4104122,3.81745628,-6.48036482\H,1.77664363,3.16039856,-5.15744555\Cl,
 1.76639277,5.54767253,-5.2366825\Cl,0.53526532,3.76744375,-7.09640244\
 C,-1.52316577,4.62196858,-3.68360211\H,-0.54240517,4.21726388,-4.01107
 296\H,-1.53001648,5.73061569,-3.73396241\Cl,-2.81289539,3.97381884,-4.
 70503036\Cl,-1.84888316,4.10882894,-2.0144241\C,2.15755374,5.97004543,
 -1.62407055\H,2.77337948,5.92959368,-2.54601474\H,2.79746496,5.9341042
 ,-0.71857931\Cl,1.18552513,7.44617791,-1.61969625\Cl,1.02327784,4.6045
 7584,-1.60879213\C,-4.37741705,6.87806637,-1.68645854\H,-5.34945179,6.
 93587632,-2.21624182\H,-4.07527695,5.81943884,-1.53527941\Cl,-3.142545
 95,7.72718427,-2.62830855\Cl,-4.50839367,7.69085534,-0.12130887\\Versi
 on=ES64L-G16RevC.01\HF=0.1115816\S2=2.322701\S2-1=0.\S2A=2.053464\RMSD
 =8.387e-09\RMSF=6.999e-03\Dipole=-0.3214276,-0.0825085,0.209813\Quadru
 pole=2.1805083,0.468909,-2.6494173,0.0814955,-0.0760348,-2.5753274\PG=
 C01 [X(C23H38Cl30)]\\@
 The archive entry for this job was punched.


 NOT WHAT WE DID SHALL BE THE TEST
 WHEN ACT AND WILL ARE DONE,
 BUT WHAT OUR LORD INFERS WE WOULD-
 HAD WE DIVINER BEEN.
           EMILY DICKINSON  POEMS NO. CLXXV
 Job cpu time:       0 days  0 hours  4 minutes 34.9 seconds.
 Elapsed time:       0 days  0 hours  0 minutes 11.1 seconds.
 File lengths (MBytes):  RWF=    104 Int=      0 D2E=      0 Chk=     34 Scr=      1
 Normal termination of Gaussian 16 at Fri Jul 12 22:51:52 2024.
