 Entering Gaussian System, Link 0=g16
 Input=JOBS/11_A.gjf
 Output=JOBS/11_A.log
 Initial command:
 /data/app/gaussian/C01-avx2//g16/l1.exe "/tmp/Gau-1777611.inp" -scrdir="/tmp/"
 Entering Link 1 = /data/app/gaussian/C01-avx2//g16/l1.exe PID=   1777612.
  
 Copyright (c) 1988-2019, Gaussian, Inc.  All Rights Reserved.
  
 This is part of the Gaussian(R) 16 program.  It is based on
 the Gaussian(R) 09 system (copyright 2009, Gaussian, Inc.),
 the Gaussian(R) 03 system (copyright 2003, Gaussian, Inc.),
 the Gaussian(R) 98 system (copyright 1998, Gaussian, Inc.),
 the Gaussian(R) 94 system (copyright 1995, Gaussian, Inc.),
 the Gaussian 92(TM) system (copyright 1992, Gaussian, Inc.),
 the Gaussian 90(TM) system (copyright 1990, Gaussian, Inc.),
 the Gaussian 88(TM) system (copyright 1988, Gaussian, Inc.),
 the Gaussian 86(TM) system (copyright 1986, Carnegie Mellon
 University), and the Gaussian 82(TM) system (copyright 1983,
 Carnegie Mellon University). Gaussian is a federally registered
 trademark of Gaussian, Inc.
  
 This software contains proprietary and confidential information,
 including trade secrets, belonging to Gaussian, Inc.
  
 This software is provided under written license and may be
 used, copied, transmitted, or stored only in accord with that
 written license.
  
 The following legend is applicable only to US Government
 contracts under FAR:
  
                    RESTRICTED RIGHTS LEGEND
  
 Use, reproduction and disclosure by the US Government is
 subject to restrictions as set forth in subparagraphs (a)
 and (c) of the Commercial Computer Software - Restricted
 Rights clause in FAR 52.227-19.
  
 Gaussian, Inc.
 340 Quinnipiac St., Bldg. 40, Wallingford CT 06492
  
  
 ---------------------------------------------------------------
 Warning -- This program may not be used in any manner that
 competes with the business of Gaussian, Inc. or will provide
 assistance to any competitor of Gaussian, Inc.  The licensee
 of this program is prohibited from giving any competitor of
 Gaussian, Inc. access to this program.  By using this program,
 the user acknowledges that Gaussian, Inc. is engaged in the
 business of creating and licensing software in the field of
 computational chemistry and represents and warrants to the
 licensee that it is not a competitor of Gaussian, Inc. and that
 it will not use this program in any manner prohibited above.
 ---------------------------------------------------------------
  

 Cite this work as:
 Gaussian 16, Revision C.01,
 M. J. Frisch, G. W. Trucks, H. B. Schlegel, G. E. Scuseria, 
 M. A. Robb, J. R. Cheeseman, G. Scalmani, V. Barone, 
 G. A. Petersson, H. Nakatsuji, X. Li, M. Caricato, A. V. Marenich, 
 J. Bloino, B. G. Janesko, R. Gomperts, B. Mennucci, H. P. Hratchian, 
 J. V. Ortiz, A. F. Izmaylov, J. L. Sonnenberg, D. Williams-Young, 
 F. Ding, F. Lipparini, F. Egidi, J. Goings, B. Peng, A. Petrone, 
 T. Henderson, D. Ranasinghe, V. G. Zakrzewski, J. Gao, N. Rega, 
 G. Zheng, W. Liang, M. Hada, M. Ehara, K. Toyota, R. Fukuda, 
 J. Hasegawa, M. Ishida, T. Nakajima, Y. Honda, O. Kitao, H. Nakai, 
 T. Vreven, K. Throssell, J. A. Montgomery, Jr., J. E. Peralta, 
 F. Ogliaro, M. J. Bearpark, J. J. Heyd, E. N. Brothers, K. N. Kudin, 
 V. N. Staroverov, T. A. Keith, R. Kobayashi, J. Normand, 
 K. Raghavachari, A. P. Rendell, J. C. Burant, S. S. Iyengar, 
 J. Tomasi, M. Cossi, J. M. Millam, M. Klene, C. Adamo, R. Cammi, 
 J. W. Ochterski, R. L. Martin, K. Morokuma, O. Farkas, 
 J. B. Foresman, and D. J. Fox, Gaussian, Inc., Wallingford CT, 2019.
 
 ******************************************
 Gaussian 16:  ES64L-G16RevC.01  3-Jul-2019
                12-Jul-2024 
 ******************************************
 %chk=a.chk
 %nprocshared=28
 Will use up to   28 processors via shared memory.
 %mem=48gb
 ----------------------------------------------------------------------
 # scf=(xqc,maxcycle=64) force guess=read oniom(td/b3lyp/em=gd3bj/6-31g
 (d):pm6) nosymm
 ----------------------------------------------------------------------
 1/10=7,30=1,38=1,52=2/1,3;
 2/12=2,15=1,17=6,18=5,40=1/2;
 1/10=7,30=1,38=1,52=2,53=3172/20;
 3/5=2,25=1,41=3900000,71=1,116=-2/1,2,3;
 4/5=1,35=1/1;
 5/5=2,7=64,8=3,13=1,35=1,38=6/2,8;
 6/7=2,8=2,9=2,10=2,28=1/1;
 7/7=1,30=1,33=-1/1,2,3,16;
 1/10=7,30=1,52=2,53=2032/20;
 3/5=1,6=6,7=1,11=9,25=1,30=1,71=1,74=-5,116=-2,124=41/1,2,3,8;
 4/5=1/1;
 5/5=2,7=64,8=3,13=1,38=6/2,8;
 8/6=1,10=2/1;
 9/15=2,42=1,70=2/14;
 10/5=4,31=1/2;
 6/7=2,8=2,9=2,10=2,18=1/1;
 7/7=1,12=6,13=5,30=1,33=-1/1,2,3,16;
 1/10=7,30=1,52=2,53=1022/20;
 3/5=2,25=1,41=3900000,71=1,116=-2/1,2,3;
 4/5=1,35=1/1;
 5/5=2,7=64,8=3,13=1,35=1,38=6/2,8;
 6/7=2,8=2,9=2,10=2,28=1/1;
 7/7=1,30=1,33=-1/1,2,3,16;
 1/10=7,30=1,52=2,53=3015/20;
 7/9=1,29=1,44=-1,126=2/16;
 1/10=7,30=1,52=2/3;
 99//99;
 ONIOM: restoring gridpoint  3 on chk file.
 ----------
 Title Card
 ----------
 Symbolic Z-matrix:
 Charge =  0 Multiplicity = 1 for low   level calculation on real  system.
 Charge =  0 Multiplicity = 1 for high  level calculation on model system.
 Charge =  0 Multiplicity = 1 for low   level calculation on model system.
 c                     0.55482  -0.17645  -0.17987  h 
 c                    -0.08382  -1.29453   0.41635  h 
 c                    -0.26648   0.88137  -0.64481  h 
 c                    -1.45613  -1.35644   0.53071  h 
 h                     0.53624  -2.1142    0.77427  h 
 c                     1.97653  -0.14628  -0.31016  h 
 c                    -1.64347   0.81674  -0.50913  h 
 h                     0.18603   1.75318  -1.11144  h 
 c                    -2.25246  -0.30214   0.06105  h 
 h                    -1.9197   -2.22442   0.99195  h 
 c                     2.68676   0.88776  -1.00501  h 
 h                     2.52017  -0.99952   0.10166  h 
 h                    -2.25555   1.64791  -0.85148  h 
 h                    -3.33493  -0.3564    0.13728  h 
 h                     3.61176   1.31971  -0.63195  h 
 h                     2.33302   1.28257  -1.95541  h 
 c                     4.97403   0.55629   1.99445  l 
 h                     5.25744   1.14648   1.09775  l 
 h                     3.97637   0.86033   2.37427  l 
 cl                    6.18508   0.77262   3.25633  l 
 cl                    4.93613  -1.16944   1.56977  l 
 c                     5.7295   -1.06849  -1.56068  l 
 h                     4.65169  -1.11317  -1.29462  l 
 h                     6.33616  -1.67541  -0.85755  l 
 cl                    6.28439   0.61506  -1.51319  l 
 cl                    5.96118  -1.65477  -3.21179  l 
 c                     2.10741   3.18458   1.54289  l 
 h                     1.82961   2.14675   1.25386  l 
 h                     1.35983   3.91069   1.15624  l 
 cl                    3.71143   3.57938   0.9001   l 
 cl                    2.21289   3.31199   3.30596  l 
 c                    -2.26106   0.81421   3.47574  l 
 h                    -1.88778  -0.23091   3.50584  l 
 h                    -2.19963   1.29447   4.47515  l 
 cl                   -3.94073   0.82442   2.91187  l 
 cl                   -1.29923   1.7388    2.31049  l 
 c                    -1.0506    4.56048   4.58206  l 
 h                    -0.3828    5.43568   4.70847  l 
 h                    -0.87966   4.07539   3.59755  l 
 cl                   -2.73564   5.06368   4.72017  l 
 cl                   -0.73518   3.3871    5.87904  l 
 c                     4.43393   1.08914  -4.44686  l 
 h                     3.87571   0.28026  -3.92849  l 
 h                     5.52828   0.91343  -4.37663  l 
 cl                    4.04071   2.65709  -3.71076  l 
 cl                    3.93712   1.17134  -6.14113  l 
 c                    -5.42492   1.97122  -0.38894  l 
 h                    -6.31943   1.40441  -0.06075  l 
 h                    -4.62413   1.93054   0.37973  l 
 cl                   -5.87424   3.6571   -0.68401  l 
 cl                   -4.82937   1.29028  -1.90939  l 
 c                    -1.59065   0.98097  -4.08586  l 
 h                    -1.91818   1.29802  -5.09725  l 
 h                    -2.14845   1.52625  -3.29311  l 
 cl                    0.1478    1.30107  -3.90726  l 
 cl                   -1.83303  -0.75984  -3.89693  l 
 c                    -1.4056    5.89335   0.76092  l 
 h                    -1.04282   6.11871  -0.26543  l 
 h                    -2.28833   6.5128    1.02245  l 
 cl                   -0.10165   6.2024    1.92264  l 
 cl                   -1.83102   4.17711   0.88884  l 
 c                     1.11014   0.33077   4.9408   l 
 h                     0.73433   1.32985   4.63285  l 
 h                     1.95535   0.42709   5.65166  l 
 cl                    1.63568  -0.57137   3.51377  l 
 cl                   -0.20086  -0.58171   5.70493  l 
 c                     1.06774  -2.17105  -3.02767  l 
 h                     0.18937  -2.76132  -3.35572  l 
 h                     0.75273  -1.16608  -2.6696   l 
 cl                    2.20692  -2.00345  -4.36938  l 
 cl                    1.90609  -3.03325  -1.7237   l 
 c                     1.87065   3.92726  -5.9544   l 
 h                     2.8409    3.8177   -6.48131  l 
 h                     1.7766    3.16069  -5.15822  l 
 cl                    1.76578   5.54781  -5.23769  l 
 cl                    0.53503   3.76705  -7.09714  l 
 c                    -1.52332   4.62071  -3.68373  l 
 h                    -0.54281   4.21542  -4.01134  l 
 h                    -1.52835   5.72941  -3.73278  l 
 cl                   -2.81371   3.97514  -4.7059   l 
 cl                   -1.85143   4.10644  -2.01538  l 
 c                     2.1577    5.96905  -1.6242   l 
 h                     2.77315   5.9286   -2.54641  l 
 h                     2.79734   5.93274  -0.71852  l 
 cl                    1.18637   7.44557  -1.61938  l 
 cl                    1.02368   4.6033   -1.60892  l 
 c                    -4.37742   6.87725  -1.68651  l 
 h                    -5.34941   6.93513  -2.21637  l 
 h                    -4.07468   5.81861  -1.53675  l 
 cl                   -3.14274   7.72812  -2.62699  l 
 cl                   -4.50922   7.68771  -0.12024  l 
 

 GradGradGradGradGradGradGradGradGradGradGradGradGradGradGradGradGradGrad
 Berny optimization.
 Initialization pass.
 Trust Radius=3.00D-01 FncErr=1.00D-07 GrdErr=1.00D-07 EigMax=2.50D+02 EigMin=1.00D-04
 Number of steps in this run=      2 maximum allowed number of steps=      2.
 GradGradGradGradGradGradGradGradGradGradGradGradGradGradGradGradGradGrad

 Symmetry turned off by external request.
 Stoichiometry    C23H38Cl30
 Framework group  C1[X(C23H38Cl30)]
 Deg. of freedom   267
 Full point group                 C1      NOp   1
                          Input orientation:                          
 ---------------------------------------------------------------------
 Center     Atomic      Atomic             Coordinates (Angstroms)
 Number     Number       Type             X           Y           Z
 ---------------------------------------------------------------------
      1          6           0        0.554824   -0.176451   -0.179872
      2          6           0       -0.083821   -1.294531    0.416350
      3          6           0       -0.266475    0.881372   -0.644806
      4          6           0       -1.456135   -1.356435    0.530707
      5          1           0        0.536238   -2.114198    0.774272
      6          6           0        1.976532   -0.146284   -0.310164
      7          6           0       -1.643473    0.816741   -0.509126
      8          1           0        0.186031    1.753177   -1.111444
      9          6           0       -2.252461   -0.302143    0.061049
     10          1           0       -1.919704   -2.224423    0.991951
     11          6           0        2.686758    0.887762   -1.005009
     12          1           0        2.520171   -0.999523    0.101660
     13          1           0       -2.255550    1.647914   -0.851482
     14          1           0       -3.334928   -0.356400    0.137277
     15          1           0        3.611756    1.319713   -0.631953
     16          1           0        2.333024    1.282568   -1.955410
     17          6           0        4.974032    0.556288    1.994452
     18          1           0        5.257444    1.146484    1.097747
     19          1           0        3.976370    0.860334    2.374273
     20         17           0        6.185083    0.772621    3.256332
     21         17           0        4.936131   -1.169437    1.569769
     22          6           0        5.729496   -1.068486   -1.560682
     23          1           0        4.651686   -1.113172   -1.294623
     24          1           0        6.336162   -1.675407   -0.857555
     25         17           0        6.284386    0.615057   -1.513193
     26         17           0        5.961181   -1.654770   -3.211792
     27          6           0        2.107409    3.184578    1.542888
     28          1           0        1.829608    2.146750    1.253862
     29          1           0        1.359827    3.910690    1.156239
     30         17           0        3.711427    3.579378    0.900095
     31         17           0        2.212892    3.311992    3.305958
     32          6           0       -2.261060    0.814213    3.475745
     33          1           0       -1.887780   -0.230911    3.505840
     34          1           0       -2.199629    1.294466    4.475151
     35         17           0       -3.940726    0.824417    2.911869
     36         17           0       -1.299232    1.738802    2.310487
     37          6           0       -1.050598    4.560482    4.582063
     38          1           0       -0.382801    5.435679    4.708473
     39          1           0       -0.879662    4.075388    3.597553
     40         17           0       -2.735644    5.063683    4.720166
     41         17           0       -0.735184    3.387104    5.879038
     42          6           0        4.433931    1.089137   -4.446862
     43          1           0        3.875713    0.280264   -3.928490
     44          1           0        5.528279    0.913426   -4.376626
     45         17           0        4.040713    2.657087   -3.710756
     46         17           0        3.937124    1.171340   -6.141128
     47          6           0       -5.424922    1.971220   -0.388940
     48          1           0       -6.319432    1.404411   -0.060746
     49          1           0       -4.624132    1.930538    0.379726
     50         17           0       -5.874243    3.657103   -0.684008
     51         17           0       -4.829373    1.290283   -1.909391
     52          6           0       -1.590653    0.980971   -4.085861
     53          1           0       -1.918179    1.298021   -5.097254
     54          1           0       -2.148446    1.526250   -3.293106
     55         17           0        0.147798    1.301067   -3.907261
     56         17           0       -1.833032   -0.759840   -3.896934
     57          6           0       -1.405597    5.893346    0.760919
     58          1           0       -1.042817    6.118708   -0.265434
     59          1           0       -2.288331    6.512797    1.022452
     60         17           0       -0.101654    6.202396    1.922645
     61         17           0       -1.831015    4.177113    0.888844
     62          6           0        1.110136    0.330773    4.940800
     63          1           0        0.734332    1.329854    4.632852
     64          1           0        1.955351    0.427093    5.651656
     65         17           0        1.635681   -0.571375    3.513774
     66         17           0       -0.200863   -0.581706    5.704926
     67          6           0        1.067739   -2.171054   -3.027669
     68          1           0        0.189370   -2.761316   -3.355724
     69          1           0        0.752732   -1.166079   -2.669602
     70         17           0        2.206922   -2.003452   -4.369379
     71         17           0        1.906090   -3.033250   -1.723702
     72          6           0        1.870649    3.927257   -5.954399
     73          1           0        2.840903    3.817704   -6.481314
     74          1           0        1.776597    3.160687   -5.158219
     75         17           0        1.765783    5.547807   -5.237687
     76         17           0        0.535026    3.767052   -7.097140
     77          6           0       -1.523321    4.620712   -3.683731
     78          1           0       -0.542811    4.215418   -4.011337
     79          1           0       -1.528346    5.729406   -3.732781
     80         17           0       -2.813711    3.975137   -4.705897
     81         17           0       -1.851431    4.106441   -2.015384
     82          6           0        2.157703    5.969054   -1.624198
     83          1           0        2.773147    5.928600   -2.546413
     84          1           0        2.797339    5.932739   -0.718524
     85         17           0        1.186368    7.445572   -1.619384
     86         17           0        1.023685    4.603303   -1.608915
     87          6           0       -4.377424    6.877245   -1.686510
     88          1           0       -5.349409    6.935130   -2.216373
     89          1           0       -4.074679    5.818610   -1.536754
     90         17           0       -3.142736    7.728116   -2.626992
     91         17           0       -4.509224    7.687708   -0.120235
 ---------------------------------------------------------------------
 Rotational constants (GHZ):           0.0225955           0.0200314           0.0153237
 ONIOM: saving gridpoint 17
 ONIOM: restoring gridpoint  3 on chk file.
 ONIOM: generating point  3 -- low level on real system.
 Standard basis: VSTO-6G (5D, 7F)
   400 basis functions,  2580 primitive gaussians,   430 cartesian basis functions
   170 alpha electrons      170 beta electrons
       nuclear repulsion energy      5298.4323829763 Hartrees.
 Integral buffers will be    131072 words long.
 Regular integral format.
 Two-electron integral symmetry is turned off.
 Do NDO integrals.
 One-electron integrals computed using PRISM.
 NBasis=   400 RedAO= F EigKep=  0.00D+00  NBF=   400
 NBsUse=   400 1.00D-04 EigRej=  0.00D+00 NBFU=   400
 Initial guess from the checkpoint file:  "a.chk"
 B after Tr=    -0.000134   -0.000162   -0.000112
         Rot=    1.000000   -0.000011    0.000004   -0.000009 Ang=  -0.00 deg.
 Initial guess <Sx>= 0.0000 <Sy>= 0.0000 <Sz>= 0.0000 <S**2>=-0.0000 S=-0.0000
 Keep J ints in memory in canonical form, NReq=3161508.
 Overlap will be assumed to be unity.
 Requested convergence on RMS density matrix=1.00D-08 within  64 cycles.
 Requested convergence on MAX density matrix=1.00D-06.
 Requested convergence on             energy=1.00D-06.
 No special actions if energy rises.
 SCF Done:  E(UPM6) = -0.404737601611     A.U. after   11 cycles
            NFock= 10  Conv=0.65D-08     -V/T= 0.9994
 <Sx>= 0.0000 <Sy>= 0.0000 <Sz>= 0.0000 <S**2>=-0.0000 S=-0.0000
 <L.S>=  0.00000000000    
 Annihilation of the first spin contaminant:
 S**2 before annihilation    -0.0000,   after     0.0000
 QCSCF skips out because SCF is already converged.

 **********************************************************************

            Population analysis using the SCF Density.

 **********************************************************************

 Alpha  occ. eigenvalues --   -1.11283  -1.05644  -1.05335  -1.05286  -1.05191
 Alpha  occ. eigenvalues --   -1.05144  -1.05126  -1.04942  -1.04883  -1.04792
 Alpha  occ. eigenvalues --   -1.04750  -1.04712  -1.04481  -1.04456  -1.04348
 Alpha  occ. eigenvalues --   -1.04111  -1.01818  -0.98616  -0.98299  -0.98225
 Alpha  occ. eigenvalues --   -0.98159  -0.98112  -0.97969  -0.97951  -0.97797
 Alpha  occ. eigenvalues --   -0.97773  -0.97753  -0.97631  -0.97411  -0.97339
 Alpha  occ. eigenvalues --   -0.97264  -0.97248  -0.97004  -0.92345  -0.88791
 Alpha  occ. eigenvalues --   -0.88707  -0.88586  -0.88407  -0.88364  -0.88254
 Alpha  occ. eigenvalues --   -0.88222  -0.88129  -0.88089  -0.88015  -0.87888
 Alpha  occ. eigenvalues --   -0.87655  -0.87562  -0.87515  -0.87214  -0.82661
 Alpha  occ. eigenvalues --   -0.79225  -0.72970  -0.65440  -0.62723  -0.62381
 Alpha  occ. eigenvalues --   -0.62118  -0.61861  -0.61645  -0.61546  -0.61490
 Alpha  occ. eigenvalues --   -0.61311  -0.61254  -0.61165  -0.61059  -0.60909
 Alpha  occ. eigenvalues --   -0.60383  -0.60309  -0.60128  -0.60053  -0.60012
 Alpha  occ. eigenvalues --   -0.59777  -0.59616  -0.59536  -0.59464  -0.59373
 Alpha  occ. eigenvalues --   -0.59272  -0.59203  -0.59111  -0.58997  -0.58940
 Alpha  occ. eigenvalues --   -0.58743  -0.58605  -0.58576  -0.58485  -0.58335
 Alpha  occ. eigenvalues --   -0.58278  -0.58076  -0.57802  -0.57731  -0.57710
 Alpha  occ. eigenvalues --   -0.57677  -0.57585  -0.57524  -0.57508  -0.57431
 Alpha  occ. eigenvalues --   -0.57232  -0.57106  -0.57071  -0.56887  -0.56786
 Alpha  occ. eigenvalues --   -0.55185  -0.53417  -0.52346  -0.51060  -0.49677
 Alpha  occ. eigenvalues --   -0.46204  -0.45284  -0.45097  -0.44811  -0.44277
 Alpha  occ. eigenvalues --   -0.44250  -0.44114  -0.43993  -0.43937  -0.43860
 Alpha  occ. eigenvalues --   -0.43761  -0.43706  -0.43586  -0.43496  -0.43460
 Alpha  occ. eigenvalues --   -0.43424  -0.43418  -0.43392  -0.43315  -0.43289
 Alpha  occ. eigenvalues --   -0.43225  -0.43151  -0.43124  -0.43046  -0.42972
 Alpha  occ. eigenvalues --   -0.42907  -0.42863  -0.42804  -0.42761  -0.42627
 Alpha  occ. eigenvalues --   -0.42586  -0.42476  -0.42419  -0.42341  -0.42129
 Alpha  occ. eigenvalues --   -0.42019  -0.41918  -0.41906  -0.41794  -0.41789
 Alpha  occ. eigenvalues --   -0.41708  -0.41686  -0.41623  -0.41611  -0.41481
 Alpha  occ. eigenvalues --   -0.41365  -0.41301  -0.41289  -0.41238  -0.41203
 Alpha  occ. eigenvalues --   -0.41163  -0.41136  -0.41049  -0.41040  -0.40910
 Alpha  occ. eigenvalues --   -0.40864  -0.40764  -0.40599  -0.40586  -0.40512
 Alpha  occ. eigenvalues --   -0.40371  -0.40325  -0.39592  -0.36948  -0.32903
 Alpha virt. eigenvalues --   -0.03656  -0.01321  -0.00987  -0.00954  -0.00893
 Alpha virt. eigenvalues --   -0.00666  -0.00644  -0.00591  -0.00551  -0.00488
 Alpha virt. eigenvalues --   -0.00454  -0.00442  -0.00393  -0.00363  -0.00276
 Alpha virt. eigenvalues --   -0.00255  -0.00235  -0.00224  -0.00204  -0.00194
 Alpha virt. eigenvalues --   -0.00154  -0.00134  -0.00052  -0.00014   0.00044
 Alpha virt. eigenvalues --    0.00340   0.00388   0.00464   0.00493   0.00498
 Alpha virt. eigenvalues --    0.00598   0.00696   0.02610   0.08901   0.14215
 Alpha virt. eigenvalues --    0.14246   0.14428   0.14547   0.14697   0.14766
 Alpha virt. eigenvalues --    0.14873   0.14966   0.14977   0.15031   0.15062
 Alpha virt. eigenvalues --    0.15125   0.15156   0.15160   0.15246   0.15355
 Alpha virt. eigenvalues --    0.15410   0.15439   0.15495   0.15568   0.15618
 Alpha virt. eigenvalues --    0.15734   0.15790   0.15858   0.15914   0.15931
 Alpha virt. eigenvalues --    0.15962   0.15981   0.16094   0.16344   0.16402
 Alpha virt. eigenvalues --    0.16416   0.16715   0.17006   0.17225   0.17962
 Alpha virt. eigenvalues --    0.18564   0.19297   0.19811   0.20394   0.21096
 Alpha virt. eigenvalues --    0.21283   0.21602   0.21806   0.22177   0.22291
 Alpha virt. eigenvalues --    3.16395   3.16814   3.17314   3.17938   3.18102
 Alpha virt. eigenvalues --    3.18343   3.18620   3.18721   3.18966   3.19078
 Alpha virt. eigenvalues --    3.19094   3.19260   3.19322   3.19534   3.19629
 Alpha virt. eigenvalues --    3.19635   3.19699   3.19833   3.19902   3.19989
 Alpha virt. eigenvalues --    3.20016   3.20178   3.20269   3.20301   3.20427
 Alpha virt. eigenvalues --    3.20468   3.20535   3.20548   3.20622   3.20658
 Alpha virt. eigenvalues --    3.20694   3.20827   3.20868   3.20963   3.21003
 Alpha virt. eigenvalues --    3.21057   3.21097   3.21158   3.21174   3.21229
 Alpha virt. eigenvalues --    3.21402   3.21444   3.21557   3.21714   3.21830
 Alpha virt. eigenvalues --    3.21966   3.22059   3.22131   3.22161   3.22303
 Alpha virt. eigenvalues --    3.22439   3.22493   3.22524   3.22584   3.22730
 Alpha virt. eigenvalues --    3.22781   3.22938   3.22985   3.23130   3.23161
 Alpha virt. eigenvalues --    3.23186   3.23284   3.23367   3.23413   3.23477
 Alpha virt. eigenvalues --    3.23496   3.23570   3.23646   3.23738   3.23788
 Alpha virt. eigenvalues --    3.23850   3.23941   3.23963   3.23996   3.24088
 Alpha virt. eigenvalues --    3.24130   3.24150   3.24229   3.24271   3.24308
 Alpha virt. eigenvalues --    3.24369   3.24475   3.24482   3.24536   3.24636
 Alpha virt. eigenvalues --    3.24663   3.24718   3.24802   3.24850   3.24931
 Alpha virt. eigenvalues --    3.24953   3.25022   3.25056   3.25076   3.25097
 Alpha virt. eigenvalues --    3.25139   3.25298   3.25375   3.25453   3.25514
 Alpha virt. eigenvalues --    3.25534   3.25674   3.25728   3.25754   3.25849
 Alpha virt. eigenvalues --    3.25876   3.25922   3.25990   3.26100   3.26214
 Alpha virt. eigenvalues --    3.26274   3.26321   3.26415   3.26451   3.26784
 Alpha virt. eigenvalues --    3.26839   3.26904   3.26989   3.27023   3.27156
 Alpha virt. eigenvalues --    3.27231   3.27330   3.27377   3.27395   3.27463
 Alpha virt. eigenvalues --    3.27535   3.27630   3.27732   3.27751   3.27833
 Alpha virt. eigenvalues --    3.27852   3.27950   3.28144   3.28158   3.28201
 Alpha virt. eigenvalues --    3.28281   3.28378   3.28466   3.28543   3.28579
 Alpha virt. eigenvalues --    3.28636   3.28672   3.28725   3.28821   3.28913
 Alpha virt. eigenvalues --    3.29123   3.29250   3.29341   3.29701   3.29962
  Beta  occ. eigenvalues --   -1.11283  -1.05644  -1.05335  -1.05286  -1.05191
  Beta  occ. eigenvalues --   -1.05144  -1.05126  -1.04942  -1.04883  -1.04792
  Beta  occ. eigenvalues --   -1.04750  -1.04712  -1.04481  -1.04456  -1.04348
  Beta  occ. eigenvalues --   -1.04111  -1.01818  -0.98616  -0.98299  -0.98225
  Beta  occ. eigenvalues --   -0.98159  -0.98112  -0.97969  -0.97951  -0.97797
  Beta  occ. eigenvalues --   -0.97773  -0.97753  -0.97631  -0.97411  -0.97339
  Beta  occ. eigenvalues --   -0.97264  -0.97248  -0.97004  -0.92345  -0.88791
  Beta  occ. eigenvalues --   -0.88707  -0.88586  -0.88407  -0.88364  -0.88254
  Beta  occ. eigenvalues --   -0.88222  -0.88129  -0.88089  -0.88015  -0.87888
  Beta  occ. eigenvalues --   -0.87655  -0.87562  -0.87515  -0.87214  -0.82661
  Beta  occ. eigenvalues --   -0.79225  -0.72970  -0.65440  -0.62723  -0.62381
  Beta  occ. eigenvalues --   -0.62118  -0.61861  -0.61645  -0.61546  -0.61490
  Beta  occ. eigenvalues --   -0.61311  -0.61254  -0.61165  -0.61059  -0.60909
  Beta  occ. eigenvalues --   -0.60383  -0.60309  -0.60128  -0.60053  -0.60012
  Beta  occ. eigenvalues --   -0.59777  -0.59616  -0.59536  -0.59464  -0.59373
  Beta  occ. eigenvalues --   -0.59272  -0.59203  -0.59111  -0.58997  -0.58940
  Beta  occ. eigenvalues --   -0.58743  -0.58605  -0.58576  -0.58485  -0.58335
  Beta  occ. eigenvalues --   -0.58278  -0.58076  -0.57802  -0.57731  -0.57710
  Beta  occ. eigenvalues --   -0.57677  -0.57585  -0.57524  -0.57508  -0.57431
  Beta  occ. eigenvalues --   -0.57232  -0.57106  -0.57071  -0.56887  -0.56786
  Beta  occ. eigenvalues --   -0.55185  -0.53417  -0.52346  -0.51060  -0.49677
  Beta  occ. eigenvalues --   -0.46204  -0.45284  -0.45097  -0.44811  -0.44277
  Beta  occ. eigenvalues --   -0.44250  -0.44114  -0.43993  -0.43937  -0.43860
  Beta  occ. eigenvalues --   -0.43761  -0.43706  -0.43586  -0.43496  -0.43460
  Beta  occ. eigenvalues --   -0.43424  -0.43418  -0.43392  -0.43315  -0.43289
  Beta  occ. eigenvalues --   -0.43225  -0.43151  -0.43124  -0.43046  -0.42972
  Beta  occ. eigenvalues --   -0.42907  -0.42863  -0.42804  -0.42761  -0.42627
  Beta  occ. eigenvalues --   -0.42586  -0.42476  -0.42419  -0.42341  -0.42129
  Beta  occ. eigenvalues --   -0.42019  -0.41918  -0.41906  -0.41794  -0.41789
  Beta  occ. eigenvalues --   -0.41708  -0.41686  -0.41623  -0.41611  -0.41481
  Beta  occ. eigenvalues --   -0.41365  -0.41301  -0.41289  -0.41238  -0.41203
  Beta  occ. eigenvalues --   -0.41163  -0.41136  -0.41049  -0.41040  -0.40910
  Beta  occ. eigenvalues --   -0.40864  -0.40764  -0.40599  -0.40586  -0.40512
  Beta  occ. eigenvalues --   -0.40371  -0.40325  -0.39592  -0.36948  -0.32903
  Beta virt. eigenvalues --   -0.03656  -0.01321  -0.00987  -0.00954  -0.00893
  Beta virt. eigenvalues --   -0.00666  -0.00644  -0.00591  -0.00551  -0.00488
  Beta virt. eigenvalues --   -0.00454  -0.00442  -0.00393  -0.00363  -0.00276
  Beta virt. eigenvalues --   -0.00255  -0.00235  -0.00224  -0.00204  -0.00194
  Beta virt. eigenvalues --   -0.00154  -0.00134  -0.00052  -0.00014   0.00044
  Beta virt. eigenvalues --    0.00340   0.00388   0.00464   0.00493   0.00498
  Beta virt. eigenvalues --    0.00598   0.00696   0.02610   0.08901   0.14215
  Beta virt. eigenvalues --    0.14246   0.14428   0.14547   0.14697   0.14766
  Beta virt. eigenvalues --    0.14873   0.14966   0.14977   0.15031   0.15062
  Beta virt. eigenvalues --    0.15125   0.15156   0.15160   0.15246   0.15355
  Beta virt. eigenvalues --    0.15410   0.15439   0.15495   0.15568   0.15618
  Beta virt. eigenvalues --    0.15734   0.15790   0.15858   0.15914   0.15931
  Beta virt. eigenvalues --    0.15962   0.15981   0.16094   0.16344   0.16402
  Beta virt. eigenvalues --    0.16416   0.16715   0.17006   0.17225   0.17962
  Beta virt. eigenvalues --    0.18564   0.19297   0.19811   0.20394   0.21096
  Beta virt. eigenvalues --    0.21283   0.21602   0.21806   0.22177   0.22291
  Beta virt. eigenvalues --    3.16395   3.16814   3.17314   3.17938   3.18102
  Beta virt. eigenvalues --    3.18343   3.18620   3.18721   3.18966   3.19078
  Beta virt. eigenvalues --    3.19094   3.19260   3.19322   3.19534   3.19629
  Beta virt. eigenvalues --    3.19635   3.19699   3.19833   3.19902   3.19989
  Beta virt. eigenvalues --    3.20016   3.20178   3.20269   3.20301   3.20427
  Beta virt. eigenvalues --    3.20468   3.20535   3.20548   3.20622   3.20658
  Beta virt. eigenvalues --    3.20694   3.20827   3.20868   3.20963   3.21003
  Beta virt. eigenvalues --    3.21057   3.21097   3.21158   3.21174   3.21229
  Beta virt. eigenvalues --    3.21402   3.21444   3.21557   3.21714   3.21830
  Beta virt. eigenvalues --    3.21966   3.22059   3.22131   3.22161   3.22303
  Beta virt. eigenvalues --    3.22439   3.22493   3.22524   3.22584   3.22730
  Beta virt. eigenvalues --    3.22781   3.22938   3.22985   3.23130   3.23161
  Beta virt. eigenvalues --    3.23186   3.23284   3.23367   3.23413   3.23477
  Beta virt. eigenvalues --    3.23496   3.23570   3.23646   3.23738   3.23788
  Beta virt. eigenvalues --    3.23850   3.23941   3.23963   3.23996   3.24088
  Beta virt. eigenvalues --    3.24130   3.24150   3.24229   3.24271   3.24308
  Beta virt. eigenvalues --    3.24369   3.24475   3.24482   3.24536   3.24636
  Beta virt. eigenvalues --    3.24663   3.24718   3.24802   3.24850   3.24931
  Beta virt. eigenvalues --    3.24953   3.25022   3.25056   3.25076   3.25097
  Beta virt. eigenvalues --    3.25139   3.25298   3.25375   3.25453   3.25514
  Beta virt. eigenvalues --    3.25534   3.25674   3.25728   3.25754   3.25849
  Beta virt. eigenvalues --    3.25876   3.25922   3.25990   3.26100   3.26214
  Beta virt. eigenvalues --    3.26274   3.26321   3.26415   3.26451   3.26784
  Beta virt. eigenvalues --    3.26839   3.26904   3.26989   3.27023   3.27156
  Beta virt. eigenvalues --    3.27231   3.27330   3.27377   3.27395   3.27463
  Beta virt. eigenvalues --    3.27535   3.27630   3.27732   3.27751   3.27833
  Beta virt. eigenvalues --    3.27852   3.27950   3.28144   3.28158   3.28201
  Beta virt. eigenvalues --    3.28281   3.28378   3.28466   3.28543   3.28579
  Beta virt. eigenvalues --    3.28636   3.28672   3.28725   3.28821   3.28913
  Beta virt. eigenvalues --    3.29123   3.29250   3.29341   3.29701   3.29962
          Condensed to atoms (all electrons):
          Atomic-Atomic Spin Densities.
 Mulliken charges and spin densities:
               1          2
     1  C   -0.015997   0.000000
     2  C   -0.142040   0.000000
     3  C   -0.149211   0.000000
     4  C   -0.156439   0.000000
     5  H    0.153376   0.000000
     6  C   -0.126401   0.000000
     7  C   -0.151854   0.000000
     8  H    0.155189   0.000000
     9  C   -0.117572   0.000000
    10  H    0.149317   0.000000
    11  C   -0.369266   0.000000
    12  H    0.157079   0.000000
    13  H    0.150612   0.000000
    14  H    0.145643   0.000000
    15  H    0.158717   0.000000
    16  H    0.161716   0.000000
    17  C   -0.139085   0.000000
    18  H    0.187887   0.000000
    19  H    0.186141   0.000000
    20  Cl  -0.095012   0.000000
    21  Cl  -0.140429   0.000000
    22  C   -0.144397   0.000000
    23  H    0.192867   0.000000
    24  H    0.191559   0.000000
    25  Cl  -0.127752   0.000000
    26  Cl  -0.111617   0.000000
    27  C   -0.143615   0.000000
    28  H    0.198319   0.000000
    29  H    0.196889   0.000000
    30  Cl  -0.126299   0.000000
    31  Cl  -0.126058   0.000000
    32  C   -0.129120   0.000000
    33  H    0.192389   0.000000
    34  H    0.191981   0.000000
    35  Cl  -0.129913   0.000000
    36  Cl  -0.123532   0.000000
    37  C   -0.137620   0.000000
    38  H    0.184831   0.000000
    39  H    0.194138   0.000000
    40  Cl  -0.100883   0.000000
    41  Cl  -0.142121   0.000000
    42  C   -0.133030   0.000000
    43  H    0.194002   0.000000
    44  H    0.195206   0.000000
    45  Cl  -0.141520   0.000000
    46  Cl  -0.114564   0.000000
    47  C   -0.141859   0.000000
    48  H    0.183113   0.000000
    49  H    0.191453   0.000000
    50  Cl  -0.117457   0.000000
    51  Cl  -0.114987   0.000000
    52  C   -0.127091   0.000000
    53  H    0.190337   0.000000
    54  H    0.195684   0.000000
    55  Cl  -0.142027   0.000000
    56  Cl  -0.116645   0.000000
    57  C   -0.139108   0.000000
    58  H    0.198844   0.000000
    59  H    0.193869   0.000000
    60  Cl  -0.134595   0.000000
    61  Cl  -0.113483   0.000000
    62  C   -0.145614   0.000000
    63  H    0.191116   0.000000
    64  H    0.186455   0.000000
    65  Cl  -0.112337   0.000000
    66  Cl  -0.120256   0.000000
    67  C   -0.132926   0.000000
    68  H    0.183992   0.000000
    69  H    0.198481   0.000000
    70  Cl  -0.116817   0.000000
    71  Cl  -0.133599   0.000000
    72  C   -0.139008   0.000000
    73  H    0.191479   0.000000
    74  H    0.189607   0.000000
    75  Cl  -0.137071   0.000000
    76  Cl  -0.106364   0.000000
    77  C   -0.143145   0.000000
    78  H    0.193013   0.000000
    79  H    0.193992   0.000000
    80  Cl  -0.119642   0.000000
    81  Cl  -0.127281   0.000000
    82  C   -0.143698   0.000000
    83  H    0.188965   0.000000
    84  H    0.188298   0.000000
    85  Cl  -0.106747   0.000000
    86  Cl  -0.130631   0.000000
    87  C   -0.149288   0.000000
    88  H    0.186220   0.000000
    89  H    0.193237   0.000000
    90  Cl  -0.116889   0.000000
    91  Cl  -0.112101   0.000000
 Sum of Mulliken charges =  -0.00000   0.00000
 Mulliken charges and spin densities with hydrogens summed into heavy atoms:
               1          2
     1  C   -0.015997   0.000000
     2  C    0.011336   0.000000
     3  C    0.005978   0.000000
     4  C   -0.007122   0.000000
     6  C    0.030677   0.000000
     7  C   -0.001242   0.000000
     9  C    0.028072   0.000000
    11  C   -0.048833   0.000000
    17  C    0.234943   0.000000
    20  Cl  -0.095012   0.000000
    21  Cl  -0.140429   0.000000
    22  C    0.240029   0.000000
    25  Cl  -0.127752   0.000000
    26  Cl  -0.111617   0.000000
    27  C    0.251592   0.000000
    30  Cl  -0.126299   0.000000
    31  Cl  -0.126058   0.000000
    32  C    0.255249   0.000000
    35  Cl  -0.129913   0.000000
    36  Cl  -0.123532   0.000000
    37  C    0.241349   0.000000
    40  Cl  -0.100883   0.000000
    41  Cl  -0.142121   0.000000
    42  C    0.256178   0.000000
    45  Cl  -0.141520   0.000000
    46  Cl  -0.114564   0.000000
    47  C    0.232707   0.000000
    50  Cl  -0.117457   0.000000
    51  Cl  -0.114987   0.000000
    52  C    0.258929   0.000000
    55  Cl  -0.142027   0.000000
    56  Cl  -0.116645   0.000000
    57  C    0.253605   0.000000
    60  Cl  -0.134595   0.000000
    61  Cl  -0.113483   0.000000
    62  C    0.231957   0.000000
    65  Cl  -0.112337   0.000000
    66  Cl  -0.120256   0.000000
    67  C    0.249547   0.000000
    70  Cl  -0.116817   0.000000
    71  Cl  -0.133599   0.000000
    72  C    0.242078   0.000000
    75  Cl  -0.137071   0.000000
    76  Cl  -0.106364   0.000000
    77  C    0.243860   0.000000
    80  Cl  -0.119642   0.000000
    81  Cl  -0.127281   0.000000
    82  C    0.233564   0.000000
    85  Cl  -0.106747   0.000000
    86  Cl  -0.130631   0.000000
    87  C    0.230170   0.000000
    90  Cl  -0.116889   0.000000
    91  Cl  -0.112101   0.000000
 Charge=              0.0000 electrons
 Dipole moment (field-independent basis, Debye):
    X=             -0.8883    Y=             -0.1755    Z=              0.4924  Tot=              1.0307
 N-N= 5.298432382976D+03 E-N=-9.742019727339D+03  KE=-6.384513649469D+02
 Calling FoFJK, ICntrl=      2127 FMM=F ISym2X=0 I1Cent= 0 IOpClX= 1 NMat=1 NMatS=1 NMatT=0.
 Cartesian Forces:  Max     0.062067606 RMS     0.008380210
 SvSCFP is copying densities from files   528 and   530 to   603.
 ONIOM: saving gridpoint  3
 ONIOM: restoring gridpoint 17
 ONIOM: restoring gridpoint  2 on chk file.
 ONIOM: generating point  2 -- high level on model system.
 Standard basis: 6-31G(d) (6D, 7F)
   136 basis functions,   256 primitive gaussians,   136 cartesian basis functions
    28 alpha electrons       28 beta electrons
       nuclear repulsion energy       319.2470077251 Hartrees.
 NAtoms=   91 NActive=   16 NUniq=   16 SFac= 1.00D+00 NAtFMM=   60 NAOKFM=F Big=F
 Integral buffers will be    131072 words long.
 Regular integral format.
 Two-electron integral symmetry is turned off.
 Nuclear repulsion after empirical dispersion term =      319.2193725327 Hartrees.
 One-electron integrals computed using PRISM.
 NBasis=   136 RedAO= T EigKep=  4.71D-04  NBF=   136
 NBsUse=   136 1.00D-06 EigRej= -1.00D+00 NBFU=   136
 Initial guess from the checkpoint file:  "a.chk"
 B after Tr=     0.000768    0.000164    0.001354
         Rot=    1.000000   -0.000146   -0.000200    0.000093 Ang=  -0.03 deg.
 Initial guess <Sx>= 0.0000 <Sy>= 0.0000 <Sz>= 0.0000 <S**2>=-0.0000 S=-0.0000
 Requested convergence on RMS density matrix=1.00D-08 within  64 cycles.
 Requested convergence on MAX density matrix=1.00D-06.
 Requested convergence on             energy=1.00D-06.
 No special actions if energy rises.
 SCF Done:  E(UB3LYP) =  -309.636102980     A.U. after    9 cycles
            NFock=  9  Conv=0.41D-08     -V/T= 2.0104
 <Sx>= 0.0000 <Sy>= 0.0000 <Sz>= 0.0000 <S**2>=-0.0000 S=-0.0000
 <L.S>=  0.00000000000    
 Annihilation of the first spin contaminant:
 S**2 before annihilation    -0.0000,   after     0.0000
 QCSCF skips out because SCF is already converged.
 DoSCS=F DFT=T ScalE2(SS,OS)=  1.000000  1.000000
 ExpMin= 1.61D-01 ExpMax= 3.05D+03 ExpMxC= 4.57D+02 IAcc=3 IRadAn=         5 AccDes= 0.00D+00
 HarFok:  IExCor=  205 AccDes= 0.00D+00 IRadAn=         5 IDoV=-2 UseB2=F ITyADJ=14
 ICtDFT= 12500011 ScaDFX=  1.000000  1.000000  1.000000  1.000000
 Range of M.O.s used for correlation:     9   136
 NBasis=   136 NAE=    28 NBE=    28 NFC=     8 NFV=     0
 NROrb=    128 NOA=    20 NOB=    20 NVA=   108 NVB=   108
 Keep R1, R2, and R3 ints in memory in canonical form, NReq=183338682.
    12 initial guesses have been made.
 Convergence on wavefunction:    0.000001000000000
 Iteration     1 Dimension    12 NMult     0 NNew     12
 CISAX will form    12 AO SS matrices at one time.
 New state      1 was old state      2
 New state      2 was old state      3
 New state      3 was old state      7
 Iteration     2 Dimension    18 NMult    12 NNew      6
 New state      2 was old state      3
 New state      3 was old state      2
 Iteration     3 Dimension    24 NMult    18 NNew      6
 Iteration     4 Dimension    30 NMult    24 NNew      6
 Iteration     5 Dimension    36 NMult    30 NNew      6
 Iteration     6 Dimension    42 NMult    36 NNew      6
 Iteration     7 Dimension    48 NMult    42 NNew      6
 Iteration     8 Dimension    54 NMult    48 NNew      6
 Iteration     9 Dimension    58 NMult    54 NNew      4
 ***********************************************************************
 Excited states from <AA,BB:AA,BB> singles matrix:
 ***********************************************************************
 
 ExtSpn:  IState=     1 X2= 1.369 Y2= 0.369 X2-Y2-1= 4.44D-16
          S2Grnd= -0.000 Ra=  0.500 Rb=  0.500 T=  1.000 S2Ext=  2.000 S2=  2.000
 ExtSpn:  IState=     2 X2= 1.027 Y2= 0.027 X2-Y2-1= 6.66D-16
          S2Grnd= -0.000 Ra=  0.500 Rb=  0.500 T=  1.000 S2Ext=  2.000 S2=  2.000
 ExtSpn:  IState=     3 X2= 1.007 Y2= 0.007 X2-Y2-1= 6.66D-16
          S2Grnd= -0.000 Ra=  0.500 Rb=  0.500 T=  1.000 S2Ext=  2.000 S2=  2.000
 Ground to excited state transition densities written to RWF  633
 Ground to excited state transition electric dipole moments (Au):
       state          X           Y           Z        Dip. S.      Osc.
         1        -0.0000     -0.0000      0.0000      0.0000      0.0000
         2         0.0000      0.0000     -0.0000      0.0000      0.0000
         3         0.0000     -0.0000      0.0000      0.0000      0.0000
 Ground to excited state transition velocity dipole moments (Au):
       state          X           Y           Z        Dip. S.      Osc.
         1         0.0000     -0.0000     -0.0000      0.0000      0.0000
         2        -0.0000      0.0000     -0.0000      0.0000      0.0000
         3        -0.0000     -0.0000      0.0000      0.0000      0.0000
 Ground to excited state transition magnetic dipole moments (Au):
       state          X           Y           Z
         1         0.0000      0.0000      0.0000
         2        -0.0000     -0.0000     -0.0000
         3        -0.0000      0.0000      0.0000
 Ground to excited state transition velocity quadrupole moments (Au):
       state          XX          YY          ZZ          XY          XZ          YZ
         1         0.0000      0.0000      0.0000      0.0000     -0.0000     -0.0000
         2        -0.0000      0.0000      0.0000      0.0000     -0.0000     -0.0000
         3        -0.0000      0.0000     -0.0000     -0.0000      0.0000      0.0000
 <0|del|b> * <b|rxdel|0> + <0|del|b> * <b|delr+rdel|0>
 Rotatory Strengths (R) in cgs (10**-40 erg-esu-cm/Gauss)
       state          XX          YY          ZZ    R(velocity)    E-M Angle
         1        -0.0000      0.0000      0.0000      0.0000       90.00
         2        -0.0000      0.0000     -0.0000     -0.0000       90.00
         3         0.0000      0.0000     -0.0000      0.0000       90.00
 1/2[<0|r|b>*<b|rxdel|0> + (<0|rxdel|b>*<b|r|0>)*]
 Rotatory Strengths (R) in cgs (10**-40 erg-esu-cm/Gauss)
       state          XX          YY          ZZ     R(length)
         1         0.0000      0.0000     -0.0000     -0.0000
         2         0.0000      0.0000     -0.0000      0.0000
         3         0.0000      0.0000     -0.0000     -0.0000
  1/2[<0|del|b>*<b|r|0> + (<0|r|b>*<b|del|0>)*] (Au)
       state          X           Y           Z        Dip. S.   Osc.(frdel)
         1        -0.0000      0.0000     -0.0000      0.0000      0.0000
         2        -0.0000      0.0000      0.0000     -0.0000     -0.0000
         3        -0.0000      0.0000      0.0000     -0.0000     -0.0000

 Excitation energies and oscillator strengths:
 
 Excited state symmetry could not be determined.
 Excited State   1:  3.000-?Sym    0.8695 eV 1425.90 nm  f=0.0000  <S**2>=2.000
     26A -> 29A        0.14486
     26A -> 31A        0.12701
     28A -> 29A       -0.78242
     28A -> 31A       -0.12729
     26B -> 29B       -0.14486
     26B -> 31B       -0.12701
     28B -> 29B        0.78242
     28B -> 31B        0.12729
     28A <- 29A       -0.38571
     28B <- 29B        0.38571
 This state for optimization and/or second-order correction.
 Total Energy, E(TD-HF/TD-DFT) =  -309.604148770    
 Copying the excited state density for this state as the 1-particle RhoCI density.
 
 Excited state symmetry could not be determined.
 Excited State   2:  3.000-?Sym    3.7363 eV  331.84 nm  f=0.0000  <S**2>=2.000
     26A -> 29A       -0.46395
     27A -> 29A        0.27774
     27A -> 30A       -0.27965
     28A -> 29A       -0.10072
     28A -> 31A        0.32157
     26B -> 29B        0.46395
     27B -> 29B       -0.27774
     27B -> 30B        0.27965
     28B -> 29B        0.10072
     28B -> 31B       -0.32157
 
 Excited state symmetry could not be determined.
 Excited State   3:  3.000-?Sym    3.8699 eV  320.38 nm  f=0.0000  <S**2>=2.000
     26A -> 29A        0.21877
     27A -> 29A        0.55337
     27A -> 30A        0.10487
     28A -> 30A        0.31783
     28A -> 31A       -0.13873
     26B -> 29B       -0.21877
     27B -> 29B       -0.55337
     27B -> 30B       -0.10487
     28B -> 30B       -0.31783
     28B -> 31B        0.13873
 SavETr:  write IOETrn=   770 NScale= 10 NData=  16 NLR=1 NState=    3 LETran=      64.
          IDoAtm=11111111111111110000000000000000000000000000000000
          IDoAtm=00000000000000000000000000000000000000000
          Differentiating once with respect to electric field.
                with respect to dipole field.
          Differentiating once with respect to nuclear coordinates.
 Keep R1 and R2 ints in memory in canonical form, NReq=114009024.
          There are     1 degrees of freedom in the 1st order CPHF.  IDoFFX=0 NUNeed=     1.
 LinEq1:  Iter=  0 NonCon=     1 RMS=2.34D-03 Max=4.64D-02 NDo=     1
 AX will form     1 AO Fock derivatives at one time.
 LinEq1:  Iter=  1 NonCon=     1 RMS=2.96D-03 Max=1.30D-01 NDo=     1
 LinEq1:  Iter=  2 NonCon=     1 RMS=1.12D-03 Max=1.43D-02 NDo=     1
 LinEq1:  Iter=  3 NonCon=     1 RMS=5.62D-04 Max=1.14D-02 NDo=     1
 LinEq1:  Iter=  4 NonCon=     1 RMS=3.15D-04 Max=8.76D-03 NDo=     1
 LinEq1:  Iter=  5 NonCon=     1 RMS=2.08D-04 Max=4.44D-03 NDo=     1
 LinEq1:  Iter=  6 NonCon=     1 RMS=9.84D-05 Max=1.40D-03 NDo=     1
 LinEq1:  Iter=  7 NonCon=     1 RMS=4.88D-05 Max=1.10D-03 NDo=     1
 LinEq1:  Iter=  8 NonCon=     1 RMS=3.05D-05 Max=6.45D-04 NDo=     1
 LinEq1:  Iter=  9 NonCon=     1 RMS=1.95D-05 Max=3.02D-04 NDo=     1
 LinEq1:  Iter= 10 NonCon=     1 RMS=1.01D-05 Max=1.62D-04 NDo=     1
 LinEq1:  Iter= 11 NonCon=     1 RMS=4.98D-06 Max=5.96D-05 NDo=     1
 LinEq1:  Iter= 12 NonCon=     1 RMS=1.53D-06 Max=1.82D-05 NDo=     1
 LinEq1:  Iter= 13 NonCon=     1 RMS=5.48D-07 Max=1.14D-05 NDo=     1
 LinEq1:  Iter= 14 NonCon=     1 RMS=3.43D-07 Max=4.79D-06 NDo=     1
 LinEq1:  Iter= 15 NonCon=     1 RMS=9.27D-08 Max=9.57D-07 NDo=     1
 LinEq1:  Iter= 16 NonCon=     1 RMS=1.93D-08 Max=2.22D-07 NDo=     1
 LinEq1:  Iter= 17 NonCon=     1 RMS=5.54D-09 Max=7.31D-08 NDo=     1
 LinEq1:  Iter= 18 NonCon=     1 RMS=3.46D-09 Max=6.01D-08 NDo=     1
 LinEq1:  Iter= 19 NonCon=     1 RMS=9.15D-10 Max=1.45D-08 NDo=     1
 LinEq1:  Iter= 20 NonCon=     1 RMS=1.78D-10 Max=1.66D-09 NDo=     1
 LinEq1:  Iter= 21 NonCon=     0 RMS=3.48D-11 Max=2.57D-10 NDo=     1
 Linear equations converged to 1.000D-10 1.000D-09 after    21 iterations.
 End of Minotr F.D. properties file   721 does not exist.
 End of Minotr F.D. properties file   722 does not exist.
 End of Minotr F.D. properties file   788 does not exist.

 **********************************************************************

            Population analysis using the SCF Density.

 **********************************************************************

 Alpha  occ. eigenvalues --  -10.20153 -10.19604 -10.19107 -10.19029 -10.18947
 Alpha  occ. eigenvalues --  -10.18873 -10.18844 -10.18728  -0.85529  -0.78170
 Alpha  occ. eigenvalues --   -0.74541  -0.70824  -0.62597  -0.59997  -0.55887
 Alpha  occ. eigenvalues --   -0.50840  -0.46702  -0.45133  -0.43053  -0.41910
 Alpha  occ. eigenvalues --   -0.40195  -0.38963  -0.36596  -0.34966  -0.33515
 Alpha  occ. eigenvalues --   -0.28011  -0.25147  -0.19767
 Alpha virt. eigenvalues --   -0.05886   0.00385   0.04239   0.09763   0.12108
 Alpha virt. eigenvalues --    0.13424   0.16013   0.16282   0.17311   0.18409
 Alpha virt. eigenvalues --    0.19903   0.21605   0.26889   0.28301   0.30690
 Alpha virt. eigenvalues --    0.33676   0.36459   0.37661   0.46177   0.52012
 Alpha virt. eigenvalues --    0.52802   0.54298   0.55040   0.56556   0.57430
 Alpha virt. eigenvalues --    0.58851   0.59112   0.59706   0.61238   0.62062
 Alpha virt. eigenvalues --    0.62291   0.63625   0.65039   0.66031   0.69022
 Alpha virt. eigenvalues --    0.71959   0.77272   0.82700   0.83667   0.83910
 Alpha virt. eigenvalues --    0.85008   0.85458   0.88989   0.90670   0.92757
 Alpha virt. eigenvalues --    0.93609   0.93981   0.95475   0.99362   1.01428
 Alpha virt. eigenvalues --    1.04852   1.08757   1.14638   1.16732   1.18325
 Alpha virt. eigenvalues --    1.25915   1.29432   1.33329   1.39480   1.43941
 Alpha virt. eigenvalues --    1.44806   1.45583   1.48545   1.49549   1.51390
 Alpha virt. eigenvalues --    1.65228   1.71591   1.77739   1.80294   1.85034
 Alpha virt. eigenvalues --    1.88531   1.89841   1.91693   1.95300   1.97282
 Alpha virt. eigenvalues --    1.98541   2.05053   2.10869   2.11419   2.14756
 Alpha virt. eigenvalues --    2.15032   2.17985   2.22573   2.26968   2.32244
 Alpha virt. eigenvalues --    2.33405   2.35554   2.48100   2.51292   2.57673
 Alpha virt. eigenvalues --    2.59629   2.62517   2.66033   2.74125   2.75518
 Alpha virt. eigenvalues --    2.77004   2.86050   2.92006   3.13741   3.41723
 Alpha virt. eigenvalues --    4.07511   4.09652   4.12223   4.14013   4.25020
 Alpha virt. eigenvalues --    4.32831   4.42468   4.71126
  Beta  occ. eigenvalues --  -10.20153 -10.19604 -10.19107 -10.19029 -10.18947
  Beta  occ. eigenvalues --  -10.18873 -10.18844 -10.18728  -0.85529  -0.78170
  Beta  occ. eigenvalues --   -0.74541  -0.70824  -0.62597  -0.59997  -0.55887
  Beta  occ. eigenvalues --   -0.50840  -0.46702  -0.45133  -0.43053  -0.41910
  Beta  occ. eigenvalues --   -0.40195  -0.38963  -0.36596  -0.34966  -0.33515
  Beta  occ. eigenvalues --   -0.28011  -0.25147  -0.19767
  Beta virt. eigenvalues --   -0.05886   0.00385   0.04239   0.09763   0.12108
  Beta virt. eigenvalues --    0.13424   0.16013   0.16282   0.17311   0.18409
  Beta virt. eigenvalues --    0.19903   0.21605   0.26889   0.28301   0.30690
  Beta virt. eigenvalues --    0.33676   0.36459   0.37661   0.46177   0.52012
  Beta virt. eigenvalues --    0.52802   0.54298   0.55040   0.56556   0.57430
  Beta virt. eigenvalues --    0.58851   0.59112   0.59706   0.61238   0.62062
  Beta virt. eigenvalues --    0.62291   0.63625   0.65039   0.66031   0.69022
  Beta virt. eigenvalues --    0.71959   0.77272   0.82700   0.83667   0.83910
  Beta virt. eigenvalues --    0.85008   0.85458   0.88989   0.90670   0.92757
  Beta virt. eigenvalues --    0.93609   0.93981   0.95475   0.99362   1.01428
  Beta virt. eigenvalues --    1.04852   1.08757   1.14638   1.16732   1.18325
  Beta virt. eigenvalues --    1.25915   1.29432   1.33329   1.39480   1.43941
  Beta virt. eigenvalues --    1.44806   1.45583   1.48545   1.49549   1.51390
  Beta virt. eigenvalues --    1.65228   1.71591   1.77739   1.80294   1.85034
  Beta virt. eigenvalues --    1.88531   1.89841   1.91693   1.95300   1.97282
  Beta virt. eigenvalues --    1.98541   2.05053   2.10869   2.11419   2.14756
  Beta virt. eigenvalues --    2.15032   2.17985   2.22573   2.26968   2.32244
  Beta virt. eigenvalues --    2.33405   2.35554   2.48100   2.51292   2.57673
  Beta virt. eigenvalues --    2.59629   2.62517   2.66033   2.74125   2.75518
  Beta virt. eigenvalues --    2.77004   2.86050   2.92006   3.13741   3.41723
  Beta virt. eigenvalues --    4.07511   4.09652   4.12223   4.14013   4.25020
  Beta virt. eigenvalues --    4.32831   4.42468   4.71126
          Condensed to atoms (all electrons):
          Atomic-Atomic Spin Densities.
 Mulliken charges and spin densities:
               1          2
     1  C    0.185444   0.000000
     2  C   -0.188059   0.000000
     3  C   -0.175051  -0.000000
     4  C   -0.127660  -0.000000
     5  H    0.127101   0.000000
     6  C   -0.159006   0.000000
     7  C   -0.127361   0.000000
     8  H    0.129330   0.000000
     9  C   -0.130684   0.000000
    10  H    0.130185  -0.000000
    11  C   -0.370808   0.000000
    12  H    0.138522  -0.000000
    13  H    0.129726  -0.000000
    14  H    0.130417   0.000000
    15  H    0.153184   0.000000
    16  H    0.154720  -0.000000
    17  C    0.000000   0.000000
    18  H    0.000000   0.000000
    19  H    0.000000   0.000000
    20  Cl   0.000000   0.000000
    21  Cl   0.000000   0.000000
    22  C    0.000000   0.000000
    23  H    0.000000   0.000000
    24  H    0.000000   0.000000
    25  Cl   0.000000   0.000000
    26  Cl   0.000000   0.000000
    27  C    0.000000   0.000000
    28  H    0.000000   0.000000
    29  H    0.000000   0.000000
    30  Cl   0.000000   0.000000
    31  Cl   0.000000   0.000000
    32  C    0.000000   0.000000
    33  H    0.000000   0.000000
    34  H    0.000000   0.000000
    35  Cl   0.000000   0.000000
    36  Cl   0.000000   0.000000
    37  C    0.000000   0.000000
    38  H    0.000000   0.000000
    39  H    0.000000   0.000000
    40  Cl   0.000000   0.000000
    41  Cl   0.000000   0.000000
    42  C    0.000000   0.000000
    43  H    0.000000   0.000000
    44  H    0.000000   0.000000
    45  Cl   0.000000   0.000000
    46  Cl   0.000000   0.000000
    47  C    0.000000   0.000000
    48  H    0.000000   0.000000
    49  H    0.000000   0.000000
    50  Cl   0.000000   0.000000
    51  Cl   0.000000   0.000000
    52  C    0.000000   0.000000
    53  H    0.000000   0.000000
    54  H    0.000000   0.000000
    55  Cl   0.000000   0.000000
    56  Cl   0.000000   0.000000
    57  C    0.000000   0.000000
    58  H    0.000000   0.000000
    59  H    0.000000   0.000000
    60  Cl   0.000000   0.000000
    61  Cl   0.000000   0.000000
    62  C    0.000000   0.000000
    63  H    0.000000   0.000000
    64  H    0.000000   0.000000
    65  Cl   0.000000   0.000000
    66  Cl   0.000000   0.000000
    67  C    0.000000   0.000000
    68  H    0.000000   0.000000
    69  H    0.000000   0.000000
    70  Cl   0.000000   0.000000
    71  Cl   0.000000   0.000000
    72  C    0.000000   0.000000
    73  H    0.000000   0.000000
    74  H    0.000000   0.000000
    75  Cl   0.000000   0.000000
    76  Cl   0.000000   0.000000
    77  C    0.000000   0.000000
    78  H    0.000000   0.000000
    79  H    0.000000   0.000000
    80  Cl   0.000000   0.000000
    81  Cl   0.000000   0.000000
    82  C    0.000000   0.000000
    83  H    0.000000   0.000000
    84  H    0.000000   0.000000
    85  Cl   0.000000   0.000000
    86  Cl   0.000000   0.000000
    87  C    0.000000   0.000000
    88  H    0.000000   0.000000
    89  H    0.000000   0.000000
    90  Cl   0.000000   0.000000
    91  Cl   0.000000   0.000000
 Sum of Mulliken charges =  -0.00000   0.00000
 Mulliken charges and spin densities with hydrogens summed into heavy atoms:
               1          2
     1  C    0.185444   0.000000
     2  C   -0.060958   0.000000
     3  C   -0.045721  -0.000000
     4  C    0.002525  -0.000000
     6  C   -0.020484  -0.000000
     7  C    0.002365   0.000000
     9  C   -0.000267   0.000000
    11  C   -0.062904   0.000000
    17  C    0.000000   0.000000
    20  Cl   0.000000   0.000000
    21  Cl   0.000000   0.000000
    22  C    0.000000   0.000000
    25  Cl   0.000000   0.000000
    26  Cl   0.000000   0.000000
    27  C    0.000000   0.000000
    30  Cl   0.000000   0.000000
    31  Cl   0.000000   0.000000
    32  C    0.000000   0.000000
    35  Cl   0.000000   0.000000
    36  Cl   0.000000   0.000000
    37  C    0.000000   0.000000
    40  Cl   0.000000   0.000000
    41  Cl   0.000000   0.000000
    42  C    0.000000   0.000000
    45  Cl   0.000000   0.000000
    46  Cl   0.000000   0.000000
    47  C    0.000000   0.000000
    50  Cl   0.000000   0.000000
    51  Cl   0.000000   0.000000
    52  C    0.000000   0.000000
    55  Cl   0.000000   0.000000
    56  Cl   0.000000   0.000000
    57  C    0.000000   0.000000
    60  Cl   0.000000   0.000000
    61  Cl   0.000000   0.000000
    62  C    0.000000   0.000000
    65  Cl   0.000000   0.000000
    66  Cl   0.000000   0.000000
    67  C    0.000000   0.000000
    70  Cl   0.000000   0.000000
    71  Cl   0.000000   0.000000
    72  C    0.000000   0.000000
    75  Cl   0.000000   0.000000
    76  Cl   0.000000   0.000000
    77  C    0.000000   0.000000
    80  Cl   0.000000   0.000000
    81  Cl   0.000000   0.000000
    82  C    0.000000   0.000000
    85  Cl   0.000000   0.000000
    86  Cl   0.000000   0.000000
    87  C    0.000000   0.000000
    90  Cl   0.000000   0.000000
    91  Cl   0.000000   0.000000
 Electronic spatial extent (au):  <R**2>=            993.9742
 Charge=             -0.0000 electrons
 Dipole moment (field-independent basis, Debye):
    X=             -0.2882    Y=             -0.1025    Z=              0.0127  Tot=              0.3062
 Quadrupole moment (field-independent basis, Debye-Ang):
   XX=            -43.1687   YY=            -44.1964   ZZ=            -48.8040
   XY=              0.1043   XZ=              0.0768   YZ=             -3.6497
 Traceless Quadrupole moment (field-independent basis, Debye-Ang):
   XX=              2.2210   YY=              1.1933   ZZ=             -3.4143
   XY=              0.1043   XZ=              0.0768   YZ=             -3.6497
 Octapole moment (field-independent basis, Debye-Ang**2):
  XXX=             -5.9893  YYY=              6.9474  ZZZ=             30.1688  XYY=              0.7196
  XXY=              5.2367  XXZ=             13.1142  XZZ=              1.8441  YZZ=              5.7213
  YYZ=             11.0654  XYZ=              0.2506
 Hexadecapole moment (field-independent basis, Debye-Ang**3):
 XXXX=           -855.6978 YYYY=           -304.6891 ZZZZ=           -155.2157 XXXY=            -48.4906
 XXXZ=             75.5640 YYYX=            -64.0287 YYYZ=             58.2803 ZZZX=             66.0184
 ZZZY=             67.3265 XXYY=           -187.7822 XXZZ=           -186.2198 YYZZ=            -73.8380
 XXYZ=             10.5921 YYXZ=             19.6710 ZZXY=            -17.1702
 N-N= 3.192193725327D+02 E-N=-1.354695382042D+03  KE= 3.064456109755D+02
                          Isotropic Fermi Contact Couplings
        Atom                 a.u.       MegaHertz       Gauss      10(-4) cm-1
     1  C(13)              0.00000       0.00000       0.00000       0.00000
     2  C(13)             -0.00000      -0.00000      -0.00000      -0.00000
     3  C(13)             -0.00000      -0.00000      -0.00000      -0.00000
     4  C(13)             -0.00000      -0.00000      -0.00000      -0.00000
     5  H(1)               0.00000       0.00000       0.00000       0.00000
     6  C(13)              0.00000       0.00000       0.00000       0.00000
     7  C(13)              0.00000       0.00000       0.00000       0.00000
     8  H(1)               0.00000       0.00000       0.00000       0.00000
     9  C(13)              0.00000       0.00000       0.00000       0.00000
    10  H(1)              -0.00000      -0.00000      -0.00000      -0.00000
    11  C(13)              0.00000       0.00000       0.00000       0.00000
    12  H(1)               0.00000       0.00000       0.00000       0.00000
    13  H(1)               0.00000       0.00000       0.00000       0.00000
    14  H(1)               0.00000       0.00000       0.00000       0.00000
    15  H(1)              -0.00000      -0.00000      -0.00000      -0.00000
    16  H(1)              -0.00000      -0.00000      -0.00000      -0.00000
 --------------------------------------------------------
       Center         ----  Spin Dipole Couplings  ----
                      3XX-RR        3YY-RR        3ZZ-RR
 --------------------------------------------------------
     1   Atom        0.000000      0.000000      0.000000
     2   Atom        0.000000      0.000000      0.000000
     3   Atom        0.000000      0.000000      0.000000
     4   Atom        0.000000      0.000000      0.000000
     5   Atom        0.000000      0.000000      0.000000
     6   Atom        0.000000      0.000000      0.000000
     7   Atom        0.000000      0.000000      0.000000
     8   Atom        0.000000      0.000000      0.000000
     9   Atom        0.000000      0.000000      0.000000
    10   Atom        0.000000      0.000000      0.000000
    11   Atom        0.000000      0.000000      0.000000
    12   Atom        0.000000      0.000000      0.000000
    13   Atom        0.000000      0.000000      0.000000
    14   Atom        0.000000      0.000000      0.000000
    15   Atom        0.000000      0.000000      0.000000
    16   Atom        0.000000      0.000000      0.000000
 --------------------------------------------------------
                        XY            XZ            YZ
 --------------------------------------------------------
     1   Atom        0.000000      0.000000      0.000000
     2   Atom        0.000000      0.000000      0.000000
     3   Atom        0.000000      0.000000      0.000000
     4   Atom        0.000000      0.000000      0.000000
     5   Atom        0.000000      0.000000      0.000000
     6   Atom        0.000000      0.000000      0.000000
     7   Atom        0.000000      0.000000      0.000000
     8   Atom        0.000000      0.000000      0.000000
     9   Atom        0.000000      0.000000      0.000000
    10   Atom        0.000000      0.000000      0.000000
    11   Atom        0.000000      0.000000      0.000000
    12   Atom        0.000000      0.000000      0.000000
    13   Atom        0.000000      0.000000      0.000000
    14   Atom        0.000000      0.000000      0.000000
    15   Atom        0.000000      0.000000      0.000000
    16   Atom        0.000000      0.000000      0.000000
 --------------------------------------------------------


 ---------------------------------------------------------------------------------
              Anisotropic Spin Dipole Couplings in Principal Axis System
 ---------------------------------------------------------------------------------

       Atom             a.u.   MegaHertz   Gauss  10(-4) cm-1        Axes

              Baa     0.0000     0.000     0.000     0.000  1.0000  0.0000  0.0000
     1 C(13)  Bbb     0.0000     0.000     0.000     0.000 -0.0000  1.0000  0.0000
              Bcc     0.0000     0.000     0.000     0.000  0.0000  0.0000  1.0000
 
              Baa     0.0000     0.000     0.000     0.000  1.0000  0.0000  0.0000
     2 C(13)  Bbb     0.0000     0.000     0.000     0.000 -0.0000  1.0000  0.0000
              Bcc     0.0000     0.000     0.000     0.000  0.0000  0.0000  1.0000
 
              Baa     0.0000     0.000     0.000     0.000  1.0000  0.0000  0.0000
     3 C(13)  Bbb     0.0000     0.000     0.000     0.000 -0.0000  1.0000  0.0000
              Bcc     0.0000     0.000     0.000     0.000  0.0000  0.0000  1.0000
 
              Baa     0.0000     0.000     0.000     0.000  1.0000  0.0000  0.0000
     4 C(13)  Bbb     0.0000     0.000     0.000     0.000 -0.0000  1.0000  0.0000
              Bcc     0.0000     0.000     0.000     0.000  0.0000  0.0000  1.0000
 
              Baa     0.0000     0.000     0.000     0.000  1.0000  0.0000  0.0000
     5 H(1)   Bbb     0.0000     0.000     0.000     0.000 -0.0000  1.0000  0.0000
              Bcc     0.0000     0.000     0.000     0.000  0.0000  0.0000  1.0000
 
              Baa     0.0000     0.000     0.000     0.000  1.0000  0.0000  0.0000
     6 C(13)  Bbb     0.0000     0.000     0.000     0.000 -0.0000  1.0000  0.0000
              Bcc     0.0000     0.000     0.000     0.000  0.0000  0.0000  1.0000
 
              Baa     0.0000     0.000     0.000     0.000  1.0000  0.0000  0.0000
     7 C(13)  Bbb     0.0000     0.000     0.000     0.000 -0.0000  1.0000  0.0000
              Bcc     0.0000     0.000     0.000     0.000  0.0000  0.0000  1.0000
 
              Baa     0.0000     0.000     0.000     0.000  1.0000  0.0000  0.0000
     8 H(1)   Bbb     0.0000     0.000     0.000     0.000 -0.0000  1.0000  0.0000
              Bcc     0.0000     0.000     0.000     0.000  0.0000  0.0000  1.0000
 
              Baa     0.0000     0.000     0.000     0.000  1.0000  0.0000  0.0000
     9 C(13)  Bbb     0.0000     0.000     0.000     0.000 -0.0000  1.0000  0.0000
              Bcc     0.0000     0.000     0.000     0.000  0.0000  0.0000  1.0000
 
              Baa     0.0000     0.000     0.000     0.000  1.0000  0.0000  0.0000
    10 H(1)   Bbb     0.0000     0.000     0.000     0.000 -0.0000  1.0000  0.0000
              Bcc     0.0000     0.000     0.000     0.000  0.0000  0.0000  1.0000
 
              Baa     0.0000     0.000     0.000     0.000  1.0000  0.0000  0.0000
    11 C(13)  Bbb     0.0000     0.000     0.000     0.000 -0.0000  1.0000  0.0000
              Bcc     0.0000     0.000     0.000     0.000  0.0000  0.0000  1.0000
 
              Baa     0.0000     0.000     0.000     0.000  1.0000  0.0000  0.0000
    12 H(1)   Bbb     0.0000     0.000     0.000     0.000 -0.0000  1.0000  0.0000
              Bcc     0.0000     0.000     0.000     0.000  0.0000  0.0000  1.0000
 
              Baa     0.0000     0.000     0.000     0.000  1.0000  0.0000  0.0000
    13 H(1)   Bbb     0.0000     0.000     0.000     0.000 -0.0000  1.0000  0.0000
              Bcc     0.0000     0.000     0.000     0.000  0.0000  0.0000  1.0000
 
              Baa     0.0000     0.000     0.000     0.000  1.0000  0.0000  0.0000
    14 H(1)   Bbb     0.0000     0.000     0.000     0.000 -0.0000  1.0000  0.0000
              Bcc     0.0000     0.000     0.000     0.000  0.0000  0.0000  1.0000
 
              Baa     0.0000     0.000     0.000     0.000  1.0000  0.0000  0.0000
    15 H(1)   Bbb     0.0000     0.000     0.000     0.000 -0.0000  1.0000  0.0000
              Bcc     0.0000     0.000     0.000     0.000  0.0000  0.0000  1.0000
 
              Baa     0.0000     0.000     0.000     0.000  1.0000  0.0000  0.0000
    16 H(1)   Bbb     0.0000     0.000     0.000     0.000 -0.0000  1.0000  0.0000
              Bcc     0.0000     0.000     0.000     0.000  0.0000  0.0000  1.0000
 

 ---------------------------------------------------------------------------------

 Calling FoFJK, ICntrl=  10005127 FMM=F ISym2X=0 I1Cent= 0 IOpClX= 1 NMat=1 NMatS=1 NMatT=0.
 Cartesian Forces:  Max     0.081146719 RMS     0.010879224
 SvSCFP is copying densities from files   528 and   530 to   603.
 ONIOM: saving gridpoint  2
 ONIOM: restoring gridpoint 17
 ONIOM: restoring gridpoint  1 on chk file.
 ONIOM: generating point  1 -- low level on model system.
 Standard basis: VSTO-6G (5D, 7F)
    40 basis functions,   240 primitive gaussians,    40 cartesian basis functions
    20 alpha electrons       20 beta electrons
       nuclear repulsion energy       184.5876561384 Hartrees.
 Integral buffers will be    131072 words long.
 Regular integral format.
 Two-electron integral symmetry is turned off.
 Do NDO integrals.
 One-electron integrals computed using PRISM.
 NBasis=    40 RedAO= F EigKep=  0.00D+00  NBF=    40
 NBsUse=    40 1.00D-04 EigRej=  0.00D+00 NBFU=    40
 Initial guess from the checkpoint file:  "a.chk"
 B after Tr=     0.000768    0.000164    0.001354
         Rot=    1.000000   -0.000146   -0.000200    0.000093 Ang=  -0.03 deg.
 Initial guess <Sx>= 0.0000 <Sy>= 0.0000 <Sz>= 0.0000 <S**2>= 0.8647 S= 0.5558
 Keep J ints in memory in canonical form, NReq=867663.
 Overlap will be assumed to be unity.
 Requested convergence on RMS density matrix=1.00D-08 within  64 cycles.
 Requested convergence on MAX density matrix=1.00D-06.
 Requested convergence on             energy=1.00D-06.
 No special actions if energy rises.
 SCF Done:  E(UPM6) =  0.860085836337E-01 A.U. after   15 cycles
            NFock= 14  Conv=0.64D-08     -V/T= 1.0014
 <Sx>= 0.0000 <Sy>= 0.0000 <Sz>= 0.0000 <S**2>= 0.8636 S= 0.5553
 <L.S>=  0.00000000000    
 Annihilation of the first spin contaminant:
 S**2 before annihilation     0.8636,   after     1.1044
 QCSCF skips out because SCF is already converged.

 **********************************************************************

            Population analysis using the SCF Density.

 **********************************************************************

 Alpha  occ. eigenvalues --   -1.09814  -1.00265  -0.95887  -0.90618  -0.81245
 Alpha  occ. eigenvalues --   -0.77852  -0.71449  -0.63777  -0.58651  -0.56692
 Alpha  occ. eigenvalues --   -0.54026  -0.52326  -0.50909  -0.49751  -0.48174
 Alpha  occ. eigenvalues --   -0.44837  -0.43233  -0.39535  -0.36786  -0.32089
 Alpha virt. eigenvalues --    0.00614   0.01796   0.04413   0.10004   0.15599
 Alpha virt. eigenvalues --    0.15631   0.17727   0.18321   0.18549   0.19287
 Alpha virt. eigenvalues --    0.19851   0.20424   0.21119   0.21563   0.22346
 Alpha virt. eigenvalues --    0.22665   0.22818   0.22943   0.23447   0.23465
  Beta  occ. eigenvalues --   -1.09755  -1.00191  -0.95839  -0.90757  -0.81278
  Beta  occ. eigenvalues --   -0.77862  -0.71537  -0.63603  -0.58569  -0.56757
  Beta  occ. eigenvalues --   -0.54147  -0.52284  -0.50922  -0.49544  -0.48035
  Beta  occ. eigenvalues --   -0.44720  -0.43240  -0.38702  -0.36158  -0.34112
  Beta virt. eigenvalues --   -0.01173   0.02377   0.05188   0.10524   0.15545
  Beta virt. eigenvalues --    0.15794   0.17708   0.18396   0.18615   0.19290
  Beta virt. eigenvalues --    0.19900   0.20611   0.21065   0.21510   0.22293
  Beta virt. eigenvalues --    0.22409   0.22745   0.23013   0.23417   0.23517
          Condensed to atoms (all electrons):
          Atomic-Atomic Spin Densities.
 Mulliken charges and spin densities:
               1          2
     1  C    0.029354  -0.392985
     2  C   -0.171916   0.380455
     3  C   -0.158311   0.388978
     4  C   -0.135362  -0.320620
     5  H    0.147434  -0.013320
     6  C   -0.148721   0.705401
     7  C   -0.141635  -0.321976
     8  H    0.150996  -0.013352
     9  C   -0.146738   0.380955
    10  H    0.144574   0.011181
    11  C   -0.310902  -0.840663
    12  H    0.149809  -0.034220
    13  H    0.144450   0.011262
    14  H    0.144939  -0.013113
    15  H    0.151130   0.035446
    16  H    0.150900   0.036571
    17  C    0.000000   0.000000
    18  H    0.000000   0.000000
    19  H    0.000000   0.000000
    20  Cl   0.000000   0.000000
    21  Cl   0.000000   0.000000
    22  C    0.000000   0.000000
    23  H    0.000000   0.000000
    24  H    0.000000   0.000000
    25  Cl   0.000000   0.000000
    26  Cl   0.000000   0.000000
    27  C    0.000000   0.000000
    28  H    0.000000   0.000000
    29  H    0.000000   0.000000
    30  Cl   0.000000   0.000000
    31  Cl   0.000000   0.000000
    32  C    0.000000   0.000000
    33  H    0.000000   0.000000
    34  H    0.000000   0.000000
    35  Cl   0.000000   0.000000
    36  Cl   0.000000   0.000000
    37  C    0.000000   0.000000
    38  H    0.000000   0.000000
    39  H    0.000000   0.000000
    40  Cl   0.000000   0.000000
    41  Cl   0.000000   0.000000
    42  C    0.000000   0.000000
    43  H    0.000000   0.000000
    44  H    0.000000   0.000000
    45  Cl   0.000000   0.000000
    46  Cl   0.000000   0.000000
    47  C    0.000000   0.000000
    48  H    0.000000   0.000000
    49  H    0.000000   0.000000
    50  Cl   0.000000   0.000000
    51  Cl   0.000000   0.000000
    52  C    0.000000   0.000000
    53  H    0.000000   0.000000
    54  H    0.000000   0.000000
    55  Cl   0.000000   0.000000
    56  Cl   0.000000   0.000000
    57  C    0.000000   0.000000
    58  H    0.000000   0.000000
    59  H    0.000000   0.000000
    60  Cl   0.000000   0.000000
    61  Cl   0.000000   0.000000
    62  C    0.000000   0.000000
    63  H    0.000000   0.000000
    64  H    0.000000   0.000000
    65  Cl   0.000000   0.000000
    66  Cl   0.000000   0.000000
    67  C    0.000000   0.000000
    68  H    0.000000   0.000000
    69  H    0.000000   0.000000
    70  Cl   0.000000   0.000000
    71  Cl   0.000000   0.000000
    72  C    0.000000   0.000000
    73  H    0.000000   0.000000
    74  H    0.000000   0.000000
    75  Cl   0.000000   0.000000
    76  Cl   0.000000   0.000000
    77  C    0.000000   0.000000
    78  H    0.000000   0.000000
    79  H    0.000000   0.000000
    80  Cl   0.000000   0.000000
    81  Cl   0.000000   0.000000
    82  C    0.000000   0.000000
    83  H    0.000000   0.000000
    84  H    0.000000   0.000000
    85  Cl   0.000000   0.000000
    86  Cl   0.000000   0.000000
    87  C    0.000000   0.000000
    88  H    0.000000   0.000000
    89  H    0.000000   0.000000
    90  Cl   0.000000   0.000000
    91  Cl   0.000000   0.000000
 Sum of Mulliken charges =   0.00000  -0.00000
 Mulliken charges and spin densities with hydrogens summed into heavy atoms:
               1          2
     1  C    0.029354  -0.392985
     2  C   -0.024481   0.367135
     3  C   -0.007316   0.375626
     4  C    0.009211  -0.309439
     6  C    0.001088   0.671181
     7  C    0.002815  -0.310714
     9  C   -0.001799   0.367842
    11  C   -0.008871  -0.768646
    17  C    0.000000   0.000000
    20  Cl   0.000000   0.000000
    21  Cl   0.000000   0.000000
    22  C    0.000000   0.000000
    25  Cl   0.000000   0.000000
    26  Cl   0.000000   0.000000
    27  C    0.000000   0.000000
    30  Cl   0.000000   0.000000
    31  Cl   0.000000   0.000000
    32  C    0.000000   0.000000
    35  Cl   0.000000   0.000000
    36  Cl   0.000000   0.000000
    37  C    0.000000   0.000000
    40  Cl   0.000000   0.000000
    41  Cl   0.000000   0.000000
    42  C    0.000000   0.000000
    45  Cl   0.000000   0.000000
    46  Cl   0.000000   0.000000
    47  C    0.000000   0.000000
    50  Cl   0.000000   0.000000
    51  Cl   0.000000   0.000000
    52  C    0.000000   0.000000
    55  Cl   0.000000   0.000000
    56  Cl   0.000000   0.000000
    57  C    0.000000   0.000000
    60  Cl   0.000000   0.000000
    61  Cl   0.000000   0.000000
    62  C    0.000000   0.000000
    65  Cl   0.000000   0.000000
    66  Cl   0.000000   0.000000
    67  C    0.000000   0.000000
    70  Cl   0.000000   0.000000
    71  Cl   0.000000   0.000000
    72  C    0.000000   0.000000
    75  Cl   0.000000   0.000000
    76  Cl   0.000000   0.000000
    77  C    0.000000   0.000000
    80  Cl   0.000000   0.000000
    81  Cl   0.000000   0.000000
    82  C    0.000000   0.000000
    85  Cl   0.000000   0.000000
    86  Cl   0.000000   0.000000
    87  C    0.000000   0.000000
    90  Cl   0.000000   0.000000
    91  Cl   0.000000   0.000000
 Charge=             -0.0000 electrons
 Dipole moment (field-independent basis, Debye):
    X=              0.0074    Y=             -0.0162    Z=             -0.1058  Tot=              0.1072
 N-N= 1.845876561384D+02 E-N=-2.806143258852D+02  KE=-6.322971948002D+01
 Calling FoFJK, ICntrl=      2127 FMM=F ISym2X=0 I1Cent= 0 IOpClX= 1 NMat=1 NMatS=1 NMatT=0.
 Cartesian Forces:  Max     0.029118321 RMS     0.004153379
 SvSCFP is copying densities from files   528 and   530 to   603.
 ONIOM: saving gridpoint  1
 ONIOM: restoring gridpoint  3
 ONIOM: calculating energy.
 ONIOM: gridpoint  1 method:  low   system:  model energy:     0.086008583634
 ONIOM: gridpoint  2 method:  high  system:  model energy:  -309.604148770303
 ONIOM: gridpoint  3 method:  low   system:  real  energy:    -0.404737601611
 ONIOM: extrapolated energy =    -310.094894955547
 ONIOM: calculating first derivatives.
 ONIOM: calculating electric field derivatives.
 ONIOM: Integrating ONIOM file  4 number   619
 ONIOM: Dipole        =-8.26686353D-02 2.22835816D-02 1.59492669D-01
 ONIOM: Dipole moment (Debye):
    X=    -0.2101    Y=     0.0566    Z=     0.4054  Tot=     0.4601
 ONIOM: Integrating ONIOM file  5 number   695
 Anisotropic Hyperfine tensors: 
                 1             2             3             4             5 
      1   0.000000D+00  0.000000D+00  0.000000D+00  0.000000D+00  0.000000D+00
      2   0.000000D+00  0.000000D+00  0.000000D+00  0.000000D+00  0.000000D+00
      3   0.000000D+00  0.000000D+00  0.000000D+00  0.000000D+00  0.000000D+00
      4   0.000000D+00  0.000000D+00  0.000000D+00  0.000000D+00  0.000000D+00
      5   0.000000D+00  0.000000D+00  0.000000D+00  0.000000D+00  0.000000D+00
      6   0.000000D+00  0.000000D+00  0.000000D+00  0.000000D+00  0.000000D+00
                 6             7             8             9            10 
      1   0.000000D+00  0.000000D+00  0.000000D+00  0.000000D+00  0.000000D+00
      2   0.000000D+00  0.000000D+00  0.000000D+00  0.000000D+00  0.000000D+00
      3   0.000000D+00  0.000000D+00  0.000000D+00  0.000000D+00  0.000000D+00
      4   0.000000D+00  0.000000D+00  0.000000D+00  0.000000D+00  0.000000D+00
      5   0.000000D+00  0.000000D+00  0.000000D+00  0.000000D+00  0.000000D+00
      6   0.000000D+00  0.000000D+00  0.000000D+00  0.000000D+00  0.000000D+00
                11            12            13            14            15 
      1   0.000000D+00  0.000000D+00  0.000000D+00  0.000000D+00  0.000000D+00
      2   0.000000D+00  0.000000D+00  0.000000D+00  0.000000D+00  0.000000D+00
      3   0.000000D+00  0.000000D+00  0.000000D+00  0.000000D+00  0.000000D+00
      4   0.000000D+00  0.000000D+00  0.000000D+00  0.000000D+00  0.000000D+00
      5   0.000000D+00  0.000000D+00  0.000000D+00  0.000000D+00  0.000000D+00
      6   0.000000D+00  0.000000D+00  0.000000D+00  0.000000D+00  0.000000D+00
                16            17            18            19            20 
      1   0.000000D+00  0.000000D+00  0.000000D+00  0.000000D+00  0.000000D+00
      2   0.000000D+00  0.000000D+00  0.000000D+00  0.000000D+00  0.000000D+00
      3   0.000000D+00  0.000000D+00  0.000000D+00  0.000000D+00  0.000000D+00
      4   0.000000D+00  0.000000D+00  0.000000D+00  0.000000D+00  0.000000D+00
      5   0.000000D+00  0.000000D+00  0.000000D+00  0.000000D+00  0.000000D+00
      6   0.000000D+00  0.000000D+00  0.000000D+00  0.000000D+00  0.000000D+00
                21            22            23            24            25 
      1   0.000000D+00  0.000000D+00  0.000000D+00  0.000000D+00  0.000000D+00
      2   0.000000D+00  0.000000D+00  0.000000D+00  0.000000D+00  0.000000D+00
      3   0.000000D+00  0.000000D+00  0.000000D+00  0.000000D+00  0.000000D+00
      4   0.000000D+00  0.000000D+00  0.000000D+00  0.000000D+00  0.000000D+00
      5   0.000000D+00  0.000000D+00  0.000000D+00  0.000000D+00  0.000000D+00
      6   0.000000D+00  0.000000D+00  0.000000D+00  0.000000D+00  0.000000D+00
                26            27            28            29            30 
      1   0.000000D+00  0.000000D+00  0.000000D+00  0.000000D+00  0.000000D+00
      2   0.000000D+00  0.000000D+00  0.000000D+00  0.000000D+00  0.000000D+00
      3   0.000000D+00  0.000000D+00  0.000000D+00  0.000000D+00  0.000000D+00
      4   0.000000D+00  0.000000D+00  0.000000D+00  0.000000D+00  0.000000D+00
      5   0.000000D+00  0.000000D+00  0.000000D+00  0.000000D+00  0.000000D+00
[...]
   Z21        2.96643   0.00002   0.00000  -0.00126  -0.00017   2.96626
   X22       10.82718   0.00001   0.00000   0.00019   0.00016  10.82734
   Y22       -2.01915   0.00001   0.00000  -0.00006   0.00019  -2.01896
   Z22       -2.94926   0.00000   0.00000  -0.00108  -0.00002  -2.94928
   X23        8.79041   0.00001   0.00000   0.00018   0.00015   8.79057
   Y23       -2.10359   0.00003   0.00000   0.00035   0.00060  -2.10299
   Z23       -2.44648   0.00000   0.00000  -0.00092   0.00017  -2.44631
   X24       11.97361  -0.00002   0.00000  -0.00025  -0.00025  11.97336
   Y24       -3.16606  -0.00005   0.00000  -0.00085  -0.00053  -3.16659
   Z24       -1.62054  -0.00003   0.00000  -0.00132  -0.00021  -1.62076
   X25       11.87577   0.00008   0.00000   0.00115   0.00109  11.87686
   Y25        1.16229  -0.00001   0.00000  -0.00044  -0.00017   1.16211
   Z25       -2.85952   0.00009   0.00000   0.00011   0.00101  -2.85851
   X26       11.26500   0.00002   0.00000   0.00014   0.00008  11.26508
   Y26       -3.12706   0.00014   0.00000   0.00154   0.00165  -3.12542
   Z26       -6.06941  -0.00004   0.00000  -0.00176  -0.00065  -6.07006
   X27        3.98243  -0.00009   0.00000  -0.00110  -0.00114   3.98128
   Y27        6.01798   0.00004   0.00000   0.00020   0.00065   6.01863
   Z27        2.91563  -0.00001   0.00000  -0.00088  -0.00010   2.91554
   X28        3.45746  -0.00015   0.00000  -0.00175  -0.00177   3.45568
   Y28        4.05677   0.00009   0.00000   0.00081   0.00123   4.05800
   Z28        2.36946  -0.00011   0.00000  -0.00230  -0.00142   2.36803
   X29        2.56970  -0.00009   0.00000  -0.00102  -0.00109   2.56861
   Y29        7.39013   0.00008   0.00000   0.00100   0.00140   7.39154
   Z29        2.18497   0.00006   0.00000   0.00048   0.00122   2.18619
   X30        7.01358  -0.00006   0.00000  -0.00090  -0.00096   7.01262
   Y30        6.76404   0.00013   0.00000   0.00100   0.00143   6.76547
   Z30        1.70093   0.00011   0.00000   0.00008   0.00079   1.70172
   X31        4.18176  -0.00001   0.00000  -0.00038  -0.00038   4.18138
   Y31        6.25876  -0.00015   0.00000  -0.00290  -0.00229   6.25647
   Z31        6.24736  -0.00000   0.00000  -0.00079  -0.00003   6.24733
   X32       -4.27278  -0.00002   0.00000  -0.00044  -0.00040  -4.27318
   Y32        1.53864  -0.00006   0.00000  -0.00128  -0.00074   1.53790
   Z32        6.56821   0.00001   0.00000  -0.00094   0.00015   6.56835
   X33       -3.56739  -0.00014   0.00000  -0.00161  -0.00154  -3.56893
   Y33       -0.43636  -0.00011   0.00000  -0.00167  -0.00112  -0.43748
   Z33        6.62508  -0.00004   0.00000  -0.00083   0.00035   6.62542
   X34       -4.15670  -0.00007   0.00000  -0.00100  -0.00094  -4.15764
   Y34        2.44619  -0.00002   0.00000  -0.00109  -0.00046   2.44573
   Z34        8.45681  -0.00001   0.00000  -0.00090   0.00014   8.45695
   X35       -7.44689  -0.00000   0.00000   0.00004   0.00008  -7.44682
   Y35        1.55792  -0.00001   0.00000  -0.00041   0.00005   1.55797
   Z35        5.50264  -0.00004   0.00000  -0.00240  -0.00128   5.50136
   X36       -2.45519   0.00016   0.00000   0.00185   0.00186  -2.45334
   Y36        3.28586  -0.00009   0.00000  -0.00203  -0.00157   3.28429
   Z36        4.36619   0.00014   0.00000   0.00030   0.00129   4.36748
   X37       -1.98534  -0.00008   0.00000  -0.00113  -0.00113  -1.98647
   Y37        8.61806   0.00004   0.00000  -0.00012   0.00054   8.61860
   Z37        8.65884   0.00008   0.00000   0.00043   0.00116   8.66001
   X38       -0.72339  -0.00011   0.00000  -0.00157  -0.00158  -0.72497
   Y38       10.27195   0.00004   0.00000  -0.00004   0.00064  10.27259
   Z38        8.89772   0.00022   0.00000   0.00255   0.00319   8.90092
   X39       -1.66232  -0.00003   0.00000  -0.00033  -0.00034  -1.66266
   Y39        7.70137   0.00015   0.00000   0.00169   0.00227   7.70364
   Z39        6.79839   0.00003   0.00000  -0.00026   0.00051   6.79890
   X40       -5.16962  -0.00009   0.00000  -0.00139  -0.00140  -5.17102
   Y40        9.56897  -0.00001   0.00000  -0.00100  -0.00036   9.56861
   Z40        8.91982   0.00008   0.00000   0.00002   0.00075   8.92057
   X41       -1.38930  -0.00013   0.00000  -0.00176  -0.00170  -1.39100
   Y41        6.40070  -0.00010   0.00000  -0.00248  -0.00170   6.39900
   Z41       11.10977  -0.00003   0.00000  -0.00158  -0.00075  11.10902
   X42        8.37891  -0.00002   0.00000  -0.00018  -0.00033   8.37859
   Y42        2.05817   0.00009   0.00000   0.00133   0.00130   2.05947
   Z42       -8.40335  -0.00001   0.00000  -0.00103  -0.00013  -8.40348
   X43        7.32404  -0.00006   0.00000  -0.00081  -0.00092   7.32311
   Y43        0.52962   0.00008   0.00000   0.00139   0.00140   0.53102
   Z43       -7.42377  -0.00006   0.00000  -0.00150  -0.00051  -7.42428
   X44       10.44693  -0.00003   0.00000  -0.00031  -0.00044  10.44649
   Y44        1.72612   0.00008   0.00000   0.00092   0.00092   1.72705
   Z44       -8.27062   0.00005   0.00000  -0.00019   0.00070  -8.26992
   X45        7.63584   0.00004   0.00000   0.00060   0.00045   7.63629
   Y45        5.02117   0.00010   0.00000   0.00139   0.00142   5.02259
   Z45       -7.01231   0.00001   0.00000  -0.00087  -0.00009  -7.01241
   X46        7.44009   0.00000   0.00000   0.00053   0.00035   7.44044
   Y46        2.21351   0.00018   0.00000   0.00246   0.00227   2.21579
   Z46      -11.60505  -0.00001   0.00000  -0.00127  -0.00036 -11.60541
   X47      -10.25162   0.00015   0.00000   0.00203   0.00196 -10.24965
   Y47        3.72507   0.00014   0.00000   0.00185   0.00199   3.72705
   Z47       -0.73499   0.00004   0.00000  -0.00056   0.00050  -0.73449
   X48      -11.94200   0.00012   0.00000   0.00159   0.00154 -11.94046
   Y48        2.65395   0.00030   0.00000   0.00369   0.00384   2.65779
   Z48       -0.11479   0.00017   0.00000   0.00133   0.00247  -0.11233
   X49       -8.73834   0.00019   0.00000   0.00273   0.00269  -8.73566
   Y49        3.64819   0.00011   0.00000   0.00147   0.00169   3.64988
   Z49        0.71758  -0.00002   0.00000  -0.00125  -0.00020   0.71738
   X50      -11.10071   0.00026   0.00000   0.00376   0.00366 -11.09705
   Y50        6.91092   0.00015   0.00000   0.00206   0.00217   6.91309
   Z50       -1.29259  -0.00004   0.00000  -0.00180  -0.00088  -1.29347
   X51       -9.12619  -0.00008   0.00000  -0.00102  -0.00110  -9.12729
   Y51        2.43828  -0.00002   0.00000  -0.00030  -0.00028   2.43800
   Z51       -3.60823   0.00003   0.00000  -0.00089   0.00021  -3.60801
   X52       -3.00590  -0.00000   0.00000   0.00014   0.00001  -3.00589
   Y52        1.85377   0.00003   0.00000   0.00043   0.00032   1.85408
   Z52       -7.72116   0.00007   0.00000  -0.00009   0.00097  -7.72019
   X53       -3.62483   0.00005   0.00000   0.00061   0.00045  -3.62438
   Y53        2.45290   0.00003   0.00000   0.00064   0.00044   2.45334
   Z53       -9.63241   0.00005   0.00000  -0.00012   0.00092  -9.63149
   X54       -4.05997  -0.00008   0.00000  -0.00076  -0.00088  -4.06086
   Y54        2.88419  -0.00003   0.00000  -0.00039  -0.00044   2.88376
   Z54       -6.22307   0.00005   0.00000  -0.00008   0.00095  -6.22212
   X55        0.27930  -0.00002   0.00000  -0.00008  -0.00021   0.27909
   Y55        2.45866   0.00007   0.00000   0.00112   0.00106   2.45972
   Z55       -7.38365   0.00016   0.00000   0.00079   0.00178  -7.38187
   X56       -3.46393   0.00008   0.00000   0.00110   0.00101  -3.46292
   Y56       -1.43589   0.00002   0.00000   0.00021   0.00011  -1.43578
   Z56       -7.36414   0.00004   0.00000  -0.00120   0.00002  -7.36412
   X57       -2.65619   0.00008   0.00000   0.00127   0.00116  -2.65503
   Y57       11.13681   0.00009   0.00000   0.00085   0.00117  11.13798
   Z57        1.43793  -0.00013   0.00000  -0.00223  -0.00160   1.43633
   X58       -1.97064   0.00022   0.00000   0.00274   0.00260  -1.96804
   Y58       11.56268   0.00014   0.00000   0.00191   0.00214  11.56483
   Z58       -0.50160  -0.00008   0.00000  -0.00147  -0.00088  -0.50247
   X59       -4.32432   0.00015   0.00000   0.00199   0.00187  -4.32245
   Y59       12.30740   0.00016   0.00000   0.00174   0.00206  12.30946
   Z59        1.93216  -0.00007   0.00000  -0.00173  -0.00113   1.93102
   X60       -0.19210   0.00000   0.00000   0.00044   0.00035  -0.19175
   Y60       11.72083  -0.00010   0.00000  -0.00218  -0.00173  11.71910
   Z60        3.63327   0.00000   0.00000  -0.00060  -0.00003   3.63324
   X61       -3.46012  -0.00007   0.00000  -0.00083  -0.00091  -3.46103
   Y61        7.89360   0.00010   0.00000   0.00109   0.00141   7.89501
   Z61        1.67967  -0.00032   0.00000  -0.00533  -0.00454   1.67513
   X62        2.09785  -0.00004   0.00000  -0.00069  -0.00059   2.09726
   Y62        0.62507   0.00003   0.00000  -0.00035   0.00038   0.62545
   Z62        9.33676  -0.00011   0.00000  -0.00258  -0.00153   9.33523
   X63        1.38769  -0.00001   0.00000  -0.00009  -0.00002   1.38767
   Y63        2.51306   0.00003   0.00000  -0.00015   0.00055   2.51361
   Z63        8.75482  -0.00015   0.00000  -0.00276  -0.00179   8.75303
   X64        3.69508  -0.00007   0.00000  -0.00113  -0.00102   3.69406
   Y64        0.80709   0.00001   0.00000  -0.00052   0.00029   0.80738
   Z64       10.68008  -0.00007   0.00000  -0.00192  -0.00090  10.67918
   X65        3.09099  -0.00004   0.00000  -0.00066  -0.00058   3.09040
   Y65       -1.07974  -0.00004   0.00000  -0.00106  -0.00045  -1.08019
   Z65        6.64007  -0.00007   0.00000  -0.00226  -0.00114   6.63893
   X66       -0.37958  -0.00010   0.00000  -0.00157  -0.00144  -0.38101
   Y66       -1.09926   0.00012   0.00000   0.00044   0.00121  -1.09805
   Z66       10.78075  -0.00011   0.00000  -0.00316  -0.00200  10.77875
   X67        2.01774   0.00005   0.00000   0.00077   0.00072   2.01846
   Y67       -4.10270   0.00002   0.00000   0.00008   0.00011  -4.10259
   Z67       -5.72147   0.00002   0.00000  -0.00105   0.00023  -5.72124
   X68        0.35786   0.00010   0.00000   0.00079   0.00075   0.35861
   Y68       -5.21813  -0.00003   0.00000   0.00005   0.00003  -5.21810
   Z68       -6.34140  -0.00001   0.00000  -0.00093   0.00042  -6.34098
   X69        1.42246   0.00011   0.00000   0.00122   0.00116   1.42362
   Y69       -2.20357  -0.00002   0.00000  -0.00051  -0.00045  -2.20402
   Z69       -5.04482   0.00019   0.00000   0.00120   0.00239  -5.04242
   X70        4.17048  -0.00007   0.00000  -0.00073  -0.00082   4.16966
   Y70       -3.78597   0.00012   0.00000   0.00170   0.00163  -3.78434
   Z70       -8.25693  -0.00007   0.00000  -0.00223  -0.00100  -8.25793
   X71        3.60199   0.00004   0.00000   0.00126   0.00126   3.60325
   Y71       -5.73201  -0.00010   0.00000  -0.00184  -0.00167  -5.73369
   Z71       -3.25732  -0.00007   0.00000  -0.00279  -0.00146  -3.25879
   X72        3.53501  -0.00006   0.00000  -0.00051  -0.00075   3.53427
   Y72        7.42144  -0.00001   0.00000   0.00003  -0.00018   7.42126
   Z72      -11.25218  -0.00008   0.00000  -0.00181  -0.00109 -11.25328
   X73        5.36853  -0.00005   0.00000  -0.00037  -0.00061   5.36792
   Y73        7.21442   0.00006   0.00000   0.00085   0.00062   7.21503
   Z73      -12.24791  -0.00008   0.00000  -0.00160  -0.00090 -12.24881
   X74        3.35728  -0.00000   0.00000  -0.00006  -0.00026   3.35702
   Y74        5.97283  -0.00004   0.00000  -0.00027  -0.00041   5.97242
   Z74       -9.74762  -0.00010   0.00000  -0.00198  -0.00119  -9.74881
   X75        3.33685  -0.00014   0.00000  -0.00157  -0.00182   3.33503
   Y75       10.48383  -0.00003   0.00000  -0.00014  -0.00028  10.48355
   Z75       -9.89779  -0.00007   0.00000  -0.00163  -0.00105  -9.89885
   X76        1.01105  -0.00003   0.00000  -0.00005  -0.00031   1.01074
   Y76        7.11870  -0.00006   0.00000  -0.00039  -0.00072   7.11798
   Z76      -13.41165  -0.00010   0.00000  -0.00231  -0.00155 -13.41320
   X77       -2.87866   0.00018   0.00000   0.00277   0.00257  -2.87609
   Y77        8.73188  -0.00001   0.00000   0.00003  -0.00005   8.73183
   Z77       -6.96124   0.00007   0.00000  -0.00001   0.00073  -6.96051
   X78       -1.02576   0.00016   0.00000   0.00207   0.00188  -1.02388
   Y78        7.96599   0.00012   0.00000   0.00006  -0.00003   7.96596
   Z78       -7.58033  -0.00013   0.00000  -0.00188  -0.00113  -7.58146
   X79       -2.88815   0.00043   0.00000   0.00428   0.00406  -2.88409
   Y79       10.82701  -0.00004   0.00000  -0.00013  -0.00021  10.82680
   Z79       -7.05393  -0.00015   0.00000  -0.00213  -0.00149  -7.05542
   X80       -5.31714  -0.00012   0.00000  -0.00071  -0.00091  -5.31806
   Y80        7.51192  -0.00025   0.00000  -0.00234  -0.00253   7.50939
   Z80       -8.89286   0.00061   0.00000   0.00582   0.00664  -8.88621
   X81       -3.49870   0.00027   0.00000   0.00501   0.00486  -3.49383
   Y81        7.76005   0.00018   0.00000   0.00271   0.00277   7.76282
   Z81       -3.80852   0.00012   0.00000   0.00116   0.00196  -3.80657
   X82        4.07747  -0.00019   0.00000  -0.00240  -0.00257   4.07490
   Y82       11.27988  -0.00026   0.00000  -0.00324  -0.00306  11.27682
   Z82       -3.06929  -0.00007   0.00000  -0.00146  -0.00093  -3.07022
   X83        5.24049  -0.00030   0.00000  -0.00280  -0.00299   5.23750
   Y83       11.20343  -0.00021   0.00000  -0.00327  -0.00316  11.20027
   Z83       -4.81202  -0.00015   0.00000  -0.00168  -0.00116  -4.81318
   X84        5.28620  -0.00034   0.00000  -0.00354  -0.00369   5.28252
   Y84       11.21125  -0.00039   0.00000  -0.00554  -0.00527  11.20598
   Z84       -1.35781   0.00003   0.00000  -0.00072  -0.00020  -1.35802
   X85        2.24191   0.00024   0.00000   0.00236   0.00216   2.24407
   Y85       14.07009   0.00003   0.00000  -0.00022  -0.00006  14.07003
   Z85       -3.06019   0.00000   0.00000  -0.00046  -0.00004  -3.06023
   X86        1.93448  -0.00030   0.00000  -0.00463  -0.00477   1.92972
   Y86        8.69898  -0.00012   0.00000  -0.00136  -0.00121   8.69777
   Z86       -3.04041  -0.00018   0.00000  -0.00349  -0.00281  -3.04322
   X87       -8.27213   0.00001   0.00000   0.00040   0.00021  -8.27192
   Y87       12.99611  -0.00016   0.00000  -0.00220  -0.00216  12.99395
   Z87       -3.18704  -0.00002   0.00000  -0.00082  -0.00021  -3.18726
   X88      -10.10892   0.00003   0.00000   0.00060   0.00040 -10.10852
   Y88       13.10550  -0.00006   0.00000  -0.00099  -0.00101  13.10449
   Z88       -4.18834  -0.00004   0.00000  -0.00108  -0.00045  -4.18879
   X89       -7.70003   0.00003   0.00000   0.00037   0.00021  -7.69982
   Y89       10.99558  -0.00018   0.00000  -0.00248  -0.00241  10.99317
   Z89       -2.90404  -0.00016   0.00000  -0.00272  -0.00202  -2.90607
   X90       -5.93891   0.00006   0.00000   0.00103   0.00081  -5.93811
   Y90       14.60402  -0.00002   0.00000  -0.00023  -0.00024  14.60378
   Z90       -4.96430   0.00019   0.00000   0.00177   0.00227  -4.96202
   X91       -8.52120  -0.00006   0.00000  -0.00055  -0.00071  -8.52191
   Y91       14.52766  -0.00040   0.00000  -0.00555  -0.00537  14.52230
   Z91       -0.22721   0.00010   0.00000   0.00074   0.00128  -0.22593
         Item               Value     Threshold  Converged?
 Maximum Force            0.048515     0.000450     NO 
 RMS     Force            0.006336     0.000300     NO 
 Maximum Displacement     0.141879     0.001800     NO 
 RMS     Displacement     0.018161     0.001200     NO 
 Predicted change in Energy=-1.172023D-02
 GradGradGradGradGradGradGradGradGradGradGradGradGradGradGradGradGradGrad

 Unable to Open any file for archive entry.
 1\1\GINC-X10P1N23\Force\ONIOM(B3LYP TD-FC/6-31G(d):PM6)\Mixed\C23H38Cl
 30\MAYUMIAO\12-Jul-2024\0\\# scf=(xqc,maxcycle=64) force guess=read on
 iom(td/b3lyp/em=gd3bj/6-31g(d):pm6) nosymm\\Title Card\\0,1\C,0.554824
 44,-0.17645057,-0.17987233\C,-0.08382056,-1.29453061,0.41635033\C,-0.2
 6647529,0.88137245,-0.64480641\C,-1.45613479,-1.35643504,0.53070698\H,
 0.53623773,-2.11419838,0.77427238\C,1.9765322,-0.14628399,-0.31016415\
 C,-1.6434734,0.81674054,-0.50912582\H,0.18603097,1.75317652,-1.1114444
 3\C,-2.25246114,-0.30214337,0.06104877\H,-1.91970446,-2.22442328,0.991
 95108\C,2.68675844,0.88776227,-1.00500945\H,2.52017149,-0.99952342,0.1
 0165984\H,-2.2555498,1.64791355,-0.85148183\H,-3.33492837,-0.35640049,
 0.13727748\H,3.61175616,1.31971287,-0.63195273\H,2.33302442,1.28256835
 ,-1.95540966\C,4.97403221,0.55628831,1.99445209\H,5.25744411,1.1464844
 8,1.09774654\H,3.97637027,0.86033385,2.37427296\Cl,6.18508268,0.772621
 33,3.25633168\Cl,4.93613135,-1.16943682,1.56976881\C,5.72949643,-1.068
 48581,-1.56068173\H,4.65168553,-1.11317177,-1.29462315\H,6.33616227,-1
 .67540693,-0.85755491\Cl,6.2843862,0.61505658,-1.513193\Cl,5.96118125,
 -1.65476996,-3.21179248\C,2.1074093,3.18457791,1.54288758\H,1.82960819
 ,2.14675027,1.2538616\H,1.35982691,3.91068962,1.15623859\Cl,3.71142702
 ,3.57937831,0.90009508\Cl,2.21289185,3.31199212,3.30595829\C,-2.261060
 28,0.81421263,3.47574473\H,-1.88778019,-0.23091102,3.50583952\H,-2.199
 62874,1.2944658,4.47515065\Cl,-3.94072635,0.8244167,2.91186935\Cl,-1.2
 9923205,1.73880212,2.31048746\C,-1.05059758,4.56048162,4.58206277\H,-0
 .38280147,5.4356794,4.70847298\H,-0.87966232,4.07538806,3.59755339\Cl,
 -2.73564433,5.06368258,4.72016649\Cl,-0.73518397,3.38710416,5.87903795
 \C,4.43393077,1.08913745,-4.44686233\H,3.87571283,0.2802641,-3.9284896
 \H,5.52827872,0.913426,-4.37662572\Cl,4.04071308,2.65708664,-3.7107564
 5\Cl,3.93712435,1.17133958,-6.1411276\C,-5.42492154,1.9712199,-0.38894
 006\H,-6.31943173,1.40441127,-0.06074555\H,-4.62413201,1.93053798,0.37
 972565\Cl,-5.87424253,3.65710314,-0.68400805\Cl,-4.82937308,1.29028257
 ,-1.90939086\C,-1.59065324,0.98097114,-4.08586099\H,-1.91817916,1.2980
 2135,-5.09725433\H,-2.14844605,1.52624989,-3.29310614\Cl,0.14779847,1.
 30106654,-3.90726117\Cl,-1.83303157,-0.75983971,-3.89693388\C,-1.40559
 653,5.89334568,0.76091896\H,-1.04281738,6.11870804,-0.26543431\H,-2.28
 833055,6.51279742,1.02245246\Cl,-0.10165409,6.20239624,1.92264482\Cl,-
 1.83101547,4.17711302,0.88884365\C,1.11013582,0.33077297,4.9407995\H,0
 .73433228,1.32985383,4.63285249\H,1.95535136,0.42709283,5.65165611\Cl,
 1.63568076,-0.5713748,3.51377359\Cl,-0.20086304,-0.5817055,5.70492577\
 C,1.0677394,-2.17105441,-3.02766937\H,0.18937003,-2.76131553,-3.355723
 92\H,0.75273177,-1.16607923,-2.66960158\Cl,2.20692187,-2.00345169,-4.3
 6937885\Cl,1.90608997,-3.03325017,-1.72370188\C,1.87064911,3.92725685,
 -5.95439948\H,2.84090341,3.81770434,-6.48131417\H,1.77659748,3.1606866
 7,-5.15821931\Cl,1.76578253,5.5478065,-5.237687\Cl,0.53502576,3.767051
 68,-7.09714046\C,-1.52332101,4.62071246,-3.68373107\H,-0.54281093,4.21
 541818,-4.0113375\H,-1.52834568,5.72940609,-3.73278061\Cl,-2.8137107,3
 .97513739,-4.70589707\Cl,-1.85143083,4.10644075,-2.01538423\C,2.157702
 61,5.96905424,-1.62419836\H,2.77314714,5.92859975,-2.54641296\H,2.7973
 3901,5.93273915,-0.71852376\Cl,1.18636849,7.44557249,-1.61938361\Cl,1.
 02368486,4.60330295,-1.60891536\C,-4.37742441,6.8772454,-1.6865101\H,-
 5.34940909,6.93513022,-2.2163728\H,-4.07467922,5.81861047,-1.53675437\
 Cl,-3.14273592,7.72811643,-2.62699197\Cl,-4.50922362,7.68770816,-0.120
 23526\\Version=ES64L-G16RevC.01\HF=0.0860086\S2=0.863555\S2-1=0.\S2A=1
 .104383\RMSD=6.394e-09\RMSF=6.336e-03\Dipole=-0.0826686,0.0222836,0.15
 94927\PG=C01 [X(C23H38Cl30)]\\@
 The archive entry for this job was punched.


 IT IS A CAPITAL MISTAKE TO THEORIZE BEFORE ONE HAS
 DATA.  INSENSIBLY ONE BEGINS TO TWIST FACTS TO SUIT
 THEORIES RATHER THAN THEORIES TO SUIT FACTS.

                                         -- SHERLOCK HOLMES
 Job cpu time:       0 days  0 hours 18 minutes 51.3 seconds.
 Elapsed time:       0 days  0 hours  0 minutes 45.2 seconds.
 File lengths (MBytes):  RWF=    173 Int=      0 D2E=      0 Chk=     37 Scr=      1
 Normal termination of Gaussian 16 at Fri Jul 12 22:53:40 2024.
