 Entering Gaussian System, Link 0=g16
 Input=JOBS/11_B.gjf
 Output=JOBS/11_B.log
 Initial command:
 /data/app/gaussian/C01-avx2//g16/l1.exe "/tmp/Gau-1776421.inp" -scrdir="/tmp/"
 Entering Link 1 = /data/app/gaussian/C01-avx2//g16/l1.exe PID=   1776422.
  
 Copyright (c) 1988-2019, Gaussian, Inc.  All Rights Reserved.
  
 This is part of the Gaussian(R) 16 program.  It is based on
 the Gaussian(R) 09 system (copyright 2009, Gaussian, Inc.),
 the Gaussian(R) 03 system (copyright 2003, Gaussian, Inc.),
 the Gaussian(R) 98 system (copyright 1998, Gaussian, Inc.),
 the Gaussian(R) 94 system (copyright 1995, Gaussian, Inc.),
 the Gaussian 92(TM) system (copyright 1992, Gaussian, Inc.),
 the Gaussian 90(TM) system (copyright 1990, Gaussian, Inc.),
 the Gaussian 88(TM) system (copyright 1988, Gaussian, Inc.),
 the Gaussian 86(TM) system (copyright 1986, Carnegie Mellon
 University), and the Gaussian 82(TM) system (copyright 1983,
 Carnegie Mellon University). Gaussian is a federally registered
 trademark of Gaussian, Inc.
  
 This software contains proprietary and confidential information,
 including trade secrets, belonging to Gaussian, Inc.
  
 This software is provided under written license and may be
 used, copied, transmitted, or stored only in accord with that
 written license.
  
 The following legend is applicable only to US Government
 contracts under FAR:
  
                    RESTRICTED RIGHTS LEGEND
  
 Use, reproduction and disclosure by the US Government is
 subject to restrictions as set forth in subparagraphs (a)
 and (c) of the Commercial Computer Software - Restricted
 Rights clause in FAR 52.227-19.
  
 Gaussian, Inc.
 340 Quinnipiac St., Bldg. 40, Wallingford CT 06492
  
  
 ---------------------------------------------------------------
 Warning -- This program may not be used in any manner that
 competes with the business of Gaussian, Inc. or will provide
 assistance to any competitor of Gaussian, Inc.  The licensee
 of this program is prohibited from giving any competitor of
 Gaussian, Inc. access to this program.  By using this program,
 the user acknowledges that Gaussian, Inc. is engaged in the
 business of creating and licensing software in the field of
 computational chemistry and represents and warrants to the
 licensee that it is not a competitor of Gaussian, Inc. and that
 it will not use this program in any manner prohibited above.
 ---------------------------------------------------------------
  

 Cite this work as:
 Gaussian 16, Revision C.01,
 M. J. Frisch, G. W. Trucks, H. B. Schlegel, G. E. Scuseria, 
 M. A. Robb, J. R. Cheeseman, G. Scalmani, V. Barone, 
 G. A. Petersson, H. Nakatsuji, X. Li, M. Caricato, A. V. Marenich, 
 J. Bloino, B. G. Janesko, R. Gomperts, B. Mennucci, H. P. Hratchian, 
 J. V. Ortiz, A. F. Izmaylov, J. L. Sonnenberg, D. Williams-Young, 
 F. Ding, F. Lipparini, F. Egidi, J. Goings, B. Peng, A. Petrone, 
 T. Henderson, D. Ranasinghe, V. G. Zakrzewski, J. Gao, N. Rega, 
 G. Zheng, W. Liang, M. Hada, M. Ehara, K. Toyota, R. Fukuda, 
 J. Hasegawa, M. Ishida, T. Nakajima, Y. Honda, O. Kitao, H. Nakai, 
 T. Vreven, K. Throssell, J. A. Montgomery, Jr., J. E. Peralta, 
 F. Ogliaro, M. J. Bearpark, J. J. Heyd, E. N. Brothers, K. N. Kudin, 
 V. N. Staroverov, T. A. Keith, R. Kobayashi, J. Normand, 
 K. Raghavachari, A. P. Rendell, J. C. Burant, S. S. Iyengar, 
 J. Tomasi, M. Cossi, J. M. Millam, M. Klene, C. Adamo, R. Cammi, 
 J. W. Ochterski, R. L. Martin, K. Morokuma, O. Farkas, 
 J. B. Foresman, and D. J. Fox, Gaussian, Inc., Wallingford CT, 2019.
 
 ******************************************
 Gaussian 16:  ES64L-G16RevC.01  3-Jul-2019
                12-Jul-2024 
 ******************************************
 %chk=b.chk
 %nprocshared=28
 Will use up to   28 processors via shared memory.
 %mem=48gb
 ----------------------------------------------------------------------
 # scf=(xqc,maxcycle=64) force guess=read oniom(b3lyp/em=gd3bj/6-31g(d)
 :pm6) nosymm
 ----------------------------------------------------------------------
 1/10=7,30=1,38=1,52=2/1,3;
 2/12=2,15=1,17=6,18=5,40=1/2;
 1/10=7,30=1,38=1,52=2,53=3172/20;
 3/5=2,25=1,41=3900000,71=1,116=-2/1,2,3;
 4/5=1,35=1/1;
 5/5=2,7=64,8=3,13=1,35=1,38=6/2,8;
 6/7=2,8=2,9=2,10=2,28=1/1;
 7/7=1,30=1,33=-1/1,2,3,16;
 1/10=7,30=1,52=2,53=2032/20;
 3/5=1,6=6,7=1,11=2,25=1,30=1,71=1,74=-5,116=-2,124=41/1,2,3;
 4/5=1/1;
 5/5=2,7=64,8=3,13=1,38=6/2,8;
 6/7=2,8=2,9=2,10=2,28=1/1;
 7/7=1,30=1,33=-1/1,2,3,16;
 1/10=7,30=1,52=2,53=1022/20;
 3/5=2,25=1,41=3900000,71=1,116=-2/1,2,3;
 4/5=1,35=1/1;
 5/5=2,7=64,8=3,13=1,35=1,38=6/2,8;
 6/7=2,8=2,9=2,10=2,28=1/1;
 7/7=1,30=1,33=-1/1,2,3,16;
 1/10=7,30=1,52=2,53=3015/20;
 7/9=1,29=1,44=-1,126=2/16;
 1/10=7,30=1,52=2/3;
 99//99;
 ONIOM: restoring gridpoint  3 on chk file.
 ----------
 Title Card
 ----------
 Symbolic Z-matrix:
 Charge =  0 Multiplicity = 1 for low   level calculation on real  system.
 Charge =  0 Multiplicity = 3 for high  level calculation on model system.
 Charge =  0 Multiplicity = 3 for low   level calculation on model system.
 c                     0.55482  -0.17645  -0.17987  h 
 c                    -0.08382  -1.29453   0.41635  h 
 c                    -0.26648   0.88137  -0.64481  h 
 c                    -1.45613  -1.35644   0.53071  h 
 h                     0.53624  -2.1142    0.77427  h 
 c                     1.97653  -0.14628  -0.31016  h 
 c                    -1.64347   0.81674  -0.50913  h 
 h                     0.18603   1.75318  -1.11144  h 
 c                    -2.25246  -0.30214   0.06105  h 
 h                    -1.9197   -2.22442   0.99195  h 
 c                     2.68676   0.88776  -1.00501  h 
 h                     2.52017  -0.99952   0.10166  h 
 h                    -2.25555   1.64791  -0.85148  h 
 h                    -3.33493  -0.3564    0.13728  h 
 h                     3.61176   1.31971  -0.63195  h 
 h                     2.33302   1.28257  -1.95541  h 
 c                     4.97403   0.55629   1.99445  l 
 h                     5.25744   1.14648   1.09775  l 
 h                     3.97637   0.86033   2.37427  l 
 cl                    6.18508   0.77262   3.25633  l 
 cl                    4.93613  -1.16944   1.56977  l 
 c                     5.7295   -1.06849  -1.56068  l 
 h                     4.65169  -1.11317  -1.29462  l 
 h                     6.33616  -1.67541  -0.85755  l 
 cl                    6.28439   0.61506  -1.51319  l 
 cl                    5.96118  -1.65477  -3.21179  l 
 c                     2.10741   3.18458   1.54289  l 
 h                     1.82961   2.14675   1.25386  l 
 h                     1.35983   3.91069   1.15624  l 
 cl                    3.71143   3.57938   0.9001   l 
 cl                    2.21289   3.31199   3.30596  l 
 c                    -2.26106   0.81421   3.47574  l 
 h                    -1.88778  -0.23091   3.50584  l 
 h                    -2.19963   1.29447   4.47515  l 
 cl                   -3.94073   0.82442   2.91187  l 
 cl                   -1.29923   1.7388    2.31049  l 
 c                    -1.0506    4.56048   4.58206  l 
 h                    -0.3828    5.43568   4.70847  l 
 h                    -0.87966   4.07539   3.59755  l 
 cl                   -2.73564   5.06368   4.72017  l 
 cl                   -0.73518   3.3871    5.87904  l 
 c                     4.43393   1.08914  -4.44686  l 
 h                     3.87571   0.28026  -3.92849  l 
 h                     5.52828   0.91343  -4.37663  l 
 cl                    4.04071   2.65709  -3.71076  l 
 cl                    3.93712   1.17134  -6.14113  l 
 c                    -5.42492   1.97122  -0.38894  l 
 h                    -6.31943   1.40441  -0.06075  l 
 h                    -4.62413   1.93054   0.37973  l 
 cl                   -5.87424   3.6571   -0.68401  l 
 cl                   -4.82937   1.29028  -1.90939  l 
 c                    -1.59065   0.98097  -4.08586  l 
 h                    -1.91818   1.29802  -5.09725  l 
 h                    -2.14845   1.52625  -3.29311  l 
 cl                    0.1478    1.30107  -3.90726  l 
 cl                   -1.83303  -0.75984  -3.89693  l 
 c                    -1.4056    5.89335   0.76092  l 
 h                    -1.04282   6.11871  -0.26543  l 
 h                    -2.28833   6.5128    1.02245  l 
 cl                   -0.10165   6.2024    1.92264  l 
 cl                   -1.83102   4.17711   0.88884  l 
 c                     1.11014   0.33077   4.9408   l 
 h                     0.73433   1.32985   4.63285  l 
 h                     1.95535   0.42709   5.65166  l 
 cl                    1.63568  -0.57137   3.51377  l 
 cl                   -0.20086  -0.58171   5.70493  l 
 c                     1.06774  -2.17105  -3.02767  l 
 h                     0.18937  -2.76132  -3.35572  l 
 h                     0.75273  -1.16608  -2.6696   l 
 cl                    2.20692  -2.00345  -4.36938  l 
 cl                    1.90609  -3.03325  -1.7237   l 
 c                     1.87065   3.92726  -5.9544   l 
 h                     2.8409    3.8177   -6.48131  l 
 h                     1.7766    3.16069  -5.15822  l 
 cl                    1.76578   5.54781  -5.23769  l 
 cl                    0.53503   3.76705  -7.09714  l 
 c                    -1.52332   4.62071  -3.68373  l 
 h                    -0.54281   4.21542  -4.01134  l 
 h                    -1.52835   5.72941  -3.73278  l 
 cl                   -2.81371   3.97514  -4.7059   l 
 cl                   -1.85143   4.10644  -2.01538  l 
 c                     2.1577    5.96905  -1.6242   l 
 h                     2.77315   5.9286   -2.54641  l 
 h                     2.79734   5.93274  -0.71852  l 
 cl                    1.18637   7.44557  -1.61938  l 
 cl                    1.02368   4.6033   -1.60892  l 
 c                    -4.37742   6.87725  -1.68651  l 
 h                    -5.34941   6.93513  -2.21637  l 
 h                    -4.07468   5.81861  -1.53675  l 
 cl                   -3.14274   7.72812  -2.62699  l 
 cl                   -4.50922   7.68771  -0.12024  l 
 

 GradGradGradGradGradGradGradGradGradGradGradGradGradGradGradGradGradGrad
 Berny optimization.
 Initialization pass.
 Trust Radius=3.00D-01 FncErr=1.00D-07 GrdErr=1.00D-07 EigMax=2.50D+02 EigMin=1.00D-04
 Number of steps in this run=      2 maximum allowed number of steps=      2.
 GradGradGradGradGradGradGradGradGradGradGradGradGradGradGradGradGradGrad

 Symmetry turned off by external request.
 Stoichiometry    C23H38Cl30
 Framework group  C1[X(C23H38Cl30)]
 Deg. of freedom   267
 Full point group                 C1      NOp   1
                          Input orientation:                          
 ---------------------------------------------------------------------
 Center     Atomic      Atomic             Coordinates (Angstroms)
 Number     Number       Type             X           Y           Z
 ---------------------------------------------------------------------
      1          6           0        0.554824   -0.176451   -0.179872
      2          6           0       -0.083821   -1.294531    0.416350
      3          6           0       -0.266475    0.881372   -0.644806
      4          6           0       -1.456135   -1.356435    0.530707
      5          1           0        0.536238   -2.114198    0.774272
      6          6           0        1.976532   -0.146284   -0.310164
      7          6           0       -1.643473    0.816741   -0.509126
      8          1           0        0.186031    1.753177   -1.111444
      9          6           0       -2.252461   -0.302143    0.061049
     10          1           0       -1.919704   -2.224423    0.991951
     11          6           0        2.686758    0.887762   -1.005009
     12          1           0        2.520171   -0.999523    0.101660
     13          1           0       -2.255550    1.647914   -0.851482
     14          1           0       -3.334928   -0.356400    0.137277
     15          1           0        3.611756    1.319713   -0.631953
     16          1           0        2.333024    1.282568   -1.955410
     17          6           0        4.974032    0.556288    1.994452
     18          1           0        5.257444    1.146484    1.097747
     19          1           0        3.976370    0.860334    2.374273
     20         17           0        6.185083    0.772621    3.256332
     21         17           0        4.936131   -1.169437    1.569769
     22          6           0        5.729496   -1.068486   -1.560682
     23          1           0        4.651686   -1.113172   -1.294623
     24          1           0        6.336162   -1.675407   -0.857555
     25         17           0        6.284386    0.615057   -1.513193
     26         17           0        5.961181   -1.654770   -3.211792
     27          6           0        2.107409    3.184578    1.542888
     28          1           0        1.829608    2.146750    1.253862
     29          1           0        1.359827    3.910690    1.156239
     30         17           0        3.711427    3.579378    0.900095
     31         17           0        2.212892    3.311992    3.305958
     32          6           0       -2.261060    0.814213    3.475745
     33          1           0       -1.887780   -0.230911    3.505840
     34          1           0       -2.199629    1.294466    4.475151
     35         17           0       -3.940726    0.824417    2.911869
     36         17           0       -1.299232    1.738802    2.310487
     37          6           0       -1.050598    4.560482    4.582063
     38          1           0       -0.382801    5.435679    4.708473
     39          1           0       -0.879662    4.075388    3.597553
     40         17           0       -2.735644    5.063683    4.720166
     41         17           0       -0.735184    3.387104    5.879038
     42          6           0        4.433931    1.089137   -4.446862
     43          1           0        3.875713    0.280264   -3.928490
     44          1           0        5.528279    0.913426   -4.376626
     45         17           0        4.040713    2.657087   -3.710756
     46         17           0        3.937124    1.171340   -6.141128
     47          6           0       -5.424922    1.971220   -0.388940
     48          1           0       -6.319432    1.404411   -0.060746
     49          1           0       -4.624132    1.930538    0.379726
     50         17           0       -5.874243    3.657103   -0.684008
     51         17           0       -4.829373    1.290283   -1.909391
     52          6           0       -1.590653    0.980971   -4.085861
     53          1           0       -1.918179    1.298021   -5.097254
     54          1           0       -2.148446    1.526250   -3.293106
     55         17           0        0.147798    1.301067   -3.907261
     56         17           0       -1.833032   -0.759840   -3.896934
     57          6           0       -1.405597    5.893346    0.760919
     58          1           0       -1.042817    6.118708   -0.265434
     59          1           0       -2.288331    6.512797    1.022452
     60         17           0       -0.101654    6.202396    1.922645
     61         17           0       -1.831015    4.177113    0.888844
     62          6           0        1.110136    0.330773    4.940800
     63          1           0        0.734332    1.329854    4.632852
     64          1           0        1.955351    0.427093    5.651656
     65         17           0        1.635681   -0.571375    3.513774
     66         17           0       -0.200863   -0.581706    5.704926
     67          6           0        1.067739   -2.171054   -3.027669
     68          1           0        0.189370   -2.761316   -3.355724
     69          1           0        0.752732   -1.166079   -2.669602
     70         17           0        2.206922   -2.003452   -4.369379
     71         17           0        1.906090   -3.033250   -1.723702
     72          6           0        1.870649    3.927257   -5.954399
     73          1           0        2.840903    3.817704   -6.481314
     74          1           0        1.776597    3.160687   -5.158219
     75         17           0        1.765783    5.547807   -5.237687
     76         17           0        0.535026    3.767052   -7.097140
     77          6           0       -1.523321    4.620712   -3.683731
     78          1           0       -0.542811    4.215418   -4.011337
     79          1           0       -1.528346    5.729406   -3.732781
     80         17           0       -2.813711    3.975137   -4.705897
     81         17           0       -1.851431    4.106441   -2.015384
     82          6           0        2.157703    5.969054   -1.624198
     83          1           0        2.773147    5.928600   -2.546413
     84          1           0        2.797339    5.932739   -0.718524
     85         17           0        1.186368    7.445572   -1.619384
     86         17           0        1.023685    4.603303   -1.608915
     87          6           0       -4.377424    6.877245   -1.686510
     88          1           0       -5.349409    6.935130   -2.216373
     89          1           0       -4.074679    5.818610   -1.536754
     90         17           0       -3.142736    7.728116   -2.626992
     91         17           0       -4.509224    7.687708   -0.120235
 ---------------------------------------------------------------------
 Rotational constants (GHZ):           0.0225955           0.0200314           0.0153237
 ONIOM: saving gridpoint 17
 ONIOM: restoring gridpoint  3 on chk file.
 ONIOM: generating point  3 -- low level on real system.
 Standard basis: VSTO-6G (5D, 7F)
   400 basis functions,  2580 primitive gaussians,   430 cartesian basis functions
   170 alpha electrons      170 beta electrons
       nuclear repulsion energy      5298.4323829763 Hartrees.
 Integral buffers will be    131072 words long.
 Regular integral format.
 Two-electron integral symmetry is turned off.
 Do NDO integrals.
 One-electron integrals computed using PRISM.
 NBasis=   400 RedAO= F EigKep=  0.00D+00  NBF=   400
 NBsUse=   400 1.00D-04 EigRej=  0.00D+00 NBFU=   400
 Initial guess from the checkpoint file:  "b.chk"
 B after Tr=    -0.000134   -0.000162   -0.000112
         Rot=    1.000000   -0.000011    0.000004   -0.000009 Ang=  -0.00 deg.
 Initial guess <Sx>= 0.0000 <Sy>= 0.0000 <Sz>= 0.0000 <S**2>=-0.0000 S=-0.0000
 Keep J ints in memory in canonical form, NReq=3161508.
 Overlap will be assumed to be unity.
 Requested convergence on RMS density matrix=1.00D-08 within  64 cycles.
 Requested convergence on MAX density matrix=1.00D-06.
 Requested convergence on             energy=1.00D-06.
 No special actions if energy rises.
 SCF Done:  E(UPM6) = -0.404737601611     A.U. after   11 cycles
            NFock= 10  Conv=0.65D-08     -V/T= 0.9994
 <Sx>= 0.0000 <Sy>= 0.0000 <Sz>= 0.0000 <S**2>=-0.0000 S=-0.0000
 <L.S>=  0.00000000000    
 Annihilation of the first spin contaminant:
 S**2 before annihilation    -0.0000,   after     0.0000
 QCSCF skips out because SCF is already converged.

 **********************************************************************

            Population analysis using the SCF Density.

 **********************************************************************

 Alpha  occ. eigenvalues --   -1.11283  -1.05644  -1.05335  -1.05286  -1.05191
 Alpha  occ. eigenvalues --   -1.05144  -1.05126  -1.04942  -1.04883  -1.04792
 Alpha  occ. eigenvalues --   -1.04750  -1.04712  -1.04481  -1.04456  -1.04348
 Alpha  occ. eigenvalues --   -1.04111  -1.01818  -0.98616  -0.98299  -0.98225
 Alpha  occ. eigenvalues --   -0.98159  -0.98112  -0.97969  -0.97951  -0.97797
 Alpha  occ. eigenvalues --   -0.97773  -0.97753  -0.97631  -0.97411  -0.97339
 Alpha  occ. eigenvalues --   -0.97264  -0.97248  -0.97004  -0.92345  -0.88791
 Alpha  occ. eigenvalues --   -0.88707  -0.88586  -0.88407  -0.88364  -0.88254
 Alpha  occ. eigenvalues --   -0.88222  -0.88129  -0.88089  -0.88015  -0.87888
 Alpha  occ. eigenvalues --   -0.87655  -0.87562  -0.87515  -0.87214  -0.82661
 Alpha  occ. eigenvalues --   -0.79225  -0.72970  -0.65440  -0.62723  -0.62381
 Alpha  occ. eigenvalues --   -0.62118  -0.61861  -0.61645  -0.61546  -0.61490
 Alpha  occ. eigenvalues --   -0.61311  -0.61254  -0.61165  -0.61059  -0.60909
 Alpha  occ. eigenvalues --   -0.60383  -0.60309  -0.60128  -0.60053  -0.60012
 Alpha  occ. eigenvalues --   -0.59777  -0.59616  -0.59536  -0.59464  -0.59373
 Alpha  occ. eigenvalues --   -0.59272  -0.59203  -0.59111  -0.58997  -0.58940
 Alpha  occ. eigenvalues --   -0.58743  -0.58605  -0.58576  -0.58485  -0.58335
 Alpha  occ. eigenvalues --   -0.58278  -0.58076  -0.57802  -0.57731  -0.57710
 Alpha  occ. eigenvalues --   -0.57677  -0.57585  -0.57524  -0.57508  -0.57431
 Alpha  occ. eigenvalues --   -0.57232  -0.57106  -0.57071  -0.56887  -0.56786
 Alpha  occ. eigenvalues --   -0.55185  -0.53417  -0.52346  -0.51060  -0.49677
 Alpha  occ. eigenvalues --   -0.46204  -0.45284  -0.45097  -0.44811  -0.44277
 Alpha  occ. eigenvalues --   -0.44250  -0.44114  -0.43993  -0.43937  -0.43860
 Alpha  occ. eigenvalues --   -0.43761  -0.43706  -0.43586  -0.43496  -0.43460
 Alpha  occ. eigenvalues --   -0.43424  -0.43418  -0.43392  -0.43315  -0.43289
 Alpha  occ. eigenvalues --   -0.43225  -0.43151  -0.43124  -0.43046  -0.42972
 Alpha  occ. eigenvalues --   -0.42907  -0.42863  -0.42804  -0.42761  -0.42627
 Alpha  occ. eigenvalues --   -0.42586  -0.42476  -0.42419  -0.42341  -0.42129
 Alpha  occ. eigenvalues --   -0.42019  -0.41918  -0.41906  -0.41794  -0.41789
 Alpha  occ. eigenvalues --   -0.41708  -0.41686  -0.41623  -0.41611  -0.41481
 Alpha  occ. eigenvalues --   -0.41365  -0.41301  -0.41289  -0.41238  -0.41203
 Alpha  occ. eigenvalues --   -0.41163  -0.41136  -0.41049  -0.41040  -0.40910
 Alpha  occ. eigenvalues --   -0.40864  -0.40764  -0.40599  -0.40586  -0.40512
 Alpha  occ. eigenvalues --   -0.40371  -0.40325  -0.39592  -0.36948  -0.32903
 Alpha virt. eigenvalues --   -0.03656  -0.01321  -0.00987  -0.00954  -0.00893
 Alpha virt. eigenvalues --   -0.00666  -0.00644  -0.00591  -0.00551  -0.00488
 Alpha virt. eigenvalues --   -0.00454  -0.00442  -0.00393  -0.00363  -0.00276
 Alpha virt. eigenvalues --   -0.00255  -0.00235  -0.00224  -0.00204  -0.00194
 Alpha virt. eigenvalues --   -0.00154  -0.00134  -0.00052  -0.00014   0.00044
 Alpha virt. eigenvalues --    0.00340   0.00388   0.00464   0.00493   0.00498
 Alpha virt. eigenvalues --    0.00598   0.00696   0.02610   0.08901   0.14215
 Alpha virt. eigenvalues --    0.14246   0.14428   0.14547   0.14697   0.14766
 Alpha virt. eigenvalues --    0.14873   0.14966   0.14977   0.15031   0.15062
 Alpha virt. eigenvalues --    0.15125   0.15156   0.15160   0.15246   0.15355
 Alpha virt. eigenvalues --    0.15410   0.15439   0.15495   0.15568   0.15618
 Alpha virt. eigenvalues --    0.15734   0.15790   0.15858   0.15914   0.15931
 Alpha virt. eigenvalues --    0.15962   0.15981   0.16094   0.16344   0.16402
 Alpha virt. eigenvalues --    0.16416   0.16715   0.17006   0.17225   0.17962
 Alpha virt. eigenvalues --    0.18564   0.19297   0.19811   0.20394   0.21096
 Alpha virt. eigenvalues --    0.21283   0.21602   0.21806   0.22177   0.22291
 Alpha virt. eigenvalues --    3.16395   3.16814   3.17314   3.17938   3.18102
 Alpha virt. eigenvalues --    3.18343   3.18620   3.18721   3.18966   3.19078
 Alpha virt. eigenvalues --    3.19094   3.19260   3.19322   3.19534   3.19629
 Alpha virt. eigenvalues --    3.19635   3.19699   3.19833   3.19902   3.19989
 Alpha virt. eigenvalues --    3.20016   3.20178   3.20269   3.20301   3.20427
 Alpha virt. eigenvalues --    3.20468   3.20535   3.20548   3.20622   3.20658
 Alpha virt. eigenvalues --    3.20694   3.20827   3.20868   3.20963   3.21003
 Alpha virt. eigenvalues --    3.21057   3.21097   3.21158   3.21174   3.21229
 Alpha virt. eigenvalues --    3.21402   3.21444   3.21557   3.21714   3.21830
 Alpha virt. eigenvalues --    3.21966   3.22059   3.22131   3.22161   3.22303
 Alpha virt. eigenvalues --    3.22439   3.22493   3.22524   3.22584   3.22730
 Alpha virt. eigenvalues --    3.22781   3.22938   3.22985   3.23130   3.23161
 Alpha virt. eigenvalues --    3.23186   3.23284   3.23367   3.23413   3.23477
 Alpha virt. eigenvalues --    3.23496   3.23570   3.23646   3.23738   3.23788
 Alpha virt. eigenvalues --    3.23850   3.23941   3.23963   3.23996   3.24088
 Alpha virt. eigenvalues --    3.24130   3.24150   3.24229   3.24271   3.24308
 Alpha virt. eigenvalues --    3.24369   3.24475   3.24482   3.24536   3.24636
 Alpha virt. eigenvalues --    3.24663   3.24718   3.24802   3.24850   3.24931
 Alpha virt. eigenvalues --    3.24953   3.25022   3.25056   3.25076   3.25097
 Alpha virt. eigenvalues --    3.25139   3.25298   3.25375   3.25453   3.25514
 Alpha virt. eigenvalues --    3.25534   3.25674   3.25728   3.25754   3.25849
 Alpha virt. eigenvalues --    3.25876   3.25922   3.25990   3.26100   3.26214
 Alpha virt. eigenvalues --    3.26274   3.26321   3.26415   3.26451   3.26784
 Alpha virt. eigenvalues --    3.26839   3.26904   3.26989   3.27023   3.27156
 Alpha virt. eigenvalues --    3.27231   3.27330   3.27377   3.27395   3.27463
 Alpha virt. eigenvalues --    3.27535   3.27630   3.27732   3.27751   3.27833
 Alpha virt. eigenvalues --    3.27852   3.27950   3.28144   3.28158   3.28201
 Alpha virt. eigenvalues --    3.28281   3.28378   3.28466   3.28543   3.28579
 Alpha virt. eigenvalues --    3.28636   3.28672   3.28725   3.28821   3.28913
 Alpha virt. eigenvalues --    3.29123   3.29250   3.29341   3.29701   3.29962
  Beta  occ. eigenvalues --   -1.11283  -1.05644  -1.05335  -1.05286  -1.05191
  Beta  occ. eigenvalues --   -1.05144  -1.05126  -1.04942  -1.04883  -1.04792
  Beta  occ. eigenvalues --   -1.04750  -1.04712  -1.04481  -1.04456  -1.04348
  Beta  occ. eigenvalues --   -1.04111  -1.01818  -0.98616  -0.98299  -0.98225
  Beta  occ. eigenvalues --   -0.98159  -0.98112  -0.97969  -0.97951  -0.97797
  Beta  occ. eigenvalues --   -0.97773  -0.97753  -0.97631  -0.97411  -0.97339
  Beta  occ. eigenvalues --   -0.97264  -0.97248  -0.97004  -0.92345  -0.88791
  Beta  occ. eigenvalues --   -0.88707  -0.88586  -0.88407  -0.88364  -0.88254
  Beta  occ. eigenvalues --   -0.88222  -0.88129  -0.88089  -0.88015  -0.87888
  Beta  occ. eigenvalues --   -0.87655  -0.87562  -0.87515  -0.87214  -0.82661
  Beta  occ. eigenvalues --   -0.79225  -0.72970  -0.65440  -0.62723  -0.62381
  Beta  occ. eigenvalues --   -0.62118  -0.61861  -0.61645  -0.61546  -0.61490
  Beta  occ. eigenvalues --   -0.61311  -0.61254  -0.61165  -0.61059  -0.60909
  Beta  occ. eigenvalues --   -0.60383  -0.60309  -0.60128  -0.60053  -0.60012
  Beta  occ. eigenvalues --   -0.59777  -0.59616  -0.59536  -0.59464  -0.59373
  Beta  occ. eigenvalues --   -0.59272  -0.59203  -0.59111  -0.58997  -0.58940
  Beta  occ. eigenvalues --   -0.58743  -0.58605  -0.58576  -0.58485  -0.58335
  Beta  occ. eigenvalues --   -0.58278  -0.58076  -0.57802  -0.57731  -0.57710
  Beta  occ. eigenvalues --   -0.57677  -0.57585  -0.57524  -0.57508  -0.57431
  Beta  occ. eigenvalues --   -0.57232  -0.57106  -0.57071  -0.56887  -0.56786
  Beta  occ. eigenvalues --   -0.55185  -0.53417  -0.52346  -0.51060  -0.49677
  Beta  occ. eigenvalues --   -0.46204  -0.45284  -0.45097  -0.44811  -0.44277
  Beta  occ. eigenvalues --   -0.44250  -0.44114  -0.43993  -0.43937  -0.43860
  Beta  occ. eigenvalues --   -0.43761  -0.43706  -0.43586  -0.43496  -0.43460
  Beta  occ. eigenvalues --   -0.43424  -0.43418  -0.43392  -0.43315  -0.43289
  Beta  occ. eigenvalues --   -0.43225  -0.43151  -0.43124  -0.43046  -0.42972
  Beta  occ. eigenvalues --   -0.42907  -0.42863  -0.42804  -0.42761  -0.42627
  Beta  occ. eigenvalues --   -0.42586  -0.42476  -0.42419  -0.42341  -0.42129
  Beta  occ. eigenvalues --   -0.42019  -0.41918  -0.41906  -0.41794  -0.41789
  Beta  occ. eigenvalues --   -0.41708  -0.41686  -0.41623  -0.41611  -0.41481
  Beta  occ. eigenvalues --   -0.41365  -0.41301  -0.41289  -0.41238  -0.41203
  Beta  occ. eigenvalues --   -0.41163  -0.41136  -0.41049  -0.41040  -0.40910
  Beta  occ. eigenvalues --   -0.40864  -0.40764  -0.40599  -0.40586  -0.40512
  Beta  occ. eigenvalues --   -0.40371  -0.40325  -0.39592  -0.36948  -0.32903
  Beta virt. eigenvalues --   -0.03656  -0.01321  -0.00987  -0.00954  -0.00893
  Beta virt. eigenvalues --   -0.00666  -0.00644  -0.00591  -0.00551  -0.00488
  Beta virt. eigenvalues --   -0.00454  -0.00442  -0.00393  -0.00363  -0.00276
  Beta virt. eigenvalues --   -0.00255  -0.00235  -0.00224  -0.00204  -0.00194
  Beta virt. eigenvalues --   -0.00154  -0.00134  -0.00052  -0.00014   0.00044
  Beta virt. eigenvalues --    0.00340   0.00388   0.00464   0.00493   0.00498
  Beta virt. eigenvalues --    0.00598   0.00696   0.02610   0.08901   0.14215
  Beta virt. eigenvalues --    0.14246   0.14428   0.14547   0.14697   0.14766
  Beta virt. eigenvalues --    0.14873   0.14966   0.14977   0.15031   0.15062
  Beta virt. eigenvalues --    0.15125   0.15156   0.15160   0.15246   0.15355
  Beta virt. eigenvalues --    0.15410   0.15439   0.15495   0.15568   0.15618
  Beta virt. eigenvalues --    0.15734   0.15790   0.15858   0.15914   0.15931
  Beta virt. eigenvalues --    0.15962   0.15981   0.16094   0.16344   0.16402
  Beta virt. eigenvalues --    0.16416   0.16715   0.17006   0.17225   0.17962
  Beta virt. eigenvalues --    0.18564   0.19297   0.19811   0.20394   0.21096
  Beta virt. eigenvalues --    0.21283   0.21602   0.21806   0.22177   0.22291
  Beta virt. eigenvalues --    3.16395   3.16814   3.17314   3.17938   3.18102
  Beta virt. eigenvalues --    3.18343   3.18620   3.18721   3.18966   3.19078
  Beta virt. eigenvalues --    3.19094   3.19260   3.19322   3.19534   3.19629
  Beta virt. eigenvalues --    3.19635   3.19699   3.19833   3.19902   3.19989
  Beta virt. eigenvalues --    3.20016   3.20178   3.20269   3.20301   3.20427
  Beta virt. eigenvalues --    3.20468   3.20535   3.20548   3.20622   3.20658
  Beta virt. eigenvalues --    3.20694   3.20827   3.20868   3.20963   3.21003
  Beta virt. eigenvalues --    3.21057   3.21097   3.21158   3.21174   3.21229
  Beta virt. eigenvalues --    3.21402   3.21444   3.21557   3.21714   3.21830
  Beta virt. eigenvalues --    3.21966   3.22059   3.22131   3.22161   3.22303
  Beta virt. eigenvalues --    3.22439   3.22493   3.22524   3.22584   3.22730
  Beta virt. eigenvalues --    3.22781   3.22938   3.22985   3.23130   3.23161
  Beta virt. eigenvalues --    3.23186   3.23284   3.23367   3.23413   3.23477
  Beta virt. eigenvalues --    3.23496   3.23570   3.23646   3.23738   3.23788
  Beta virt. eigenvalues --    3.23850   3.23941   3.23963   3.23996   3.24088
  Beta virt. eigenvalues --    3.24130   3.24150   3.24229   3.24271   3.24308
  Beta virt. eigenvalues --    3.24369   3.24475   3.24482   3.24536   3.24636
  Beta virt. eigenvalues --    3.24663   3.24718   3.24802   3.24850   3.24931
  Beta virt. eigenvalues --    3.24953   3.25022   3.25056   3.25076   3.25097
  Beta virt. eigenvalues --    3.25139   3.25298   3.25375   3.25453   3.25514
  Beta virt. eigenvalues --    3.25534   3.25674   3.25728   3.25754   3.25849
  Beta virt. eigenvalues --    3.25876   3.25922   3.25990   3.26100   3.26214
  Beta virt. eigenvalues --    3.26274   3.26321   3.26415   3.26451   3.26784
  Beta virt. eigenvalues --    3.26839   3.26904   3.26989   3.27023   3.27156
  Beta virt. eigenvalues --    3.27231   3.27330   3.27377   3.27395   3.27463
  Beta virt. eigenvalues --    3.27535   3.27630   3.27732   3.27751   3.27833
  Beta virt. eigenvalues --    3.27852   3.27950   3.28144   3.28158   3.28201
  Beta virt. eigenvalues --    3.28281   3.28378   3.28466   3.28543   3.28579
  Beta virt. eigenvalues --    3.28636   3.28672   3.28725   3.28821   3.28913
  Beta virt. eigenvalues --    3.29123   3.29250   3.29341   3.29701   3.29962
          Condensed to atoms (all electrons):
          Atomic-Atomic Spin Densities.
 Mulliken charges and spin densities:
               1          2
     1  C   -0.015997   0.000000
     2  C   -0.142040   0.000000
     3  C   -0.149211   0.000000
     4  C   -0.156439   0.000000
     5  H    0.153376   0.000000
     6  C   -0.126401   0.000000
     7  C   -0.151854   0.000000
     8  H    0.155189   0.000000
     9  C   -0.117572   0.000000
    10  H    0.149317   0.000000
    11  C   -0.369266   0.000000
    12  H    0.157079   0.000000
    13  H    0.150612   0.000000
    14  H    0.145643   0.000000
    15  H    0.158717   0.000000
    16  H    0.161716   0.000000
    17  C   -0.139085   0.000000
    18  H    0.187887   0.000000
    19  H    0.186141   0.000000
    20  Cl  -0.095012   0.000000
    21  Cl  -0.140429   0.000000
    22  C   -0.144397   0.000000
    23  H    0.192867   0.000000
    24  H    0.191559   0.000000
    25  Cl  -0.127752   0.000000
    26  Cl  -0.111617   0.000000
    27  C   -0.143615   0.000000
    28  H    0.198319   0.000000
    29  H    0.196889   0.000000
    30  Cl  -0.126299   0.000000
    31  Cl  -0.126058   0.000000
    32  C   -0.129120   0.000000
    33  H    0.192389   0.000000
    34  H    0.191981   0.000000
    35  Cl  -0.129913   0.000000
    36  Cl  -0.123532   0.000000
    37  C   -0.137620   0.000000
    38  H    0.184831   0.000000
    39  H    0.194138   0.000000
    40  Cl  -0.100883   0.000000
    41  Cl  -0.142121   0.000000
    42  C   -0.133030   0.000000
    43  H    0.194002   0.000000
    44  H    0.195206   0.000000
    45  Cl  -0.141520   0.000000
    46  Cl  -0.114564   0.000000
    47  C   -0.141859   0.000000
    48  H    0.183113   0.000000
    49  H    0.191453   0.000000
    50  Cl  -0.117457   0.000000
    51  Cl  -0.114987   0.000000
    52  C   -0.127091   0.000000
    53  H    0.190337   0.000000
    54  H    0.195684   0.000000
    55  Cl  -0.142027   0.000000
    56  Cl  -0.116645   0.000000
    57  C   -0.139108   0.000000
    58  H    0.198844   0.000000
    59  H    0.193869   0.000000
    60  Cl  -0.134595   0.000000
    61  Cl  -0.113483   0.000000
    62  C   -0.145614   0.000000
    63  H    0.191116   0.000000
    64  H    0.186455   0.000000
    65  Cl  -0.112337   0.000000
    66  Cl  -0.120256   0.000000
    67  C   -0.132926   0.000000
    68  H    0.183992   0.000000
    69  H    0.198481   0.000000
    70  Cl  -0.116817   0.000000
    71  Cl  -0.133599   0.000000
    72  C   -0.139008   0.000000
    73  H    0.191479   0.000000
    74  H    0.189607   0.000000
    75  Cl  -0.137071   0.000000
    76  Cl  -0.106364   0.000000
    77  C   -0.143145   0.000000
    78  H    0.193013   0.000000
    79  H    0.193992   0.000000
    80  Cl  -0.119642   0.000000
    81  Cl  -0.127281   0.000000
    82  C   -0.143698   0.000000
    83  H    0.188965   0.000000
    84  H    0.188298   0.000000
    85  Cl  -0.106747   0.000000
    86  Cl  -0.130631   0.000000
    87  C   -0.149288   0.000000
    88  H    0.186220   0.000000
    89  H    0.193237   0.000000
    90  Cl  -0.116889   0.000000
    91  Cl  -0.112101   0.000000
 Sum of Mulliken charges =  -0.00000   0.00000
 Mulliken charges and spin densities with hydrogens summed into heavy atoms:
               1          2
     1  C   -0.015997   0.000000
     2  C    0.011336   0.000000
     3  C    0.005978   0.000000
     4  C   -0.007122   0.000000
     6  C    0.030677   0.000000
     7  C   -0.001242   0.000000
     9  C    0.028072   0.000000
    11  C   -0.048833   0.000000
    17  C    0.234943   0.000000
    20  Cl  -0.095012   0.000000
    21  Cl  -0.140429   0.000000
    22  C    0.240029   0.000000
    25  Cl  -0.127752   0.000000
    26  Cl  -0.111617   0.000000
    27  C    0.251592   0.000000
    30  Cl  -0.126299   0.000000
    31  Cl  -0.126058   0.000000
    32  C    0.255249   0.000000
    35  Cl  -0.129913   0.000000
    36  Cl  -0.123532   0.000000
    37  C    0.241349   0.000000
    40  Cl  -0.100883   0.000000
    41  Cl  -0.142121   0.000000
    42  C    0.256178   0.000000
    45  Cl  -0.141520   0.000000
    46  Cl  -0.114564   0.000000
    47  C    0.232707   0.000000
    50  Cl  -0.117457   0.000000
    51  Cl  -0.114987   0.000000
    52  C    0.258929   0.000000
    55  Cl  -0.142027   0.000000
    56  Cl  -0.116645   0.000000
    57  C    0.253605   0.000000
    60  Cl  -0.134595   0.000000
    61  Cl  -0.113483   0.000000
    62  C    0.231957   0.000000
    65  Cl  -0.112337   0.000000
    66  Cl  -0.120256   0.000000
    67  C    0.249547   0.000000
    70  Cl  -0.116817   0.000000
    71  Cl  -0.133599   0.000000
    72  C    0.242078   0.000000
    75  Cl  -0.137071   0.000000
    76  Cl  -0.106364   0.000000
    77  C    0.243860   0.000000
    80  Cl  -0.119642   0.000000
    81  Cl  -0.127281   0.000000
    82  C    0.233564   0.000000
    85  Cl  -0.106747   0.000000
    86  Cl  -0.130631   0.000000
    87  C    0.230170   0.000000
    90  Cl  -0.116889   0.000000
    91  Cl  -0.112101   0.000000
 Charge=              0.0000 electrons
 Dipole moment (field-independent basis, Debye):
    X=             -0.8883    Y=             -0.1755    Z=              0.4924  Tot=              1.0307
 N-N= 5.298432382976D+03 E-N=-9.742019727339D+03  KE=-6.384513649469D+02
 Calling FoFJK, ICntrl=      2127 FMM=F ISym2X=0 I1Cent= 0 IOpClX= 1 NMat=1 NMatS=1 NMatT=0.
 Cartesian Forces:  Max     0.062067606 RMS     0.008380210
 SvSCFP is copying densities from files   528 and   530 to   603.
 ONIOM: saving gridpoint  3
 ONIOM: restoring gridpoint 17
 ONIOM: restoring gridpoint  2 on chk file.
 ONIOM: generating point  2 -- high level on model system.
 Standard basis: 6-31G(d) (6D, 7F)
   136 basis functions,   256 primitive gaussians,   136 cartesian basis functions
    29 alpha electrons       27 beta electrons
       nuclear repulsion energy       319.2470077251 Hartrees.
 NAtoms=   91 NActive=   16 NUniq=   16 SFac= 1.00D+00 NAtFMM=   60 NAOKFM=F Big=F
 Integral buffers will be    131072 words long.
 Raffenetti 2 integral format.
 Two-electron integral symmetry is turned off.
 Nuclear repulsion after empirical dispersion term =      319.2193725327 Hartrees.
 One-electron integrals computed using PRISM.
 NBasis=   136 RedAO= T EigKep=  4.71D-04  NBF=   136
 NBsUse=   136 1.00D-06 EigRej= -1.00D+00 NBFU=   136
 Initial guess from the checkpoint file:  "b.chk"
 B after Tr=     0.000768    0.000164    0.001354
         Rot=    1.000000   -0.000146   -0.000200    0.000093 Ang=  -0.03 deg.
 Initial guess <Sx>= 0.0000 <Sy>= 0.0000 <Sz>= 1.0000 <S**2>= 2.0291 S= 1.0097
 Requested convergence on RMS density matrix=1.00D-08 within  64 cycles.
 Requested convergence on MAX density matrix=1.00D-06.
 Requested convergence on             energy=1.00D-06.
 No special actions if energy rises.
 SCF Done:  E(UB3LYP) =  -309.578698175     A.U. after   12 cycles
            NFock= 12  Conv=0.50D-08     -V/T= 2.0096
 <Sx>= 0.0000 <Sy>= 0.0000 <Sz>= 1.0000 <S**2>= 2.0290 S= 1.0097
 <L.S>=  0.00000000000    
 Annihilation of the first spin contaminant:
 S**2 before annihilation     2.0290,   after     2.0004
 QCSCF skips out because SCF is already converged.

 **********************************************************************

            Population analysis using the SCF Density.

 **********************************************************************

 Alpha  occ. eigenvalues --  -10.19786 -10.19665 -10.19502 -10.18854 -10.18767
 Alpha  occ. eigenvalues --  -10.18672 -10.18576 -10.18571  -0.85686  -0.79100
 Alpha  occ. eigenvalues --   -0.74495  -0.72204  -0.63258  -0.60030  -0.56317
 Alpha  occ. eigenvalues --   -0.51008  -0.46925  -0.45276  -0.43589  -0.41809
 Alpha  occ. eigenvalues --   -0.40901  -0.39693  -0.37051  -0.34966  -0.33519
 Alpha  occ. eigenvalues --   -0.29754  -0.25540  -0.23536  -0.13991
 Alpha virt. eigenvalues --    0.00216   0.02717   0.09791   0.11753   0.12837
 Alpha virt. eigenvalues --    0.15872   0.16102   0.16848   0.18168   0.19729
 Alpha virt. eigenvalues --    0.21118   0.26497   0.27917   0.30821   0.33618
 Alpha virt. eigenvalues --    0.35994   0.37340   0.45994   0.51375   0.52435
 Alpha virt. eigenvalues --    0.53714   0.54878   0.55314   0.57173   0.58053
 Alpha virt. eigenvalues --    0.58583   0.59691   0.60108   0.62030   0.62056
 Alpha virt. eigenvalues --    0.63352   0.64430   0.65136   0.68298   0.71565
 Alpha virt. eigenvalues --    0.77159   0.82444   0.83630   0.83895   0.84554
 Alpha virt. eigenvalues --    0.85469   0.88714   0.90577   0.92200   0.92971
 Alpha virt. eigenvalues --    0.93556   0.95293   0.98916   1.01439   1.04176
 Alpha virt. eigenvalues --    1.08576   1.14368   1.16643   1.18202   1.25792
 Alpha virt. eigenvalues --    1.28948   1.32732   1.38856   1.43885   1.44564
 Alpha virt. eigenvalues --    1.45515   1.48329   1.49282   1.51373   1.62751
 Alpha virt. eigenvalues --    1.69520   1.76907   1.80229   1.83883   1.87382
 Alpha virt. eigenvalues --    1.89374   1.91332   1.94273   1.96935   1.98037
 Alpha virt. eigenvalues --    2.04752   2.08708   2.10565   2.14463   2.14917
 Alpha virt. eigenvalues --    2.17875   2.22026   2.26566   2.32093   2.32537
 Alpha virt. eigenvalues --    2.34635   2.47189   2.50592   2.57105   2.59591
 Alpha virt. eigenvalues --    2.61934   2.65858   2.74069   2.75600   2.76994
 Alpha virt. eigenvalues --    2.85990   2.91839   3.13675   3.41844   4.06728
 Alpha virt. eigenvalues --    4.09480   4.12322   4.13211   4.24148   4.32904
 Alpha virt. eigenvalues --    4.42213   4.71100
  Beta  occ. eigenvalues --  -10.19588 -10.18929 -10.18762 -10.18740 -10.18440
  Beta  occ. eigenvalues --  -10.18429 -10.18359 -10.18298  -0.85081  -0.77259
  Beta  occ. eigenvalues --   -0.74126  -0.69879  -0.61543  -0.59641  -0.55139
  Beta  occ. eigenvalues --   -0.50417  -0.46256  -0.44798  -0.42767  -0.41657
  Beta  occ. eigenvalues --   -0.39841  -0.38411  -0.35802  -0.34502  -0.33290
  Beta  occ. eigenvalues --   -0.26141  -0.24531
  Beta virt. eigenvalues --   -0.11486  -0.02272   0.01127   0.06040   0.10048
  Beta virt. eigenvalues --    0.12492   0.13889   0.16358   0.16553   0.18042
  Beta virt. eigenvalues --    0.18760   0.20334   0.21994   0.27347   0.28894
  Beta virt. eigenvalues --    0.30896   0.33995   0.36836   0.37954   0.46436
  Beta virt. eigenvalues --    0.52751   0.53131   0.54759   0.55384   0.57694
  Beta virt. eigenvalues --    0.58223   0.59388   0.59661   0.60120   0.61976
  Beta virt. eigenvalues --    0.62489   0.63830   0.64133   0.65868   0.67074
  Beta virt. eigenvalues --    0.69958   0.72901   0.77635   0.83074   0.83973
  Beta virt. eigenvalues --    0.84196   0.85417   0.85699   0.89473   0.90993
  Beta virt. eigenvalues --    0.93067   0.93996   0.94664   0.95746   0.99967
  Beta virt. eigenvalues --    1.01788   1.05471   1.09194   1.15010   1.17064
  Beta virt. eigenvalues --    1.18686   1.26428   1.30058   1.34181   1.40198
  Beta virt. eigenvalues --    1.44406   1.45286   1.45919   1.49085   1.50287
  Beta virt. eigenvalues --    1.51812   1.67148   1.73165   1.78614   1.80694
  Beta virt. eigenvalues --    1.85967   1.89316   1.90720   1.92504   1.96256
  Beta virt. eigenvalues --    1.97650   1.99596   2.05546   2.11942   2.13015
  Beta virt. eigenvalues --    2.15258   2.15516   2.18623   2.23323   2.27680
  Beta virt. eigenvalues --    2.32744   2.34600   2.36710   2.49115   2.52151
  Beta virt. eigenvalues --    2.58265   2.60043   2.63414   2.66657   2.74523
  Beta virt. eigenvalues --    2.75830   2.77368   2.86392   2.92479   3.14082
  Beta virt. eigenvalues --    3.42053   4.08241   4.10238   4.12582   4.14842
  Beta virt. eigenvalues --    4.26224   4.33169   4.43130   4.71580
          Condensed to atoms (all electrons):
          Atomic-Atomic Spin Densities.
 Mulliken charges and spin densities:
               1          2
     1  C    0.191263  -0.103044
     2  C   -0.182999   0.238052
     3  C   -0.185180   0.276490
     4  C   -0.129435  -0.128200
     5  H    0.125516  -0.010547
     6  C   -0.173606   0.619064
     7  C   -0.126431  -0.143812
     8  H    0.125832  -0.010578
     9  C   -0.133848   0.317694
    10  H    0.128941   0.004841
    11  C   -0.344049   1.018821
    12  H    0.135913  -0.007429
    13  H    0.128452   0.005464
    14  H    0.128637  -0.015358
    15  H    0.154418  -0.033801
    16  H    0.156578  -0.027658
    17  C    0.000000   0.000000
    18  H    0.000000   0.000000
    19  H    0.000000   0.000000
    20  Cl   0.000000   0.000000
    21  Cl   0.000000   0.000000
    22  C    0.000000   0.000000
    23  H    0.000000   0.000000
    24  H    0.000000   0.000000
    25  Cl   0.000000   0.000000
    26  Cl   0.000000   0.000000
    27  C    0.000000   0.000000
    28  H    0.000000   0.000000
    29  H    0.000000   0.000000
    30  Cl   0.000000   0.000000
    31  Cl   0.000000   0.000000
    32  C    0.000000   0.000000
    33  H    0.000000   0.000000
    34  H    0.000000   0.000000
    35  Cl   0.000000   0.000000
    36  Cl   0.000000   0.000000
    37  C    0.000000   0.000000
    38  H    0.000000   0.000000
    39  H    0.000000   0.000000
    40  Cl   0.000000   0.000000
    41  Cl   0.000000   0.000000
    42  C    0.000000   0.000000
    43  H    0.000000   0.000000
    44  H    0.000000   0.000000
    45  Cl   0.000000   0.000000
    46  Cl   0.000000   0.000000
    47  C    0.000000   0.000000
    48  H    0.000000   0.000000
    49  H    0.000000   0.000000
    50  Cl   0.000000   0.000000
    51  Cl   0.000000   0.000000
    52  C    0.000000   0.000000
    53  H    0.000000   0.000000
    54  H    0.000000   0.000000
    55  Cl   0.000000   0.000000
    56  Cl   0.000000   0.000000
    57  C    0.000000   0.000000
    58  H    0.000000   0.000000
    59  H    0.000000   0.000000
    60  Cl   0.000000   0.000000
    61  Cl   0.000000   0.000000
    62  C    0.000000   0.000000
    63  H    0.000000   0.000000
    64  H    0.000000   0.000000
    65  Cl   0.000000   0.000000
    66  Cl   0.000000   0.000000
    67  C    0.000000   0.000000
    68  H    0.000000   0.000000
    69  H    0.000000   0.000000
    70  Cl   0.000000   0.000000
    71  Cl   0.000000   0.000000
    72  C    0.000000   0.000000
    73  H    0.000000   0.000000
    74  H    0.000000   0.000000
    75  Cl   0.000000   0.000000
    76  Cl   0.000000   0.000000
    77  C    0.000000   0.000000
    78  H    0.000000   0.000000
    79  H    0.000000   0.000000
    80  Cl   0.000000   0.000000
    81  Cl   0.000000   0.000000
    82  C    0.000000   0.000000
    83  H    0.000000   0.000000
    84  H    0.000000   0.000000
    85  Cl   0.000000   0.000000
    86  Cl   0.000000   0.000000
    87  C    0.000000   0.000000
    88  H    0.000000   0.000000
    89  H    0.000000   0.000000
    90  Cl   0.000000   0.000000
    91  Cl   0.000000   0.000000
 Sum of Mulliken charges =  -0.00000   2.00000
 Mulliken charges and spin densities with hydrogens summed into heavy atoms:
               1          2
     1  C    0.191263  -0.103044
     2  C   -0.057483   0.227505
     3  C   -0.059348   0.265912
     4  C   -0.000494  -0.123358
     6  C   -0.037693   0.611635
     7  C    0.002021  -0.138348
     9  C   -0.005212   0.302336
    11  C   -0.033054   0.957362
    17  C    0.000000   0.000000
    20  Cl   0.000000   0.000000
    21  Cl   0.000000   0.000000
    22  C    0.000000   0.000000
    25  Cl   0.000000   0.000000
    26  Cl   0.000000   0.000000
    27  C    0.000000   0.000000
    30  Cl   0.000000   0.000000
    31  Cl   0.000000   0.000000
    32  C    0.000000   0.000000
    35  Cl   0.000000   0.000000
    36  Cl   0.000000   0.000000
    37  C    0.000000   0.000000
    40  Cl   0.000000   0.000000
    41  Cl   0.000000   0.000000
    42  C    0.000000   0.000000
    45  Cl   0.000000   0.000000
    46  Cl   0.000000   0.000000
    47  C    0.000000   0.000000
    50  Cl   0.000000   0.000000
    51  Cl   0.000000   0.000000
    52  C    0.000000   0.000000
    55  Cl   0.000000   0.000000
    56  Cl   0.000000   0.000000
    57  C    0.000000   0.000000
    60  Cl   0.000000   0.000000
    61  Cl   0.000000   0.000000
    62  C    0.000000   0.000000
    65  Cl   0.000000   0.000000
    66  Cl   0.000000   0.000000
    67  C    0.000000   0.000000
    70  Cl   0.000000   0.000000
    71  Cl   0.000000   0.000000
    72  C    0.000000   0.000000
    75  Cl   0.000000   0.000000
    76  Cl   0.000000   0.000000
    77  C    0.000000   0.000000
    80  Cl   0.000000   0.000000
    81  Cl   0.000000   0.000000
    82  C    0.000000   0.000000
    85  Cl   0.000000   0.000000
    86  Cl   0.000000   0.000000
    87  C    0.000000   0.000000
    90  Cl   0.000000   0.000000
    91  Cl   0.000000   0.000000
 Electronic spatial extent (au):  <R**2>=            993.8612
 Charge=             -0.0000 electrons
 Dipole moment (field-independent basis, Debye):
    X=              0.0573    Y=             -0.0054    Z=             -0.0403  Tot=              0.0703
 Quadrupole moment (field-independent basis, Debye-Ang):
   XX=            -42.4154   YY=            -44.6950   ZZ=            -48.9067
   XY=              0.1212   XZ=             -0.1033   YZ=             -3.4641
 Traceless Quadrupole moment (field-independent basis, Debye-Ang):
   XX=              2.9236   YY=              0.6440   ZZ=             -3.5677
   XY=              0.1212   XZ=             -0.1033   YZ=             -3.4641
 Octapole moment (field-independent basis, Debye-Ang**2):
  XXX=             -1.8174  YYY=              7.1773  ZZZ=             30.6588  XYY=             -0.0565
  XXY=              4.6139  XXZ=             12.6545  XZZ=              1.9516  YZZ=              5.3830
  YYZ=             11.2308  XYZ=              0.5740
 Hexadecapole moment (field-independent basis, Debye-Ang**3):
 XXXX=           -844.5292 YYYY=           -307.2936 ZZZZ=           -157.3224 XXXY=            -51.5102
 XXXZ=             73.4401 YYYX=            -64.8751 YYYZ=             58.1633 ZZZX=             67.2114
 ZZZY=             68.4072 XXYY=           -191.2311 XXZZ=           -186.3709 YYZZ=            -74.0047
 XXYZ=             12.1218 YYXZ=             20.2622 ZZXY=            -18.1468
 N-N= 3.192193725327D+02 E-N=-1.354840670350D+03  KE= 3.066338409994D+02
                          Isotropic Fermi Contact Couplings
        Atom                 a.u.       MegaHertz       Gauss      10(-4) cm-1
     1  C(13)             -0.00370      -2.07999      -0.74219      -0.69381
     2  C(13)              0.02482      13.95289       4.97874       4.65418
     3  C(13)              0.03077      17.29538       6.17142       5.76912
     4  C(13)             -0.01947     -10.94550      -3.90563      -3.65103
     5  H(1)              -0.00369      -8.25767      -2.94654      -2.75446
     6  C(13)              0.04574      25.71127       9.17442       8.57636
     7  C(13)             -0.02150     -12.08568      -4.31247      -4.03135
     8  H(1)              -0.00405      -9.04570      -3.22773      -3.01732
     9  C(13)              0.03465      19.47846       6.95040       6.49732
    10  H(1)               0.00153       3.41602       1.21892       1.13946
    11  C(13)              0.08512      47.84618      17.07271      15.95977
    12  H(1)               0.00338       7.56493       2.69936       2.52339
    13  H(1)               0.00173       3.87081       1.38120       1.29116
    14  H(1)              -0.00476     -10.63400      -3.79448      -3.54712
    15  H(1)              -0.00680     -15.20270      -5.42470      -5.07107
    16  H(1)              -0.00564     -12.60277      -4.49698      -4.20383
 --------------------------------------------------------
       Center         ----  Spin Dipole Couplings  ----
                      3XX-RR        3YY-RR        3ZZ-RR
 --------------------------------------------------------
     1   Atom        0.076034     -0.005807     -0.070227
     2   Atom       -0.118031     -0.049385      0.167416
     3   Atom       -0.121751     -0.052822      0.174572
     4   Atom        0.055583      0.015101     -0.070683
     5   Atom       -0.005292      0.008875     -0.003584
     6   Atom       -0.347175     -0.114578      0.461752
     7   Atom        0.062988      0.021245     -0.084233
     8   Atom        0.004235      0.004210     -0.008444
     9   Atom       -0.146743     -0.076435      0.223178
    10   Atom        0.005216     -0.000996     -0.004220
    11   Atom       -0.060467      0.249960     -0.189493
    12   Atom       -0.027610      0.033640     -0.006030
    13   Atom        0.006433     -0.001989     -0.004444
    14   Atom        0.024151     -0.018281     -0.005870
    15   Atom        0.054538     -0.012473     -0.042065
    16   Atom       -0.039667     -0.020484      0.060151
 --------------------------------------------------------
                        XY            XZ            YZ
 --------------------------------------------------------
     1   Atom        0.037761      0.042863     -0.028155
     2   Atom        0.011430      0.010183      0.136698
     3   Atom        0.018179      0.027640      0.154471
     4   Atom       -0.006861     -0.009612     -0.058245
     5   Atom       -0.006837      0.003417     -0.008420
     6   Atom        0.075010      0.108695      0.438080
     7   Atom        0.001120     -0.012204     -0.062357
     8   Atom        0.003670     -0.001570     -0.010230
     9   Atom        0.009103      0.014295      0.183325
    10   Atom       -0.001325     -0.000104     -0.001703
    11   Atom       -0.600864     -0.408628      0.514422
    12   Atom       -0.033147      0.018692     -0.020970
    13   Atom        0.002534     -0.001947     -0.002040
    14   Atom        0.003048     -0.002665      0.007354
    15   Atom        0.034204      0.024974      0.040519
    16   Atom       -0.037488      0.020508     -0.030841
 --------------------------------------------------------


 ---------------------------------------------------------------------------------
              Anisotropic Spin Dipole Couplings in Principal Axis System
 ---------------------------------------------------------------------------------

       Atom             a.u.   MegaHertz   Gauss  10(-4) cm-1        Axes

              Baa    -0.0976   -13.098    -4.674    -4.369 -0.2998  0.3903  0.8705
     1 C(13)  Bbb     0.0010     0.137     0.049     0.046 -0.1803  0.8729 -0.4534
              Bcc     0.0966    12.962     4.625     4.324  0.9368  0.2929  0.1913
 
              Baa    -0.1231   -16.517    -5.894    -5.509  0.7931 -0.5614  0.2364
     2 C(13)  Bbb    -0.1110   -14.890    -5.313    -4.967  0.6078  0.7038 -0.3678
              Bcc     0.2340    31.407    11.207    10.476  0.0401  0.4354  0.8994
 
              Baa    -0.1327   -17.802    -6.352    -5.938 -0.4196  0.8256 -0.3773
     3 C(13)  Bbb    -0.1229   -16.489    -5.884    -5.500  0.9036  0.3401 -0.2606
              Bcc     0.2555    34.291    12.236    11.438  0.0868  0.4503  0.8887
 
              Baa    -0.1010   -13.553    -4.836    -4.521  0.0744  0.4507  0.8896
     4 C(13)  Bbb     0.0443     5.942     2.120     1.982  0.1444  0.8778 -0.4568
              Bcc     0.0567     7.610     2.716     2.539  0.9867 -0.1624 -0.0002
 
              Baa    -0.0081    -4.297    -1.533    -1.433  0.9351  0.3500 -0.0555
     5 H(1)   Bbb    -0.0078    -4.175    -1.490    -1.393 -0.1015  0.4144  0.9044
              Bcc     0.0159     8.472     3.023     2.826 -0.3396  0.8401 -0.4230
 
              Baa    -0.3728   -50.020   -17.848   -16.685  0.8314 -0.5291  0.1695
     6 C(13)  Bbb    -0.3414   -45.817   -16.349   -15.283  0.5419  0.7048 -0.4578
              Bcc     0.7142    95.837    34.197    31.968  0.1228  0.4725  0.8728
 
              Baa    -0.1138   -15.271    -5.449    -5.094  0.0599  0.4181  0.9064
     7 C(13)  Bbb     0.0478     6.413     2.288     2.139 -0.3609  0.8557 -0.3708
              Bcc     0.0660     8.857     3.161     2.954  0.9307  0.3049 -0.2022
 
              Baa    -0.0142    -7.553    -2.695    -2.519 -0.0234  0.4901  0.8714
     8 H(1)   Bbb     0.0022     1.174     0.419     0.392  0.8888 -0.3888  0.2425
              Bcc     0.0120     6.378     2.276     2.128  0.4576  0.7802 -0.4265
 
              Baa    -0.1636   -21.960    -7.836    -7.325 -0.1276  0.8981 -0.4209
     9 C(13)  Bbb    -0.1471   -19.738    -7.043    -6.584  0.9911  0.0998 -0.0877
              Bcc     0.3107    41.698    14.879    13.909  0.0367  0.4284  0.9029
 
              Baa    -0.0050    -2.663    -0.950    -0.888  0.0624  0.4088  0.9105
    10 H(1)   Bbb    -0.0005    -0.268    -0.095    -0.089  0.1986  0.8890 -0.4127
              Bcc     0.0055     2.931     1.046     0.978  0.9781 -0.2065  0.0257
 
              Baa    -0.5387   -72.287   -25.794   -24.112  0.6327 -0.0229  0.7741
    11 C(13)  Bbb    -0.5219   -70.031   -24.989   -23.360  0.5513  0.7153 -0.4294
              Bcc     1.0606   142.318    50.782    47.472 -0.5439  0.6984  0.4652
 
              Baa    -0.0446   -23.784    -8.487    -7.934  0.9102  0.3131 -0.2711
    12 H(1)   Bbb    -0.0146    -7.804    -2.785    -2.603  0.1060  0.4566  0.8833
              Bcc     0.0592    31.588    11.271    10.537 -0.4003  0.8328 -0.3824
 
              Baa    -0.0056    -2.997    -1.069    -1.000  0.0449  0.4655  0.8839
    13 H(1)   Bbb    -0.0020    -1.074    -0.383    -0.358 -0.3485  0.8365 -0.4229
              Bcc     0.0076     4.071     1.453     1.358  0.9362  0.2890 -0.1998
 
              Baa    -0.0220   -11.752    -4.193    -3.920 -0.0840  0.9016 -0.4243
    14 H(1)   Bbb    -0.0025    -1.334    -0.476    -0.445  0.0413  0.4286  0.9026
              Bcc     0.0245    13.086     4.669     4.365  0.9956  0.0583 -0.0732
 
              Baa    -0.0704   -37.568   -13.405   -12.531 -0.0083 -0.5698  0.8217
    15 H(1)   Bbb    -0.0113    -6.052    -2.159    -2.019 -0.5406  0.6939  0.4757
              Bcc     0.0818    43.620    15.565    14.550  0.8413  0.4403  0.3138
 
              Baa    -0.0688   -36.728   -13.106   -12.251  0.7825  0.6222  0.0244
    16 H(1)   Bbb    -0.0106    -5.668    -2.022    -1.891 -0.5608  0.6871  0.4619
              Bcc     0.0795    42.396    15.128    14.142  0.2707 -0.3751  0.8866
 

 ---------------------------------------------------------------------------------

 Calling FoFJK, ICntrl=      2127 FMM=F ISym2X=0 I1Cent= 0 IOpClX= 1 NMat=1 NMatS=1 NMatT=0.
 Cartesian Forces:  Max     0.034282355 RMS     0.003858856
 SvSCFP is copying densities from files   528 and   530 to   603.
 ONIOM: saving gridpoint  2
 ONIOM: restoring gridpoint 17
 ONIOM: restoring gridpoint  1 on chk file.
 ONIOM: generating point  1 -- low level on model system.
 Standard basis: VSTO-6G (5D, 7F)
    40 basis functions,   240 primitive gaussians,    40 cartesian basis functions
    21 alpha electrons       19 beta electrons
       nuclear repulsion energy       184.5876561384 Hartrees.
 Integral buffers will be    131072 words long.
 Regular integral format.
 Two-electron integral symmetry is turned off.
 Do NDO integrals.
 One-electron integrals computed using PRISM.
 NBasis=    40 RedAO= F EigKep=  0.00D+00  NBF=    40
 NBsUse=    40 1.00D-04 EigRej=  0.00D+00 NBFU=    40
 Initial guess from the checkpoint file:  "b.chk"
 B after Tr=     0.000768    0.000164    0.001354
         Rot=    1.000000   -0.000146   -0.000200    0.000093 Ang=  -0.03 deg.
 Initial guess <Sx>= 0.0000 <Sy>= 0.0000 <Sz>= 1.0000 <S**2>= 2.3227 S= 1.1040
 Keep J ints in memory in canonical form, NReq=867663.
 Overlap will be assumed to be unity.
 Requested convergence on RMS density matrix=1.00D-08 within  64 cycles.
 Requested convergence on MAX density matrix=1.00D-06.
 Requested convergence on             energy=1.00D-06.
 No special actions if energy rises.
 SCF Done:  E(UPM6) =  0.111594580856     A.U. after   15 cycles
            NFock= 14  Conv=0.51D-08     -V/T= 1.0018
 <Sx>= 0.0000 <Sy>= 0.0000 <Sz>= 1.0000 <S**2>= 2.3225 S= 1.1039
 <L.S>=  0.00000000000    
 Annihilation of the first spin contaminant:
 S**2 before annihilation     2.3225,   after     2.0534
 QCSCF skips out because SCF is already converged.

 **********************************************************************

            Population analysis using the SCF Density.

 **********************************************************************

 Alpha  occ. eigenvalues --   -1.09868  -1.00456  -0.95937  -0.91063  -0.81641
 Alpha  occ. eigenvalues --   -0.77978  -0.71820  -0.63960  -0.58911  -0.56910
 Alpha  occ. eigenvalues --   -0.54577  -0.52394  -0.51452  -0.50351  -0.48606
 Alpha  occ. eigenvalues --   -0.45098  -0.43353  -0.40822  -0.37156  -0.35899
 Alpha  occ. eigenvalues --   -0.29959
 Alpha virt. eigenvalues --    0.01860   0.02549   0.09678   0.15255   0.15588
 Alpha virt. eigenvalues --    0.17232   0.18223   0.18328   0.18974   0.19637
 Alpha virt. eigenvalues --    0.20341   0.20859   0.21476   0.22032   0.22269
 Alpha virt. eigenvalues --    0.22498   0.22816   0.23164   0.23399
  Beta  occ. eigenvalues --   -1.09740  -0.99777  -0.95831  -0.90009  -0.80945
  Beta  occ. eigenvalues --   -0.77744  -0.71121  -0.63362  -0.58263  -0.56527
  Beta  occ. eigenvalues --   -0.53589  -0.52256  -0.50235  -0.48896  -0.47635
  Beta  occ. eigenvalues --   -0.44551  -0.43130  -0.36803  -0.36274
  Beta virt. eigenvalues --   -0.03387   0.02196   0.02674   0.07005   0.10830
  Beta virt. eigenvalues --    0.15694   0.15947   0.17918   0.18482   0.18867
  Beta virt. eigenvalues --    0.19468   0.20257   0.20704   0.21328   0.21793
  Beta virt. eigenvalues --    0.22354   0.22903   0.22965   0.23183   0.23505
  Beta virt. eigenvalues --    0.23831
          Condensed to atoms (all electrons):
          Atomic-Atomic Spin Densities.
 Mulliken charges and spin densities:
               1          2
     1  C    0.041731  -0.375372
     2  C   -0.173656   0.443146
     3  C   -0.160885   0.457696
     4  C   -0.134465  -0.362638
     5  H    0.148077  -0.015513
     6  C   -0.170998   0.792210
     7  C   -0.140716  -0.365547
     8  H    0.150950  -0.016134
     9  C   -0.147018   0.447410
    10  H    0.144695   0.012617
    11  C   -0.305456   1.037512
    12  H    0.153301  -0.010414
    13  H    0.144506   0.012772
    14  H    0.145125  -0.015393
    15  H    0.152060  -0.021996
    16  H    0.152748  -0.020354
    17  C    0.000000   0.000000
    18  H    0.000000   0.000000
    19  H    0.000000   0.000000
    20  Cl   0.000000   0.000000
    21  Cl   0.000000   0.000000
    22  C    0.000000   0.000000
    23  H    0.000000   0.000000
    24  H    0.000000   0.000000
    25  Cl   0.000000   0.000000
    26  Cl   0.000000   0.000000
    27  C    0.000000   0.000000
    28  H    0.000000   0.000000
    29  H    0.000000   0.000000
    30  Cl   0.000000   0.000000
    31  Cl   0.000000   0.000000
    32  C    0.000000   0.000000
    33  H    0.000000   0.000000
    34  H    0.000000   0.000000
    35  Cl   0.000000   0.000000
    36  Cl   0.000000   0.000000
    37  C    0.000000   0.000000
    38  H    0.000000   0.000000
    39  H    0.000000   0.000000
    40  Cl   0.000000   0.000000
    41  Cl   0.000000   0.000000
    42  C    0.000000   0.000000
    43  H    0.000000   0.000000
    44  H    0.000000   0.000000
    45  Cl   0.000000   0.000000
    46  Cl   0.000000   0.000000
    47  C    0.000000   0.000000
    48  H    0.000000   0.000000
    49  H    0.000000   0.000000
    50  Cl   0.000000   0.000000
    51  Cl   0.000000   0.000000
    52  C    0.000000   0.000000
    53  H    0.000000   0.000000
    54  H    0.000000   0.000000
    55  Cl   0.000000   0.000000
    56  Cl   0.000000   0.000000
    57  C    0.000000   0.000000
    58  H    0.000000   0.000000
    59  H    0.000000   0.000000
    60  Cl   0.000000   0.000000
    61  Cl   0.000000   0.000000
    62  C    0.000000   0.000000
    63  H    0.000000   0.000000
    64  H    0.000000   0.000000
    65  Cl   0.000000   0.000000
    66  Cl   0.000000   0.000000
    67  C    0.000000   0.000000
    68  H    0.000000   0.000000
    69  H    0.000000   0.000000
    70  Cl   0.000000   0.000000
    71  Cl   0.000000   0.000000
    72  C    0.000000   0.000000
    73  H    0.000000   0.000000
    74  H    0.000000   0.000000
    75  Cl   0.000000   0.000000
    76  Cl   0.000000   0.000000
    77  C    0.000000   0.000000
    78  H    0.000000   0.000000
    79  H    0.000000   0.000000
    80  Cl   0.000000   0.000000
    81  Cl   0.000000   0.000000
    82  C    0.000000   0.000000
    83  H    0.000000   0.000000
    84  H    0.000000   0.000000
    85  Cl   0.000000   0.000000
    86  Cl   0.000000   0.000000
    87  C    0.000000   0.000000
    88  H    0.000000   0.000000
    89  H    0.000000   0.000000
    90  Cl   0.000000   0.000000
    91  Cl   0.000000   0.000000
 Sum of Mulliken charges =   0.00000   2.00000
 Mulliken charges and spin densities with hydrogens summed into heavy atoms:
               1          2
     1  C    0.041731  -0.375372
     2  C   -0.025579   0.427633
     3  C   -0.009935   0.441562
     4  C    0.010230  -0.350021
     6  C   -0.017697   0.781795
     7  C    0.003790  -0.352775
     9  C   -0.001893   0.432016
    11  C   -0.000647   0.995161
    17  C    0.000000   0.000000
    20  Cl   0.000000   0.000000
    21  Cl   0.000000   0.000000
    22  C    0.000000   0.000000
    25  Cl   0.000000   0.000000
    26  Cl   0.000000   0.000000
    27  C    0.000000   0.000000
    30  Cl   0.000000   0.000000
    31  Cl   0.000000   0.000000
    32  C    0.000000   0.000000
    35  Cl   0.000000   0.000000
    36  Cl   0.000000   0.000000
    37  C    0.000000   0.000000
    40  Cl   0.000000   0.000000
    41  Cl   0.000000   0.000000
    42  C    0.000000   0.000000
    45  Cl   0.000000   0.000000
    46  Cl   0.000000   0.000000
    47  C    0.000000   0.000000
    50  Cl   0.000000   0.000000
    51  Cl   0.000000   0.000000
    52  C    0.000000   0.000000
    55  Cl   0.000000   0.000000
    56  Cl   0.000000   0.000000
    57  C    0.000000   0.000000
    60  Cl   0.000000   0.000000
    61  Cl   0.000000   0.000000
    62  C    0.000000   0.000000
    65  Cl   0.000000   0.000000
    66  Cl   0.000000   0.000000
    67  C    0.000000   0.000000
    70  Cl   0.000000   0.000000
    71  Cl   0.000000   0.000000
    72  C    0.000000   0.000000
    75  Cl   0.000000   0.000000
    76  Cl   0.000000   0.000000
    77  C    0.000000   0.000000
    80  Cl   0.000000   0.000000
    81  Cl   0.000000   0.000000
    82  C    0.000000   0.000000
    85  Cl   0.000000   0.000000
    86  Cl   0.000000   0.000000
    87  C    0.000000   0.000000
    90  Cl   0.000000   0.000000
    91  Cl   0.000000   0.000000
 Charge=             -0.0000 electrons
 Dipole moment (field-independent basis, Debye):
    X=             -0.0145    Y=              0.0271    Z=             -0.0782  Tot=              0.0840
 N-N= 1.845876561384D+02 E-N=-2.806090350795D+02  KE=-6.319408431636D+01
 Calling FoFJK, ICntrl=      2127 FMM=F ISym2X=0 I1Cent= 0 IOpClX= 1 NMat=1 NMatS=1 NMatT=0.
 Cartesian Forces:  Max     0.022019893 RMS     0.003053021
 SvSCFP is copying densities from files   528 and   530 to   603.
 ONIOM: saving gridpoint  1
 ONIOM: restoring gridpoint  3
 ONIOM: calculating energy.
 ONIOM: gridpoint  1 method:  low   system:  model energy:     0.111594580856
 ONIOM: gridpoint  2 method:  high  system:  model energy:  -309.578698175285
 ONIOM: gridpoint  3 method:  low   system:  real  energy:    -0.404737601611
 ONIOM: extrapolated energy =    -310.095030357752
 ONIOM: calculating first derivatives.
 ONIOM: calculating electric field derivatives.
 ONIOM: Integrating ONIOM file  4 number   619
 ONIOM: Dipole        =-3.21248937D-01-8.18414491D-02 2.08622220D-01
 ONIOM: Dipole moment (Debye):
    X=    -0.8165    Y=    -0.2080    Z=     0.5303  Tot=     0.9956
 ONIOM: Integrating ONIOM file  5 number   695
 Anisotropic Hyperfine tensors: 
                 1             2             3             4             5 
      1   0.760341D-01 -0.118031D+00 -0.121751D+00  0.555826D-01 -0.529197D-02
      2   0.377607D-01  0.114295D-01  0.181787D-01 -0.686136D-02 -0.683701D-02
      3  -0.580736D-02 -0.493846D-01 -0.528216D-01  0.151006D-01  0.887548D-02
      4   0.428629D-01  0.101831D-01  0.276400D-01 -0.961239D-02  0.341705D-02
      5  -0.281554D-01  0.136698D+00  0.154471D+00 -0.582455D-01 -0.841957D-02
      6  -0.702268D-01  0.167416D+00  0.174572D+00 -0.706832D-01 -0.358351D-02
                 6             7             8             9            10 
      1  -0.347175D+00  0.629882D-01  0.423459D-02 -0.146743D+00  0.521587D-02
      2   0.750097D-01  0.111953D-02  0.366992D-02  0.910268D-02 -0.132547D-02
      3  -0.114578D+00  0.212450D-01  0.420953D-02 -0.764353D-01 -0.995985D-03
      4   0.108695D+00 -0.122045D-01 -0.157032D-02  0.142955D-01 -0.104373D-03
      5   0.438080D+00 -0.623570D-01 -0.102299D-01  0.183325D+00 -0.170308D-02
      6   0.461752D+00 -0.842332D-01 -0.844412D-02  0.223178D+00 -0.421988D-02
                11            12            13            14            15 
      1  -0.604670D-01 -0.276096D-01  0.643269D-02  0.241512D-01  0.545379D-01
      2  -0.600864D+00 -0.331470D-01  0.253408D-02  0.304781D-02  0.342038D-01
      3   0.249960D+00  0.336398D-01 -0.198915D-02 -0.182814D-01 -0.124733D-01
      4  -0.408628D+00  0.186921D-01 -0.194739D-02 -0.266519D-02  0.249737D-01
      5   0.514422D+00 -0.209702D-01 -0.203952D-02  0.735418D-02  0.405185D-01
      6  -0.189493D+00 -0.603027D-02 -0.444354D-02 -0.586981D-02 -0.420645D-01
                16            17            18            19            20 
      1  -0.396671D-01  0.000000D+00  0.000000D+00  0.000000D+00  0.000000D+00
      2  -0.374878D-01  0.000000D+00  0.000000D+00  0.000000D+00  0.000000D+00
      3  -0.204839D-01  0.000000D+00  0.000000D+00  0.000000D+00  0.000000D+00
      4   0.205075D-01  0.000000D+00  0.000000D+00  0.000000D+00  0.000000D+00
      5  -0.308406D-01  0.000000D+00  0.000000D+00  0.000000D+00  0.000000D+00
      6   0.601510D-01  0.000000D+00  0.000000D+00  0.000000D+00  0.000000D+00
                21            22            23            24            25 
      1   0.000000D+00  0.000000D+00  0.000000D+00  0.000000D+00  0.000000D+00
      2   0.000000D+00  0.000000D+00  0.000000D+00  0.000000D+00  0.000000D+00
      3   0.000000D+00  0.000000D+00  0.000000D+00  0.000000D+00  0.000000D+00
      4   0.000000D+00  0.000000D+00  0.000000D+00  0.000000D+00  0.000000D+00
      5   0.000000D+00  0.000000D+00  0.000000D+00  0.000000D+00  0.000000D+00
      6   0.000000D+00  0.000000D+00  0.000000D+00  0.000000D+00  0.000000D+00
                26            27            28            29            30 
      1   0.000000D+00  0.000000D+00  0.000000D+00  0.000000D+00  0.000000D+00
      2   0.000000D+00  0.000000D+00  0.000000D+00  0.000000D+00  0.000000D+00
      3   0.000000D+00  0.000000D+00  0.000000D+00  0.000000D+00  0.000000D+00
      4   0.000000D+00  0.000000D+00  0.000000D+00  0.000000D+00  0.000000D+00
      5   0.000000D+00  0.000000D+00  0.000000D+00  0.000000D+00  0.000000D+00
      6   0.000000D+00  0.000000D+00  0.000000D+00  0.000000D+00  0.000000D+00
                31            32            33            34            35 
      1   0.000000D+00  0.000000D+00  0.000000D+00  0.000000D+00  0.000000D+00
      2   0.000000D+00  0.000000D+00  0.000000D+00  0.000000D+00  0.000000D+00
      3   0.000000D+00  0.000000D+00  0.000000D+00  0.000000D+00  0.000000D+00
      4   0.000000D+00  0.000000D+00  0.000000D+00  0.000000D+00  0.000000D+00
      5   0.000000D+00  0.000000D+00  0.000000D+00  0.000000D+00  0.000000D+00
      6   0.000000D+00  0.000000D+00  0.000000D+00  0.000000D+00  0.000000D+00
                36            37            38            39            40 
      1   0.000000D+00  0.000000D+00  0.000000D+00  0.000000D+00  0.000000D+00
      2   0.000000D+00  0.000000D+00  0.000000D+00  0.000000D+00  0.000000D+00
      3   0.000000D+00  0.000000D+00  0.000000D+00  0.000000D+00  0.000000D+00
      4   0.000000D+00  0.000000D+00  0.000000D+00  0.000000D+00  0.000000D+00
      5   0.000000D+00  0.000000D+00  0.000000D+00  0.000000D+00  0.000000D+00
      6   0.000000D+00  0.000000D+00  0.000000D+00  0.000000D+00  0.000000D+00
                41            42            43            44            45 
      1   0.000000D+00  0.000000D+00  0.000000D+00  0.000000D+00  0.000000D+00
      2   0.000000D+00  0.000000D+00  0.000000D+00  0.000000D+00  0.000000D+00
      3   0.000000D+00  0.000000D+00  0.000000D+00  0.000000D+00  0.000000D+00
      4   0.000000D+00  0.000000D+00  0.000000D+00  0.000000D+00  0.000000D+00
      5   0.000000D+00  0.000000D+00  0.000000D+00  0.000000D+00  0.000000D+00
      6   0.000000D+00  0.000000D+00  0.000000D+00  0.000000D+00  0.000000D+00
                46            47            48            49            50 
      1   0.000000D+00  0.000000D+00  0.000000D+00  0.000000D+00  0.000000D+00
      2   0.000000D+00  0.000000D+00  0.000000D+00  0.000000D+00  0.000000D+00
      3   0.000000D+00  0.000000D+00  0.000000D+00  0.000000D+00  0.000000D+00
      4   0.000000D+00  0.000000D+00  0.000000D+00  0.000000D+00  0.000000D+00
      5   0.000000D+00  0.000000D+00  0.000000D+00  0.000000D+00  0.000000D+00
      6   0.000000D+00  0.000000D+00  0.000000D+00  0.000000D+00  0.000000D+00
                51            52            53            54            55 
      1   0.000000D+00  0.000000D+00  0.000000D+00  0.000000D+00  0.000000D+00
      2   0.000000D+00  0.000000D+00  0.000000D+00  0.000000D+00  0.000000D+00
      3   0.000000D+00  0.000000D+00  0.000000D+00  0.000000D+00  0.000000D+00
      4   0.000000D+00  0.000000D+00  0.000000D+00  0.000000D+00  0.000000D+00
      5   0.000000D+00  0.000000D+00  0.000000D+00  0.000000D+00  0.000000D+00
      6   0.000000D+00  0.000000D+00  0.000000D+00  0.000000D+00  0.000000D+00
                56            57            58            59            60 
      1   0.000000D+00  0.000000D+00  0.000000D+00  0.000000D+00  0.000000D+00
      2   0.000000D+00  0.000000D+00  0.000000D+00  0.000000D+00  0.000000D+00
      3   0.000000D+00  0.000000D+00  0.000000D+00  0.000000D+00  0.000000D+00
      4   0.000000D+00  0.000000D+00  0.000000D+00  0.000000D+00  0.000000D+00
      5   0.000000D+00  0.000000D+00  0.000000D+00  0.000000D+00  0.000000D+00
      6   0.000000D+00  0.000000D+00  0.000000D+00  0.000000D+00  0.000000D+00
                61            62            63            64            65 
      1   0.000000D+00  0.000000D+00  0.000000D+00  0.000000D+00  0.000000D+00
      2   0.000000D+00  0.000000D+00  0.000000D+00  0.000000D+00  0.000000D+00
      3   0.000000D+00  0.000000D+00  0.000000D+00  0.000000D+00  0.000000D+00
      4   0.000000D+00  0.000000D+00  0.000000D+00  0.000000D+00  0.000000D+00
      5   0.000000D+00  0.000000D+00  0.000000D+00  0.000000D+00  0.000000D+00
      6   0.000000D+00  0.000000D+00  0.000000D+00  0.000000D+00  0.000000D+00
                66            67            68            69            70 
      1   0.000000D+00  0.000000D+00  0.000000D+00  0.000000D+00  0.000000D+00
      2   0.000000D+00  0.000000D+00  0.000000D+00  0.000000D+00  0.000000D+00
      3   0.000000D+00  0.000000D+00  0.000000D+00  0.000000D+00  0.000000D+00
      4   0.000000D+00  0.000000D+00  0.000000D+00  0.000000D+00  0.000000D+00
      5   0.000000D+00  0.000000D+00  0.000000D+00  0.000000D+00  0.000000D+00
      6   0.000000D+00  0.000000D+00  0.000000D+00  0.000000D+00  0.000000D+00
                71            72            73            74            75 
      1   0.000000D+00  0.000000D+00  0.000000D+00  0.000000D+00  0.000000D+00
      2   0.000000D+00  0.000000D+00  0.000000D+00  0.000000D+00  0.000000D+00
      3   0.000000D+00  0.000000D+00  0.000000D+00  0.000000D+00  0.000000D+00
      4   0.000000D+00  0.000000D+00  0.000000D+00  0.000000D+00  0.000000D+00
      5   0.000000D+00  0.000000D+00  0.000000D+00  0.000000D+00  0.000000D+00
      6   0.000000D+00  0.000000D+00  0.000000D+00  0.000000D+00  0.000000D+00
                76            77            78            79            80 
      1   0.000000D+00  0.000000D+00  0.000000D+00  0.000000D+00  0.000000D+00
      2   0.000000D+00  0.000000D+00  0.000000D+00  0.000000D+00  0.000000D+00
      3   0.000000D+00  0.000000D+00  0.000000D+00  0.000000D+00  0.000000D+00
      4   0.000000D+00  0.000000D+00  0.000000D+00  0.000000D+00  0.000000D+00
      5   0.000000D+00  0.000000D+00  0.000000D+00  0.000000D+00  0.000000D+00
      6   0.000000D+00  0.000000D+00  0.000000D+00  0.000000D+00  0.000000D+00
                81            82            83            84            85 
      1   0.000000D+00  0.000000D+00  0.000000D+00  0.000000D+00  0.000000D+00
      2   0.000000D+00  0.000000D+00  0.000000D+00  0.000000D+00  0.000000D+00
      3   0.000000D+00  0.000000D+00  0.000000D+00  0.000000D+00  0.000000D+00
      4   0.000000D+00  0.000000D+00  0.000000D+00  0.000000D+00  0.000000D+00
      5   0.000000D+00  0.000000D+00  0.000000D+00  0.000000D+00  0.000000D+00
      6   0.000000D+00  0.000000D+00  0.000000D+00  0.000000D+00  0.000000D+00
                86            87            88            89            90 
      1   0.000000D+00  0.000000D+00  0.000000D+00  0.000000D+00  0.000000D+00
      2   0.000000D+00  0.000000D+00  0.000000D+00  0.000000D+00  0.000000D+00
      3   0.000000D+00  0.000000D+00  0.000000D+00  0.000000D+00  0.000000D+00
      4   0.000000D+00  0.000000D+00  0.000000D+00  0.000000D+00  0.000000D+00
      5   0.000000D+00  0.000000D+00  0.000000D+00  0.000000D+00  0.000000D+00
      6   0.000000D+00  0.000000D+00  0.000000D+00  0.000000D+00  0.000000D+00
                91 
      1   0.000000D+00
      2   0.000000D+00
      3   0.000000D+00
      4   0.000000D+00
      5   0.000000D+00
      6   0.000000D+00
 ONIOM Fermi contact: 
               1
     1  C   -0.003700
     2  C    0.024823
     3  C    0.030769
     4  C   -0.019473
     5  H   -0.003695
     6  C    0.045742
     7  C   -0.021501
     8  H   -0.004047
     9  C    0.034653
    10  H    0.001528
    11  C    0.085121
    12  H    0.003385
    13  H    0.001732
    14  H   -0.004758
    15  H   -0.006802
    16  H   -0.005639
    17  C    0.000000
    18  H    0.000000
    19  H    0.000000
    20  Cl   0.000000
    21  Cl   0.000000
    22  C    0.000000
    23  H    0.000000
    24  H    0.000000
    25  Cl   0.000000
    26  Cl   0.000000
    27  C    0.000000
    28  H    0.000000
    29  H    0.000000
    30  Cl   0.000000
    31  Cl   0.000000
    32  C    0.000000
    33  H    0.000000
    34  H    0.000000
    35  Cl   0.000000
    36  Cl   0.000000
    37  C    0.000000
    38  H    0.000000
    39  H    0.000000
    40  Cl   0.000000
    41  Cl   0.000000
    42  C    0.000000
    43  H    0.000000
    44  H    0.000000
    45  Cl   0.000000
    46  Cl   0.000000
    47  C    0.000000
    48  H    0.000000
    49  H    0.000000
    50  Cl   0.000000
    51  Cl   0.000000
    52  C    0.000000
    53  H    0.000000
    54  H    0.000000
    55  Cl   0.000000
    56  Cl   0.000000
    57  C    0.000000
    58  H    0.000000
    59  H    0.000000
    60  Cl   0.000000
    61  Cl   0.000000
    62  C    0.000000
    63  H    0.000000
    64  H    0.000000
    65  Cl   0.000000
    66  Cl   0.000000
    67  C    0.000000
    68  H    0.000000
    69  H    0.000000
    70  Cl   0.000000
    71  Cl   0.000000
    72  C    0.000000
    73  H    0.000000
    74  H    0.000000
    75  Cl   0.000000
    76  Cl   0.000000
    77  C    0.000000
    78  H    0.000000
    79  H    0.000000
    80  Cl   0.000000
[...]
   Y22       -2.01915   0.00001   0.00000   0.00019   0.00023  -2.01892
   Z22       -2.94926   0.00000   0.00000   0.00099   0.00005  -2.94921
   X23        8.79041   0.00001   0.00000  -0.00004   0.00006   8.79047
   Y23       -2.10359   0.00003   0.00000   0.00045   0.00044  -2.10315
   Z23       -2.44648   0.00000   0.00000   0.00068  -0.00028  -2.44676
   X24       11.97361  -0.00002   0.00000  -0.00033  -0.00023  11.97338
   Y24       -3.16606  -0.00005   0.00000  -0.00066  -0.00069  -3.16675
   Z24       -1.62054  -0.00003   0.00000   0.00047  -0.00052  -1.62107
   X25       11.87577   0.00008   0.00000   0.00087   0.00094  11.87671
   Y25        1.16229  -0.00001   0.00000  -0.00015  -0.00010   1.16219
   Z25       -2.85952   0.00009   0.00000   0.00225   0.00151  -2.85801
   X26       11.26500   0.00002   0.00000   0.00001   0.00015  11.26515
   Y26       -3.12706   0.00014   0.00000   0.00128   0.00152  -3.12555
   Z26       -6.06941  -0.00004   0.00000   0.00069  -0.00031  -6.06972
   X27        3.98243  -0.00009   0.00000  -0.00101  -0.00104   3.98138
   Y27        6.01798   0.00004   0.00000   0.00095   0.00055   6.01853
   Z27        2.91563  -0.00001   0.00000   0.00049  -0.00002   2.91562
   X28        3.45746  -0.00015   0.00000  -0.00143  -0.00144   3.45602
   Y28        4.05677   0.00009   0.00000   0.00139   0.00102   4.05779
   Z28        2.36946  -0.00011   0.00000  -0.00089  -0.00151   2.36794
   X29        2.56970  -0.00009   0.00000  -0.00094  -0.00099   2.56871
   Y29        7.39013   0.00008   0.00000   0.00139   0.00103   7.39116
   Z29        2.18497   0.00006   0.00000   0.00121   0.00078   2.18575
   X30        7.01358  -0.00006   0.00000  -0.00080  -0.00083   7.01275
   Y30        6.76404   0.00013   0.00000   0.00188   0.00160   6.76564
   Z30        1.70093   0.00011   0.00000   0.00160   0.00116   1.70210
   X31        4.18176  -0.00001   0.00000  -0.00041  -0.00048   4.18128
   Y31        6.25876  -0.00015   0.00000  -0.00109  -0.00169   6.25707
   Z31        6.24736  -0.00000   0.00000   0.00062   0.00014   6.24749
   X32       -4.27278  -0.00002   0.00000  -0.00030  -0.00031  -4.27310
   Y32        1.53864  -0.00006   0.00000  -0.00012  -0.00083   1.53781
   Z32        6.56821   0.00001   0.00000   0.00091   0.00007   6.56827
   X33       -3.56739  -0.00014   0.00000  -0.00150  -0.00149  -3.56888
   Y33       -0.43636  -0.00011   0.00000  -0.00061  -0.00132  -0.43767
   Z33        6.62508  -0.00004   0.00000   0.00048  -0.00047   6.62460
   X34       -4.15670  -0.00007   0.00000  -0.00065  -0.00069  -4.15738
   Y34        2.44619  -0.00002   0.00000  -0.00016  -0.00098   2.44520
   Z34        8.45681  -0.00001   0.00000   0.00086   0.00007   8.45688
   X35       -7.44689  -0.00000   0.00000  -0.00006  -0.00006  -7.44695
   Y35        1.55792  -0.00001   0.00000   0.00122   0.00054   1.55846
   Z35        5.50264  -0.00004   0.00000   0.00038  -0.00049   5.50215
   X36       -2.45519   0.00016   0.00000   0.00172   0.00171  -2.45348
   Y36        3.28586  -0.00009   0.00000  -0.00036  -0.00091   3.28495
   Z36        4.36619   0.00014   0.00000   0.00243   0.00171   4.36790
   X37       -1.98534  -0.00008   0.00000  -0.00095  -0.00106  -1.98640
   Y37        8.61806   0.00004   0.00000   0.00124   0.00043   8.61849
   Z37        8.65884   0.00008   0.00000   0.00138   0.00099   8.65983
   X38       -0.72339  -0.00011   0.00000  -0.00114  -0.00127  -0.72466
   Y38       10.27195   0.00004   0.00000   0.00111   0.00030  10.27224
   Z38        8.89772   0.00022   0.00000   0.00274   0.00246   8.90018
   X39       -1.66232  -0.00003   0.00000  -0.00045  -0.00054  -1.66286
   Y39        7.70137   0.00015   0.00000   0.00231   0.00162   7.70298
   Z39        6.79839   0.00003   0.00000   0.00086   0.00042   6.79881
   X40       -5.16962  -0.00009   0.00000  -0.00098  -0.00110  -5.17072
   Y40        9.56897  -0.00001   0.00000   0.00113   0.00027   9.56925
   Z40        8.91982   0.00008   0.00000   0.00143   0.00108   8.92090
   X41       -1.38930  -0.00013   0.00000  -0.00137  -0.00147  -1.39077
   Y41        6.40070  -0.00010   0.00000   0.00007  -0.00088   6.39982
   Z41       11.10977  -0.00003   0.00000   0.00039  -0.00013  11.10964
   X42        8.37891  -0.00002   0.00000  -0.00034  -0.00025   8.37867
   Y42        2.05817   0.00009   0.00000   0.00088   0.00122   2.05939
   Z42       -8.40335  -0.00001   0.00000   0.00065  -0.00006  -8.40341
   X43        7.32404  -0.00006   0.00000  -0.00082  -0.00071   7.32332
   Y43        0.52962   0.00008   0.00000   0.00086   0.00114   0.53076
   Z43       -7.42377  -0.00006   0.00000   0.00003  -0.00078  -7.42455
   X44       10.44693  -0.00003   0.00000  -0.00041  -0.00031  10.44662
   Y44        1.72612   0.00008   0.00000   0.00061   0.00097   1.72709
   Z44       -8.27062   0.00005   0.00000   0.00092   0.00021  -8.27041
   X45        7.63584   0.00004   0.00000   0.00028   0.00033   7.63617
   Y45        5.02117   0.00010   0.00000   0.00088   0.00113   5.02229
   Z45       -7.01231   0.00001   0.00000   0.00094   0.00040  -7.01191
   X46        7.44009   0.00000   0.00000  -0.00011   0.00001   7.44010
   Y46        2.21351   0.00018   0.00000   0.00146   0.00199   2.21550
   Z46      -11.60505  -0.00001   0.00000   0.00067  -0.00004 -11.60509
   X47      -10.25162   0.00015   0.00000   0.00168   0.00170 -10.24991
   Y47        3.72507   0.00014   0.00000   0.00216   0.00183   3.72690
   Z47       -0.73499   0.00004   0.00000   0.00127   0.00052  -0.73447
   X48      -11.94200   0.00012   0.00000   0.00130   0.00133 -11.94067
   Y48        2.65395   0.00030   0.00000   0.00368   0.00329   2.65724
   Z48       -0.11479   0.00017   0.00000   0.00264   0.00181  -0.11299
   X49       -8.73834   0.00019   0.00000   0.00245   0.00246  -8.73588
   Y49        3.64819   0.00011   0.00000   0.00166   0.00126   3.64945
   Z49        0.71758  -0.00002   0.00000   0.00037  -0.00038   0.71720
   X50      -11.10071   0.00026   0.00000   0.00330   0.00329 -11.09742
   Y50        6.91092   0.00015   0.00000   0.00242   0.00211   6.91303
   Z50       -1.29259  -0.00004   0.00000   0.00035  -0.00021  -1.29280
   X51       -9.12619  -0.00008   0.00000  -0.00099  -0.00093  -9.12713
   Y51        2.43828  -0.00002   0.00000  -0.00000  -0.00015   2.43813
   Z51       -3.60823   0.00003   0.00000   0.00128   0.00046  -3.60777
   X52       -3.00590  -0.00000   0.00000  -0.00009   0.00000  -3.00590
   Y52        1.85377   0.00003   0.00000   0.00008   0.00025   1.85402
   Z52       -7.72116   0.00007   0.00000   0.00158   0.00077  -7.72038
   X53       -3.62483   0.00005   0.00000   0.00061   0.00072  -3.62412
   Y53        2.45290   0.00003   0.00000  -0.00002   0.00026   2.45316
   Z53       -9.63241   0.00005   0.00000   0.00124   0.00046  -9.63195
   X54       -4.05997  -0.00008   0.00000  -0.00102  -0.00095  -4.06092
   Y54        2.88419  -0.00003   0.00000  -0.00023  -0.00016   2.88404
   Z54       -6.22307   0.00005   0.00000   0.00110   0.00035  -6.22272
   X55        0.27930  -0.00002   0.00000  -0.00036  -0.00027   0.27903
   Y55        2.45866   0.00007   0.00000   0.00067   0.00086   2.45952
   Z55       -7.38365   0.00016   0.00000   0.00305   0.00231  -7.38135
   X56       -3.46393   0.00008   0.00000   0.00064   0.00077  -3.46316
   Y56       -1.43589   0.00002   0.00000   0.00000   0.00015  -1.43574
   Z56       -7.36414   0.00004   0.00000   0.00188   0.00087  -7.36327
   X57       -2.65619   0.00008   0.00000   0.00121   0.00113  -2.65506
   Y57       11.13681   0.00009   0.00000   0.00149   0.00111  11.13792
   Z57        1.43793  -0.00013   0.00000  -0.00119  -0.00143   1.43650
   X58       -1.97064   0.00022   0.00000   0.00249   0.00242  -1.96822
   Y58       11.56268   0.00014   0.00000   0.00195   0.00170  11.56438
   Z58       -0.50160  -0.00008   0.00000  -0.00069  -0.00090  -0.50250
   X59       -4.32432   0.00015   0.00000   0.00175   0.00165  -4.32266
   Y59       12.30740   0.00016   0.00000   0.00220   0.00177  12.30918
   Z59        1.93216  -0.00007   0.00000  -0.00108  -0.00127   1.93089
   X60       -0.19210   0.00000   0.00000   0.00032   0.00022  -0.19188
   Y60       11.72083  -0.00010   0.00000  -0.00064  -0.00113  11.71970
   Z60        3.63327   0.00000   0.00000   0.00035   0.00016   3.63343
   X61       -3.46012  -0.00007   0.00000  -0.00074  -0.00079  -3.46091
   Y61        7.89360   0.00010   0.00000   0.00183   0.00142   7.89502
   Z61        1.67967  -0.00032   0.00000  -0.00311  -0.00356   1.67611
   X62        2.09785  -0.00004   0.00000  -0.00058  -0.00060   2.09725
   Y62        0.62507   0.00003   0.00000   0.00119   0.00038   0.62545
   Z62        9.33676  -0.00011   0.00000  -0.00041  -0.00126   9.33550
   X63        1.38769  -0.00001   0.00000   0.00002  -0.00002   1.38766
   Y63        2.51306   0.00003   0.00000   0.00108   0.00031   2.51337
   Z63        8.75482  -0.00015   0.00000  -0.00131  -0.00204   8.75278
   X64        3.69508  -0.00007   0.00000  -0.00073  -0.00076   3.69431
   Y64        0.80709   0.00001   0.00000   0.00092   0.00005   0.80714
   Z64       10.68008  -0.00007   0.00000  -0.00029  -0.00111  10.67897
   X65        3.09099  -0.00004   0.00000  -0.00059  -0.00057   3.09042
   Y65       -1.07974  -0.00004   0.00000   0.00019  -0.00044  -1.08018
   Z65        6.64007  -0.00007   0.00000   0.00033  -0.00061   6.63946
   X66       -0.37958  -0.00010   0.00000  -0.00127  -0.00129  -0.38087
   Y66       -1.09926   0.00012   0.00000   0.00260   0.00168  -1.09759
   Z66       10.78075  -0.00011   0.00000  -0.00000  -0.00097  10.77978
   X67        2.01774   0.00005   0.00000   0.00046   0.00061   2.01834
   Y67       -4.10270   0.00002   0.00000  -0.00012  -0.00001  -4.10271
   Z67       -5.72147   0.00002   0.00000   0.00151   0.00037  -5.72109
   X68        0.35786   0.00010   0.00000   0.00068   0.00085   0.35870
   Y68       -5.21813  -0.00003   0.00000  -0.00013  -0.00001  -5.21814
   Z68       -6.34140  -0.00001   0.00000   0.00096  -0.00026  -6.34166
   X69        1.42246   0.00011   0.00000   0.00083   0.00095   1.42341
   Y69       -2.20357  -0.00002   0.00000  -0.00039  -0.00033  -2.20390
   Z69       -5.04482   0.00019   0.00000   0.00263   0.00161  -5.04321
   X70        4.17048  -0.00007   0.00000  -0.00056  -0.00039   4.17008
   Y70       -3.78597   0.00012   0.00000   0.00100   0.00129  -3.78469
   Z70       -8.25693  -0.00007   0.00000   0.00088  -0.00021  -8.25714
   X71        3.60199   0.00004   0.00000   0.00057   0.00071   3.60270
   Y71       -5.73201  -0.00010   0.00000  -0.00123  -0.00126  -5.73327
   Z71       -3.25732  -0.00007   0.00000   0.00073  -0.00049  -3.25781
   X72        3.53501  -0.00006   0.00000  -0.00068  -0.00062   3.53439
   Y72        7.42144  -0.00001   0.00000  -0.00059  -0.00013   7.42131
   Z72      -11.25218  -0.00008   0.00000  -0.00063  -0.00105 -11.25324
   X73        5.36853  -0.00005   0.00000  -0.00065  -0.00058   5.36795
   Y73        7.21442   0.00006   0.00000   0.00034   0.00088   7.21530
   Z73      -12.24791  -0.00008   0.00000  -0.00075  -0.00117 -12.24908
   X74        3.35728  -0.00000   0.00000  -0.00004   0.00003   3.35731
   Y74        5.97283  -0.00004   0.00000  -0.00079  -0.00042   5.97241
   Z74       -9.74762  -0.00010   0.00000  -0.00081  -0.00132  -9.74894
   X75        3.33685  -0.00014   0.00000  -0.00181  -0.00180   3.33505
   Y75       10.48383  -0.00003   0.00000  -0.00080  -0.00043  10.48341
   Z75       -9.89779  -0.00007   0.00000  -0.00039  -0.00062  -9.89842
   X76        1.01105  -0.00003   0.00000  -0.00061  -0.00054   1.01052
   Y76        7.11870  -0.00006   0.00000  -0.00151  -0.00095   7.11775
   Z76      -13.41165  -0.00010   0.00000  -0.00053  -0.00099 -13.41264
   X77       -2.87866   0.00018   0.00000   0.00234   0.00235  -2.87631
   Y77        8.73188  -0.00001   0.00000  -0.00016  -0.00004   8.73185
   Z77       -6.96124   0.00007   0.00000   0.00117   0.00078  -6.96046
   X78       -1.02576   0.00016   0.00000   0.00165   0.00168  -1.02409
   Y78        7.96599   0.00012   0.00000  -0.00010   0.00009   7.96608
   Z78       -7.58033  -0.00013   0.00000  -0.00086  -0.00129  -7.58162
   X79       -2.88815   0.00043   0.00000   0.00376   0.00375  -2.88440
   Y79       10.82701  -0.00004   0.00000  -0.00032  -0.00018  10.82682
   Z79       -7.05393  -0.00015   0.00000  -0.00131  -0.00157  -7.05551
   X80       -5.31714  -0.00012   0.00000  -0.00107  -0.00103  -5.31817
   Y80        7.51192  -0.00025   0.00000  -0.00273  -0.00251   7.50941
   Z80       -8.89286   0.00061   0.00000   0.00708   0.00660  -8.88626
   X81       -3.49870   0.00027   0.00000   0.00448   0.00447  -3.49422
   Y81        7.76005   0.00018   0.00000   0.00275   0.00269   7.76273
   Z81       -3.80852   0.00012   0.00000   0.00250   0.00205  -3.80648
   X82        4.07747  -0.00019   0.00000  -0.00229  -0.00233   4.07513
   Y82       11.27988  -0.00026   0.00000  -0.00273  -0.00276  11.27712
   Z82       -3.06929  -0.00007   0.00000  -0.00070  -0.00088  -3.07017
   X83        5.24049  -0.00030   0.00000  -0.00283  -0.00286   5.23763
   Y83       11.20343  -0.00021   0.00000  -0.00295  -0.00286  11.20057
   Z83       -4.81202  -0.00015   0.00000  -0.00106  -0.00124  -4.81326
   X84        5.28620  -0.00034   0.00000  -0.00319  -0.00325   5.28296
   Y84       11.21125  -0.00039   0.00000  -0.00472  -0.00484  11.20641
   Z84       -1.35781   0.00003   0.00000  -0.00016  -0.00034  -1.35815
   X85        2.24191   0.00024   0.00000   0.00210   0.00202   2.24393
   Y85       14.07009   0.00003   0.00000   0.00007   0.00002  14.07011
   Z85       -3.06019   0.00000   0.00000   0.00019   0.00016  -3.06003
   X86        1.93448  -0.00030   0.00000  -0.00432  -0.00434   1.93014
   Y86        8.69898  -0.00012   0.00000  -0.00099  -0.00105   8.69793
   Z86       -3.04041  -0.00018   0.00000  -0.00179  -0.00215  -3.04256
   X87       -8.27213   0.00001   0.00000   0.00022   0.00016  -8.27198
   Y87       12.99611  -0.00016   0.00000  -0.00177  -0.00193  12.99418
   Z87       -3.18704  -0.00002   0.00000   0.00002  -0.00015  -3.18719
   X88      -10.10892   0.00003   0.00000   0.00048   0.00042 -10.10850
   Y88       13.10550  -0.00006   0.00000  -0.00077  -0.00089  13.10460
   Z88       -4.18834  -0.00004   0.00000  -0.00039  -0.00057  -4.18891
   X89       -7.70003   0.00003   0.00000   0.00025   0.00021  -7.69982
   Y89       10.99558  -0.00018   0.00000  -0.00203  -0.00220  10.99338
   Z89       -2.90404  -0.00016   0.00000  -0.00176  -0.00205  -2.90609
   X90       -5.93891   0.00006   0.00000   0.00081   0.00074  -5.93817
   Y90       14.60402  -0.00002   0.00000  -0.00012  -0.00015  14.60388
   Z90       -4.96430   0.00019   0.00000   0.00232   0.00226  -4.96203
   X91       -8.52120  -0.00006   0.00000  -0.00060  -0.00071  -8.52191
   Y91       14.52766  -0.00040   0.00000  -0.00447  -0.00481  14.52285
   Z91       -0.22721   0.00010   0.00000   0.00135   0.00127  -0.22594
         Item               Value     Threshold  Converged?
 Maximum Force            0.053615     0.000450     NO 
 RMS     Force            0.006914     0.000300     NO 
 Maximum Displacement     0.147972     0.001800     NO 
 RMS     Displacement     0.018173     0.001200     NO 
 Predicted change in Energy=-1.310342D-02
 GradGradGradGradGradGradGradGradGradGradGradGradGradGradGradGradGradGrad

 Unable to Open any file for archive entry.
 1\1\GINC-X10P1N23\Force\ONIOM(B3LYP/6-31G(d):PM6)\Mixed\C23H38Cl30\MAY
 UMIAO\12-Jul-2024\0\\# scf=(xqc,maxcycle=64) force guess=read oniom(b3
 lyp/em=gd3bj/6-31g(d):pm6) nosymm\\Title Card\\0,1\C,0.55482444,-0.176
 45057,-0.17987233\C,-0.08382056,-1.29453061,0.41635033\C,-0.26647529,0
 .88137245,-0.64480641\C,-1.45613479,-1.35643504,0.53070698\H,0.5362377
 3,-2.11419838,0.77427238\C,1.9765322,-0.14628399,-0.31016415\C,-1.6434
 734,0.81674054,-0.50912582\H,0.18603097,1.75317652,-1.11144443\C,-2.25
 246114,-0.30214337,0.06104877\H,-1.91970446,-2.22442328,0.99195108\C,2
 .68675844,0.88776227,-1.00500945\H,2.52017149,-0.99952342,0.10165984\H
 ,-2.2555498,1.64791355,-0.85148183\H,-3.33492837,-0.35640049,0.1372774
 8\H,3.61175616,1.31971287,-0.63195273\H,2.33302442,1.28256835,-1.95540
 966\C,4.97403221,0.55628831,1.99445209\H,5.25744411,1.14648448,1.09774
 654\H,3.97637027,0.86033385,2.37427296\Cl,6.18508268,0.77262133,3.2563
 3168\Cl,4.93613135,-1.16943682,1.56976881\C,5.72949643,-1.06848581,-1.
 56068173\H,4.65168553,-1.11317177,-1.29462315\H,6.33616227,-1.67540693
 ,-0.85755491\Cl,6.2843862,0.61505658,-1.513193\Cl,5.96118125,-1.654769
 96,-3.21179248\C,2.1074093,3.18457791,1.54288758\H,1.82960819,2.146750
 27,1.2538616\H,1.35982691,3.91068962,1.15623859\Cl,3.71142702,3.579378
 31,0.90009508\Cl,2.21289185,3.31199212,3.30595829\C,-2.26106028,0.8142
 1263,3.47574473\H,-1.88778019,-0.23091102,3.50583952\H,-2.19962874,1.2
 944658,4.47515065\Cl,-3.94072635,0.8244167,2.91186935\Cl,-1.29923205,1
 .73880212,2.31048746\C,-1.05059758,4.56048162,4.58206277\H,-0.38280147
 ,5.4356794,4.70847298\H,-0.87966232,4.07538806,3.59755339\Cl,-2.735644
 33,5.06368258,4.72016649\Cl,-0.73518397,3.38710416,5.87903795\C,4.4339
 3077,1.08913745,-4.44686233\H,3.87571283,0.2802641,-3.9284896\H,5.5282
 7872,0.913426,-4.37662572\Cl,4.04071308,2.65708664,-3.71075645\Cl,3.93
 712435,1.17133958,-6.1411276\C,-5.42492154,1.9712199,-0.38894006\H,-6.
 31943173,1.40441127,-0.06074555\H,-4.62413201,1.93053798,0.37972565\Cl
 ,-5.87424253,3.65710314,-0.68400805\Cl,-4.82937308,1.29028257,-1.90939
 086\C,-1.59065324,0.98097114,-4.08586099\H,-1.91817916,1.29802135,-5.0
 9725433\H,-2.14844605,1.52624989,-3.29310614\Cl,0.14779847,1.30106654,
 -3.90726117\Cl,-1.83303157,-0.75983971,-3.89693388\C,-1.40559653,5.893
 34568,0.76091896\H,-1.04281738,6.11870804,-0.26543431\H,-2.28833055,6.
 51279742,1.02245246\Cl,-0.10165409,6.20239624,1.92264482\Cl,-1.8310154
 7,4.17711302,0.88884365\C,1.11013582,0.33077297,4.9407995\H,0.73433228
 ,1.32985383,4.63285249\H,1.95535136,0.42709283,5.65165611\Cl,1.6356807
 6,-0.5713748,3.51377359\Cl,-0.20086304,-0.5817055,5.70492577\C,1.06773
 94,-2.17105441,-3.02766937\H,0.18937003,-2.76131553,-3.35572392\H,0.75
 273177,-1.16607923,-2.66960158\Cl,2.20692187,-2.00345169,-4.36937885\C
 l,1.90608997,-3.03325017,-1.72370188\C,1.87064911,3.92725685,-5.954399
 48\H,2.84090341,3.81770434,-6.48131417\H,1.77659748,3.16068667,-5.1582
 1931\Cl,1.76578253,5.5478065,-5.237687\Cl,0.53502576,3.76705168,-7.097
 14046\C,-1.52332101,4.62071246,-3.68373107\H,-0.54281093,4.21541818,-4
 .0113375\H,-1.52834568,5.72940609,-3.73278061\Cl,-2.8137107,3.97513739
 ,-4.70589707\Cl,-1.85143083,4.10644075,-2.01538423\C,2.15770261,5.9690
 5424,-1.62419836\H,2.77314714,5.92859975,-2.54641296\H,2.79733901,5.93
 273915,-0.71852376\Cl,1.18636849,7.44557249,-1.61938361\Cl,1.02368486,
 4.60330295,-1.60891536\C,-4.37742441,6.8772454,-1.6865101\H,-5.3494090
 9,6.93513022,-2.2163728\H,-4.07467922,5.81861047,-1.53675437\Cl,-3.142
 73592,7.72811643,-2.62699197\Cl,-4.50922362,7.68770816,-0.12023526\\Ve
 rsion=ES64L-G16RevC.01\HF=0.1115946\S2=2.322487\S2-1=0.\S2A=2.05338\RM
 SD=5.116e-09\RMSF=6.914e-03\Dipole=-0.3212489,-0.0818414,0.2086222\Qua
 drupole=2.1736423,0.4788272,-2.6524695,0.0900984,-0.0767807,-2.5754483
 \PG=C01 [X(C23H38Cl30)]\\@
 The archive entry for this job was punched.


 IT PROBABLY IS NOT POSSIBLE FOR A SCIENTIST TO INTERROGATE NATURE 
 FROM A WHOLLY DISINTERESTED VIEWPOINT.
 EVEN IF HE HAS NO PARTICULAR AXE TO GRIND, HE IS LIKELY TO HAVE 
 A DISTINCTIVE WAY OF VIEWING NATURE.

                                                   -- JOHN LOSEE
 Job cpu time:       0 days  0 hours  4 minutes 26.3 seconds.
 Elapsed time:       0 days  0 hours  0 minutes 10.9 seconds.
 File lengths (MBytes):  RWF=    104 Int=      0 D2E=      0 Chk=     34 Scr=      1
 Normal termination of Gaussian 16 at Fri Jul 12 22:52:53 2024.
