 Entering Gaussian System, Link 0=g16
 Input=JOBS/12_B.gjf
 Output=JOBS/12_B.log
 Initial command:
 /data/app/gaussian/C01-avx2//g16/l1.exe "/tmp/Gau-1778912.inp" -scrdir="/tmp/"
 Entering Link 1 = /data/app/gaussian/C01-avx2//g16/l1.exe PID=   1778913.
  
 Copyright (c) 1988-2019, Gaussian, Inc.  All Rights Reserved.
  
 This is part of the Gaussian(R) 16 program.  It is based on
 the Gaussian(R) 09 system (copyright 2009, Gaussian, Inc.),
 the Gaussian(R) 03 system (copyright 2003, Gaussian, Inc.),
 the Gaussian(R) 98 system (copyright 1998, Gaussian, Inc.),
 the Gaussian(R) 94 system (copyright 1995, Gaussian, Inc.),
 the Gaussian 92(TM) system (copyright 1992, Gaussian, Inc.),
 the Gaussian 90(TM) system (copyright 1990, Gaussian, Inc.),
 the Gaussian 88(TM) system (copyright 1988, Gaussian, Inc.),
 the Gaussian 86(TM) system (copyright 1986, Carnegie Mellon
 University), and the Gaussian 82(TM) system (copyright 1983,
 Carnegie Mellon University). Gaussian is a federally registered
 trademark of Gaussian, Inc.
  
 This software contains proprietary and confidential information,
 including trade secrets, belonging to Gaussian, Inc.
  
 This software is provided under written license and may be
 used, copied, transmitted, or stored only in accord with that
 written license.
  
 The following legend is applicable only to US Government
 contracts under FAR:
  
                    RESTRICTED RIGHTS LEGEND
  
 Use, reproduction and disclosure by the US Government is
 subject to restrictions as set forth in subparagraphs (a)
 and (c) of the Commercial Computer Software - Restricted
 Rights clause in FAR 52.227-19.
  
 Gaussian, Inc.
 340 Quinnipiac St., Bldg. 40, Wallingford CT 06492
  
  
 ---------------------------------------------------------------
 Warning -- This program may not be used in any manner that
 competes with the business of Gaussian, Inc. or will provide
 assistance to any competitor of Gaussian, Inc.  The licensee
 of this program is prohibited from giving any competitor of
 Gaussian, Inc. access to this program.  By using this program,
 the user acknowledges that Gaussian, Inc. is engaged in the
 business of creating and licensing software in the field of
 computational chemistry and represents and warrants to the
 licensee that it is not a competitor of Gaussian, Inc. and that
 it will not use this program in any manner prohibited above.
 ---------------------------------------------------------------
  

 Cite this work as:
 Gaussian 16, Revision C.01,
 M. J. Frisch, G. W. Trucks, H. B. Schlegel, G. E. Scuseria, 
 M. A. Robb, J. R. Cheeseman, G. Scalmani, V. Barone, 
 G. A. Petersson, H. Nakatsuji, X. Li, M. Caricato, A. V. Marenich, 
 J. Bloino, B. G. Janesko, R. Gomperts, B. Mennucci, H. P. Hratchian, 
 J. V. Ortiz, A. F. Izmaylov, J. L. Sonnenberg, D. Williams-Young, 
 F. Ding, F. Lipparini, F. Egidi, J. Goings, B. Peng, A. Petrone, 
 T. Henderson, D. Ranasinghe, V. G. Zakrzewski, J. Gao, N. Rega, 
 G. Zheng, W. Liang, M. Hada, M. Ehara, K. Toyota, R. Fukuda, 
 J. Hasegawa, M. Ishida, T. Nakajima, Y. Honda, O. Kitao, H. Nakai, 
 T. Vreven, K. Throssell, J. A. Montgomery, Jr., J. E. Peralta, 
 F. Ogliaro, M. J. Bearpark, J. J. Heyd, E. N. Brothers, K. N. Kudin, 
 V. N. Staroverov, T. A. Keith, R. Kobayashi, J. Normand, 
 K. Raghavachari, A. P. Rendell, J. C. Burant, S. S. Iyengar, 
 J. Tomasi, M. Cossi, J. M. Millam, M. Klene, C. Adamo, R. Cammi, 
 J. W. Ochterski, R. L. Martin, K. Morokuma, O. Farkas, 
 J. B. Foresman, and D. J. Fox, Gaussian, Inc., Wallingford CT, 2019.
 
 ******************************************
 Gaussian 16:  ES64L-G16RevC.01  3-Jul-2019
                12-Jul-2024 
 ******************************************
 %chk=b.chk
 %nprocshared=28
 Will use up to   28 processors via shared memory.
 %mem=48gb
 ----------------------------------------------------------------------
 # scf=(xqc,maxcycle=64) force guess=read oniom(b3lyp/em=gd3bj/6-31g(d)
 :pm6) nosymm
 ----------------------------------------------------------------------
 1/10=7,30=1,38=1,52=2/1,3;
 2/12=2,15=1,17=6,18=5,40=1/2;
 1/10=7,30=1,38=1,52=2,53=3172/20;
 3/5=2,25=1,41=3900000,71=1,116=-2/1,2,3;
 4/5=1,35=1/1;
 5/5=2,7=64,8=3,13=1,35=1,38=6/2,8;
 6/7=2,8=2,9=2,10=2,28=1/1;
 7/7=1,30=1,33=-1/1,2,3,16;
 1/10=7,30=1,52=2,53=2032/20;
 3/5=1,6=6,7=1,11=2,25=1,30=1,71=1,74=-5,116=-2,124=41/1,2,3;
 4/5=1/1;
 5/5=2,7=64,8=3,13=1,38=6/2,8;
 6/7=2,8=2,9=2,10=2,28=1/1;
 7/7=1,30=1,33=-1/1,2,3,16;
 1/10=7,30=1,52=2,53=1022/20;
 3/5=2,25=1,41=3900000,71=1,116=-2/1,2,3;
 4/5=1,35=1/1;
 5/5=2,7=64,8=3,13=1,35=1,38=6/2,8;
 6/7=2,8=2,9=2,10=2,28=1/1;
 7/7=1,30=1,33=-1/1,2,3,16;
 1/10=7,30=1,52=2,53=3015/20;
 7/9=1,29=1,44=-1,126=2/16;
 1/10=7,30=1,52=2/3;
 99//99;
 ONIOM: restoring gridpoint  3 on chk file.
 ----------
 Title Card
 ----------
 Symbolic Z-matrix:
 Charge =  0 Multiplicity = 1 for low   level calculation on real  system.
 Charge =  0 Multiplicity = 3 for high  level calculation on model system.
 Charge =  0 Multiplicity = 3 for low   level calculation on model system.
 c                     0.55518  -0.17654  -0.17912  h 
 c                    -0.08381  -1.29465   0.417    h 
 c                    -0.26583   0.88182  -0.64265  h 
 c                    -1.45587  -1.35595   0.53195  h 
 h                     0.53577  -2.1156    0.77354  h 
 c                     1.97724  -0.14583  -0.31087  h 
 c                    -1.64276   0.81728  -0.50695  h 
 h                     0.18652   1.7533   -1.10963  h 
 c                    -2.25197  -0.30149   0.06306  h 
 h                    -1.9205   -2.22474   0.99149  h 
 c                     2.6873    0.88711  -1.00569  h 
 h                     2.51902  -1.00047   0.10059  h 
 h                    -2.25422   1.64814  -0.8505   h 
 h                    -3.33456  -0.3553    0.13825  h 
 h                     3.61068   1.32341  -0.63305  h 
 h                     2.33398   1.28223  -1.95612  h 
 c                     4.97342   0.55622   1.9949   l 
 h                     5.25677   1.14672   1.09838  l 
 h                     3.97559   0.85978   2.37466  l 
 cl                    6.18417   0.77274   3.25705  l 
 cl                    4.93619  -1.16938   1.56968  l 
 c                     5.7302   -1.06876  -1.56056  l 
 h                     4.65226  -1.11246  -1.2949   l 
 h                     6.33587  -1.67671  -0.85747  l 
 cl                    6.28672   0.61422  -1.51208  l 
 cl                    5.96193  -1.65445  -3.21189  l 
 c                     2.10683   3.18484   1.5426   l 
 h                     1.82773   2.14745   1.25327  l 
 h                     1.35949   3.91158   1.15671  l 
 cl                    3.71067   3.579     0.89892  l 
 cl                    2.21398   3.3114    3.30561  l 
 c                    -2.262     0.81457   3.47413  l 
 h                    -1.88777  -0.23026   3.50308  l 
 h                    -2.19898   1.2953    4.4732   l 
 cl                   -3.94276   0.82324   2.9136   l 
 cl                   -1.30246   1.73979   2.30758  l 
 c                    -1.05155   4.56147   4.58367  l 
 h                    -0.3841    5.43681   4.71104  l 
 h                    -0.87972   4.07674   3.59914  l 
 cl                   -2.73677   5.06443   4.72057  l 
 cl                   -0.73695   3.38742   5.8802   l 
 c                     4.43382   1.09075  -4.4475   l 
 h                     3.87482   0.28262  -3.9288   l 
 h                     5.528     0.91413  -4.37699  l 
 cl                    4.04199   2.65943  -3.71222  l 
 cl                    3.93746   1.17245  -6.1419   l 
 c                    -5.42444   1.97275  -0.38914  l 
 h                    -6.31901   1.40749  -0.05835  l 
 h                    -4.62182   1.93137   0.37755  l 
 cl                   -5.87187   3.65911  -0.68429  l 
 cl                   -4.8329    1.29     -1.91036  l 
 c                    -1.5903    0.98046  -4.08491  l 
 h                    -1.91714   1.29791  -5.0964   l 
 h                    -2.14893   1.52537  -3.2925   l 
 cl                    0.14795   1.30091  -3.9049   l 
 cl                   -1.83251  -0.76041  -3.89658  l 
 c                    -1.40415   5.89322   0.76129  l 
 h                    -1.04124   6.11828  -0.26506  l 
 h                    -2.28719   6.51218   1.02288  l 
 cl                   -0.10102   6.20302   1.92371  l 
 cl                   -1.8292    4.17694   0.88843  l 
 c                     1.11022   0.33046   4.93985  l 
 h                     0.73469   1.32924   4.63064  l 
 h                     1.95515   0.42751   5.65097  l 
 cl                    1.63629  -0.57322   3.514    l 
 cl                   -0.20117  -0.58105   5.70439  l 
 c                     1.06799  -2.17121  -3.02749  l 
 h                     0.18932  -2.76094  -3.35575  l 
 h                     0.75384  -1.16652  -2.66792  l 
 cl                    2.206    -2.00232  -4.37002  l 
 cl                    1.90682  -3.0347   -1.7247   l 
 c                     1.87042   3.92741  -5.95558  l 
 h                     2.84069   3.81805  -6.48254  l 
 h                     1.77656   3.16101  -5.15922  l 
 cl                    1.76499   5.54799  -5.23901  l 
 cl                    0.53472   3.76654  -7.09813  l 
 c                    -1.52358   4.61911  -3.68387  l 
 h                    -0.54342   4.21295  -4.01159  l 
 h                    -1.5262    5.72787  -3.7313   l 
 cl                   -2.81472   3.97684  -4.70713  l 
 cl                   -1.85438   4.10349  -2.01648  l 
 c                     2.15787   5.96768  -1.62436  l 
 h                     2.77288   5.9273   -2.54689  l 
 h                     2.79725   5.93095  -0.7185   l 
 cl                    1.18739   7.44469  -1.61899  l 
 cl                    1.02399   4.60173  -1.60915  l 
 c                    -4.37743   6.87613  -1.68658  l 
 h                    -5.34934   6.93418  -2.21656  l 
 h                    -4.07391   5.81748  -1.53867  l 
 cl                   -3.14297   7.72932  -2.62525  l 
 cl                   -4.51029   7.68359  -0.11885  l 
 

 GradGradGradGradGradGradGradGradGradGradGradGradGradGradGradGradGradGrad
 Berny optimization.
 Initialization pass.
 Trust Radius=3.00D-01 FncErr=1.00D-07 GrdErr=1.00D-07 EigMax=2.50D+02 EigMin=1.00D-04
 Number of steps in this run=      2 maximum allowed number of steps=      2.
 GradGradGradGradGradGradGradGradGradGradGradGradGradGradGradGradGradGrad

 Symmetry turned off by external request.
 Stoichiometry    C23H38Cl30
 Framework group  C1[X(C23H38Cl30)]
 Deg. of freedom   267
 Full point group                 C1      NOp   1
                          Input orientation:                          
 ---------------------------------------------------------------------
 Center     Atomic      Atomic             Coordinates (Angstroms)
 Number     Number       Type             X           Y           Z
 ---------------------------------------------------------------------
      1          6           0        0.555177   -0.176545   -0.179123
      2          6           0       -0.083809   -1.294651    0.417002
      3          6           0       -0.265830    0.881816   -0.642653
      4          6           0       -1.455868   -1.355950    0.531951
      5          1           0        0.535772   -2.115604    0.773545
      6          6           0        1.977245   -0.145832   -0.310866
      7          6           0       -1.642755    0.817282   -0.506947
      8          1           0        0.186524    1.753303   -1.109627
      9          6           0       -2.251967   -0.301491    0.063064
     10          1           0       -1.920504   -2.224739    0.991487
     11          6           0        2.687302    0.887114   -1.005691
     12          1           0        2.519019   -1.000471    0.100589
     13          1           0       -2.254222    1.648136   -0.850497
     14          1           0       -3.334564   -0.355304    0.138253
     15          1           0        3.610678    1.323413   -0.633055
     16          1           0        2.333978    1.282226   -1.956124
     17          6           0        4.973422    0.556217    1.994899
     18          1           0        5.256766    1.146718    1.098383
     19          1           0        3.975594    0.859784    2.374655
     20         17           0        6.184174    0.772739    3.257051
     21         17           0        4.936191   -1.169383    1.569684
     22          6           0        5.730202   -1.068761   -1.560563
     23          1           0        4.652261   -1.112462   -1.294905
     24          1           0        6.335871   -1.676710   -0.857466
     25         17           0        6.286718    0.614218   -1.512080
     26         17           0        5.961933   -1.654453   -3.211894
     27          6           0        2.106835    3.184845    1.542595
     28          1           0        1.827730    2.147450    1.253274
     29          1           0        1.359491    3.911580    1.156709
     30         17           0        3.710673    3.579004    0.898921
     31         17           0        2.213976    3.311397    3.305611
     32          6           0       -2.261996    0.814569    3.474131
     33          1           0       -1.887773   -0.230258    3.503084
     34          1           0       -2.198980    1.295297    4.473197
     35         17           0       -3.942755    0.823236    2.913603
     36         17           0       -1.302464    1.739791    2.307576
     37          6           0       -1.051550    4.561471    4.583674
     38          1           0       -0.384099    5.436810    4.711039
     39          1           0       -0.879720    4.076740    3.599141
     40         17           0       -2.736768    5.064430    4.720575
     41         17           0       -0.736950    3.387416    5.880198
     42          6           0        4.433821    1.090749   -4.447498
     43          1           0        3.874824    0.282620   -3.928803
     44          1           0        5.528001    0.914132   -4.376986
     45         17           0        4.041989    2.659429   -3.712217
     46         17           0        3.937462    1.172446   -6.141904
     47          6           0       -5.424439    1.972745   -0.389145
     48          1           0       -6.319011    1.407491   -0.058350
     49          1           0       -4.621824    1.931370    0.377549
     50         17           0       -5.871868    3.659115   -0.684293
     51         17           0       -4.832901    1.290001   -1.910361
     52          6           0       -1.590303    0.980459   -4.084905
     53          1           0       -1.917136    1.297908   -5.096396
     54          1           0       -2.148928    1.525366   -3.292499
     55         17           0        0.147949    1.300905   -3.904898
     56         17           0       -1.832506   -0.760410   -3.896585
     57          6           0       -1.404148    5.893219    0.761290
     58          1           0       -1.041237    6.118278   -0.265059
     59          1           0       -2.287195    6.512177    1.022880
     60         17           0       -0.101018    6.203025    1.923706
     61         17           0       -1.829205    4.176938    0.888425
     62          6           0        1.110225    0.330464    4.939850
     63          1           0        0.734688    1.329237    4.630636
     64          1           0        1.955146    0.427510    5.650968
     65         17           0        1.636292   -0.573223    3.514001
     66         17           0       -0.201171   -0.581054    5.704393
     67          6           0        1.067988   -2.171208   -3.027490
     68          1           0        0.189321   -2.760935   -3.355754
     69          1           0        0.753842   -1.166522   -2.667915
     70         17           0        2.205999   -2.002323   -4.370016
     71         17           0        1.906820   -3.034700   -1.724699
     72          6           0        1.870418    3.927413   -5.955577
     73          1           0        2.840686    3.818054   -6.482544
     74          1           0        1.776561    3.161008   -5.159225
     75         17           0        1.764987    5.547992   -5.239006
     76         17           0        0.534716    3.766536   -7.098126
     77          6           0       -1.523575    4.619107   -3.683872
     78          1           0       -0.543423    4.212947   -4.011587
     79          1           0       -1.526205    5.727871   -3.731300
     80         17           0       -2.814725    3.976843   -4.707133
     81         17           0       -1.854376    4.103491   -2.016476
     82          6           0        2.157875    5.967678   -1.624356
     83          1           0        2.772878    5.927300   -2.546890
     84          1           0        2.797254    5.930950   -0.718501
     85         17           0        1.187395    7.444689   -1.618989
     86         17           0        1.023986    4.601731   -1.609145
     87          6           0       -4.377430    6.876132   -1.686584
     88          1           0       -5.349343    6.934180   -2.216559
     89          1           0       -4.073908    5.817478   -1.538668
     90         17           0       -3.142971    7.729319   -2.625254
     91         17           0       -4.510292    7.683595   -0.118850
 ---------------------------------------------------------------------
 Rotational constants (GHZ):           0.0225941           0.0200289           0.0153218
 ONIOM: saving gridpoint 17
 ONIOM: restoring gridpoint  3 on chk file.
 ONIOM: generating point  3 -- low level on real system.
 Standard basis: VSTO-6G (5D, 7F)
   400 basis functions,  2580 primitive gaussians,   430 cartesian basis functions
   170 alpha electrons      170 beta electrons
       nuclear repulsion energy      5298.2870794810 Hartrees.
 Integral buffers will be    131072 words long.
 Regular integral format.
 Two-electron integral symmetry is turned off.
 Do NDO integrals.
 One-electron integrals computed using PRISM.
 NBasis=   400 RedAO= F EigKep=  0.00D+00  NBF=   400
 NBsUse=   400 1.00D-04 EigRej=  0.00D+00 NBFU=   400
 Initial guess from the checkpoint file:  "b.chk"
 B after Tr=    -0.000170   -0.000212   -0.000182
         Rot=    1.000000   -0.000015    0.000006   -0.000012 Ang=  -0.00 deg.
 Initial guess <Sx>= 0.0000 <Sy>= 0.0000 <Sz>= 0.0000 <S**2>=-0.0000 S=-0.0000
 Keep J ints in memory in canonical form, NReq=3161508.
 Overlap will be assumed to be unity.
 Requested convergence on RMS density matrix=1.00D-08 within  64 cycles.
 Requested convergence on MAX density matrix=1.00D-06.
 Requested convergence on             energy=1.00D-06.
 No special actions if energy rises.
 SCF Done:  E(UPM6) = -0.404735695453     A.U. after   10 cycles
            NFock=  9  Conv=0.91D-08     -V/T= 0.9994
 <Sx>= 0.0000 <Sy>= 0.0000 <Sz>= 0.0000 <S**2>=-0.0000 S=-0.0000
 <L.S>=  0.00000000000    
 Annihilation of the first spin contaminant:
 S**2 before annihilation     0.0000,   after     0.0000
 QCSCF skips out because SCF is already converged.

 **********************************************************************

            Population analysis using the SCF Density.

 **********************************************************************

 Alpha  occ. eigenvalues --   -1.11299  -1.05648  -1.05340  -1.05291  -1.05193
 Alpha  occ. eigenvalues --   -1.05144  -1.05125  -1.04941  -1.04885  -1.04793
 Alpha  occ. eigenvalues --   -1.04749  -1.04713  -1.04483  -1.04455  -1.04349
 Alpha  occ. eigenvalues --   -1.04114  -1.01826  -0.98620  -0.98302  -0.98232
 Alpha  occ. eigenvalues --   -0.98161  -0.98116  -0.97972  -0.97952  -0.97793
 Alpha  occ. eigenvalues --   -0.97773  -0.97753  -0.97630  -0.97413  -0.97338
 Alpha  occ. eigenvalues --   -0.97273  -0.97249  -0.97008  -0.92359  -0.88795
 Alpha  occ. eigenvalues --   -0.88712  -0.88586  -0.88410  -0.88365  -0.88254
 Alpha  occ. eigenvalues --   -0.88225  -0.88130  -0.88088  -0.88014  -0.87887
 Alpha  occ. eigenvalues --   -0.87654  -0.87564  -0.87516  -0.87216  -0.82668
 Alpha  occ. eigenvalues --   -0.79234  -0.72984  -0.65443  -0.62728  -0.62379
 Alpha  occ. eigenvalues --   -0.62118  -0.61862  -0.61642  -0.61548  -0.61489
 Alpha  occ. eigenvalues --   -0.61311  -0.61253  -0.61168  -0.61060  -0.60910
 Alpha  occ. eigenvalues --   -0.60386  -0.60312  -0.60130  -0.60054  -0.60015
 Alpha  occ. eigenvalues --   -0.59779  -0.59617  -0.59538  -0.59466  -0.59374
 Alpha  occ. eigenvalues --   -0.59274  -0.59203  -0.59112  -0.58999  -0.58938
 Alpha  occ. eigenvalues --   -0.58744  -0.58607  -0.58579  -0.58484  -0.58337
 Alpha  occ. eigenvalues --   -0.58285  -0.58083  -0.57810  -0.57731  -0.57711
 Alpha  occ. eigenvalues --   -0.57679  -0.57585  -0.57526  -0.57508  -0.57435
 Alpha  occ. eigenvalues --   -0.57230  -0.57109  -0.57073  -0.56887  -0.56790
 Alpha  occ. eigenvalues --   -0.55179  -0.53420  -0.52374  -0.51068  -0.49679
 Alpha  occ. eigenvalues --   -0.46209  -0.45277  -0.45101  -0.44814  -0.44281
 Alpha  occ. eigenvalues --   -0.44254  -0.44118  -0.43992  -0.43938  -0.43865
 Alpha  occ. eigenvalues --   -0.43762  -0.43708  -0.43585  -0.43499  -0.43460
 Alpha  occ. eigenvalues --   -0.43424  -0.43420  -0.43392  -0.43315  -0.43290
 Alpha  occ. eigenvalues --   -0.43224  -0.43153  -0.43124  -0.43046  -0.42971
 Alpha  occ. eigenvalues --   -0.42910  -0.42862  -0.42806  -0.42763  -0.42628
 Alpha  occ. eigenvalues --   -0.42586  -0.42477  -0.42425  -0.42344  -0.42133
 Alpha  occ. eigenvalues --   -0.42023  -0.41924  -0.41909  -0.41797  -0.41791
 Alpha  occ. eigenvalues --   -0.41709  -0.41685  -0.41624  -0.41613  -0.41482
 Alpha  occ. eigenvalues --   -0.41368  -0.41305  -0.41292  -0.41240  -0.41202
 Alpha  occ. eigenvalues --   -0.41166  -0.41138  -0.41051  -0.41040  -0.40913
 Alpha  occ. eigenvalues --   -0.40863  -0.40769  -0.40599  -0.40588  -0.40511
 Alpha  occ. eigenvalues --   -0.40371  -0.40327  -0.39587  -0.36953  -0.32911
 Alpha virt. eigenvalues --   -0.03658  -0.01330  -0.00993  -0.00960  -0.00898
 Alpha virt. eigenvalues --   -0.00669  -0.00647  -0.00592  -0.00556  -0.00492
 Alpha virt. eigenvalues --   -0.00454  -0.00439  -0.00393  -0.00363  -0.00277
 Alpha virt. eigenvalues --   -0.00257  -0.00234  -0.00222  -0.00207  -0.00193
 Alpha virt. eigenvalues --   -0.00152  -0.00136  -0.00050  -0.00016   0.00043
 Alpha virt. eigenvalues --    0.00336   0.00386   0.00466   0.00490   0.00508
 Alpha virt. eigenvalues --    0.00597   0.00694   0.02603   0.08896   0.14211
 Alpha virt. eigenvalues --    0.14238   0.14423   0.14543   0.14697   0.14764
 Alpha virt. eigenvalues --    0.14875   0.14968   0.14972   0.15031   0.15058
 Alpha virt. eigenvalues --    0.15125   0.15153   0.15163   0.15242   0.15353
 Alpha virt. eigenvalues --    0.15406   0.15439   0.15493   0.15566   0.15618
 Alpha virt. eigenvalues --    0.15733   0.15792   0.15857   0.15912   0.15930
 Alpha virt. eigenvalues --    0.15960   0.15981   0.16092   0.16340   0.16399
 Alpha virt. eigenvalues --    0.16415   0.16711   0.16998   0.17225   0.17964
 Alpha virt. eigenvalues --    0.18564   0.19293   0.19803   0.20387   0.21082
 Alpha virt. eigenvalues --    0.21276   0.21598   0.21801   0.22176   0.22285
 Alpha virt. eigenvalues --    3.16401   3.16814   3.17311   3.17939   3.18100
 Alpha virt. eigenvalues --    3.18341   3.18618   3.18722   3.18966   3.19076
 Alpha virt. eigenvalues --    3.19094   3.19257   3.19324   3.19533   3.19628
 Alpha virt. eigenvalues --    3.19635   3.19700   3.19833   3.19902   3.19989
 Alpha virt. eigenvalues --    3.20016   3.20177   3.20269   3.20300   3.20425
 Alpha virt. eigenvalues --    3.20466   3.20533   3.20547   3.20623   3.20656
 Alpha virt. eigenvalues --    3.20692   3.20827   3.20866   3.20961   3.21003
 Alpha virt. eigenvalues --    3.21055   3.21094   3.21157   3.21171   3.21228
 Alpha virt. eigenvalues --    3.21400   3.21443   3.21554   3.21711   3.21828
 Alpha virt. eigenvalues --    3.21964   3.22057   3.22130   3.22159   3.22300
 Alpha virt. eigenvalues --    3.22438   3.22491   3.22524   3.22581   3.22729
 Alpha virt. eigenvalues --    3.22778   3.22937   3.22981   3.23127   3.23157
 Alpha virt. eigenvalues --    3.23186   3.23281   3.23365   3.23411   3.23476
 Alpha virt. eigenvalues --    3.23494   3.23568   3.23644   3.23737   3.23787
 Alpha virt. eigenvalues --    3.23849   3.23938   3.23961   3.23995   3.24087
 Alpha virt. eigenvalues --    3.24128   3.24151   3.24226   3.24270   3.24306
 Alpha virt. eigenvalues --    3.24367   3.24474   3.24482   3.24534   3.24634
 Alpha virt. eigenvalues --    3.24663   3.24716   3.24799   3.24848   3.24928
 Alpha virt. eigenvalues --    3.24950   3.25019   3.25054   3.25073   3.25093
 Alpha virt. eigenvalues --    3.25137   3.25296   3.25372   3.25451   3.25514
 Alpha virt. eigenvalues --    3.25531   3.25671   3.25724   3.25751   3.25846
 Alpha virt. eigenvalues --    3.25873   3.25920   3.25988   3.26096   3.26212
 Alpha virt. eigenvalues --    3.26268   3.26318   3.26412   3.26448   3.26782
 Alpha virt. eigenvalues --    3.26836   3.26904   3.26984   3.27020   3.27155
 Alpha virt. eigenvalues --    3.27227   3.27328   3.27374   3.27395   3.27461
 Alpha virt. eigenvalues --    3.27533   3.27628   3.27731   3.27750   3.27832
 Alpha virt. eigenvalues --    3.27848   3.27948   3.28141   3.28157   3.28197
 Alpha virt. eigenvalues --    3.28280   3.28375   3.28462   3.28540   3.28575
 Alpha virt. eigenvalues --    3.28633   3.28668   3.28722   3.28816   3.28909
 Alpha virt. eigenvalues --    3.29116   3.29245   3.29337   3.29700   3.29964
  Beta  occ. eigenvalues --   -1.11299  -1.05648  -1.05340  -1.05291  -1.05193
  Beta  occ. eigenvalues --   -1.05144  -1.05125  -1.04941  -1.04885  -1.04793
  Beta  occ. eigenvalues --   -1.04749  -1.04713  -1.04483  -1.04455  -1.04349
  Beta  occ. eigenvalues --   -1.04114  -1.01826  -0.98620  -0.98302  -0.98232
  Beta  occ. eigenvalues --   -0.98161  -0.98116  -0.97972  -0.97952  -0.97793
  Beta  occ. eigenvalues --   -0.97773  -0.97753  -0.97630  -0.97413  -0.97338
  Beta  occ. eigenvalues --   -0.97273  -0.97249  -0.97008  -0.92359  -0.88795
  Beta  occ. eigenvalues --   -0.88712  -0.88586  -0.88410  -0.88365  -0.88254
  Beta  occ. eigenvalues --   -0.88225  -0.88130  -0.88088  -0.88014  -0.87887
  Beta  occ. eigenvalues --   -0.87654  -0.87564  -0.87516  -0.87216  -0.82668
  Beta  occ. eigenvalues --   -0.79234  -0.72984  -0.65443  -0.62728  -0.62379
  Beta  occ. eigenvalues --   -0.62118  -0.61862  -0.61642  -0.61548  -0.61489
  Beta  occ. eigenvalues --   -0.61311  -0.61253  -0.61168  -0.61060  -0.60910
  Beta  occ. eigenvalues --   -0.60386  -0.60312  -0.60130  -0.60054  -0.60015
  Beta  occ. eigenvalues --   -0.59779  -0.59617  -0.59538  -0.59466  -0.59374
  Beta  occ. eigenvalues --   -0.59274  -0.59203  -0.59112  -0.58999  -0.58938
  Beta  occ. eigenvalues --   -0.58744  -0.58607  -0.58579  -0.58484  -0.58337
  Beta  occ. eigenvalues --   -0.58285  -0.58083  -0.57810  -0.57731  -0.57711
  Beta  occ. eigenvalues --   -0.57679  -0.57585  -0.57526  -0.57508  -0.57435
  Beta  occ. eigenvalues --   -0.57230  -0.57109  -0.57073  -0.56887  -0.56790
  Beta  occ. eigenvalues --   -0.55179  -0.53420  -0.52374  -0.51068  -0.49679
  Beta  occ. eigenvalues --   -0.46209  -0.45277  -0.45101  -0.44814  -0.44281
  Beta  occ. eigenvalues --   -0.44254  -0.44118  -0.43992  -0.43938  -0.43865
  Beta  occ. eigenvalues --   -0.43762  -0.43708  -0.43585  -0.43499  -0.43460
  Beta  occ. eigenvalues --   -0.43424  -0.43420  -0.43392  -0.43315  -0.43290
  Beta  occ. eigenvalues --   -0.43224  -0.43153  -0.43124  -0.43046  -0.42971
  Beta  occ. eigenvalues --   -0.42910  -0.42862  -0.42806  -0.42763  -0.42628
  Beta  occ. eigenvalues --   -0.42586  -0.42477  -0.42425  -0.42344  -0.42133
  Beta  occ. eigenvalues --   -0.42023  -0.41924  -0.41909  -0.41797  -0.41791
  Beta  occ. eigenvalues --   -0.41709  -0.41685  -0.41624  -0.41613  -0.41482
  Beta  occ. eigenvalues --   -0.41368  -0.41305  -0.41292  -0.41240  -0.41202
  Beta  occ. eigenvalues --   -0.41166  -0.41138  -0.41051  -0.41040  -0.40913
  Beta  occ. eigenvalues --   -0.40863  -0.40769  -0.40599  -0.40588  -0.40511
  Beta  occ. eigenvalues --   -0.40371  -0.40327  -0.39587  -0.36953  -0.32911
  Beta virt. eigenvalues --   -0.03658  -0.01330  -0.00993  -0.00960  -0.00898
  Beta virt. eigenvalues --   -0.00669  -0.00647  -0.00592  -0.00556  -0.00492
  Beta virt. eigenvalues --   -0.00454  -0.00439  -0.00393  -0.00363  -0.00277
  Beta virt. eigenvalues --   -0.00257  -0.00234  -0.00222  -0.00207  -0.00193
  Beta virt. eigenvalues --   -0.00152  -0.00136  -0.00050  -0.00016   0.00043
  Beta virt. eigenvalues --    0.00336   0.00386   0.00466   0.00490   0.00508
  Beta virt. eigenvalues --    0.00597   0.00694   0.02603   0.08896   0.14211
  Beta virt. eigenvalues --    0.14238   0.14423   0.14543   0.14697   0.14764
  Beta virt. eigenvalues --    0.14875   0.14968   0.14972   0.15031   0.15058
  Beta virt. eigenvalues --    0.15125   0.15153   0.15163   0.15242   0.15353
  Beta virt. eigenvalues --    0.15406   0.15439   0.15493   0.15566   0.15618
  Beta virt. eigenvalues --    0.15733   0.15792   0.15857   0.15912   0.15930
  Beta virt. eigenvalues --    0.15960   0.15981   0.16092   0.16340   0.16399
  Beta virt. eigenvalues --    0.16415   0.16711   0.16998   0.17225   0.17964
  Beta virt. eigenvalues --    0.18564   0.19293   0.19803   0.20387   0.21082
  Beta virt. eigenvalues --    0.21276   0.21598   0.21801   0.22176   0.22285
  Beta virt. eigenvalues --    3.16401   3.16814   3.17311   3.17939   3.18100
  Beta virt. eigenvalues --    3.18341   3.18618   3.18722   3.18966   3.19076
  Beta virt. eigenvalues --    3.19094   3.19257   3.19324   3.19533   3.19628
  Beta virt. eigenvalues --    3.19635   3.19700   3.19833   3.19902   3.19989
  Beta virt. eigenvalues --    3.20016   3.20177   3.20269   3.20300   3.20425
  Beta virt. eigenvalues --    3.20466   3.20533   3.20547   3.20623   3.20656
  Beta virt. eigenvalues --    3.20692   3.20827   3.20866   3.20961   3.21003
  Beta virt. eigenvalues --    3.21055   3.21094   3.21157   3.21171   3.21228
  Beta virt. eigenvalues --    3.21400   3.21443   3.21554   3.21711   3.21828
  Beta virt. eigenvalues --    3.21964   3.22057   3.22130   3.22159   3.22300
  Beta virt. eigenvalues --    3.22438   3.22491   3.22524   3.22581   3.22729
  Beta virt. eigenvalues --    3.22778   3.22937   3.22981   3.23127   3.23157
  Beta virt. eigenvalues --    3.23186   3.23281   3.23365   3.23411   3.23476
  Beta virt. eigenvalues --    3.23494   3.23568   3.23644   3.23737   3.23787
  Beta virt. eigenvalues --    3.23849   3.23938   3.23961   3.23995   3.24087
  Beta virt. eigenvalues --    3.24128   3.24151   3.24226   3.24270   3.24306
  Beta virt. eigenvalues --    3.24367   3.24474   3.24482   3.24534   3.24634
  Beta virt. eigenvalues --    3.24663   3.24716   3.24799   3.24848   3.24928
  Beta virt. eigenvalues --    3.24950   3.25019   3.25054   3.25073   3.25093
  Beta virt. eigenvalues --    3.25137   3.25296   3.25372   3.25451   3.25514
  Beta virt. eigenvalues --    3.25531   3.25671   3.25724   3.25751   3.25846
  Beta virt. eigenvalues --    3.25873   3.25920   3.25988   3.26096   3.26212
  Beta virt. eigenvalues --    3.26268   3.26318   3.26412   3.26448   3.26782
  Beta virt. eigenvalues --    3.26836   3.26904   3.26984   3.27020   3.27155
  Beta virt. eigenvalues --    3.27227   3.27328   3.27374   3.27395   3.27461
  Beta virt. eigenvalues --    3.27533   3.27628   3.27731   3.27750   3.27832
  Beta virt. eigenvalues --    3.27848   3.27948   3.28141   3.28157   3.28197
  Beta virt. eigenvalues --    3.28280   3.28375   3.28462   3.28540   3.28575
  Beta virt. eigenvalues --    3.28633   3.28668   3.28722   3.28816   3.28909
  Beta virt. eigenvalues --    3.29116   3.29245   3.29337   3.29700   3.29964
          Condensed to atoms (all electrons):
          Atomic-Atomic Spin Densities.
 Mulliken charges and spin densities:
               1          2
     1  C   -0.016061   0.000000
     2  C   -0.142028   0.000000
     3  C   -0.149350   0.000000
     4  C   -0.156443   0.000000
     5  H    0.153424   0.000000
     6  C   -0.126038   0.000000
     7  C   -0.151747   0.000000
     8  H    0.155176   0.000000
     9  C   -0.117681   0.000000
    10  H    0.149399   0.000000
    11  C   -0.369654   0.000000
    12  H    0.157092   0.000000
    13  H    0.150513   0.000000
    14  H    0.145687   0.000000
    15  H    0.159017   0.000000
    16  H    0.161605   0.000000
    17  C   -0.139033   0.000000
    18  H    0.187875   0.000000
    19  H    0.186130   0.000000
    20  Cl  -0.095056   0.000000
    21  Cl  -0.140420   0.000000
    22  C   -0.144348   0.000000
    23  H    0.192865   0.000000
    24  H    0.191543   0.000000
    25  Cl  -0.127756   0.000000
    26  Cl  -0.111663   0.000000
    27  C   -0.143663   0.000000
    28  H    0.198330   0.000000
    29  H    0.196876   0.000000
    30  Cl  -0.126294   0.000000
    31  Cl  -0.125987   0.000000
    32  C   -0.129222   0.000000
    33  H    0.192410   0.000000
    34  H    0.191984   0.000000
    35  Cl  -0.129819   0.000000
    36  Cl  -0.123561   0.000000
    37  C   -0.137670   0.000000
    38  H    0.184833   0.000000
    39  H    0.194089   0.000000
    40  Cl  -0.100854   0.000000
    41  Cl  -0.142042   0.000000
    42  C   -0.133057   0.000000
    43  H    0.193994   0.000000
    44  H    0.195219   0.000000
    45  Cl  -0.141538   0.000000
    46  Cl  -0.114518   0.000000
    47  C   -0.141844   0.000000
    48  H    0.183141   0.000000
    49  H    0.191431   0.000000
    50  Cl  -0.117460   0.000000
    51  Cl  -0.115011   0.000000
    52  C   -0.127159   0.000000
    53  H    0.190342   0.000000
    54  H    0.195688   0.000000
    55  Cl  -0.142038   0.000000
    56  Cl  -0.116575   0.000000
    57  C   -0.139148   0.000000
    58  H    0.198800   0.000000
    59  H    0.193904   0.000000
    60  Cl  -0.134585   0.000000
    61  Cl  -0.113515   0.000000
    62  C   -0.145656   0.000000
    63  H    0.191058   0.000000
    64  H    0.186468   0.000000
    65  Cl  -0.112315   0.000000
    66  Cl  -0.120182   0.000000
    67  C   -0.132943   0.000000
    68  H    0.184015   0.000000
    69  H    0.198456   0.000000
    70  Cl  -0.116790   0.000000
    71  Cl  -0.133612   0.000000
    72  C   -0.139009   0.000000
    73  H    0.191502   0.000000
    74  H    0.189578   0.000000
    75  Cl  -0.137073   0.000000
    76  Cl  -0.106357   0.000000
    77  C   -0.143198   0.000000
    78  H    0.193005   0.000000
    79  H    0.193967   0.000000
    80  Cl  -0.119491   0.000000
    81  Cl  -0.127366   0.000000
    82  C   -0.143614   0.000000
    83  H    0.189004   0.000000
    84  H    0.188334   0.000000
    85  Cl  -0.106683   0.000000
    86  Cl  -0.130781   0.000000
    87  C   -0.149299   0.000000
    88  H    0.186222   0.000000
    89  H    0.193249   0.000000
    90  Cl  -0.116895   0.000000
    91  Cl  -0.112118   0.000000
 Sum of Mulliken charges =  -0.00000   0.00000
 Mulliken charges and spin densities with hydrogens summed into heavy atoms:
               1          2
     1  C   -0.016061   0.000000
     2  C    0.011396   0.000000
     3  C    0.005826   0.000000
     4  C   -0.007044   0.000000
     6  C    0.031054   0.000000
     7  C   -0.001234   0.000000
     9  C    0.028006   0.000000
    11  C   -0.049032   0.000000
    17  C    0.234972   0.000000
    20  Cl  -0.095056   0.000000
    21  Cl  -0.140420   0.000000
    22  C    0.240060   0.000000
    25  Cl  -0.127756   0.000000
    26  Cl  -0.111663   0.000000
    27  C    0.251542   0.000000
    30  Cl  -0.126294   0.000000
    31  Cl  -0.125987   0.000000
    32  C    0.255172   0.000000
    35  Cl  -0.129819   0.000000
    36  Cl  -0.123561   0.000000
    37  C    0.241252   0.000000
    40  Cl  -0.100854   0.000000
    41  Cl  -0.142042   0.000000
    42  C    0.256156   0.000000
    45  Cl  -0.141538   0.000000
    46  Cl  -0.114518   0.000000
    47  C    0.232727   0.000000
    50  Cl  -0.117460   0.000000
    51  Cl  -0.115011   0.000000
    52  C    0.258870   0.000000
    55  Cl  -0.142038   0.000000
    56  Cl  -0.116575   0.000000
    57  C    0.253556   0.000000
    60  Cl  -0.134585   0.000000
    61  Cl  -0.113515   0.000000
    62  C    0.231871   0.000000
    65  Cl  -0.112315   0.000000
    66  Cl  -0.120182   0.000000
    67  C    0.249527   0.000000
    70  Cl  -0.116790   0.000000
    71  Cl  -0.133612   0.000000
    72  C    0.242072   0.000000
    75  Cl  -0.137073   0.000000
    76  Cl  -0.106357   0.000000
    77  C    0.243773   0.000000
    80  Cl  -0.119491   0.000000
    81  Cl  -0.127366   0.000000
    82  C    0.233723   0.000000
    85  Cl  -0.106683   0.000000
    86  Cl  -0.130781   0.000000
    87  C    0.230171   0.000000
    90  Cl  -0.116895   0.000000
    91  Cl  -0.112118   0.000000
 Charge=              0.0000 electrons
 Dipole moment (field-independent basis, Debye):
    X=             -0.8849    Y=             -0.1734    Z=              0.4885  Tot=              1.0255
 N-N= 5.298287079481D+03 E-N=-9.741721544817D+03  KE=-6.384516679321D+02
 Calling FoFJK, ICntrl=      2127 FMM=F ISym2X=0 I1Cent= 0 IOpClX= 1 NMat=1 NMatS=1 NMatT=0.
 Cartesian Forces:  Max     0.061442040 RMS     0.008310578
 SvSCFP is copying densities from files   528 and   530 to   603.
 ONIOM: saving gridpoint  3
 ONIOM: restoring gridpoint 17
 ONIOM: restoring gridpoint  2 on chk file.
 ONIOM: generating point  2 -- high level on model system.
 Standard basis: 6-31G(d) (6D, 7F)
   136 basis functions,   256 primitive gaussians,   136 cartesian basis functions
    29 alpha electrons       27 beta electrons
       nuclear repulsion energy       319.2553442853 Hartrees.
 NAtoms=   91 NActive=   16 NUniq=   16 SFac= 1.00D+00 NAtFMM=   60 NAOKFM=F Big=F
 Integral buffers will be    131072 words long.
 Raffenetti 2 integral format.
 Two-electron integral symmetry is turned off.
 Nuclear repulsion after empirical dispersion term =      319.2277096856 Hartrees.
 One-electron integrals computed using PRISM.
 NBasis=   136 RedAO= T EigKep=  4.71D-04  NBF=   136
 NBsUse=   136 1.00D-06 EigRej= -1.00D+00 NBFU=   136
 Initial guess from the checkpoint file:  "b.chk"
 B after Tr=     0.001000    0.000250    0.001557
         Rot=    1.000000   -0.000189   -0.000264    0.000128 Ang=  -0.04 deg.
 Initial guess <Sx>= 0.0000 <Sy>= 0.0000 <Sz>= 1.0000 <S**2>= 2.0290 S= 1.0097
 Requested convergence on RMS density matrix=1.00D-08 within  64 cycles.
 Requested convergence on MAX density matrix=1.00D-06.
 Requested convergence on             energy=1.00D-06.
 No special actions if energy rises.
 SCF Done:  E(UB3LYP) =  -309.578662953     A.U. after   11 cycles
            NFock= 11  Conv=0.73D-08     -V/T= 2.0096
 <Sx>= 0.0000 <Sy>= 0.0000 <Sz>= 1.0000 <S**2>= 2.0290 S= 1.0096
 <L.S>=  0.00000000000    
 Annihilation of the first spin contaminant:
 S**2 before annihilation     2.0290,   after     2.0004
 QCSCF skips out because SCF is already converged.

 **********************************************************************

            Population analysis using the SCF Density.

 **********************************************************************

 Alpha  occ. eigenvalues --  -10.19789 -10.19668 -10.19506 -10.18851 -10.18771
 Alpha  occ. eigenvalues --  -10.18665 -10.18576 -10.18565  -0.85689  -0.79107
 Alpha  occ. eigenvalues --   -0.74497  -0.72214  -0.63260  -0.60031  -0.56323
 Alpha  occ. eigenvalues --   -0.51009  -0.46918  -0.45286  -0.43580  -0.41808
 Alpha  occ. eigenvalues --   -0.40924  -0.39699  -0.37049  -0.34967  -0.33519
 Alpha  occ. eigenvalues --   -0.29743  -0.25541  -0.23536  -0.14000
 Alpha virt. eigenvalues --    0.00220   0.02712   0.09788   0.11749   0.12850
 Alpha virt. eigenvalues --    0.15864   0.16104   0.16854   0.18165   0.19727
 Alpha virt. eigenvalues --    0.21119   0.26529   0.27916   0.30826   0.33629
 Alpha virt. eigenvalues --    0.35994   0.37346   0.45974   0.51373   0.52440
 Alpha virt. eigenvalues --    0.53724   0.54887   0.55311   0.57173   0.58043
 Alpha virt. eigenvalues --    0.58582   0.59699   0.60106   0.62035   0.62064
 Alpha virt. eigenvalues --    0.63362   0.64436   0.65144   0.68310   0.71563
 Alpha virt. eigenvalues --    0.77162   0.82444   0.83612   0.83887   0.84545
 Alpha virt. eigenvalues --    0.85456   0.88721   0.90568   0.92170   0.92930
 Alpha virt. eigenvalues --    0.93549   0.95268   0.98931   1.01430   1.04183
 Alpha virt. eigenvalues --    1.08590   1.14365   1.16650   1.18217   1.25784
 Alpha virt. eigenvalues --    1.28961   1.32726   1.38862   1.43846   1.44597
 Alpha virt. eigenvalues --    1.45540   1.48316   1.49305   1.51362   1.62863
 Alpha virt. eigenvalues --    1.69433   1.76944   1.80235   1.83768   1.87366
 Alpha virt. eigenvalues --    1.89356   1.91315   1.94314   1.96949   1.98039
 Alpha virt. eigenvalues --    2.04753   2.08666   2.10598   2.14480   2.14928
 Alpha virt. eigenvalues --    2.17908   2.22037   2.26611   2.32114   2.32547
 Alpha virt. eigenvalues --    2.34608   2.47215   2.50645   2.57179   2.59590
 Alpha virt. eigenvalues --    2.61947   2.65882   2.74084   2.75612   2.77016
 Alpha virt. eigenvalues --    2.85994   2.91876   3.13646   3.41874   4.06741
 Alpha virt. eigenvalues --    4.09496   4.12322   4.13224   4.24147   4.32906
 Alpha virt. eigenvalues --    4.42218   4.71102
  Beta  occ. eigenvalues --  -10.19592 -10.18931 -10.18755 -10.18742 -10.18444
  Beta  occ. eigenvalues --  -10.18427 -10.18362 -10.18292  -0.85086  -0.77261
  Beta  occ. eigenvalues --   -0.74129  -0.69890  -0.61543  -0.59643  -0.55144
  Beta  occ. eigenvalues --   -0.50418  -0.46247  -0.44807  -0.42754  -0.41655
  Beta  occ. eigenvalues --   -0.39865  -0.38409  -0.35804  -0.34502  -0.33289
  Beta  occ. eigenvalues --   -0.26137  -0.24534
  Beta virt. eigenvalues --   -0.11483  -0.02281   0.01128   0.06025   0.10045
  Beta virt. eigenvalues --    0.12493   0.13901   0.16352   0.16556   0.18044
  Beta virt. eigenvalues --    0.18759   0.20333   0.21997   0.27371   0.28899
  Beta virt. eigenvalues --    0.30900   0.34006   0.36841   0.37958   0.46417
  Beta virt. eigenvalues --    0.52748   0.53142   0.54770   0.55389   0.57699
  Beta virt. eigenvalues --    0.58218   0.59376   0.59666   0.60120   0.61977
  Beta virt. eigenvalues --    0.62491   0.63834   0.64144   0.65877   0.67080
  Beta virt. eigenvalues --    0.69970   0.72897   0.77637   0.83081   0.83964
  Beta virt. eigenvalues --    0.84187   0.85398   0.85686   0.89484   0.90984
  Beta virt. eigenvalues --    0.93038   0.93980   0.94648   0.95704   0.99987
  Beta virt. eigenvalues --    1.01776   1.05476   1.09204   1.15006   1.17072
  Beta virt. eigenvalues --    1.18701   1.26419   1.30072   1.34177   1.40206
  Beta virt. eigenvalues --    1.44358   1.45323   1.45947   1.49068   1.50305
  Beta virt. eigenvalues --    1.51801   1.67256   1.73093   1.78638   1.80707
  Beta virt. eigenvalues --    1.85851   1.89331   1.90679   1.92477   1.96288
  Beta virt. eigenvalues --    1.97655   1.99619   2.05550   2.11922   2.13010
  Beta virt. eigenvalues --    2.15267   2.15536   2.18657   2.23333   2.27717
  Beta virt. eigenvalues --    2.32763   2.34628   2.36671   2.49149   2.52198
  Beta virt. eigenvalues --    2.58339   2.60042   2.63427   2.66679   2.74539
  Beta virt. eigenvalues --    2.75843   2.77388   2.86397   2.92519   3.14054
  Beta virt. eigenvalues --    3.42084   4.08248   4.10251   4.12582   4.14863
  Beta virt. eigenvalues --    4.26222   4.33170   4.43135   4.71582
          Condensed to atoms (all electrons):
          Atomic-Atomic Spin Densities.
 Mulliken charges and spin densities:
               1          2
     1  C    0.191020  -0.103188
     2  C   -0.183118   0.237861
     3  C   -0.185111   0.275879
     4  C   -0.129338  -0.128057
     5  H    0.125505  -0.010532
     6  C   -0.173117   0.619753
     7  C   -0.126425  -0.143551
     8  H    0.125789  -0.010536
     9  C   -0.133794   0.317045
    10  H    0.128938   0.004841
    11  C   -0.344296   1.018471
    12  H    0.135829  -0.007188
    13  H    0.128390   0.005457
    14  H    0.128636  -0.015326
    15  H    0.154503  -0.033490
    16  H    0.156589  -0.027438
    17  C    0.000000   0.000000
    18  H    0.000000   0.000000
    19  H    0.000000   0.000000
    20  Cl   0.000000   0.000000
    21  Cl   0.000000   0.000000
    22  C    0.000000   0.000000
    23  H    0.000000   0.000000
    24  H    0.000000   0.000000
    25  Cl   0.000000   0.000000
    26  Cl   0.000000   0.000000
    27  C    0.000000   0.000000
    28  H    0.000000   0.000000
    29  H    0.000000   0.000000
    30  Cl   0.000000   0.000000
    31  Cl   0.000000   0.000000
    32  C    0.000000   0.000000
    33  H    0.000000   0.000000
    34  H    0.000000   0.000000
    35  Cl   0.000000   0.000000
    36  Cl   0.000000   0.000000
    37  C    0.000000   0.000000
    38  H    0.000000   0.000000
    39  H    0.000000   0.000000
    40  Cl   0.000000   0.000000
    41  Cl   0.000000   0.000000
    42  C    0.000000   0.000000
    43  H    0.000000   0.000000
    44  H    0.000000   0.000000
    45  Cl   0.000000   0.000000
    46  Cl   0.000000   0.000000
    47  C    0.000000   0.000000
    48  H    0.000000   0.000000
    49  H    0.000000   0.000000
    50  Cl   0.000000   0.000000
    51  Cl   0.000000   0.000000
    52  C    0.000000   0.000000
    53  H    0.000000   0.000000
    54  H    0.000000   0.000000
    55  Cl   0.000000   0.000000
    56  Cl   0.000000   0.000000
    57  C    0.000000   0.000000
    58  H    0.000000   0.000000
    59  H    0.000000   0.000000
    60  Cl   0.000000   0.000000
    61  Cl   0.000000   0.000000
    62  C    0.000000   0.000000
    63  H    0.000000   0.000000
    64  H    0.000000   0.000000
    65  Cl   0.000000   0.000000
    66  Cl   0.000000   0.000000
    67  C    0.000000   0.000000
    68  H    0.000000   0.000000
    69  H    0.000000   0.000000
    70  Cl   0.000000   0.000000
    71  Cl   0.000000   0.000000
    72  C    0.000000   0.000000
    73  H    0.000000   0.000000
    74  H    0.000000   0.000000
    75  Cl   0.000000   0.000000
    76  Cl   0.000000   0.000000
    77  C    0.000000   0.000000
    78  H    0.000000   0.000000
    79  H    0.000000   0.000000
    80  Cl   0.000000   0.000000
    81  Cl   0.000000   0.000000
    82  C    0.000000   0.000000
    83  H    0.000000   0.000000
    84  H    0.000000   0.000000
    85  Cl   0.000000   0.000000
    86  Cl   0.000000   0.000000
    87  C    0.000000   0.000000
    88  H    0.000000   0.000000
    89  H    0.000000   0.000000
    90  Cl   0.000000   0.000000
    91  Cl   0.000000   0.000000
 Sum of Mulliken charges =  -0.00000   2.00000
 Mulliken charges and spin densities with hydrogens summed into heavy atoms:
               1          2
     1  C    0.191020  -0.103188
     2  C   -0.057613   0.227329
     3  C   -0.059322   0.265343
     4  C   -0.000400  -0.123216
     6  C   -0.037287   0.612565
     7  C    0.001965  -0.138095
     9  C   -0.005158   0.301720
    11  C   -0.033204   0.957542
    17  C    0.000000   0.000000
    20  Cl   0.000000   0.000000
    21  Cl   0.000000   0.000000
    22  C    0.000000   0.000000
    25  Cl   0.000000   0.000000
    26  Cl   0.000000   0.000000
    27  C    0.000000   0.000000
    30  Cl   0.000000   0.000000
    31  Cl   0.000000   0.000000
    32  C    0.000000   0.000000
    35  Cl   0.000000   0.000000
    36  Cl   0.000000   0.000000
    37  C    0.000000   0.000000
    40  Cl   0.000000   0.000000
    41  Cl   0.000000   0.000000
    42  C    0.000000   0.000000
    45  Cl   0.000000   0.000000
    46  Cl   0.000000   0.000000
    47  C    0.000000   0.000000
    50  Cl   0.000000   0.000000
    51  Cl   0.000000   0.000000
    52  C    0.000000   0.000000
    55  Cl   0.000000   0.000000
    56  Cl   0.000000   0.000000
    57  C    0.000000   0.000000
    60  Cl   0.000000   0.000000
    61  Cl   0.000000   0.000000
    62  C    0.000000   0.000000
    65  Cl   0.000000   0.000000
    66  Cl   0.000000   0.000000
    67  C    0.000000   0.000000
    70  Cl   0.000000   0.000000
    71  Cl   0.000000   0.000000
    72  C    0.000000   0.000000
    75  Cl   0.000000   0.000000
    76  Cl   0.000000   0.000000
    77  C    0.000000   0.000000
    80  Cl   0.000000   0.000000
    81  Cl   0.000000   0.000000
    82  C    0.000000   0.000000
    85  Cl   0.000000   0.000000
    86  Cl   0.000000   0.000000
    87  C    0.000000   0.000000
    90  Cl   0.000000   0.000000
    91  Cl   0.000000   0.000000
 Electronic spatial extent (au):  <R**2>=            993.8231
 Charge=              0.0000 electrons
 Dipole moment (field-independent basis, Debye):
    X=              0.0550    Y=             -0.0034    Z=             -0.0440  Tot=              0.0705
 Quadrupole moment (field-independent basis, Debye-Ang):
   XX=            -42.4283   YY=            -44.6812   ZZ=            -48.9100
   XY=              0.1368   XZ=             -0.1033   YZ=             -3.4626
 Traceless Quadrupole moment (field-independent basis, Debye-Ang):
   XX=              2.9115   YY=              0.6587   ZZ=             -3.5702
   XY=              0.1368   XZ=             -0.1033   YZ=             -3.4626
 Octapole moment (field-independent basis, Debye-Ang**2):
  XXX=             -1.9425  YYY=              7.1523  ZZZ=             30.5262  XYY=             -0.0442
  XXY=              4.6395  XXZ=             12.5976  XZZ=              1.9293  YZZ=              5.3783
  YYZ=             11.1773  XYZ=              0.5617
 Hexadecapole moment (field-independent basis, Debye-Ang**3):
 XXXX=           -844.8094 YYYY=           -307.2631 ZZZZ=           -157.2734 XXXY=            -51.3275
 XXXZ=             73.6903 YYYX=            -64.7651 YYYZ=             58.1535 ZZZX=             67.5120
 ZZZY=             68.4139 XXYY=           -191.1239 XXZZ=           -186.3520 YYZZ=            -74.0163
 XXYZ=             12.0902 YYXZ=             20.3305 ZZXY=            -18.1313
 N-N= 3.192277096856D+02 E-N=-1.354857665773D+03  KE= 3.066352564501D+02
                          Isotropic Fermi Contact Couplings
        Atom                 a.u.       MegaHertz       Gauss      10(-4) cm-1
     1  C(13)             -0.00350      -1.96675      -0.70178      -0.65604
     2  C(13)              0.02480      13.94274       4.97511       4.65080
     3  C(13)              0.03069      17.25079       6.15551       5.75424
     4  C(13)             -0.01945     -10.93044      -3.90025      -3.64600
     5  H(1)              -0.00369      -8.25059      -2.94402      -2.75210
     6  C(13)              0.04569      25.68223       9.16406       8.56667
     7  C(13)             -0.02146     -12.06334      -4.30450      -4.02390
     8  H(1)              -0.00404      -9.02786      -3.22137      -3.01137
     9  C(13)              0.03459      19.44117       6.93709       6.48488
    10  H(1)               0.00153       3.41605       1.21893       1.13947
    11  C(13)              0.08492      47.73432      17.03279      15.92246
    12  H(1)               0.00351       7.85546       2.80302       2.62030
    13  H(1)               0.00173       3.86639       1.37962       1.28969
    14  H(1)              -0.00475     -10.61268      -3.78687      -3.54001
    15  H(1)              -0.00667     -14.91179      -5.32090      -4.97404
    16  H(1)              -0.00554     -12.37805      -4.41680      -4.12887
 --------------------------------------------------------
       Center         ----  Spin Dipole Couplings  ----
                      3XX-RR        3YY-RR        3ZZ-RR
 --------------------------------------------------------
     1   Atom        0.076679     -0.005884     -0.070795
     2   Atom       -0.117874     -0.049563      0.167436
     3   Atom       -0.121408     -0.052795      0.174203
     4   Atom        0.055546      0.015237     -0.070783
     5   Atom       -0.005295      0.008902     -0.003607
     6   Atom       -0.347278     -0.115473      0.462750
     7   Atom        0.062886      0.021139     -0.084025
     8   Atom        0.004271      0.004180     -0.008451
     9   Atom       -0.146439     -0.076391      0.222830
    10   Atom        0.005198     -0.000990     -0.004208
    11   Atom       -0.057184      0.248423     -0.191239
    12   Atom       -0.027796      0.033848     -0.006052
    13   Atom        0.006443     -0.001997     -0.004446
    14   Atom        0.024112     -0.018251     -0.005861
    15   Atom        0.054231     -0.012045     -0.042186
    16   Atom       -0.039612     -0.020544      0.060156
 --------------------------------------------------------
                        XY            XZ            YZ
 --------------------------------------------------------
     1   Atom        0.037831      0.042874     -0.028440
     2   Atom        0.011599      0.010540      0.136325
     3   Atom        0.018228      0.027779      0.153992
     4   Atom       -0.006858     -0.009649     -0.058068
     5   Atom       -0.006815      0.003395     -0.008400
     6   Atom        0.075584      0.109800      0.438033
     7   Atom        0.001133     -0.012139     -0.062311
     8   Atom        0.003624     -0.001592     -0.010220
     9   Atom        0.009007      0.014094      0.182857
    10   Atom       -0.001333     -0.000110     -0.001705
    11   Atom       -0.602336     -0.408992      0.512529
    12   Atom       -0.033069      0.018656     -0.021006
    13   Atom        0.002522     -0.001949     -0.002027
    14   Atom        0.003016     -0.002625      0.007338
    15   Atom        0.034504      0.024795      0.040578
    16   Atom       -0.037515      0.020419     -0.030937
 --------------------------------------------------------


 ---------------------------------------------------------------------------------
              Anisotropic Spin Dipole Couplings in Principal Axis System
 ---------------------------------------------------------------------------------

       Atom             a.u.   MegaHertz   Gauss  10(-4) cm-1        Axes

              Baa    -0.0982   -13.179    -4.703    -4.396 -0.2980  0.3904  0.8711
     1 C(13)  Bbb     0.0011     0.143     0.051     0.048 -0.1800  0.8732 -0.4530
              Bcc     0.0971    13.035     4.651     4.348  0.9374  0.2918  0.1899
 
              Baa    -0.1230   -16.500    -5.888    -5.504  0.7936 -0.5614  0.2347
     2 C(13)  Bbb    -0.1108   -14.869    -5.306    -4.960  0.6071  0.7043 -0.3681
              Bcc     0.2338    31.370    11.193    10.464  0.0413  0.4346  0.8997
 
              Baa    -0.1323   -17.757    -6.336    -5.923 -0.4199  0.8257 -0.3768
     3 C(13)  Bbb    -0.1226   -16.448    -5.869    -5.486  0.9034  0.3402 -0.2611
              Bcc     0.2549    34.205    12.205    11.410  0.0874  0.4500  0.8888
 
              Baa    -0.1009   -13.541    -4.832    -4.517  0.0746  0.4495  0.8902
     4 C(13)  Bbb     0.0442     5.935     2.118     1.980  0.1439  0.8785 -0.4556
              Bcc     0.0567     7.606     2.714     2.537  0.9868 -0.1620 -0.0009
 
              Baa    -0.0080    -4.288    -1.530    -1.430  0.9355  0.3490 -0.0553
     5 H(1)   Bbb    -0.0078    -4.174    -1.489    -1.392 -0.1007  0.4135  0.9049
              Bcc     0.0159     8.463     3.020     2.823 -0.3387  0.8410 -0.4219
 
              Baa    -0.3732   -50.085   -17.871   -16.706  0.8305 -0.5308  0.1690
     6 C(13)  Bbb    -0.3418   -45.863   -16.365   -15.298  0.5431  0.7041 -0.4575
              Bcc     0.7150    95.948    34.237    32.005  0.1238  0.4717  0.8730
 
              Baa    -0.1136   -15.245    -5.440    -5.085  0.0596  0.4186  0.9062
     7 C(13)  Bbb     0.0477     6.402     2.284     2.136 -0.3609  0.8555 -0.3714
              Bcc     0.0659     8.842     3.155     2.949  0.9307  0.3050 -0.2021
 
              Baa    -0.0142    -7.554    -2.695    -2.520 -0.0211  0.4899  0.8715
     8 H(1)   Bbb     0.0022     1.198     0.428     0.400  0.8884 -0.3906  0.2411
              Bcc     0.0119     6.356     2.268     2.120  0.4586  0.7794 -0.4270
 
              Baa    -0.1633   -21.915    -7.820    -7.310 -0.1281  0.8981 -0.4206
     9 C(13)  Bbb    -0.1468   -19.695    -7.028    -6.570  0.9911  0.1004 -0.0874
              Bcc     0.3101    41.610    14.848    13.880  0.0363  0.4281  0.9030
 
              Baa    -0.0050    -2.659    -0.949    -0.887  0.0635  0.4097  0.9100
    10 H(1)   Bbb    -0.0005    -0.265    -0.094    -0.088  0.1999  0.8882 -0.4138
              Bcc     0.0055     2.923     1.043     0.975  0.9778 -0.2082  0.0255
 
              Baa    -0.5387   -72.285   -25.793   -24.112  0.6323 -0.0204  0.7745
    11 C(13)  Bbb    -0.5218   -70.023   -24.986   -23.357  0.5498  0.7161 -0.4300
              Bcc     1.0605   142.307    50.779    47.469 -0.5458  0.6977  0.4640
 
              Baa    -0.0446   -23.820    -8.500    -7.946  0.9109  0.3113 -0.2709
    12 H(1)   Bbb    -0.0146    -7.806    -2.785    -2.604  0.1070  0.4559  0.8836
              Bcc     0.0593    31.626    11.285    10.549 -0.3985  0.8338 -0.3819
 
              Baa    -0.0056    -2.994    -1.068    -0.999  0.0459  0.4642  0.8846
    13 H(1)   Bbb    -0.0020    -1.078    -0.385    -0.360 -0.3468  0.8378 -0.4216
              Bcc     0.0076     4.072     1.453     1.358  0.9368  0.2874 -0.1994
 
              Baa    -0.0220   -11.728    -4.185    -3.912 -0.0832  0.9018 -0.4241
    14 H(1)   Bbb    -0.0025    -1.332    -0.475    -0.444  0.0405  0.4283  0.9027
              Bcc     0.0245    13.060     4.660     4.356  0.9957  0.0579 -0.0722
 
              Baa    -0.0704   -37.565   -13.404   -12.530 -0.0064 -0.5683  0.8228
    15 H(1)   Bbb    -0.0113    -6.055    -2.161    -2.020 -0.5437  0.6925  0.4742
              Bcc     0.0818    43.620    15.565    14.550  0.8393  0.4443  0.3134
 
              Baa    -0.0689   -36.740   -13.110   -12.255  0.7815  0.6233  0.0258
    16 H(1)   Bbb    -0.0106    -5.670    -2.023    -1.891 -0.5623  0.6859  0.4620
              Bcc     0.0795    42.410    15.133    14.147  0.2703 -0.3755  0.8865
 

 ---------------------------------------------------------------------------------

 Calling FoFJK, ICntrl=      2127 FMM=F ISym2X=0 I1Cent= 0 IOpClX= 1 NMat=1 NMatS=1 NMatT=0.
 Cartesian Forces:  Max     0.034791278 RMS     0.003925316
 SvSCFP is copying densities from files   528 and   530 to   603.
 ONIOM: saving gridpoint  2
 ONIOM: restoring gridpoint 17
 ONIOM: restoring gridpoint  1 on chk file.
 ONIOM: generating point  1 -- low level on model system.
 Standard basis: VSTO-6G (5D, 7F)
    40 basis functions,   240 primitive gaussians,    40 cartesian basis functions
    21 alpha electrons       19 beta electrons
       nuclear repulsion energy       184.5898456466 Hartrees.
 Integral buffers will be    131072 words long.
 Regular integral format.
 Two-electron integral symmetry is turned off.
 Do NDO integrals.
 One-electron integrals computed using PRISM.
 NBasis=    40 RedAO= F EigKep=  0.00D+00  NBF=    40
 NBsUse=    40 1.00D-04 EigRej=  0.00D+00 NBFU=    40
 Initial guess from the checkpoint file:  "b.chk"
 B after Tr=     0.001000    0.000250    0.001557
         Rot=    1.000000   -0.000189   -0.000264    0.000128 Ang=  -0.04 deg.
 Initial guess <Sx>= 0.0000 <Sy>= 0.0000 <Sz>= 1.0000 <S**2>= 2.3225 S= 1.1039
 Keep J ints in memory in canonical form, NReq=867663.
 Overlap will be assumed to be unity.
 Requested convergence on RMS density matrix=1.00D-08 within  64 cycles.
 Requested convergence on MAX density matrix=1.00D-06.
 Requested convergence on             energy=1.00D-06.
 No special actions if energy rises.
 SCF Done:  E(UPM6) =  0.111633192299     A.U. after   14 cycles
            NFock= 13  Conv=0.59D-08     -V/T= 1.0018
 <Sx>= 0.0000 <Sy>= 0.0000 <Sz>= 1.0000 <S**2>= 2.3218 S= 1.1037
 <L.S>=  0.00000000000    
 Annihilation of the first spin contaminant:
 S**2 before annihilation     2.3218,   after     2.0531
 QCSCF skips out because SCF is already converged.

 **********************************************************************

            Population analysis using the SCF Density.

 **********************************************************************

 Alpha  occ. eigenvalues --   -1.09876  -1.00459  -0.95940  -0.91075  -0.81644
 Alpha  occ. eigenvalues --   -0.77981  -0.71829  -0.63959  -0.58900  -0.56919
 Alpha  occ. eigenvalues --   -0.54569  -0.52392  -0.51471  -0.50357  -0.48605
 Alpha  occ. eigenvalues --   -0.45098  -0.43352  -0.40807  -0.37155  -0.35896
 Alpha  occ. eigenvalues --   -0.29960
 Alpha virt. eigenvalues --    0.01861   0.02547   0.09681   0.15264   0.15582
 Alpha virt. eigenvalues --    0.17240   0.18227   0.18327   0.18979   0.19642
 Alpha virt. eigenvalues --    0.20342   0.20853   0.21475   0.22021   0.22268
 Alpha virt. eigenvalues --    0.22497   0.22819   0.23165   0.23400
  Beta  occ. eigenvalues --   -1.09748  -0.99778  -0.95835  -0.90021  -0.80946
  Beta  occ. eigenvalues --   -0.77748  -0.71130  -0.63362  -0.58250  -0.56535
  Beta  occ. eigenvalues --   -0.53576  -0.52253  -0.50257  -0.48900  -0.47632
  Beta  occ. eigenvalues --   -0.44550  -0.43129  -0.36797  -0.36275
  Beta virt. eigenvalues --   -0.03382   0.02193   0.02673   0.06999   0.10829
  Beta virt. eigenvalues --    0.15696   0.15945   0.17920   0.18484   0.18867
  Beta virt. eigenvalues --    0.19474   0.20268   0.20708   0.21324   0.21794
  Beta virt. eigenvalues --    0.22352   0.22903   0.22965   0.23174   0.23506
  Beta virt. eigenvalues --    0.23836
          Condensed to atoms (all electrons):
          Atomic-Atomic Spin Densities.
 Mulliken charges and spin densities:
               1          2
     1  C    0.041724  -0.375198
     2  C   -0.173632   0.442475
     3  C   -0.161045   0.456969
     4  C   -0.134467  -0.361921
     5  H    0.148100  -0.015496
     6  C   -0.170850   0.792824
     7  C   -0.140701  -0.365111
     8  H    0.150919  -0.016107
     9  C   -0.147084   0.446699
    10  H    0.144747   0.012603
    11  C   -0.305569   1.037217
    12  H    0.153323  -0.010294
    13  H    0.144449   0.012753
    14  H    0.145144  -0.015371
    15  H    0.152186  -0.021845
    16  H    0.152754  -0.020197
    17  C    0.000000   0.000000
    18  H    0.000000   0.000000
    19  H    0.000000   0.000000
    20  Cl   0.000000   0.000000
    21  Cl   0.000000   0.000000
    22  C    0.000000   0.000000
    23  H    0.000000   0.000000
    24  H    0.000000   0.000000
    25  Cl   0.000000   0.000000
    26  Cl   0.000000   0.000000
    27  C    0.000000   0.000000
    28  H    0.000000   0.000000
    29  H    0.000000   0.000000
    30  Cl   0.000000   0.000000
    31  Cl   0.000000   0.000000
    32  C    0.000000   0.000000
    33  H    0.000000   0.000000
    34  H    0.000000   0.000000
    35  Cl   0.000000   0.000000
    36  Cl   0.000000   0.000000
    37  C    0.000000   0.000000
    38  H    0.000000   0.000000
    39  H    0.000000   0.000000
    40  Cl   0.000000   0.000000
    41  Cl   0.000000   0.000000
    42  C    0.000000   0.000000
    43  H    0.000000   0.000000
    44  H    0.000000   0.000000
    45  Cl   0.000000   0.000000
    46  Cl   0.000000   0.000000
    47  C    0.000000   0.000000
    48  H    0.000000   0.000000
    49  H    0.000000   0.000000
    50  Cl   0.000000   0.000000
    51  Cl   0.000000   0.000000
    52  C    0.000000   0.000000
    53  H    0.000000   0.000000
    54  H    0.000000   0.000000
    55  Cl   0.000000   0.000000
    56  Cl   0.000000   0.000000
    57  C    0.000000   0.000000
    58  H    0.000000   0.000000
    59  H    0.000000   0.000000
    60  Cl   0.000000   0.000000
    61  Cl   0.000000   0.000000
    62  C    0.000000   0.000000
    63  H    0.000000   0.000000
    64  H    0.000000   0.000000
    65  Cl   0.000000   0.000000
    66  Cl   0.000000   0.000000
    67  C    0.000000   0.000000
    68  H    0.000000   0.000000
    69  H    0.000000   0.000000
    70  Cl   0.000000   0.000000
    71  Cl   0.000000   0.000000
    72  C    0.000000   0.000000
    73  H    0.000000   0.000000
    74  H    0.000000   0.000000
    75  Cl   0.000000   0.000000
    76  Cl   0.000000   0.000000
    77  C    0.000000   0.000000
    78  H    0.000000   0.000000
    79  H    0.000000   0.000000
    80  Cl   0.000000   0.000000
    81  Cl   0.000000   0.000000
    82  C    0.000000   0.000000
    83  H    0.000000   0.000000
    84  H    0.000000   0.000000
    85  Cl   0.000000   0.000000
    86  Cl   0.000000   0.000000
    87  C    0.000000   0.000000
    88  H    0.000000   0.000000
    89  H    0.000000   0.000000
    90  Cl   0.000000   0.000000
    91  Cl   0.000000   0.000000
 Sum of Mulliken charges =   0.00000   2.00000
 Mulliken charges and spin densities with hydrogens summed into heavy atoms:
               1          2
     1  C    0.041724  -0.375198
     2  C   -0.025532   0.426978
     3  C   -0.010126   0.440862
     4  C    0.010280  -0.349318
     6  C   -0.017527   0.782530
     7  C    0.003748  -0.352358
     9  C   -0.001939   0.431328
    11  C   -0.000628   0.995175
    17  C    0.000000   0.000000
    20  Cl   0.000000   0.000000
    21  Cl   0.000000   0.000000
    22  C    0.000000   0.000000
    25  Cl   0.000000   0.000000
    26  Cl   0.000000   0.000000
    27  C    0.000000   0.000000
    30  Cl   0.000000   0.000000
    31  Cl   0.000000   0.000000
    32  C    0.000000   0.000000
    35  Cl   0.000000   0.000000
    36  Cl   0.000000   0.000000
    37  C    0.000000   0.000000
    40  Cl   0.000000   0.000000
    41  Cl   0.000000   0.000000
    42  C    0.000000   0.000000
    45  Cl   0.000000   0.000000
    46  Cl   0.000000   0.000000
    47  C    0.000000   0.000000
    50  Cl   0.000000   0.000000
    51  Cl   0.000000   0.000000
    52  C    0.000000   0.000000
    55  Cl   0.000000   0.000000
    56  Cl   0.000000   0.000000
    57  C    0.000000   0.000000
    60  Cl   0.000000   0.000000
    61  Cl   0.000000   0.000000
    62  C    0.000000   0.000000
    65  Cl   0.000000   0.000000
    66  Cl   0.000000   0.000000
    67  C    0.000000   0.000000
    70  Cl   0.000000   0.000000
    71  Cl   0.000000   0.000000
    72  C    0.000000   0.000000
    75  Cl   0.000000   0.000000
    76  Cl   0.000000   0.000000
    77  C    0.000000   0.000000
    80  Cl   0.000000   0.000000
    81  Cl   0.000000   0.000000
    82  C    0.000000   0.000000
    85  Cl   0.000000   0.000000
    86  Cl   0.000000   0.000000
    87  C    0.000000   0.000000
    90  Cl   0.000000   0.000000
    91  Cl   0.000000   0.000000
 Charge=              0.0000 electrons
 Dipole moment (field-independent basis, Debye):
    X=             -0.0155    Y=              0.0280    Z=             -0.0823  Tot=              0.0884
 N-N= 1.845898456466D+02 E-N=-2.806121329204D+02  KE=-6.319462280730D+01
 Calling FoFJK, ICntrl=      2127 FMM=F ISym2X=0 I1Cent= 0 IOpClX= 1 NMat=1 NMatS=1 NMatT=0.
 Cartesian Forces:  Max     0.022169263 RMS     0.003114608
 SvSCFP is copying densities from files   528 and   530 to   603.
 ONIOM: saving gridpoint  1
 ONIOM: restoring gridpoint  3
 ONIOM: calculating energy.
 ONIOM: gridpoint  1 method:  low   system:  model energy:     0.111633192299
 ONIOM: gridpoint  2 method:  high  system:  model energy:  -309.578662953241
 ONIOM: gridpoint  3 method:  low   system:  real  energy:    -0.404735695453
 ONIOM: extrapolated energy =    -310.095031840993
 ONIOM: calculating first derivatives.
 ONIOM: calculating electric field derivatives.
 ONIOM: Integrating ONIOM file  4 number   619
 ONIOM: Dipole        =-3.20378649D-01-8.05491152D-02 2.07285090D-01
 ONIOM: Dipole moment (Debye):
    X=    -0.8143    Y=    -0.2047    Z=     0.5269  Tot=     0.9913
 ONIOM: Integrating ONIOM file  5 number   695
 Anisotropic Hyperfine tensors: 
                 1             2             3             4             5 
      1   0.766792D-01 -0.117874D+00 -0.121408D+00  0.555461D-01 -0.529462D-02
      2   0.378306D-01  0.115989D-01  0.182284D-01 -0.685752D-02 -0.681543D-02
      3  -0.588431D-02 -0.495626D-01 -0.527952D-01  0.152368D-01  0.890201D-02
      4   0.428737D-01  0.105404D-01  0.277791D-01 -0.964934D-02  0.339537D-02
      5  -0.284401D-01  0.136325D+00  0.153992D+00 -0.580679D-01 -0.840028D-02
      6  -0.707949D-01  0.167436D+00  0.174203D+00 -0.707829D-01 -0.360739D-02
                 6             7             8             9            10 
      1  -0.347278D+00  0.628862D-01  0.427112D-02 -0.146439D+00  0.519834D-02
      2   0.755838D-01  0.113341D-02  0.362360D-02  0.900685D-02 -0.133278D-02
      3  -0.115473D+00  0.211386D-01  0.418026D-02 -0.763911D-01 -0.990307D-03
      4   0.109800D+00 -0.121391D-01 -0.159157D-02  0.140938D-01 -0.109905D-03
      5   0.438033D+00 -0.623105D-01 -0.102204D-01  0.182857D+00 -0.170464D-02
      6   0.462750D+00 -0.840248D-01 -0.845137D-02  0.222830D+00 -0.420803D-02
                11            12            13            14            15 
      1  -0.571838D-01 -0.277960D-01  0.644331D-02  0.241120D-01  0.542310D-01
      2  -0.602336D+00 -0.330692D-01  0.252240D-02  0.301563D-02  0.345040D-01
      3   0.248423D+00  0.338477D-01 -0.199710D-02 -0.182514D-01 -0.120451D-01
      4  -0.408992D+00  0.186562D-01 -0.194949D-02 -0.262525D-02  0.247953D-01
      5   0.512529D+00 -0.210063D-01 -0.202748D-02  0.733813D-02  0.405779D-01
      6  -0.191239D+00 -0.605170D-02 -0.444621D-02 -0.586060D-02 -0.421860D-01
                16            17            18            19            20 
      1  -0.396116D-01  0.000000D+00  0.000000D+00  0.000000D+00  0.000000D+00
      2  -0.375149D-01  0.000000D+00  0.000000D+00  0.000000D+00  0.000000D+00
      3  -0.205441D-01  0.000000D+00  0.000000D+00  0.000000D+00  0.000000D+00
      4   0.204188D-01  0.000000D+00  0.000000D+00  0.000000D+00  0.000000D+00
      5  -0.309372D-01  0.000000D+00  0.000000D+00  0.000000D+00  0.000000D+00
      6   0.601557D-01  0.000000D+00  0.000000D+00  0.000000D+00  0.000000D+00
                21            22            23            24            25 
      1   0.000000D+00  0.000000D+00  0.000000D+00  0.000000D+00  0.000000D+00
      2   0.000000D+00  0.000000D+00  0.000000D+00  0.000000D+00  0.000000D+00
      3   0.000000D+00  0.000000D+00  0.000000D+00  0.000000D+00  0.000000D+00
      4   0.000000D+00  0.000000D+00  0.000000D+00  0.000000D+00  0.000000D+00
      5   0.000000D+00  0.000000D+00  0.000000D+00  0.000000D+00  0.000000D+00
      6   0.000000D+00  0.000000D+00  0.000000D+00  0.000000D+00  0.000000D+00
                26            27            28            29            30 
      1   0.000000D+00  0.000000D+00  0.000000D+00  0.000000D+00  0.000000D+00
      2   0.000000D+00  0.000000D+00  0.000000D+00  0.000000D+00  0.000000D+00
      3   0.000000D+00  0.000000D+00  0.000000D+00  0.000000D+00  0.000000D+00
      4   0.000000D+00  0.000000D+00  0.000000D+00  0.000000D+00  0.000000D+00
      5   0.000000D+00  0.000000D+00  0.000000D+00  0.000000D+00  0.000000D+00
      6   0.000000D+00  0.000000D+00  0.000000D+00  0.000000D+00  0.000000D+00
                31            32            33            34            35 
      1   0.000000D+00  0.000000D+00  0.000000D+00  0.000000D+00  0.000000D+00
      2   0.000000D+00  0.000000D+00  0.000000D+00  0.000000D+00  0.000000D+00
      3   0.000000D+00  0.000000D+00  0.000000D+00  0.000000D+00  0.000000D+00
      4   0.000000D+00  0.000000D+00  0.000000D+00  0.000000D+00  0.000000D+00
      5   0.000000D+00  0.000000D+00  0.000000D+00  0.000000D+00  0.000000D+00
      6   0.000000D+00  0.000000D+00  0.000000D+00  0.000000D+00  0.000000D+00
                36            37            38            39            40 
      1   0.000000D+00  0.000000D+00  0.000000D+00  0.000000D+00  0.000000D+00
      2   0.000000D+00  0.000000D+00  0.000000D+00  0.000000D+00  0.000000D+00
      3   0.000000D+00  0.000000D+00  0.000000D+00  0.000000D+00  0.000000D+00
      4   0.000000D+00  0.000000D+00  0.000000D+00  0.000000D+00  0.000000D+00
      5   0.000000D+00  0.000000D+00  0.000000D+00  0.000000D+00  0.000000D+00
      6   0.000000D+00  0.000000D+00  0.000000D+00  0.000000D+00  0.000000D+00
                41            42            43            44            45 
      1   0.000000D+00  0.000000D+00  0.000000D+00  0.000000D+00  0.000000D+00
      2   0.000000D+00  0.000000D+00  0.000000D+00  0.000000D+00  0.000000D+00
      3   0.000000D+00  0.000000D+00  0.000000D+00  0.000000D+00  0.000000D+00
      4   0.000000D+00  0.000000D+00  0.000000D+00  0.000000D+00  0.000000D+00
      5   0.000000D+00  0.000000D+00  0.000000D+00  0.000000D+00  0.000000D+00
      6   0.000000D+00  0.000000D+00  0.000000D+00  0.000000D+00  0.000000D+00
                46            47            48            49            50 
      1   0.000000D+00  0.000000D+00  0.000000D+00  0.000000D+00  0.000000D+00
      2   0.000000D+00  0.000000D+00  0.000000D+00  0.000000D+00  0.000000D+00
      3   0.000000D+00  0.000000D+00  0.000000D+00  0.000000D+00  0.000000D+00
      4   0.000000D+00  0.000000D+00  0.000000D+00  0.000000D+00  0.000000D+00
      5   0.000000D+00  0.000000D+00  0.000000D+00  0.000000D+00  0.000000D+00
      6   0.000000D+00  0.000000D+00  0.000000D+00  0.000000D+00  0.000000D+00
                51            52            53            54            55 
      1   0.000000D+00  0.000000D+00  0.000000D+00  0.000000D+00  0.000000D+00
      2   0.000000D+00  0.000000D+00  0.000000D+00  0.000000D+00  0.000000D+00
      3   0.000000D+00  0.000000D+00  0.000000D+00  0.000000D+00  0.000000D+00
      4   0.000000D+00  0.000000D+00  0.000000D+00  0.000000D+00  0.000000D+00
      5   0.000000D+00  0.000000D+00  0.000000D+00  0.000000D+00  0.000000D+00
      6   0.000000D+00  0.000000D+00  0.000000D+00  0.000000D+00  0.000000D+00
                56            57            58            59            60 
      1   0.000000D+00  0.000000D+00  0.000000D+00  0.000000D+00  0.000000D+00
      2   0.000000D+00  0.000000D+00  0.000000D+00  0.000000D+00  0.000000D+00
      3   0.000000D+00  0.000000D+00  0.000000D+00  0.000000D+00  0.000000D+00
      4   0.000000D+00  0.000000D+00  0.000000D+00  0.000000D+00  0.000000D+00
      5   0.000000D+00  0.000000D+00  0.000000D+00  0.000000D+00  0.000000D+00
      6   0.000000D+00  0.000000D+00  0.000000D+00  0.000000D+00  0.000000D+00
                61            62            63            64            65 
      1   0.000000D+00  0.000000D+00  0.000000D+00  0.000000D+00  0.000000D+00
      2   0.000000D+00  0.000000D+00  0.000000D+00  0.000000D+00  0.000000D+00
      3   0.000000D+00  0.000000D+00  0.000000D+00  0.000000D+00  0.000000D+00
      4   0.000000D+00  0.000000D+00  0.000000D+00  0.000000D+00  0.000000D+00
      5   0.000000D+00  0.000000D+00  0.000000D+00  0.000000D+00  0.000000D+00
      6   0.000000D+00  0.000000D+00  0.000000D+00  0.000000D+00  0.000000D+00
                66            67            68            69            70 
      1   0.000000D+00  0.000000D+00  0.000000D+00  0.000000D+00  0.000000D+00
      2   0.000000D+00  0.000000D+00  0.000000D+00  0.000000D+00  0.000000D+00
      3   0.000000D+00  0.000000D+00  0.000000D+00  0.000000D+00  0.000000D+00
      4   0.000000D+00  0.000000D+00  0.000000D+00  0.000000D+00  0.000000D+00
      5   0.000000D+00  0.000000D+00  0.000000D+00  0.000000D+00  0.000000D+00
      6   0.000000D+00  0.000000D+00  0.000000D+00  0.000000D+00  0.000000D+00
                71            72            73            74            75 
      1   0.000000D+00  0.000000D+00  0.000000D+00  0.000000D+00  0.000000D+00
      2   0.000000D+00  0.000000D+00  0.000000D+00  0.000000D+00  0.000000D+00
      3   0.000000D+00  0.000000D+00  0.000000D+00  0.000000D+00  0.000000D+00
      4   0.000000D+00  0.000000D+00  0.000000D+00  0.000000D+00  0.000000D+00
      5   0.000000D+00  0.000000D+00  0.000000D+00  0.000000D+00  0.000000D+00
      6   0.000000D+00  0.000000D+00  0.000000D+00  0.000000D+00  0.000000D+00
                76            77            78            79            80 
      1   0.000000D+00  0.000000D+00  0.000000D+00  0.000000D+00  0.000000D+00
      2   0.000000D+00  0.000000D+00  0.000000D+00  0.000000D+00  0.000000D+00
      3   0.000000D+00  0.000000D+00  0.000000D+00  0.000000D+00  0.000000D+00
      4   0.000000D+00  0.000000D+00  0.000000D+00  0.000000D+00  0.000000D+00
      5   0.000000D+00  0.000000D+00  0.000000D+00  0.000000D+00  0.000000D+00
      6   0.000000D+00  0.000000D+00  0.000000D+00  0.000000D+00  0.000000D+00
                81            82            83            84            85 
      1   0.000000D+00  0.000000D+00  0.000000D+00  0.000000D+00  0.000000D+00
      2   0.000000D+00  0.000000D+00  0.000000D+00  0.000000D+00  0.000000D+00
      3   0.000000D+00  0.000000D+00  0.000000D+00  0.000000D+00  0.000000D+00
      4   0.000000D+00  0.000000D+00  0.000000D+00  0.000000D+00  0.000000D+00
      5   0.000000D+00  0.000000D+00  0.000000D+00  0.000000D+00  0.000000D+00
      6   0.000000D+00  0.000000D+00  0.000000D+00  0.000000D+00  0.000000D+00
                86            87            88            89            90 
      1   0.000000D+00  0.000000D+00  0.000000D+00  0.000000D+00  0.000000D+00
      2   0.000000D+00  0.000000D+00  0.000000D+00  0.000000D+00  0.000000D+00
      3   0.000000D+00  0.000000D+00  0.000000D+00  0.000000D+00  0.000000D+00
      4   0.000000D+00  0.000000D+00  0.000000D+00  0.000000D+00  0.000000D+00
      5   0.000000D+00  0.000000D+00  0.000000D+00  0.000000D+00  0.000000D+00
      6   0.000000D+00  0.000000D+00  0.000000D+00  0.000000D+00  0.000000D+00
                91 
      1   0.000000D+00
      2   0.000000D+00
      3   0.000000D+00
      4   0.000000D+00
      5   0.000000D+00
      6   0.000000D+00
 ONIOM Fermi contact: 
               1
     1  C   -0.003499
     2  C    0.024805
     3  C    0.030690
     4  C   -0.019446
     5  H   -0.003692
     6  C    0.045690
     7  C   -0.021461
     8  H   -0.004039
     9  C    0.034587
    10  H    0.001528
    11  C    0.084922
    12  H    0.003515
    13  H    0.001730
    14  H   -0.004749
    15  H   -0.006672
    16  H   -0.005538
    17  C    0.000000
    18  H    0.000000
    19  H    0.000000
    20  Cl   0.000000
    21  Cl   0.000000
    22  C    0.000000
    23  H    0.000000
    24  H    0.000000
    25  Cl   0.000000
    26  Cl   0.000000
    27  C    0.000000
    28  H    0.000000
    29  H    0.000000
    30  Cl   0.000000
    31  Cl   0.000000
    32  C    0.000000
    33  H    0.000000
    34  H    0.000000
    35  Cl   0.000000
    36  Cl   0.000000
    37  C    0.000000
    38  H    0.000000
    39  H    0.000000
    40  Cl   0.000000
    41  Cl   0.000000
    42  C    0.000000
    43  H    0.000000
    44  H    0.000000
    45  Cl   0.000000
    46  Cl   0.000000
    47  C    0.000000
    48  H    0.000000
    49  H    0.000000
    50  Cl   0.000000
    51  Cl   0.000000
    52  C    0.000000
    53  H    0.000000
    54  H    0.000000
    55  Cl   0.000000
    56  Cl   0.000000
    57  C    0.000000
    58  H    0.000000
    59  H    0.000000
    60  Cl   0.000000
    61  Cl   0.000000
    62  C    0.000000
    63  H    0.000000
    64  H    0.000000
    65  Cl   0.000000
    66  Cl   0.000000
    67  C    0.000000
    68  H    0.000000
    69  H    0.000000
    70  Cl   0.000000
    71  Cl   0.000000
    72  C    0.000000
    73  H    0.000000
    74  H    0.000000
    75  Cl   0.000000
    76  Cl   0.000000
    77  C    0.000000
    78  H    0.000000
    79  H    0.000000
    80  Cl   0.000000
[...]
   Y21       -2.20981  -0.00002   0.00000   0.00010  -0.00025  -2.21006
   Z21        2.96627   0.00002   0.00000   0.00169   0.00072   2.96699
   X22       10.82851   0.00000   0.00000  -0.00005   0.00005  10.82856
   Y22       -2.01967   0.00002   0.00000   0.00024   0.00029  -2.01938
   Z22       -2.94904   0.00001   0.00000   0.00098   0.00004  -2.94900
   X23        8.79150  -0.00000   0.00000  -0.00011  -0.00001   8.79149
   Y23       -2.10225   0.00004   0.00000   0.00044   0.00043  -2.10182
   Z23       -2.44702  -0.00000   0.00000   0.00070  -0.00027  -2.44728
   X24       11.97306  -0.00002   0.00000  -0.00027  -0.00017  11.97289
   Y24       -3.16852  -0.00004   0.00000  -0.00054  -0.00057  -3.16909
   Z24       -1.62038  -0.00003   0.00000   0.00042  -0.00058  -1.62096
   X25       11.88017   0.00006   0.00000   0.00066   0.00073  11.88090
   Y25        1.16070  -0.00001   0.00000  -0.00005  -0.00000   1.16070
   Z25       -2.85742   0.00009   0.00000   0.00220   0.00146  -2.85595
   X26       11.26642   0.00000   0.00000  -0.00012   0.00003  11.26645
   Y26       -3.12646   0.00014   0.00000   0.00134   0.00158  -3.12488
   Z26       -6.06960  -0.00004   0.00000   0.00068  -0.00032  -6.06992
   X27        3.98134  -0.00009   0.00000  -0.00101  -0.00105   3.98029
   Y27        6.01848   0.00005   0.00000   0.00101   0.00061   6.01909
   Z27        2.91508  -0.00001   0.00000   0.00053   0.00002   2.91510
   X28        3.45391  -0.00012   0.00000  -0.00113  -0.00114   3.45276
   Y28        4.05809   0.00009   0.00000   0.00138   0.00101   4.05910
   Z28        2.36834  -0.00011   0.00000  -0.00090  -0.00153   2.36681
   X29        2.56907  -0.00010   0.00000  -0.00100  -0.00105   2.56802
   Y29        7.39181   0.00010   0.00000   0.00146   0.00109   7.39290
   Z29        2.18586   0.00007   0.00000   0.00130   0.00087   2.18673
   X30        7.01216  -0.00006   0.00000  -0.00079  -0.00082   7.01133
   Y30        6.76334   0.00014   0.00000   0.00200   0.00171   6.76505
   Z30        1.69871   0.00011   0.00000   0.00170   0.00127   1.69999
   X31        4.18381  -0.00004   0.00000  -0.00072  -0.00079   4.18302
   Y31        6.25763  -0.00016   0.00000  -0.00118  -0.00178   6.25586
   Z31        6.24670   0.00000   0.00000   0.00069   0.00020   6.24690
   X32       -4.27455  -0.00001   0.00000  -0.00019  -0.00022  -4.27477
   Y32        1.53931  -0.00007   0.00000  -0.00022  -0.00094   1.53838
   Z32        6.56516   0.00003   0.00000   0.00121   0.00035   6.56551
   X33       -3.56737  -0.00015   0.00000  -0.00155  -0.00155  -3.56892
   Y33       -0.43512  -0.00011   0.00000  -0.00075  -0.00146  -0.43659
   Z33        6.61987   0.00002   0.00000   0.00099   0.00002   6.61989
   X34       -4.15547  -0.00009   0.00000  -0.00085  -0.00090  -4.15637
   Y34        2.44776  -0.00007   0.00000  -0.00054  -0.00137   2.44638
   Z34        8.45312   0.00003   0.00000   0.00129   0.00049   8.45361
   X35       -7.45073   0.00003   0.00000   0.00029   0.00027  -7.45045
   Y35        1.55569   0.00003   0.00000   0.00154   0.00086   1.55655
   Z35        5.50591  -0.00008   0.00000  -0.00000  -0.00089   5.50502
   X36       -2.46130   0.00019   0.00000   0.00221   0.00219  -2.45911
   Y36        3.28773  -0.00010   0.00000  -0.00046  -0.00102   3.28671
   Z36        4.36069   0.00018   0.00000   0.00301   0.00228   4.36296
   X37       -1.98714  -0.00008   0.00000  -0.00092  -0.00104  -1.98818
   Y37        8.61993   0.00003   0.00000   0.00114   0.00032   8.62026
   Z37        8.66189   0.00007   0.00000   0.00124   0.00084   8.66273
   X38       -0.72584  -0.00011   0.00000  -0.00107  -0.00121  -0.72705
   Y38       10.27408   0.00003   0.00000   0.00097   0.00015  10.27424
   Z38        8.90257   0.00021   0.00000   0.00263   0.00234   8.90492
   X39       -1.66243  -0.00004   0.00000  -0.00052  -0.00061  -1.66304
   Y39        7.70392   0.00015   0.00000   0.00228   0.00158   7.70550
   Z39        6.80139   0.00001   0.00000   0.00067   0.00021   6.80160
   X40       -5.17174  -0.00009   0.00000  -0.00094  -0.00107  -5.17281
   Y40        9.57038  -0.00002   0.00000   0.00103   0.00016   9.57055
   Z40        8.92059   0.00008   0.00000   0.00144   0.00107   8.92167
   X41       -1.39263  -0.00012   0.00000  -0.00123  -0.00135  -1.39398
   Y41        6.40129  -0.00011   0.00000  -0.00002  -0.00099   6.40030
   Z41       11.11196  -0.00004   0.00000   0.00023  -0.00030  11.11166
   X42        8.37871  -0.00002   0.00000  -0.00030  -0.00019   8.37852
   Y42        2.06122   0.00009   0.00000   0.00079   0.00114   2.06235
   Z42       -8.40455  -0.00001   0.00000   0.00069  -0.00002  -8.40457
   X43        7.32236  -0.00006   0.00000  -0.00078  -0.00067   7.32169
   Y43        0.53407   0.00008   0.00000   0.00077   0.00105   0.53512
   Z43       -7.42436  -0.00006   0.00000   0.00004  -0.00078  -7.42514
   X44       10.44641  -0.00002   0.00000  -0.00036  -0.00025  10.44616
   Y44        1.72746   0.00007   0.00000   0.00052   0.00088   1.72834
   Z44       -8.27130   0.00006   0.00000   0.00098   0.00026  -8.27104
   X45        7.63825   0.00003   0.00000   0.00017   0.00023   7.63848
   Y45        5.02559   0.00009   0.00000   0.00070   0.00096   5.02655
   Z45       -7.01507   0.00002   0.00000   0.00106   0.00053  -7.01454
   X46        7.44073  -0.00000   0.00000  -0.00016  -0.00003   7.44070
   Y46        2.21560   0.00018   0.00000   0.00146   0.00200   2.21761
   Z46      -11.60652  -0.00001   0.00000   0.00074   0.00003 -11.60649
   X47      -10.25070   0.00018   0.00000   0.00188   0.00190 -10.24881
   Y47        3.72795   0.00014   0.00000   0.00213   0.00180   3.72975
   Z47       -0.73538   0.00004   0.00000   0.00138   0.00061  -0.73477
   X48      -11.94120   0.00014   0.00000   0.00144   0.00147 -11.93973
   Y48        2.65977   0.00030   0.00000   0.00363   0.00324   2.66301
   Z48       -0.11027   0.00014   0.00000   0.00242   0.00157  -0.10870
   X49       -8.73398   0.00019   0.00000   0.00238   0.00239  -8.73159
   Y49        3.64976   0.00011   0.00000   0.00168   0.00128   3.65104
   Z49        0.71346   0.00003   0.00000   0.00080   0.00003   0.71350
   X50      -11.09622   0.00025   0.00000   0.00319   0.00318 -11.09305
   Y50        6.91472   0.00014   0.00000   0.00227   0.00197   6.91670
   Z50       -1.29313  -0.00004   0.00000   0.00037  -0.00021  -1.29334
   X51       -9.13286  -0.00007   0.00000  -0.00071  -0.00065  -9.13351
   Y51        2.43775  -0.00002   0.00000  -0.00005  -0.00018   2.43757
   Z51       -3.61006   0.00003   0.00000   0.00144   0.00059  -3.60946
   X52       -3.00524  -0.00001   0.00000  -0.00014  -0.00004  -3.00527
   Y52        1.85280   0.00004   0.00000   0.00013   0.00031   1.85311
   Z52       -7.71935   0.00007   0.00000   0.00157   0.00074  -7.71861
   X53       -3.62286   0.00005   0.00000   0.00054   0.00065  -3.62221
   Y53        2.45269   0.00002   0.00000  -0.00007   0.00023   2.45292
   Z53       -9.63079   0.00004   0.00000   0.00121   0.00041  -9.63038
   X54       -4.06089  -0.00008   0.00000  -0.00099  -0.00092  -4.06180
   Y54        2.88252  -0.00002   0.00000  -0.00014  -0.00005   2.88247
   Z54       -6.22192   0.00006   0.00000   0.00112   0.00035  -6.22157
   X55        0.27958  -0.00002   0.00000  -0.00040  -0.00030   0.27928
   Y55        2.45835   0.00008   0.00000   0.00075   0.00095   2.45930
   Z55       -7.37919   0.00014   0.00000   0.00287   0.00211  -7.37708
   X56       -3.46293   0.00008   0.00000   0.00065   0.00078  -3.46215
   Y56       -1.43697   0.00002   0.00000   0.00004   0.00020  -1.43677
   Z56       -7.36348   0.00004   0.00000   0.00189   0.00085  -7.36263
   X57       -2.65346   0.00006   0.00000   0.00108   0.00100  -2.65246
   Y57       11.13657   0.00010   0.00000   0.00165   0.00127  11.13784
   Z57        1.43863  -0.00015   0.00000  -0.00132  -0.00157   1.43706
   X58       -1.96765   0.00023   0.00000   0.00253   0.00246  -1.96520
   Y58       11.56187   0.00019   0.00000   0.00228   0.00203  11.56390
   Z58       -0.50089  -0.00008   0.00000  -0.00072  -0.00094  -0.50183
   X59       -4.32217   0.00013   0.00000   0.00164   0.00154  -4.32063
   Y59       12.30623   0.00019   0.00000   0.00249   0.00206  12.30829
   Z59        1.93296  -0.00011   0.00000  -0.00136  -0.00155   1.93141
   X60       -0.19090   0.00001   0.00000   0.00035   0.00024  -0.19065
   Y60       11.72202  -0.00014   0.00000  -0.00094  -0.00143  11.72059
   Z60        3.63528  -0.00002   0.00000   0.00014  -0.00005   3.63523
   X61       -3.45670  -0.00009   0.00000  -0.00102  -0.00107  -3.45777
   Y61        7.89327   0.00011   0.00000   0.00202   0.00162   7.89488
   Z61        1.67888  -0.00029   0.00000  -0.00299  -0.00345   1.67543
   X62        2.09802  -0.00004   0.00000  -0.00062  -0.00066   2.09736
   Y62        0.62449   0.00004   0.00000   0.00126   0.00045   0.62494
   Z62        9.33496  -0.00011   0.00000  -0.00039  -0.00125   9.33371
   X63        1.38836  -0.00002   0.00000  -0.00006  -0.00012   1.38824
   Y63        2.51189   0.00004   0.00000   0.00120   0.00041   2.51230
   Z63        8.75063  -0.00014   0.00000  -0.00115  -0.00189   8.74874
   X64        3.69469  -0.00007   0.00000  -0.00074  -0.00079   3.69390
   Y64        0.80788   0.00001   0.00000   0.00090   0.00002   0.80789
   Z64       10.67878  -0.00007   0.00000  -0.00029  -0.00112  10.67766
   X65        3.09214  -0.00005   0.00000  -0.00069  -0.00068   3.09146
   Y65       -1.08323  -0.00003   0.00000   0.00035  -0.00029  -1.08352
   Z65        6.64050  -0.00007   0.00000   0.00028  -0.00067   6.63983
   X66       -0.38016  -0.00011   0.00000  -0.00133  -0.00136  -0.38152
   Y66       -1.09803   0.00012   0.00000   0.00263   0.00170  -1.09633
   Z66       10.77974  -0.00012   0.00000  -0.00006  -0.00105  10.77869
   X67        2.01821   0.00005   0.00000   0.00045   0.00060   2.01881
   Y67       -4.10299   0.00003   0.00000  -0.00004   0.00007  -4.10292
   Z67       -5.72113   0.00002   0.00000   0.00153   0.00038  -5.72074
   X68        0.35776   0.00009   0.00000   0.00068   0.00085   0.35861
   Y68       -5.21741  -0.00003   0.00000  -0.00012   0.00002  -5.21740
   Z68       -6.34146   0.00002   0.00000   0.00112  -0.00012  -6.34157
   X69        1.42456   0.00006   0.00000   0.00055   0.00067   1.42523
   Y69       -2.20441  -0.00001   0.00000  -0.00030  -0.00023  -2.20464
   Z69       -5.04163   0.00016   0.00000   0.00244   0.00141  -5.04022
   X70        4.16873  -0.00003   0.00000  -0.00031  -0.00014   4.16859
   Y70       -3.78384   0.00010   0.00000   0.00088   0.00118  -3.78266
   Z70       -8.25813  -0.00004   0.00000   0.00110  -0.00001  -8.25814
   X71        3.60337   0.00006   0.00000   0.00066   0.00080   3.60417
   Y71       -5.73475  -0.00013   0.00000  -0.00135  -0.00137  -5.73612
   Z71       -3.25921  -0.00010   0.00000   0.00057  -0.00067  -3.25988
   X72        3.53458  -0.00006   0.00000  -0.00075  -0.00068   3.53390
   Y72        7.42173  -0.00002   0.00000  -0.00065  -0.00018   7.42156
   Z72      -11.25441  -0.00007   0.00000  -0.00053  -0.00095 -11.25536
   X73        5.36812  -0.00006   0.00000  -0.00074  -0.00066   5.36746
   Y73        7.21508   0.00007   0.00000   0.00038   0.00094   7.21602
   Z73      -12.25023  -0.00007   0.00000  -0.00068  -0.00110 -12.25134
   X74        3.35721   0.00000   0.00000  -0.00000   0.00008   3.35729
   Y74        5.97344  -0.00006   0.00000  -0.00094  -0.00056   5.97288
   Z74       -9.74952  -0.00010   0.00000  -0.00076  -0.00127  -9.75079
   X75        3.33534  -0.00014   0.00000  -0.00183  -0.00180   3.33354
   Y75       10.48419  -0.00003   0.00000  -0.00083  -0.00044  10.48374
   Z75       -9.90029  -0.00006   0.00000  -0.00033  -0.00056  -9.90085
   X76        1.01047  -0.00003   0.00000  -0.00064  -0.00054   1.00993
   Y76        7.11772  -0.00006   0.00000  -0.00155  -0.00097   7.11676
   Z76      -13.41351  -0.00010   0.00000  -0.00051  -0.00098 -13.41449
   X77       -2.87914   0.00017   0.00000   0.00229   0.00231  -2.87683
   Y77        8.72885   0.00001   0.00000   0.00002   0.00016   8.72901
   Z77       -6.96151   0.00008   0.00000   0.00125   0.00086  -6.96065
   X78       -1.02692   0.00013   0.00000   0.00147   0.00151  -1.02541
   Y78        7.96132   0.00008   0.00000  -0.00021  -0.00001   7.96130
   Z78       -7.58080  -0.00009   0.00000  -0.00064  -0.00107  -7.58187
   X79       -2.88411   0.00038   0.00000   0.00342   0.00342  -2.88069
   Y79       10.82411  -0.00002   0.00000  -0.00014   0.00001  10.82412
   Z79       -7.05113  -0.00017   0.00000  -0.00159  -0.00186  -7.05300
   X80       -5.31906  -0.00008   0.00000  -0.00084  -0.00079  -5.31985
   Y80        7.51514  -0.00025   0.00000  -0.00282  -0.00258   7.51256
   Z80       -8.89519   0.00056   0.00000   0.00695   0.00646  -8.88874
   X81       -3.50426   0.00041   0.00000   0.00569   0.00569  -3.49857
   Y81        7.75447   0.00025   0.00000   0.00349   0.00343   7.75791
   Z81       -3.81059   0.00018   0.00000   0.00303   0.00256  -3.80803
   X82        4.07779  -0.00019   0.00000  -0.00234  -0.00238   4.07541
   Y82       11.27728  -0.00027   0.00000  -0.00279  -0.00282  11.27446
   Z82       -3.06959  -0.00007   0.00000  -0.00070  -0.00088  -3.07047
   X83        5.23998  -0.00027   0.00000  -0.00270  -0.00273   5.23725
   Y83       11.20097  -0.00022   0.00000  -0.00302  -0.00292  11.19805
   Z83       -4.81292  -0.00012   0.00000  -0.00094  -0.00111  -4.81404
   X84        5.28604  -0.00029   0.00000  -0.00299  -0.00304   5.28300
   Y84       11.20787  -0.00039   0.00000  -0.00478  -0.00490  11.20297
   Z84       -1.35777  -0.00000   0.00000  -0.00032  -0.00049  -1.35826
   X85        2.24385   0.00019   0.00000   0.00176   0.00168   2.24553
   Y85       14.06842  -0.00001   0.00000  -0.00018  -0.00023  14.06820
   Z85       -3.05945  -0.00000   0.00000   0.00015   0.00012  -3.05932
   X86        1.93505  -0.00037   0.00000  -0.00494  -0.00495   1.93010
   Y86        8.69601  -0.00007   0.00000  -0.00060  -0.00065   8.69536
   Z86       -3.04084  -0.00020   0.00000  -0.00198  -0.00233  -3.04318
   X87       -8.27214   0.00001   0.00000   0.00025   0.00019  -8.27195
   Y87       12.99401  -0.00017   0.00000  -0.00183  -0.00198  12.99202
   Z87       -3.18718  -0.00002   0.00000   0.00003  -0.00016  -3.18734
   X88      -10.10879   0.00003   0.00000   0.00054   0.00048 -10.10831
   Y88       13.10370  -0.00006   0.00000  -0.00071  -0.00082  13.10288
   Z88       -4.18869  -0.00005   0.00000  -0.00043  -0.00062  -4.18931
   X89       -7.69857   0.00002   0.00000   0.00015   0.00011  -7.69846
   Y89       10.99344  -0.00019   0.00000  -0.00212  -0.00229  10.99115
   Z89       -2.90766  -0.00015   0.00000  -0.00165  -0.00195  -2.90961
   X90       -5.93935   0.00006   0.00000   0.00089   0.00083  -5.93853
   Y90       14.60630  -0.00003   0.00000  -0.00030  -0.00032  14.60598
   Z90       -4.96101   0.00019   0.00000   0.00231   0.00225  -4.95877
   X91       -8.52322  -0.00005   0.00000  -0.00052  -0.00062  -8.52384
   Y91       14.51989  -0.00039   0.00000  -0.00434  -0.00468  14.51521
   Z91       -0.22459   0.00008   0.00000   0.00125   0.00116  -0.22344
         Item               Value     Threshold  Converged?
 Maximum Force            0.052805     0.000450     NO 
 RMS     Force            0.006831     0.000300     NO 
 Maximum Displacement     0.148960     0.001800     NO 
 RMS     Displacement     0.018181     0.001200     NO 
 Predicted change in Energy=-1.301061D-02
 GradGradGradGradGradGradGradGradGradGradGradGradGradGradGradGradGradGrad

 Unable to Open any file for archive entry.
 1\1\GINC-X10P1N23\Force\ONIOM(B3LYP/6-31G(d):PM6)\Mixed\C23H38Cl30\MAY
 UMIAO\12-Jul-2024\0\\# scf=(xqc,maxcycle=64) force guess=read oniom(b3
 lyp/em=gd3bj/6-31g(d):pm6) nosymm\\Title Card\\0,1\C,0.55517685,-0.176
 54477,-0.17912257\C,-0.0838094,-1.2946505,0.41700184\C,-0.26583047,0.8
 8181563,-0.64265273\C,-1.45586792,-1.35595018,0.53195073\H,0.53577162,
 -2.11560368,0.77354488\C,1.97724469,-0.14583163,-0.31086634\C,-1.64275
 517,0.81728194,-0.50694714\H,0.18652433,1.75330305,-1.10962719\C,-2.25
 19671,-0.30149084,0.06306446\H,-1.92050438,-2.22473866,0.99148736\C,2.
 68730161,0.8871136,-1.00569098\H,2.5190189,-1.00047051,0.10058896\H,-2
 .25422226,1.64813622,-0.85049741\H,-3.33456435,-0.35530353,0.13825304\
 H,3.61067788,1.32341271,-0.63305455\H,2.33397819,1.28222568,-1.9561237
 8\C,4.97342225,0.55621711,1.99489876\H,5.2567656,1.14671759,1.09838298
 \H,3.97559364,0.85978389,2.37465541\Cl,6.18417399,0.77273945,3.2570514
 \Cl,4.93619143,-1.16938323,1.56968444\C,5.73020206,-1.06876122,-1.5605
 634\H,4.65226092,-1.11246191,-1.29490481\H,6.33587092,-1.67670997,-0.8
 574656\Cl,6.28671782,0.61421782,-1.51208008\Cl,5.96193308,-1.65445345,
 -3.21189353\C,2.10683464,3.18484476,1.54259527\H,1.82773005,2.14744981
 ,1.25327392\H,1.35949139,3.91157958,1.15670896\Cl,3.71067299,3.5790042
 1,0.89892117\Cl,2.21397644,3.31139659,3.30561082\C,-2.26199632,0.81456
 949,3.47413131\H,-1.88777314,-0.23025765,3.50308404\H,-2.19898029,1.29
 529672,4.47319747\Cl,-3.94275533,0.8232357,2.91360271\Cl,-1.30246364,1
 .73979111,2.30757595\C,-1.05155019,4.56147133,4.58367387\H,-0.38409879
 ,5.43680997,4.71103889\H,-0.87971961,4.07673953,3.59914058\Cl,-2.73676
 803,5.06442959,4.72057489\Cl,-0.73695011,3.38741643,5.88019809\C,4.433
 82125,1.09074866,-4.44749813\H,3.87482389,0.28262014,-3.92880326\H,5.5
 280013,0.91413232,-4.37698586\Cl,4.04198904,2.65942935,-3.71221701\Cl,
 3.93746218,1.1724455,-6.14190434\C,-5.4244392,1.9727454,-0.38914479\H,
 -6.31901064,1.40749069,-0.05835022\H,-4.62182443,1.93137036,0.37754928
 \Cl,-5.87186827,3.65911462,-0.68429314\Cl,-4.83290137,1.2900005,-1.910
 36082\C,-1.59030309,0.98045883,-4.0849051\H,-1.91713599,1.29790815,-5.
 09639619\H,-2.14892807,1.52536647,-3.2924995\Cl,0.14794943,1.30090539,
 -3.90489807\Cl,-1.83250552,-0.76041038,-3.89658479\C,-1.40414827,5.893
 21893,0.76128998\H,-1.04123734,6.11827839,-0.26505893\H,-2.28719489,6.
 51217719,1.02287982\Cl,-0.10101755,6.20302459,1.92370595\Cl,-1.8292046
 4,4.17693756,0.8884251\C,1.11022472,0.33046361,4.93984968\H,0.73468759
 ,1.3292372,4.63063616\H,1.95514597,0.4275097,5.65096815\Cl,1.63629181,
 -0.57322316,3.51400121\Cl,-0.20117126,-0.58105413,5.70439317\C,1.06798
 847,-2.17120815,-3.02749003\H,0.18932057,-2.76093526,-3.35575383\H,0.7
 5384216,-1.16652242,-2.66791511\Cl,2.20599899,-2.00232341,-4.37001559\
 Cl,1.90682015,-3.03469987,-1.72469852\C,1.87041773,3.92741261,-5.95557
 711\H,2.84068551,3.81805416,-6.48254442\H,1.77656077,3.16100825,-5.159
 22483\Cl,1.7649872,5.54799224,-5.23900644\Cl,0.53471644,3.7665363,-7.0
 9812602\C,-1.5235754,4.61910678,-3.68387225\H,-0.54342289,4.21294742,-
 4.01158737\H,-1.52620498,5.72787104,-3.73129966\Cl,-2.81472468,3.97684
 257,-4.70713282\Cl,-1.85437617,4.10349076,-2.016476\C,2.15787451,5.967
 67824,-1.62435585\H,2.77287759,5.92729958,-2.54688968\H,2.79725382,5.9
 3095027,-0.71850078\Cl,1.18739481,7.44468899,-1.61898907\Cl,1.02398643
 ,4.6017309,-1.60914527\C,-4.37742988,6.87613214,-1.68658396\H,-5.34934
 277,6.93417962,-2.21655876\H,-4.07390773,5.81747768,-1.53866826\Cl,-3.
 14297106,7.72931903,-2.62525417\Cl,-4.51029215,7.68359454,-0.11885049\
 \Version=ES64L-G16RevC.01\HF=0.1116332\S2=2.321832\S2-1=0.\S2A=2.05313
 9\RMSD=5.930e-09\RMSF=6.831e-03\Dipole=-0.3203786,-0.0805491,0.2072851
 \Quadrupole=2.1646382,0.4896973,-2.6543355,0.1017149,-0.0767928,-2.574
 3842\PG=C01 [X(C23H38Cl30)]\\@
 The archive entry for this job was punched.


 GROWING OLD ISN'T SO BAD -- WHEN YOU CONSIDER THE ALTERNATIVE.

                     -- MAURICE CHEVALIER
 Job cpu time:       0 days  0 hours  4 minutes 25.0 seconds.
 Elapsed time:       0 days  0 hours  0 minutes 10.8 seconds.
 File lengths (MBytes):  RWF=    104 Int=      0 D2E=      0 Chk=     34 Scr=      1
 Normal termination of Gaussian 16 at Fri Jul 12 22:53:54 2024.
