 Entering Gaussian System, Link 0=g16
 Input=JOBS/13_A.gjf
 Output=JOBS/13_A.log
 Initial command:
 /data/app/gaussian/C01-avx2//g16/l1.exe "/tmp/Gau-1782595.inp" -scrdir="/tmp/"
 Entering Link 1 = /data/app/gaussian/C01-avx2//g16/l1.exe PID=   1782596.
  
 Copyright (c) 1988-2019, Gaussian, Inc.  All Rights Reserved.
  
 This is part of the Gaussian(R) 16 program.  It is based on
 the Gaussian(R) 09 system (copyright 2009, Gaussian, Inc.),
 the Gaussian(R) 03 system (copyright 2003, Gaussian, Inc.),
 the Gaussian(R) 98 system (copyright 1998, Gaussian, Inc.),
 the Gaussian(R) 94 system (copyright 1995, Gaussian, Inc.),
 the Gaussian 92(TM) system (copyright 1992, Gaussian, Inc.),
 the Gaussian 90(TM) system (copyright 1990, Gaussian, Inc.),
 the Gaussian 88(TM) system (copyright 1988, Gaussian, Inc.),
 the Gaussian 86(TM) system (copyright 1986, Carnegie Mellon
 University), and the Gaussian 82(TM) system (copyright 1983,
 Carnegie Mellon University). Gaussian is a federally registered
 trademark of Gaussian, Inc.
  
 This software contains proprietary and confidential information,
 including trade secrets, belonging to Gaussian, Inc.
  
 This software is provided under written license and may be
 used, copied, transmitted, or stored only in accord with that
 written license.
  
 The following legend is applicable only to US Government
 contracts under FAR:
  
                    RESTRICTED RIGHTS LEGEND
  
 Use, reproduction and disclosure by the US Government is
 subject to restrictions as set forth in subparagraphs (a)
 and (c) of the Commercial Computer Software - Restricted
 Rights clause in FAR 52.227-19.
  
 Gaussian, Inc.
 340 Quinnipiac St., Bldg. 40, Wallingford CT 06492
  
  
 ---------------------------------------------------------------
 Warning -- This program may not be used in any manner that
 competes with the business of Gaussian, Inc. or will provide
 assistance to any competitor of Gaussian, Inc.  The licensee
 of this program is prohibited from giving any competitor of
 Gaussian, Inc. access to this program.  By using this program,
 the user acknowledges that Gaussian, Inc. is engaged in the
 business of creating and licensing software in the field of
 computational chemistry and represents and warrants to the
 licensee that it is not a competitor of Gaussian, Inc. and that
 it will not use this program in any manner prohibited above.
 ---------------------------------------------------------------
  

 Cite this work as:
 Gaussian 16, Revision C.01,
 M. J. Frisch, G. W. Trucks, H. B. Schlegel, G. E. Scuseria, 
 M. A. Robb, J. R. Cheeseman, G. Scalmani, V. Barone, 
 G. A. Petersson, H. Nakatsuji, X. Li, M. Caricato, A. V. Marenich, 
 J. Bloino, B. G. Janesko, R. Gomperts, B. Mennucci, H. P. Hratchian, 
 J. V. Ortiz, A. F. Izmaylov, J. L. Sonnenberg, D. Williams-Young, 
 F. Ding, F. Lipparini, F. Egidi, J. Goings, B. Peng, A. Petrone, 
 T. Henderson, D. Ranasinghe, V. G. Zakrzewski, J. Gao, N. Rega, 
 G. Zheng, W. Liang, M. Hada, M. Ehara, K. Toyota, R. Fukuda, 
 J. Hasegawa, M. Ishida, T. Nakajima, Y. Honda, O. Kitao, H. Nakai, 
 T. Vreven, K. Throssell, J. A. Montgomery, Jr., J. E. Peralta, 
 F. Ogliaro, M. J. Bearpark, J. J. Heyd, E. N. Brothers, K. N. Kudin, 
 V. N. Staroverov, T. A. Keith, R. Kobayashi, J. Normand, 
 K. Raghavachari, A. P. Rendell, J. C. Burant, S. S. Iyengar, 
 J. Tomasi, M. Cossi, J. M. Millam, M. Klene, C. Adamo, R. Cammi, 
 J. W. Ochterski, R. L. Martin, K. Morokuma, O. Farkas, 
 J. B. Foresman, and D. J. Fox, Gaussian, Inc., Wallingford CT, 2019.
 
 ******************************************
 Gaussian 16:  ES64L-G16RevC.01  3-Jul-2019
                12-Jul-2024 
 ******************************************
 %chk=a.chk
 %nprocshared=28
 Will use up to   28 processors via shared memory.
 %mem=48gb
 ----------------------------------------------------------------------
 # scf=(xqc,maxcycle=64) force guess=read oniom(td/b3lyp/em=gd3bj/6-31g
 (d):pm6) nosymm
 ----------------------------------------------------------------------
 1/10=7,30=1,38=1,52=2/1,3;
 2/12=2,15=1,17=6,18=5,40=1/2;
 1/10=7,30=1,38=1,52=2,53=3172/20;
 3/5=2,25=1,41=3900000,71=1,116=-2/1,2,3;
 4/5=1,35=1/1;
 5/5=2,7=64,8=3,13=1,35=1,38=6/2,8;
 6/7=2,8=2,9=2,10=2,28=1/1;
 7/7=1,30=1,33=-1/1,2,3,16;
 1/10=7,30=1,52=2,53=2032/20;
 3/5=1,6=6,7=1,11=9,25=1,30=1,71=1,74=-5,116=-2,124=41/1,2,3,8;
 4/5=1/1;
 5/5=2,7=64,8=3,13=1,38=6/2,8;
 8/6=1,10=2/1;
 9/15=2,42=1,70=2/14;
 10/5=4,31=1/2;
 6/7=2,8=2,9=2,10=2,18=1/1;
 7/7=1,12=6,13=5,30=1,33=-1/1,2,3,16;
 1/10=7,30=1,52=2,53=1022/20;
 3/5=2,25=1,41=3900000,71=1,116=-2/1,2,3;
 4/5=1,35=1/1;
 5/5=2,7=64,8=3,13=1,35=1,38=6/2,8;
 6/7=2,8=2,9=2,10=2,28=1/1;
 7/7=1,30=1,33=-1/1,2,3,16;
 1/10=7,30=1,52=2,53=3015/20;
 7/9=1,29=1,44=-1,126=2/16;
 1/10=7,30=1,52=2/3;
 99//99;
 ONIOM: restoring gridpoint  3 on chk file.
 ----------
 Title Card
 ----------
 Symbolic Z-matrix:
 Charge =  0 Multiplicity = 1 for low   level calculation on real  system.
 Charge =  0 Multiplicity = 1 for high  level calculation on model system.
 Charge =  0 Multiplicity = 1 for low   level calculation on model system.
 c                     0.55542  -0.17652  -0.17839  h 
 c                    -0.08344  -1.29484   0.41762  h 
 c                    -0.26539   0.88201  -0.6407   h 
 c                    -1.45601  -1.35572   0.53313  h 
 h                     0.53524  -2.11676   0.77306  h 
 c                     1.97787  -0.14542  -0.31153  h 
 c                    -1.64221   0.8178   -0.50495  h 
 h                     0.18699   1.7533   -1.10814  h 
 c                    -2.25167  -0.3007    0.06496  h 
 h                    -1.92113  -2.22507   0.99071  h 
 c                     2.68788   0.8867   -1.00645  h 
 h                     2.5184   -1.00099   0.09954  h 
 h                    -2.25326   1.64835  -0.84979  h 
 h                    -3.33434  -0.35443   0.13924  h 
 h                     3.61006   1.32607  -0.63398  h 
 h                     2.33478   1.28206  -1.95693  h 
 c                     4.97288   0.55614   1.99529  l 
 h                     5.25617   1.14691   1.09895  l 
 h                     3.9749    0.85928   2.37499  l 
 cl                    6.18335   0.77285   3.2577   l 
 cl                    4.93624  -1.16935   1.56963  l 
 c                     5.7308   -1.06898  -1.56046  l 
 h                     4.65274  -1.11184  -1.29514  l 
 h                     6.33562  -1.67783  -0.85741  l 
 cl                    6.28871   0.61351  -1.51109  l 
 cl                    5.96256  -1.65411  -3.212    l 
 c                     2.1063    3.1851    1.54234  l 
 h                     1.8261    2.14808   1.25272  l 
 h                     1.35915   3.91239   1.15715  l 
 cl                    3.71      3.57876   0.89799  l 
 cl                    2.21485   3.3108    3.30532  l 
 c                    -2.26279   0.81483   3.47279  l 
 h                    -1.88785  -0.22977   3.5008   l 
 h                    -2.19849   1.29593   4.47159  l 
 cl                   -3.94443   0.82227   2.915    l 
 cl                   -1.30507   1.74057   2.30524  l 
 c                    -1.0524    4.56232   4.58506  l 
 h                    -0.38525   5.43777   4.71332  l 
 h                    -0.8798    4.07796   3.60048  l 
 cl                   -2.73776   5.06505   4.72096  l 
 cl                   -0.7385    3.38762   5.88115  l 
 c                     4.43372   1.09215  -4.44804  l 
 h                     3.87404   0.28465  -3.9291   l 
 h                     5.52776   0.91476  -4.37725  l 
 cl                    4.04308   2.66144  -3.71344  l 
 cl                    3.93774   1.17348  -6.14256  l 
 c                    -5.42392   1.97411  -0.38929  l 
 h                    -6.31857   1.41026  -0.05627  l 
 h                    -4.61978   1.93213   0.37576  l 
 cl                   -5.86974   3.66088  -0.68455  l 
 cl                   -4.83591   1.28975  -1.91116  l 
 c                    -1.59001   0.98005  -4.08406  l 
 h                    -1.91623   1.29782  -5.09565  l 
 h                    -2.14938   1.52462  -3.29195  l 
 cl                    0.14806   1.30081  -3.90284  l 
 cl                   -1.83202  -0.76088  -3.89627  l 
 c                    -1.4029    5.89317   0.76152  l 
 h                    -1.03978   6.11804  -0.26478  l 
 h                    -2.28618   6.51177   1.02316  l 
 cl                   -0.10047   6.20346   1.92458  l 
 cl                   -1.82774   4.17686   0.88793  l 
 c                     1.11027   0.33023   4.93899  l 
 h                     0.73497   1.32874   4.6287   l 
 h                     1.95493   0.42786   5.65035  l 
 cl                    1.63677  -0.57479   3.51415  l 
 cl                   -0.20149  -0.58044   5.70387  l 
 c                     1.06823  -2.17131  -3.02733  l 
 h                     0.18933  -2.76062  -3.35575  l 
 h                     0.75479  -1.16689  -2.66642  l 
 cl                    2.20522  -2.00132  -4.37056  l 
 cl                    1.90748  -3.036    -1.72561  l 
 c                     1.87018   3.92753  -5.9566   l 
 h                     2.84046   3.81839  -6.48362  l 
 h                     1.77654   3.16124  -5.16012  l 
 cl                    1.76424   5.54814  -5.24015  l 
 cl                    0.53444   3.76607  -7.09901  l 
 c                    -1.52371   4.61777  -3.68395  l 
 h                    -0.54389   4.21088  -4.01183  l 
 h                    -1.52422   5.72658  -3.73015  l 
 cl                   -2.8156    3.97816  -4.7079   l 
 cl                   -1.85656   4.10117  -2.01727  l 
 c                     2.15792   5.96637  -1.62452  l 
 h                     2.77252   5.92608  -2.54734  l 
 h                     2.79705   5.92923  -0.7185   l 
 cl                    1.18833   7.44392  -1.61866  l 
 cl                    1.024     4.60039  -1.60946  l 
 c                    -4.37742   6.8751   -1.68666  l 
 h                    -5.34927   6.93335  -2.21674  l 
 h                    -4.07325   5.81641  -1.54036  l 
 cl                   -3.14313   7.73031  -2.62369  l 
 cl                   -4.51122   7.67992  -0.11764  l 
 

 GradGradGradGradGradGradGradGradGradGradGradGradGradGradGradGradGradGrad
 Berny optimization.
 Initialization pass.
 Trust Radius=3.00D-01 FncErr=1.00D-07 GrdErr=1.00D-07 EigMax=2.50D+02 EigMin=1.00D-04
 Number of steps in this run=      2 maximum allowed number of steps=      2.
 GradGradGradGradGradGradGradGradGradGradGradGradGradGradGradGradGradGrad

 Symmetry turned off by external request.
 Stoichiometry    C23H38Cl30
 Framework group  C1[X(C23H38Cl30)]
 Deg. of freedom   267
 Full point group                 C1      NOp   1
                          Input orientation:                          
 ---------------------------------------------------------------------
 Center     Atomic      Atomic             Coordinates (Angstroms)
 Number     Number       Type             X           Y           Z
 ---------------------------------------------------------------------
      1          6           0        0.555419   -0.176517   -0.178390
      2          6           0       -0.083443   -1.294843    0.417623
      3          6           0       -0.265388    0.882013   -0.640697
      4          6           0       -1.456007   -1.355719    0.533127
      5          1           0        0.535241   -2.116765    0.773057
      6          6           0        1.977871   -0.145423   -0.311530
      7          6           0       -1.642210    0.817797   -0.504950
      8          1           0        0.186989    1.753303   -1.108144
      9          6           0       -2.251666   -0.300699    0.064963
     10          1           0       -1.921133   -2.225065    0.990714
     11          6           0        2.687878    0.886697   -1.006447
     12          1           0        2.518405   -1.000985    0.099540
     13          1           0       -2.253255    1.648349   -0.849791
     14          1           0       -3.334337   -0.354430    0.139244
     15          1           0        3.610057    1.326067   -0.633975
     16          1           0        2.334782    1.282064   -1.956935
     17          6           0        4.972876    0.556145    1.995293
     18          1           0        5.256171    1.146911    1.098945
     19          1           0        3.974896    0.859283    2.374988
     20         17           0        6.183347    0.772853    3.257696
     21         17           0        4.936242   -1.169351    1.569629
     22          6           0        5.730795   -1.068982   -1.560460
     23          1           0        4.652742   -1.111842   -1.295144
     24          1           0        6.335622   -1.677826   -0.857411
     25         17           0        6.288710    0.613511   -1.511094
     26         17           0        5.962564   -1.654105   -3.211999
     27          6           0        2.106299    3.185101    1.542341
     28          1           0        1.826104    2.148082    1.252718
     29          1           0        1.359152    3.912392    1.157154
     30         17           0        3.710004    3.578764    0.897992
     31         17           0        2.214851    3.310801    3.305322
     32          6           0       -2.262787    0.814832    3.472793
     33          1           0       -1.887847   -0.229770    3.500802
     34          1           0       -2.198489    1.295933    4.471585
     35         17           0       -3.944434    0.822272    2.915001
     36         17           0       -1.305070    1.740568    2.305235
     37          6           0       -1.052396    4.562316    4.585063
     38          1           0       -0.385248    5.437770    4.713317
     39          1           0       -0.879795    4.077960    3.600475
     40         17           0       -2.737765    5.065046    4.720961
     41         17           0       -0.738497    3.387620    5.881147
     42          6           0        4.433725    1.092151   -4.448037
     43          1           0        3.874042    0.284651   -3.929101
     44          1           0        5.527761    0.914761   -4.377255
     45         17           0        4.043076    2.661444   -3.713436
     46         17           0        3.937742    1.173478   -6.142560
     47          6           0       -5.423918    1.974107   -0.389292
     48          1           0       -6.318571    1.410256   -0.056272
     49          1           0       -4.619781    1.932135    0.375756
     50         17           0       -5.869740    3.660879   -0.684555
     51         17           0       -4.835911    1.289748   -1.911158
     52          6           0       -1.590014    0.980050   -4.084063
     53          1           0       -1.916231    1.297821   -5.095653
     54          1           0       -2.149376    1.524616   -3.291954
     55         17           0        0.148063    1.300815   -3.902837
     56         17           0       -1.832019   -0.760879   -3.896271
     57          6           0       -1.402903    5.893169    0.761517
     58          1           0       -1.039776    6.118043   -0.264782
     59          1           0       -2.286175    6.511768    1.023164
     60         17           0       -0.100470    6.203460    1.924578
     61         17           0       -1.827735    4.176855    0.887928
     62          6           0        1.110275    0.330228    4.938986
     63          1           0        0.734972    1.328744    4.628700
     64          1           0        1.954932    0.427865    5.650347
     65         17           0        1.636773   -0.574792    3.514152
     66         17           0       -0.201492   -0.580439    5.703873
     67          6           0        1.068226   -2.171312   -3.027328
     68          1           0        0.189327   -2.760624   -3.355752
     69          1           0        0.754788   -1.166893   -2.666421
     70         17           0        2.205221   -2.001325   -4.370562
     71         17           0        1.907479   -3.036004   -1.725608
     72          6           0        1.870183    3.927533   -5.956601
     73          1           0        2.840462    3.818389   -6.483619
     74          1           0        1.776536    3.161237   -5.160122
     75         17           0        1.764243    5.548137   -5.240153
     76         17           0        0.534438    3.766069   -7.099013
     77          6           0       -1.523712    4.617766   -3.683947
     78          1           0       -0.543892    4.210885   -4.011826
     79          1           0       -1.524221    5.726576   -3.730152
     80         17           0       -2.815605    3.978156   -4.707903
     81         17           0       -1.856560    4.101174   -2.017271
     82          6           0        2.157915    5.966366   -1.624524
     83          1           0        2.772522    5.926084   -2.547342
     84          1           0        2.797050    5.929231   -0.718497
     85         17           0        1.188334    7.443918   -1.618659
     86         17           0        1.023997    4.600392   -1.609460
     87          6           0       -4.377425    6.875095   -1.686656
     88          1           0       -5.349265    6.933353   -2.216743
     89          1           0       -4.073250    5.816413   -1.540360
     90         17           0       -3.143133    7.730313   -2.623686
     91         17           0       -4.511218    7.679919   -0.117643
 ---------------------------------------------------------------------
 Rotational constants (GHZ):           0.0225932           0.0200271           0.0153204
 ONIOM: saving gridpoint 17
 ONIOM: restoring gridpoint  3 on chk file.
 ONIOM: generating point  3 -- low level on real system.
 Standard basis: VSTO-6G (5D, 7F)
   400 basis functions,  2580 primitive gaussians,   430 cartesian basis functions
   170 alpha electrons      170 beta electrons
       nuclear repulsion energy      5298.1820533748 Hartrees.
 Integral buffers will be    131072 words long.
 Regular integral format.
 Two-electron integral symmetry is turned off.
 Do NDO integrals.
 One-electron integrals computed using PRISM.
 NBasis=   400 RedAO= F EigKep=  0.00D+00  NBF=   400
 NBsUse=   400 1.00D-04 EigRej=  0.00D+00 NBFU=   400
 Initial guess from the checkpoint file:  "a.chk"
 B after Tr=    -0.000139   -0.000183   -0.000144
         Rot=    1.000000   -0.000014    0.000005   -0.000011 Ang=  -0.00 deg.
 Initial guess <Sx>= 0.0000 <Sy>= 0.0000 <Sz>= 0.0000 <S**2>=-0.0000 S=-0.0000
 Keep J ints in memory in canonical form, NReq=3161508.
 Overlap will be assumed to be unity.
 Requested convergence on RMS density matrix=1.00D-08 within  64 cycles.
 Requested convergence on MAX density matrix=1.00D-06.
 Requested convergence on             energy=1.00D-06.
 No special actions if energy rises.
 SCF Done:  E(UPM6) = -0.404741055064     A.U. after   11 cycles
            NFock= 10  Conv=0.75D-08     -V/T= 0.9994
 <Sx>= 0.0000 <Sy>= 0.0000 <Sz>= 0.0000 <S**2>=-0.0000 S=-0.0000
 <L.S>=  0.00000000000    
 Annihilation of the first spin contaminant:
 S**2 before annihilation    -0.0000,   after    -0.0000
 QCSCF skips out because SCF is already converged.

 **********************************************************************

            Population analysis using the SCF Density.

 **********************************************************************

 Alpha  occ. eigenvalues --   -1.11305  -1.05652  -1.05344  -1.05295  -1.05196
 Alpha  occ. eigenvalues --   -1.05144  -1.05125  -1.04941  -1.04887  -1.04793
 Alpha  occ. eigenvalues --   -1.04749  -1.04713  -1.04485  -1.04454  -1.04350
 Alpha  occ. eigenvalues --   -1.04117  -1.01828  -0.98624  -0.98305  -0.98238
 Alpha  occ. eigenvalues --   -0.98162  -0.98119  -0.97975  -0.97952  -0.97791
 Alpha  occ. eigenvalues --   -0.97772  -0.97753  -0.97628  -0.97415  -0.97337
 Alpha  occ. eigenvalues --   -0.97275  -0.97249  -0.97010  -0.92371  -0.88798
 Alpha  occ. eigenvalues --   -0.88715  -0.88587  -0.88412  -0.88367  -0.88253
 Alpha  occ. eigenvalues --   -0.88226  -0.88130  -0.88088  -0.88014  -0.87886
 Alpha  occ. eigenvalues --   -0.87653  -0.87566  -0.87517  -0.87218  -0.82669
 Alpha  occ. eigenvalues --   -0.79244  -0.72995  -0.65447  -0.62732  -0.62378
 Alpha  occ. eigenvalues --   -0.62119  -0.61863  -0.61639  -0.61551  -0.61489
 Alpha  occ. eigenvalues --   -0.61311  -0.61253  -0.61171  -0.61061  -0.60911
 Alpha  occ. eigenvalues --   -0.60389  -0.60315  -0.60131  -0.60055  -0.60018
 Alpha  occ. eigenvalues --   -0.59781  -0.59618  -0.59540  -0.59468  -0.59375
 Alpha  occ. eigenvalues --   -0.59276  -0.59202  -0.59112  -0.59000  -0.58936
 Alpha  occ. eigenvalues --   -0.58745  -0.58608  -0.58581  -0.58484  -0.58339
 Alpha  occ. eigenvalues --   -0.58291  -0.58088  -0.57817  -0.57732  -0.57712
 Alpha  occ. eigenvalues --   -0.57682  -0.57585  -0.57527  -0.57509  -0.57438
 Alpha  occ. eigenvalues --   -0.57229  -0.57112  -0.57075  -0.56886  -0.56794
 Alpha  occ. eigenvalues --   -0.55178  -0.53422  -0.52394  -0.51074  -0.49681
 Alpha  occ. eigenvalues --   -0.46210  -0.45273  -0.45105  -0.44821  -0.44284
 Alpha  occ. eigenvalues --   -0.44256  -0.44122  -0.43992  -0.43939  -0.43870
 Alpha  occ. eigenvalues --   -0.43764  -0.43709  -0.43584  -0.43501  -0.43460
 Alpha  occ. eigenvalues --   -0.43425  -0.43422  -0.43393  -0.43315  -0.43291
 Alpha  occ. eigenvalues --   -0.43223  -0.43155  -0.43124  -0.43046  -0.42970
 Alpha  occ. eigenvalues --   -0.42913  -0.42862  -0.42807  -0.42766  -0.42629
 Alpha  occ. eigenvalues --   -0.42586  -0.42478  -0.42430  -0.42347  -0.42137
 Alpha  occ. eigenvalues --   -0.42026  -0.41930  -0.41911  -0.41799  -0.41792
 Alpha  occ. eigenvalues --   -0.41710  -0.41683  -0.41625  -0.41614  -0.41483
 Alpha  occ. eigenvalues --   -0.41370  -0.41308  -0.41295  -0.41241  -0.41201
 Alpha  occ. eigenvalues --   -0.41168  -0.41139  -0.41052  -0.41040  -0.40915
 Alpha  occ. eigenvalues --   -0.40862  -0.40772  -0.40600  -0.40589  -0.40509
 Alpha  occ. eigenvalues --   -0.40372  -0.40329  -0.39582  -0.36951  -0.32920
 Alpha virt. eigenvalues --   -0.03658  -0.01336  -0.00997  -0.00965  -0.00903
 Alpha virt. eigenvalues --   -0.00673  -0.00650  -0.00593  -0.00560  -0.00496
 Alpha virt. eigenvalues --   -0.00454  -0.00436  -0.00393  -0.00362  -0.00278
 Alpha virt. eigenvalues --   -0.00260  -0.00233  -0.00220  -0.00211  -0.00191
 Alpha virt. eigenvalues --   -0.00149  -0.00139  -0.00049  -0.00018   0.00042
 Alpha virt. eigenvalues --    0.00328   0.00383   0.00466   0.00488   0.00516
 Alpha virt. eigenvalues --    0.00596   0.00693   0.02597   0.08891   0.14201
 Alpha virt. eigenvalues --    0.14237   0.14419   0.14540   0.14697   0.14762
 Alpha virt. eigenvalues --    0.14876   0.14966   0.14971   0.15030   0.15053
 Alpha virt. eigenvalues --    0.15125   0.15150   0.15166   0.15239   0.15350
 Alpha virt. eigenvalues --    0.15403   0.15440   0.15491   0.15565   0.15618
 Alpha virt. eigenvalues --    0.15732   0.15793   0.15856   0.15912   0.15929
 Alpha virt. eigenvalues --    0.15959   0.15981   0.16090   0.16337   0.16396
 Alpha virt. eigenvalues --    0.16413   0.16707   0.16993   0.17223   0.17962
 Alpha virt. eigenvalues --    0.18560   0.19287   0.19797   0.20383   0.21072
 Alpha virt. eigenvalues --    0.21272   0.21594   0.21798   0.22173   0.22281
 Alpha virt. eigenvalues --    3.16405   3.16813   3.17308   3.17939   3.18098
 Alpha virt. eigenvalues --    3.18339   3.18617   3.18722   3.18966   3.19074
 Alpha virt. eigenvalues --    3.19094   3.19254   3.19325   3.19532   3.19626
 Alpha virt. eigenvalues --    3.19635   3.19701   3.19833   3.19902   3.19988
 Alpha virt. eigenvalues --    3.20015   3.20176   3.20268   3.20299   3.20424
 Alpha virt. eigenvalues --    3.20465   3.20531   3.20546   3.20623   3.20654
 Alpha virt. eigenvalues --    3.20690   3.20827   3.20865   3.20960   3.21004
 Alpha virt. eigenvalues --    3.21054   3.21091   3.21156   3.21169   3.21227
 Alpha virt. eigenvalues --    3.21397   3.21442   3.21551   3.21709   3.21826
 Alpha virt. eigenvalues --    3.21962   3.22056   3.22129   3.22157   3.22297
 Alpha virt. eigenvalues --    3.22438   3.22489   3.22524   3.22578   3.22727
 Alpha virt. eigenvalues --    3.22775   3.22935   3.22977   3.23125   3.23154
 Alpha virt. eigenvalues --    3.23185   3.23278   3.23364   3.23410   3.23475
 Alpha virt. eigenvalues --    3.23491   3.23566   3.23641   3.23735   3.23786
 Alpha virt. eigenvalues --    3.23847   3.23936   3.23959   3.23994   3.24086
 Alpha virt. eigenvalues --    3.24127   3.24151   3.24223   3.24268   3.24304
 Alpha virt. eigenvalues --    3.24365   3.24473   3.24481   3.24533   3.24633
 Alpha virt. eigenvalues --    3.24663   3.24715   3.24798   3.24846   3.24925
 Alpha virt. eigenvalues --    3.24948   3.25017   3.25052   3.25071   3.25090
 Alpha virt. eigenvalues --    3.25136   3.25294   3.25370   3.25450   3.25513
 Alpha virt. eigenvalues --    3.25528   3.25668   3.25721   3.25749   3.25843
 Alpha virt. eigenvalues --    3.25870   3.25918   3.25987   3.26092   3.26210
 Alpha virt. eigenvalues --    3.26264   3.26314   3.26410   3.26445   3.26780
 Alpha virt. eigenvalues --    3.26834   3.26903   3.26980   3.27018   3.27153
 Alpha virt. eigenvalues --    3.27223   3.27327   3.27371   3.27394   3.27459
 Alpha virt. eigenvalues --    3.27531   3.27627   3.27730   3.27750   3.27830
 Alpha virt. eigenvalues --    3.27845   3.27947   3.28139   3.28156   3.28194
 Alpha virt. eigenvalues --    3.28279   3.28372   3.28459   3.28537   3.28572
 Alpha virt. eigenvalues --    3.28630   3.28665   3.28719   3.28812   3.28905
 Alpha virt. eigenvalues --    3.29111   3.29241   3.29334   3.29699   3.29965
  Beta  occ. eigenvalues --   -1.11305  -1.05652  -1.05344  -1.05295  -1.05196
  Beta  occ. eigenvalues --   -1.05144  -1.05125  -1.04941  -1.04887  -1.04793
  Beta  occ. eigenvalues --   -1.04749  -1.04713  -1.04485  -1.04454  -1.04350
  Beta  occ. eigenvalues --   -1.04117  -1.01828  -0.98624  -0.98305  -0.98238
  Beta  occ. eigenvalues --   -0.98162  -0.98119  -0.97975  -0.97952  -0.97791
  Beta  occ. eigenvalues --   -0.97772  -0.97753  -0.97628  -0.97415  -0.97337
  Beta  occ. eigenvalues --   -0.97275  -0.97249  -0.97010  -0.92371  -0.88798
  Beta  occ. eigenvalues --   -0.88715  -0.88587  -0.88412  -0.88367  -0.88253
  Beta  occ. eigenvalues --   -0.88226  -0.88130  -0.88088  -0.88014  -0.87886
  Beta  occ. eigenvalues --   -0.87653  -0.87566  -0.87517  -0.87218  -0.82669
  Beta  occ. eigenvalues --   -0.79244  -0.72995  -0.65447  -0.62732  -0.62378
  Beta  occ. eigenvalues --   -0.62119  -0.61863  -0.61639  -0.61551  -0.61489
  Beta  occ. eigenvalues --   -0.61311  -0.61253  -0.61171  -0.61061  -0.60911
  Beta  occ. eigenvalues --   -0.60389  -0.60315  -0.60131  -0.60055  -0.60018
  Beta  occ. eigenvalues --   -0.59781  -0.59618  -0.59540  -0.59468  -0.59375
  Beta  occ. eigenvalues --   -0.59276  -0.59202  -0.59112  -0.59000  -0.58936
  Beta  occ. eigenvalues --   -0.58745  -0.58608  -0.58581  -0.58484  -0.58339
  Beta  occ. eigenvalues --   -0.58291  -0.58088  -0.57817  -0.57732  -0.57712
  Beta  occ. eigenvalues --   -0.57682  -0.57585  -0.57527  -0.57509  -0.57438
  Beta  occ. eigenvalues --   -0.57229  -0.57112  -0.57075  -0.56886  -0.56794
  Beta  occ. eigenvalues --   -0.55178  -0.53422  -0.52394  -0.51074  -0.49681
  Beta  occ. eigenvalues --   -0.46210  -0.45273  -0.45105  -0.44821  -0.44284
  Beta  occ. eigenvalues --   -0.44256  -0.44122  -0.43992  -0.43939  -0.43870
  Beta  occ. eigenvalues --   -0.43764  -0.43709  -0.43584  -0.43501  -0.43460
  Beta  occ. eigenvalues --   -0.43425  -0.43422  -0.43393  -0.43315  -0.43291
  Beta  occ. eigenvalues --   -0.43223  -0.43155  -0.43124  -0.43046  -0.42970
  Beta  occ. eigenvalues --   -0.42913  -0.42862  -0.42807  -0.42766  -0.42629
  Beta  occ. eigenvalues --   -0.42586  -0.42478  -0.42430  -0.42347  -0.42137
  Beta  occ. eigenvalues --   -0.42026  -0.41930  -0.41911  -0.41799  -0.41792
  Beta  occ. eigenvalues --   -0.41710  -0.41683  -0.41625  -0.41614  -0.41483
  Beta  occ. eigenvalues --   -0.41370  -0.41308  -0.41295  -0.41241  -0.41201
  Beta  occ. eigenvalues --   -0.41168  -0.41139  -0.41052  -0.41040  -0.40915
  Beta  occ. eigenvalues --   -0.40862  -0.40772  -0.40600  -0.40589  -0.40509
  Beta  occ. eigenvalues --   -0.40372  -0.40329  -0.39582  -0.36951  -0.32920
  Beta virt. eigenvalues --   -0.03658  -0.01336  -0.00997  -0.00965  -0.00903
  Beta virt. eigenvalues --   -0.00673  -0.00650  -0.00593  -0.00560  -0.00496
  Beta virt. eigenvalues --   -0.00454  -0.00436  -0.00393  -0.00362  -0.00278
  Beta virt. eigenvalues --   -0.00260  -0.00233  -0.00220  -0.00211  -0.00191
  Beta virt. eigenvalues --   -0.00149  -0.00139  -0.00049  -0.00018   0.00042
  Beta virt. eigenvalues --    0.00328   0.00383   0.00466   0.00488   0.00516
  Beta virt. eigenvalues --    0.00596   0.00693   0.02597   0.08891   0.14201
  Beta virt. eigenvalues --    0.14237   0.14419   0.14540   0.14697   0.14762
  Beta virt. eigenvalues --    0.14876   0.14966   0.14971   0.15030   0.15053
  Beta virt. eigenvalues --    0.15125   0.15150   0.15166   0.15239   0.15350
  Beta virt. eigenvalues --    0.15403   0.15440   0.15491   0.15565   0.15618
  Beta virt. eigenvalues --    0.15732   0.15793   0.15856   0.15912   0.15929
  Beta virt. eigenvalues --    0.15959   0.15981   0.16090   0.16337   0.16396
  Beta virt. eigenvalues --    0.16413   0.16707   0.16993   0.17223   0.17962
  Beta virt. eigenvalues --    0.18560   0.19287   0.19797   0.20383   0.21072
  Beta virt. eigenvalues --    0.21272   0.21594   0.21798   0.22173   0.22281
  Beta virt. eigenvalues --    3.16405   3.16813   3.17308   3.17939   3.18098
  Beta virt. eigenvalues --    3.18339   3.18617   3.18722   3.18966   3.19074
  Beta virt. eigenvalues --    3.19094   3.19254   3.19325   3.19532   3.19626
  Beta virt. eigenvalues --    3.19635   3.19701   3.19833   3.19902   3.19988
  Beta virt. eigenvalues --    3.20015   3.20176   3.20268   3.20299   3.20424
  Beta virt. eigenvalues --    3.20465   3.20531   3.20546   3.20623   3.20654
  Beta virt. eigenvalues --    3.20690   3.20827   3.20865   3.20960   3.21004
  Beta virt. eigenvalues --    3.21054   3.21091   3.21156   3.21169   3.21227
  Beta virt. eigenvalues --    3.21397   3.21442   3.21551   3.21709   3.21826
  Beta virt. eigenvalues --    3.21962   3.22056   3.22129   3.22157   3.22297
  Beta virt. eigenvalues --    3.22438   3.22489   3.22524   3.22578   3.22727
  Beta virt. eigenvalues --    3.22775   3.22935   3.22977   3.23125   3.23154
  Beta virt. eigenvalues --    3.23185   3.23278   3.23364   3.23410   3.23475
  Beta virt. eigenvalues --    3.23491   3.23566   3.23641   3.23735   3.23786
  Beta virt. eigenvalues --    3.23847   3.23936   3.23959   3.23994   3.24086
  Beta virt. eigenvalues --    3.24127   3.24151   3.24223   3.24268   3.24304
  Beta virt. eigenvalues --    3.24365   3.24473   3.24481   3.24533   3.24633
  Beta virt. eigenvalues --    3.24663   3.24715   3.24798   3.24846   3.24925
  Beta virt. eigenvalues --    3.24948   3.25017   3.25052   3.25071   3.25090
  Beta virt. eigenvalues --    3.25136   3.25294   3.25370   3.25450   3.25513
  Beta virt. eigenvalues --    3.25528   3.25668   3.25721   3.25749   3.25843
  Beta virt. eigenvalues --    3.25870   3.25918   3.25987   3.26092   3.26210
  Beta virt. eigenvalues --    3.26264   3.26314   3.26410   3.26445   3.26780
  Beta virt. eigenvalues --    3.26834   3.26903   3.26980   3.27018   3.27153
  Beta virt. eigenvalues --    3.27223   3.27327   3.27371   3.27394   3.27459
  Beta virt. eigenvalues --    3.27531   3.27627   3.27730   3.27750   3.27830
  Beta virt. eigenvalues --    3.27845   3.27947   3.28139   3.28156   3.28194
  Beta virt. eigenvalues --    3.28279   3.28372   3.28459   3.28537   3.28572
  Beta virt. eigenvalues --    3.28630   3.28665   3.28719   3.28812   3.28905
  Beta virt. eigenvalues --    3.29111   3.29241   3.29334   3.29699   3.29965
          Condensed to atoms (all electrons):
          Atomic-Atomic Spin Densities.
 Mulliken charges and spin densities:
               1          2
     1  C   -0.016087   0.000000
     2  C   -0.141971   0.000000
     3  C   -0.149526   0.000000
     4  C   -0.156364   0.000000
     5  H    0.153411   0.000000
     6  C   -0.125772   0.000000
     7  C   -0.151597   0.000000
     8  H    0.155201   0.000000
     9  C   -0.117841   0.000000
    10  H    0.149391   0.000000
    11  C   -0.369937   0.000000
    12  H    0.157086   0.000000
    13  H    0.150457   0.000000
    14  H    0.145721   0.000000
    15  H    0.159245   0.000000
    16  H    0.161526   0.000000
    17  C   -0.138997   0.000000
    18  H    0.187864   0.000000
    19  H    0.186123   0.000000
    20  Cl  -0.095087   0.000000
    21  Cl  -0.140413   0.000000
    22  C   -0.144308   0.000000
    23  H    0.192858   0.000000
    24  H    0.191532   0.000000
    25  Cl  -0.127758   0.000000
    26  Cl  -0.111699   0.000000
    27  C   -0.143697   0.000000
    28  H    0.198338   0.000000
    29  H    0.196865   0.000000
    30  Cl  -0.126288   0.000000
    31  Cl  -0.125936   0.000000
    32  C   -0.129302   0.000000
    33  H    0.192430   0.000000
    34  H    0.191986   0.000000
    35  Cl  -0.129749   0.000000
    36  Cl  -0.123587   0.000000
    37  C   -0.137711   0.000000
    38  H    0.184833   0.000000
    39  H    0.194050   0.000000
    40  Cl  -0.100832   0.000000
    41  Cl  -0.141975   0.000000
    42  C   -0.133079   0.000000
    43  H    0.193985   0.000000
    44  H    0.195232   0.000000
    45  Cl  -0.141552   0.000000
    46  Cl  -0.114480   0.000000
    47  C   -0.141833   0.000000
    48  H    0.183161   0.000000
    49  H    0.191418   0.000000
    50  Cl  -0.117467   0.000000
    51  Cl  -0.115029   0.000000
    52  C   -0.127210   0.000000
    53  H    0.190348   0.000000
    54  H    0.195691   0.000000
    55  Cl  -0.142051   0.000000
    56  Cl  -0.116520   0.000000
    57  C   -0.139170   0.000000
    58  H    0.198770   0.000000
    59  H    0.193936   0.000000
    60  Cl  -0.134590   0.000000
    61  Cl  -0.113535   0.000000
    62  C   -0.145687   0.000000
    63  H    0.191012   0.000000
    64  H    0.186478   0.000000
    65  Cl  -0.112295   0.000000
    66  Cl  -0.120128   0.000000
    67  C   -0.132958   0.000000
    68  H    0.184031   0.000000
    69  H    0.198435   0.000000
    70  Cl  -0.116767   0.000000
    71  Cl  -0.133623   0.000000
    72  C   -0.139012   0.000000
    73  H    0.191520   0.000000
    74  H    0.189556   0.000000
    75  Cl  -0.137072   0.000000
    76  Cl  -0.106352   0.000000
    77  C   -0.143269   0.000000
    78  H    0.192993   0.000000
    79  H    0.193947   0.000000
    80  Cl  -0.119360   0.000000
    81  Cl  -0.127409   0.000000
    82  C   -0.143561   0.000000
    83  H    0.189037   0.000000
    84  H    0.188367   0.000000
    85  Cl  -0.106652   0.000000
    86  Cl  -0.130884   0.000000
    87  C   -0.149305   0.000000
    88  H    0.186222   0.000000
    89  H    0.193262   0.000000
    90  Cl  -0.116902   0.000000
    91  Cl  -0.112138   0.000000
 Sum of Mulliken charges =  -0.00000   0.00000
 Mulliken charges and spin densities with hydrogens summed into heavy atoms:
               1          2
     1  C   -0.016087   0.000000
     2  C    0.011440   0.000000
     3  C    0.005675   0.000000
     4  C   -0.006973   0.000000
     6  C    0.031314   0.000000
     7  C   -0.001139   0.000000
     9  C    0.027881   0.000000
    11  C   -0.049165   0.000000
    17  C    0.234991   0.000000
    20  Cl  -0.095087   0.000000
    21  Cl  -0.140413   0.000000
    22  C    0.240082   0.000000
    25  Cl  -0.127758   0.000000
    26  Cl  -0.111699   0.000000
    27  C    0.251506   0.000000
    30  Cl  -0.126288   0.000000
    31  Cl  -0.125936   0.000000
    32  C    0.255114   0.000000
    35  Cl  -0.129749   0.000000
    36  Cl  -0.123587   0.000000
    37  C    0.241172   0.000000
    40  Cl  -0.100832   0.000000
    41  Cl  -0.141975   0.000000
    42  C    0.256138   0.000000
    45  Cl  -0.141552   0.000000
    46  Cl  -0.114480   0.000000
    47  C    0.232746   0.000000
    50  Cl  -0.117467   0.000000
    51  Cl  -0.115029   0.000000
    52  C    0.258829   0.000000
    55  Cl  -0.142051   0.000000
    56  Cl  -0.116520   0.000000
    57  C    0.253535   0.000000
    60  Cl  -0.134590   0.000000
    61  Cl  -0.113535   0.000000
    62  C    0.231803   0.000000
    65  Cl  -0.112295   0.000000
    66  Cl  -0.120128   0.000000
    67  C    0.249508   0.000000
    70  Cl  -0.116767   0.000000
    71  Cl  -0.133623   0.000000
    72  C    0.242064   0.000000
    75  Cl  -0.137072   0.000000
    76  Cl  -0.106352   0.000000
    77  C    0.243671   0.000000
    80  Cl  -0.119360   0.000000
    81  Cl  -0.127409   0.000000
    82  C    0.233843   0.000000
    85  Cl  -0.106652   0.000000
    86  Cl  -0.130884   0.000000
    87  C    0.230180   0.000000
    90  Cl  -0.116902   0.000000
    91  Cl  -0.112138   0.000000
 Charge=             -0.0000 electrons
 Dipole moment (field-independent basis, Debye):
    X=             -0.8818    Y=             -0.1716    Z=              0.4841  Tot=              1.0205
 N-N= 5.298182053375D+03 E-N=-9.741505499800D+03  KE=-6.384516567472D+02
 Calling FoFJK, ICntrl=      2127 FMM=F ISym2X=0 I1Cent= 0 IOpClX= 1 NMat=1 NMatS=1 NMatT=0.
 Cartesian Forces:  Max     0.060918511 RMS     0.008248401
 SvSCFP is copying densities from files   528 and   530 to   603.
 ONIOM: saving gridpoint  3
 ONIOM: restoring gridpoint 17
 ONIOM: restoring gridpoint  2 on chk file.
 ONIOM: generating point  2 -- high level on model system.
 Standard basis: 6-31G(d) (6D, 7F)
   136 basis functions,   256 primitive gaussians,   136 cartesian basis functions
    28 alpha electrons       28 beta electrons
       nuclear repulsion energy       319.2481935769 Hartrees.
 NAtoms=   91 NActive=   16 NUniq=   16 SFac= 1.00D+00 NAtFMM=   60 NAOKFM=F Big=F
 Integral buffers will be    131072 words long.
 Regular integral format.
 Two-electron integral symmetry is turned off.
 Nuclear repulsion after empirical dispersion term =      319.2205603775 Hartrees.
 One-electron integrals computed using PRISM.
 NBasis=   136 RedAO= T EigKep=  4.71D-04  NBF=   136
 NBsUse=   136 1.00D-06 EigRej= -1.00D+00 NBFU=   136
 Initial guess from the checkpoint file:  "a.chk"
 B after Tr=     0.000836    0.000221    0.001404
         Rot=    1.000000   -0.000168   -0.000247    0.000112 Ang=  -0.04 deg.
 Initial guess <Sx>= 0.0000 <Sy>= 0.0000 <Sz>= 0.0000 <S**2>=-0.0000 S=-0.0000
 Requested convergence on RMS density matrix=1.00D-08 within  64 cycles.
 Requested convergence on MAX density matrix=1.00D-06.
 Requested convergence on             energy=1.00D-06.
 No special actions if energy rises.
 SCF Done:  E(UB3LYP) =  -309.635873301     A.U. after    8 cycles
            NFock=  8  Conv=0.82D-08     -V/T= 2.0104
 <Sx>= 0.0000 <Sy>= 0.0000 <Sz>= 0.0000 <S**2>=-0.0000 S=-0.0000
 <L.S>=  0.00000000000    
 Annihilation of the first spin contaminant:
 S**2 before annihilation    -0.0000,   after     0.0000
 QCSCF skips out because SCF is already converged.
 DoSCS=F DFT=T ScalE2(SS,OS)=  1.000000  1.000000
 ExpMin= 1.61D-01 ExpMax= 3.05D+03 ExpMxC= 4.57D+02 IAcc=3 IRadAn=         5 AccDes= 0.00D+00
 HarFok:  IExCor=  205 AccDes= 0.00D+00 IRadAn=         5 IDoV=-2 UseB2=F ITyADJ=14
 ICtDFT= 12500011 ScaDFX=  1.000000  1.000000  1.000000  1.000000
 Range of M.O.s used for correlation:     9   136
 NBasis=   136 NAE=    28 NBE=    28 NFC=     8 NFV=     0
 NROrb=    128 NOA=    20 NOB=    20 NVA=   108 NVB=   108
 Keep R1, R2, and R3 ints in memory in canonical form, NReq=183338682.
    12 initial guesses have been made.
 Convergence on wavefunction:    0.000001000000000
 Iteration     1 Dimension    12 NMult     0 NNew     12
 CISAX will form    12 AO SS matrices at one time.
 New state      2 was old state      3
 New state      3 was old state      7
 Iteration     2 Dimension    18 NMult    12 NNew      6
 New state      2 was old state      3
 New state      3 was old state      2
 Iteration     3 Dimension    24 NMult    18 NNew      6
 Iteration     4 Dimension    30 NMult    24 NNew      6
 Iteration     5 Dimension    36 NMult    30 NNew      6
 Iteration     6 Dimension    42 NMult    36 NNew      6
 Iteration     7 Dimension    48 NMult    42 NNew      6
 Iteration     8 Dimension    54 NMult    48 NNew      6
 Iteration     9 Dimension    58 NMult    54 NNew      4
 ***********************************************************************
 Excited states from <AA,BB:AA,BB> singles matrix:
 ***********************************************************************
 
 ExtSpn:  IState=     1 X2= 1.373 Y2= 0.373 X2-Y2-1= 2.22D-16
          S2Grnd= -0.000 Ra=  0.500 Rb=  0.500 T=  1.000 S2Ext=  2.000 S2=  2.000
 ExtSpn:  IState=     2 X2= 1.027 Y2= 0.027 X2-Y2-1=-3.33D-16
          S2Grnd= -0.000 Ra=  0.500 Rb=  0.500 T=  1.000 S2Ext=  2.000 S2=  2.000
 ExtSpn:  IState=     3 X2= 1.007 Y2= 0.007 X2-Y2-1= 6.66D-16
          S2Grnd= -0.000 Ra=  0.500 Rb=  0.500 T=  1.000 S2Ext=  2.000 S2=  2.000
 Ground to excited state transition densities written to RWF  633
 Ground to excited state transition electric dipole moments (Au):
       state          X           Y           Z        Dip. S.      Osc.
         1        -0.0000     -0.0000      0.0000      0.0000      0.0000
         2        -0.0000      0.0000     -0.0000      0.0000      0.0000
         3         0.0000     -0.0000      0.0000      0.0000      0.0000
 Ground to excited state transition velocity dipole moments (Au):
       state          X           Y           Z        Dip. S.      Osc.
         1         0.0000      0.0000     -0.0000      0.0000      0.0000
         2         0.0000      0.0000     -0.0000      0.0000      0.0000
         3        -0.0000     -0.0000      0.0000      0.0000      0.0000
 Ground to excited state transition magnetic dipole moments (Au):
       state          X           Y           Z
         1         0.0000      0.0000      0.0000
         2         0.0000     -0.0000     -0.0000
         3        -0.0000     -0.0000     -0.0000
 Ground to excited state transition velocity quadrupole moments (Au):
       state          XX          YY          ZZ          XY          XZ          YZ
         1         0.0000      0.0000      0.0000      0.0000     -0.0000     -0.0000
         2         0.0000     -0.0000     -0.0000      0.0000     -0.0000      0.0000
         3        -0.0000      0.0000     -0.0000     -0.0000      0.0000      0.0000
 <0|del|b> * <b|rxdel|0> + <0|del|b> * <b|delr+rdel|0>
 Rotatory Strengths (R) in cgs (10**-40 erg-esu-cm/Gauss)
       state          XX          YY          ZZ    R(velocity)    E-M Angle
         1         0.0000     -0.0000      0.0000      0.0000       90.00
         2         0.0000      0.0000     -0.0000     -0.0000       90.00
         3         0.0000      0.0000      0.0000      0.0000       90.00
 1/2[<0|r|b>*<b|rxdel|0> + (<0|rxdel|b>*<b|r|0>)*]
 Rotatory Strengths (R) in cgs (10**-40 erg-esu-cm/Gauss)
       state          XX          YY          ZZ     R(length)
         1         0.0000      0.0000     -0.0000      0.0000
         2         0.0000      0.0000     -0.0000      0.0000
         3         0.0000     -0.0000      0.0000      0.0000
  1/2[<0|del|b>*<b|r|0> + (<0|r|b>*<b|del|0>)*] (Au)
       state          X           Y           Z        Dip. S.   Osc.(frdel)
         1        -0.0000     -0.0000     -0.0000      0.0000      0.0000
         2        -0.0000      0.0000      0.0000      0.0000      0.0000
         3        -0.0000      0.0000      0.0000      0.0000      0.0000

 Excitation energies and oscillator strengths:
 
 Excited state symmetry could not be determined.
 Excited State   1:  3.000-?Sym    0.8632 eV 1436.37 nm  f=0.0000  <S**2>=2.000
     26A -> 29A       -0.14515
     26A -> 31A       -0.12690
     28A -> 29A        0.78349
     28A -> 31A        0.12759
     26B -> 29B        0.14515
     26B -> 31B        0.12690
     28B -> 29B       -0.78349
     28B -> 31B       -0.12759
     28A <- 29A        0.38785
     28B <- 29B       -0.38785
 This state for optimization and/or second-order correction.
 Total Energy, E(TD-HF/TD-DFT) =  -309.604152203    
 Copying the excited state density for this state as the 1-particle RhoCI density.
 
 Excited state symmetry could not be determined.
 Excited State   2:  3.000-?Sym    3.7360 eV  331.86 nm  f=0.0000  <S**2>=2.000
     26A -> 29A       -0.46815
     27A -> 29A        0.26776
     27A -> 30A       -0.28114
     28A -> 29A       -0.10153
     28A -> 31A        0.32344
     26B -> 29B        0.46815
     27B -> 29B       -0.26776
     27B -> 30B        0.28114
     28B -> 29B        0.10153
     28B -> 31B       -0.32344
 
 Excited state symmetry could not be determined.
 Excited State   3:  3.000-?Sym    3.8674 eV  320.59 nm  f=0.0000  <S**2>=2.000
     26A -> 29A        0.21047
     27A -> 29A        0.55924
     27A -> 30A        0.10108
     28A -> 30A        0.31691
     28A -> 31A       -0.13308
     26B -> 29B       -0.21047
     27B -> 29B       -0.55924
     27B -> 30B       -0.10108
     28B -> 30B       -0.31691
     28B -> 31B        0.13308
 SavETr:  write IOETrn=   770 NScale= 10 NData=  16 NLR=1 NState=    3 LETran=      64.
          IDoAtm=11111111111111110000000000000000000000000000000000
          IDoAtm=00000000000000000000000000000000000000000
          Differentiating once with respect to electric field.
                with respect to dipole field.
          Differentiating once with respect to nuclear coordinates.
 Keep R1 and R2 ints in memory in canonical form, NReq=114009024.
          There are     1 degrees of freedom in the 1st order CPHF.  IDoFFX=0 NUNeed=     1.
 LinEq1:  Iter=  0 NonCon=     1 RMS=2.36D-03 Max=4.68D-02 NDo=     1
 AX will form     1 AO Fock derivatives at one time.
 LinEq1:  Iter=  1 NonCon=     1 RMS=2.99D-03 Max=1.32D-01 NDo=     1
 LinEq1:  Iter=  2 NonCon=     1 RMS=1.12D-03 Max=1.45D-02 NDo=     1
 LinEq1:  Iter=  3 NonCon=     1 RMS=5.64D-04 Max=1.15D-02 NDo=     1
 LinEq1:  Iter=  4 NonCon=     1 RMS=3.15D-04 Max=8.69D-03 NDo=     1
 LinEq1:  Iter=  5 NonCon=     1 RMS=2.08D-04 Max=4.43D-03 NDo=     1
 LinEq1:  Iter=  6 NonCon=     1 RMS=9.93D-05 Max=1.39D-03 NDo=     1
 LinEq1:  Iter=  7 NonCon=     1 RMS=4.94D-05 Max=1.16D-03 NDo=     1
 LinEq1:  Iter=  8 NonCon=     1 RMS=3.15D-05 Max=6.66D-04 NDo=     1
 LinEq1:  Iter=  9 NonCon=     1 RMS=1.97D-05 Max=3.10D-04 NDo=     1
 LinEq1:  Iter= 10 NonCon=     1 RMS=1.02D-05 Max=1.60D-04 NDo=     1
 LinEq1:  Iter= 11 NonCon=     1 RMS=5.00D-06 Max=6.00D-05 NDo=     1
 LinEq1:  Iter= 12 NonCon=     1 RMS=1.55D-06 Max=1.81D-05 NDo=     1
 LinEq1:  Iter= 13 NonCon=     1 RMS=5.90D-07 Max=1.24D-05 NDo=     1
 LinEq1:  Iter= 14 NonCon=     1 RMS=3.79D-07 Max=4.94D-06 NDo=     1
 LinEq1:  Iter= 15 NonCon=     1 RMS=9.25D-08 Max=8.91D-07 NDo=     1
 LinEq1:  Iter= 16 NonCon=     1 RMS=1.92D-08 Max=2.14D-07 NDo=     1
 LinEq1:  Iter= 17 NonCon=     1 RMS=5.75D-09 Max=8.15D-08 NDo=     1
 LinEq1:  Iter= 18 NonCon=     1 RMS=3.58D-09 Max=6.10D-08 NDo=     1
 LinEq1:  Iter= 19 NonCon=     1 RMS=9.07D-10 Max=1.44D-08 NDo=     1
 LinEq1:  Iter= 20 NonCon=     1 RMS=1.75D-10 Max=1.52D-09 NDo=     1
 LinEq1:  Iter= 21 NonCon=     0 RMS=3.44D-11 Max=2.33D-10 NDo=     1
 Linear equations converged to 1.000D-10 1.000D-09 after    21 iterations.
 End of Minotr F.D. properties file   721 does not exist.
 End of Minotr F.D. properties file   722 does not exist.
 End of Minotr F.D. properties file   788 does not exist.

 **********************************************************************

            Population analysis using the SCF Density.

 **********************************************************************

 Alpha  occ. eigenvalues --  -10.20156 -10.19609 -10.19105 -10.19026 -10.18959
 Alpha  occ. eigenvalues --  -10.18880 -10.18833 -10.18716  -0.85533  -0.78173
 Alpha  occ. eigenvalues --   -0.74542  -0.70844  -0.62594  -0.60004  -0.55897
 Alpha  occ. eigenvalues --   -0.50841  -0.46684  -0.45151  -0.43035  -0.41907
 Alpha  occ. eigenvalues --   -0.40236  -0.38964  -0.36594  -0.34961  -0.33523
 Alpha  occ. eigenvalues --   -0.27999  -0.25148  -0.19767
 Alpha virt. eigenvalues --   -0.05896   0.00382   0.04223   0.09762   0.12111
 Alpha virt. eigenvalues --    0.13445   0.16003   0.16284   0.17316   0.18407
 Alpha virt. eigenvalues --    0.19899   0.21605   0.26937   0.28299   0.30694
 Alpha virt. eigenvalues --    0.33692   0.36459   0.37664   0.46149   0.52007
 Alpha virt. eigenvalues --    0.52825   0.54314   0.55044   0.56552   0.57428
 Alpha virt. eigenvalues --    0.58824   0.59117   0.59713   0.61233   0.62058
 Alpha virt. eigenvalues --    0.62305   0.63638   0.65048   0.66042   0.69045
 Alpha virt. eigenvalues --    0.71951   0.77275   0.82714   0.83662   0.83895
 Alpha virt. eigenvalues --    0.84977   0.85442   0.89007   0.90663   0.92714
 Alpha virt. eigenvalues --    0.93557   0.93960   0.95393   0.99393   1.01410
 Alpha virt. eigenvalues --    1.04855   1.08772   1.14627   1.16739   1.18350
 Alpha virt. eigenvalues --    1.25898   1.29446   1.33315   1.39492   1.43859
 Alpha virt. eigenvalues --    1.44869   1.45634   1.48509   1.49591   1.51362
 Alpha virt. eigenvalues --    1.65428   1.71449   1.77788   1.80316   1.84827
 Alpha virt. eigenvalues --    1.88541   1.89774   1.91653   1.95356   1.97308
 Alpha virt. eigenvalues --    1.98568   2.05048   2.10777   2.11470   2.14776
 Alpha virt. eigenvalues --    2.15049   2.18014   2.22588   2.27039   2.32245
 Alpha virt. eigenvalues --    2.33431   2.35505   2.48136   2.51376   2.57791
 Alpha virt. eigenvalues --    2.59621   2.62538   2.66059   2.74146   2.75520
 Alpha virt. eigenvalues --    2.77020   2.86042   2.92065   3.13685   3.41759
 Alpha virt. eigenvalues --    4.07519   4.09672   4.12213   4.14051   4.25017
 Alpha virt. eigenvalues --    4.32836   4.42476   4.71125
  Beta  occ. eigenvalues --  -10.20156 -10.19609 -10.19105 -10.19026 -10.18959
  Beta  occ. eigenvalues --  -10.18880 -10.18833 -10.18716  -0.85533  -0.78173
  Beta  occ. eigenvalues --   -0.74542  -0.70844  -0.62594  -0.60004  -0.55897
  Beta  occ. eigenvalues --   -0.50841  -0.46684  -0.45151  -0.43035  -0.41907
  Beta  occ. eigenvalues --   -0.40236  -0.38964  -0.36594  -0.34961  -0.33523
  Beta  occ. eigenvalues --   -0.27999  -0.25148  -0.19767
  Beta virt. eigenvalues --   -0.05896   0.00382   0.04223   0.09762   0.12111
  Beta virt. eigenvalues --    0.13445   0.16003   0.16284   0.17316   0.18407
  Beta virt. eigenvalues --    0.19899   0.21605   0.26937   0.28299   0.30694
  Beta virt. eigenvalues --    0.33692   0.36459   0.37664   0.46149   0.52007
  Beta virt. eigenvalues --    0.52825   0.54314   0.55044   0.56552   0.57428
  Beta virt. eigenvalues --    0.58824   0.59117   0.59713   0.61233   0.62058
  Beta virt. eigenvalues --    0.62305   0.63638   0.65048   0.66042   0.69045
  Beta virt. eigenvalues --    0.71951   0.77275   0.82714   0.83662   0.83895
  Beta virt. eigenvalues --    0.84977   0.85442   0.89007   0.90663   0.92714
  Beta virt. eigenvalues --    0.93557   0.93960   0.95393   0.99393   1.01410
  Beta virt. eigenvalues --    1.04855   1.08772   1.14627   1.16739   1.18350
  Beta virt. eigenvalues --    1.25898   1.29446   1.33315   1.39492   1.43859
  Beta virt. eigenvalues --    1.44869   1.45634   1.48509   1.49591   1.51362
  Beta virt. eigenvalues --    1.65428   1.71449   1.77788   1.80316   1.84827
  Beta virt. eigenvalues --    1.88541   1.89774   1.91653   1.95356   1.97308
  Beta virt. eigenvalues --    1.98568   2.05048   2.10777   2.11470   2.14776
  Beta virt. eigenvalues --    2.15049   2.18014   2.22588   2.27039   2.32245
  Beta virt. eigenvalues --    2.33431   2.35505   2.48136   2.51376   2.57791
  Beta virt. eigenvalues --    2.59621   2.62538   2.66059   2.74146   2.75520
  Beta virt. eigenvalues --    2.77020   2.86042   2.92065   3.13685   3.41759
  Beta virt. eigenvalues --    4.07519   4.09672   4.12213   4.14051   4.25017
  Beta virt. eigenvalues --    4.32836   4.42476   4.71125
          Condensed to atoms (all electrons):
          Atomic-Atomic Spin Densities.
 Mulliken charges and spin densities:
               1          2
     1  C    0.184984   0.000000
     2  C   -0.188279  -0.000000
     3  C   -0.174984   0.000000
     4  C   -0.127578   0.000000
     5  H    0.127138  -0.000000
     6  C   -0.158079  -0.000000
     7  C   -0.127275  -0.000000
     8  H    0.129289   0.000000
     9  C   -0.130580  -0.000000
    10  H    0.130218   0.000000
    11  C   -0.371259  -0.000000
    12  H    0.138344   0.000000
    13  H    0.129645   0.000000
    14  H    0.130421   0.000000
    15  H    0.153421   0.000000
    16  H    0.154574  -0.000000
    17  C    0.000000   0.000000
    18  H    0.000000   0.000000
    19  H    0.000000   0.000000
    20  Cl   0.000000   0.000000
    21  Cl   0.000000   0.000000
    22  C    0.000000   0.000000
    23  H    0.000000   0.000000
    24  H    0.000000   0.000000
    25  Cl   0.000000   0.000000
    26  Cl   0.000000   0.000000
    27  C    0.000000   0.000000
    28  H    0.000000   0.000000
    29  H    0.000000   0.000000
    30  Cl   0.000000   0.000000
    31  Cl   0.000000   0.000000
    32  C    0.000000   0.000000
    33  H    0.000000   0.000000
    34  H    0.000000   0.000000
    35  Cl   0.000000   0.000000
    36  Cl   0.000000   0.000000
    37  C    0.000000   0.000000
    38  H    0.000000   0.000000
    39  H    0.000000   0.000000
    40  Cl   0.000000   0.000000
    41  Cl   0.000000   0.000000
    42  C    0.000000   0.000000
    43  H    0.000000   0.000000
    44  H    0.000000   0.000000
    45  Cl   0.000000   0.000000
    46  Cl   0.000000   0.000000
    47  C    0.000000   0.000000
    48  H    0.000000   0.000000
    49  H    0.000000   0.000000
    50  Cl   0.000000   0.000000
    51  Cl   0.000000   0.000000
    52  C    0.000000   0.000000
    53  H    0.000000   0.000000
    54  H    0.000000   0.000000
    55  Cl   0.000000   0.000000
    56  Cl   0.000000   0.000000
    57  C    0.000000   0.000000
    58  H    0.000000   0.000000
    59  H    0.000000   0.000000
    60  Cl   0.000000   0.000000
    61  Cl   0.000000   0.000000
    62  C    0.000000   0.000000
    63  H    0.000000   0.000000
    64  H    0.000000   0.000000
    65  Cl   0.000000   0.000000
    66  Cl   0.000000   0.000000
    67  C    0.000000   0.000000
    68  H    0.000000   0.000000
    69  H    0.000000   0.000000
    70  Cl   0.000000   0.000000
    71  Cl   0.000000   0.000000
    72  C    0.000000   0.000000
    73  H    0.000000   0.000000
    74  H    0.000000   0.000000
    75  Cl   0.000000   0.000000
    76  Cl   0.000000   0.000000
    77  C    0.000000   0.000000
    78  H    0.000000   0.000000
    79  H    0.000000   0.000000
    80  Cl   0.000000   0.000000
    81  Cl   0.000000   0.000000
    82  C    0.000000   0.000000
    83  H    0.000000   0.000000
    84  H    0.000000   0.000000
    85  Cl   0.000000   0.000000
    86  Cl   0.000000   0.000000
    87  C    0.000000   0.000000
    88  H    0.000000   0.000000
    89  H    0.000000   0.000000
    90  Cl   0.000000   0.000000
    91  Cl   0.000000   0.000000
 Sum of Mulliken charges =  -0.00000   0.00000
 Mulliken charges and spin densities with hydrogens summed into heavy atoms:
               1          2
     1  C    0.184984   0.000000
     2  C   -0.061142  -0.000000
     3  C   -0.045695   0.000000
     4  C    0.002640   0.000000
     6  C   -0.019735  -0.000000
     7  C    0.002370  -0.000000
     9  C   -0.000159  -0.000000
    11  C   -0.063264  -0.000000
    17  C    0.000000   0.000000
    20  Cl   0.000000   0.000000
    21  Cl   0.000000   0.000000
    22  C    0.000000   0.000000
    25  Cl   0.000000   0.000000
    26  Cl   0.000000   0.000000
    27  C    0.000000   0.000000
    30  Cl   0.000000   0.000000
    31  Cl   0.000000   0.000000
    32  C    0.000000   0.000000
    35  Cl   0.000000   0.000000
    36  Cl   0.000000   0.000000
    37  C    0.000000   0.000000
    40  Cl   0.000000   0.000000
    41  Cl   0.000000   0.000000
    42  C    0.000000   0.000000
    45  Cl   0.000000   0.000000
    46  Cl   0.000000   0.000000
    47  C    0.000000   0.000000
    50  Cl   0.000000   0.000000
    51  Cl   0.000000   0.000000
    52  C    0.000000   0.000000
    55  Cl   0.000000   0.000000
    56  Cl   0.000000   0.000000
    57  C    0.000000   0.000000
    60  Cl   0.000000   0.000000
    61  Cl   0.000000   0.000000
    62  C    0.000000   0.000000
    65  Cl   0.000000   0.000000
    66  Cl   0.000000   0.000000
    67  C    0.000000   0.000000
    70  Cl   0.000000   0.000000
    71  Cl   0.000000   0.000000
    72  C    0.000000   0.000000
    75  Cl   0.000000   0.000000
    76  Cl   0.000000   0.000000
    77  C    0.000000   0.000000
    80  Cl   0.000000   0.000000
    81  Cl   0.000000   0.000000
    82  C    0.000000   0.000000
    85  Cl   0.000000   0.000000
    86  Cl   0.000000   0.000000
    87  C    0.000000   0.000000
    90  Cl   0.000000   0.000000
    91  Cl   0.000000   0.000000
 Electronic spatial extent (au):  <R**2>=            993.9899
 Charge=              0.0000 electrons
 Dipole moment (field-independent basis, Debye):
    X=             -0.2934    Y=             -0.1011    Z=              0.0078  Tot=              0.3105
 Quadrupole moment (field-independent basis, Debye-Ang):
   XX=            -43.1913   YY=            -44.1720   ZZ=            -48.8128
   XY=              0.1303   XZ=              0.0800   YZ=             -3.6417
 Traceless Quadrupole moment (field-independent basis, Debye-Ang):
   XX=              2.2007   YY=              1.2200   ZZ=             -3.4207
   XY=              0.1303   XZ=              0.0800   YZ=             -3.6417
 Octapole moment (field-independent basis, Debye-Ang**2):
  XXX=             -6.2223  YYY=              6.8831  ZZZ=             29.9223  XYY=              0.7344
  XXY=              5.2730  XXZ=             13.0128  XZZ=              1.8010  YZZ=              5.7033
  YYZ=             10.9762  XYZ=              0.2419
 Hexadecapole moment (field-independent basis, Debye-Ang**3):
 XXXX=           -856.3326 YYYY=           -304.6178 ZZZZ=           -155.1486 XXXY=            -48.1721
 XXXZ=             76.0735 YYYX=            -63.8242 YYYZ=             58.2749 ZZZX=             66.6033
 ZZZY=             67.3603 XXYY=           -187.5994 XXZZ=           -186.2045 YYZZ=            -73.8738
 XXYZ=             10.5655 YYXZ=             19.8234 ZZXY=            -17.1588
 N-N= 3.192205603775D+02 E-N=-1.354698185697D+03  KE= 3.064477862899D+02
                          Isotropic Fermi Contact Couplings
        Atom                 a.u.       MegaHertz       Gauss      10(-4) cm-1
     1  C(13)             -0.00000      -0.00000      -0.00000      -0.00000
     2  C(13)              0.00000       0.00000       0.00000       0.00000
     3  C(13)             -0.00000      -0.00000      -0.00000      -0.00000
     4  C(13)             -0.00000      -0.00000      -0.00000      -0.00000
     5  H(1)               0.00000       0.00000       0.00000       0.00000
     6  C(13)             -0.00000      -0.00000      -0.00000      -0.00000
     7  C(13)              0.00000       0.00000       0.00000       0.00000
     8  H(1)               0.00000       0.00000       0.00000       0.00000
     9  C(13)             -0.00000      -0.00000      -0.00000      -0.00000
    10  H(1)               0.00000       0.00000       0.00000       0.00000
    11  C(13)              0.00000       0.00000       0.00000       0.00000
    12  H(1)               0.00000       0.00000       0.00000       0.00000
    13  H(1)               0.00000       0.00000       0.00000       0.00000
    14  H(1)               0.00000       0.00000       0.00000       0.00000
    15  H(1)              -0.00000      -0.00000      -0.00000      -0.00000
    16  H(1)              -0.00000      -0.00000      -0.00000      -0.00000
 --------------------------------------------------------
       Center         ----  Spin Dipole Couplings  ----
                      3XX-RR        3YY-RR        3ZZ-RR
 --------------------------------------------------------
     1   Atom        0.000000      0.000000      0.000000
     2   Atom        0.000000      0.000000      0.000000
     3   Atom        0.000000      0.000000      0.000000
     4   Atom        0.000000      0.000000      0.000000
     5   Atom        0.000000      0.000000      0.000000
     6   Atom        0.000000      0.000000      0.000000
     7   Atom        0.000000      0.000000      0.000000
     8   Atom        0.000000      0.000000      0.000000
     9   Atom        0.000000      0.000000      0.000000
    10   Atom        0.000000      0.000000      0.000000
    11   Atom        0.000000      0.000000      0.000000
    12   Atom        0.000000      0.000000      0.000000
    13   Atom        0.000000      0.000000      0.000000
    14   Atom        0.000000      0.000000      0.000000
    15   Atom        0.000000      0.000000      0.000000
    16   Atom        0.000000      0.000000      0.000000
 --------------------------------------------------------
                        XY            XZ            YZ
 --------------------------------------------------------
     1   Atom        0.000000      0.000000      0.000000
     2   Atom        0.000000      0.000000      0.000000
     3   Atom        0.000000      0.000000      0.000000
     4   Atom        0.000000      0.000000      0.000000
     5   Atom        0.000000      0.000000      0.000000
     6   Atom        0.000000      0.000000      0.000000
     7   Atom        0.000000      0.000000      0.000000
     8   Atom        0.000000      0.000000      0.000000
     9   Atom        0.000000      0.000000      0.000000
    10   Atom        0.000000      0.000000      0.000000
    11   Atom        0.000000      0.000000      0.000000
    12   Atom        0.000000      0.000000      0.000000
    13   Atom        0.000000      0.000000      0.000000
    14   Atom        0.000000      0.000000      0.000000
    15   Atom        0.000000      0.000000      0.000000
    16   Atom        0.000000      0.000000      0.000000
 --------------------------------------------------------


 ---------------------------------------------------------------------------------
              Anisotropic Spin Dipole Couplings in Principal Axis System
 ---------------------------------------------------------------------------------

       Atom             a.u.   MegaHertz   Gauss  10(-4) cm-1        Axes

              Baa     0.0000     0.000     0.000     0.000  1.0000  0.0000  0.0000
     1 C(13)  Bbb     0.0000     0.000     0.000     0.000 -0.0000  1.0000  0.0000
              Bcc     0.0000     0.000     0.000     0.000  0.0000  0.0000  1.0000
 
              Baa     0.0000     0.000     0.000     0.000  1.0000  0.0000  0.0000
     2 C(13)  Bbb     0.0000     0.000     0.000     0.000 -0.0000  1.0000  0.0000
              Bcc     0.0000     0.000     0.000     0.000  0.0000  0.0000  1.0000
 
              Baa     0.0000     0.000     0.000     0.000  1.0000  0.0000  0.0000
     3 C(13)  Bbb     0.0000     0.000     0.000     0.000 -0.0000  1.0000  0.0000
              Bcc     0.0000     0.000     0.000     0.000  0.0000  0.0000  1.0000
 
              Baa     0.0000     0.000     0.000     0.000  1.0000  0.0000  0.0000
     4 C(13)  Bbb     0.0000     0.000     0.000     0.000 -0.0000  1.0000  0.0000
              Bcc     0.0000     0.000     0.000     0.000  0.0000  0.0000  1.0000
 
              Baa     0.0000     0.000     0.000     0.000  1.0000  0.0000  0.0000
     5 H(1)   Bbb     0.0000     0.000     0.000     0.000 -0.0000  1.0000  0.0000
              Bcc     0.0000     0.000     0.000     0.000  0.0000  0.0000  1.0000
 
              Baa     0.0000     0.000     0.000     0.000  1.0000  0.0000  0.0000
     6 C(13)  Bbb     0.0000     0.000     0.000     0.000 -0.0000  1.0000  0.0000
              Bcc     0.0000     0.000     0.000     0.000  0.0000  0.0000  1.0000
 
              Baa     0.0000     0.000     0.000     0.000  1.0000  0.0000  0.0000
     7 C(13)  Bbb     0.0000     0.000     0.000     0.000 -0.0000  1.0000  0.0000
              Bcc     0.0000     0.000     0.000     0.000  0.0000  0.0000  1.0000
 
              Baa     0.0000     0.000     0.000     0.000  1.0000  0.0000  0.0000
     8 H(1)   Bbb     0.0000     0.000     0.000     0.000 -0.0000  1.0000  0.0000
              Bcc     0.0000     0.000     0.000     0.000  0.0000  0.0000  1.0000
 
              Baa     0.0000     0.000     0.000     0.000  1.0000  0.0000  0.0000
     9 C(13)  Bbb     0.0000     0.000     0.000     0.000 -0.0000  1.0000  0.0000
              Bcc     0.0000     0.000     0.000     0.000  0.0000  0.0000  1.0000
 
              Baa     0.0000     0.000     0.000     0.000  1.0000  0.0000  0.0000
    10 H(1)   Bbb     0.0000     0.000     0.000     0.000 -0.0000  1.0000  0.0000
              Bcc     0.0000     0.000     0.000     0.000  0.0000  0.0000  1.0000
 
              Baa     0.0000     0.000     0.000     0.000  1.0000  0.0000  0.0000
    11 C(13)  Bbb     0.0000     0.000     0.000     0.000 -0.0000  1.0000  0.0000
              Bcc     0.0000     0.000     0.000     0.000  0.0000  0.0000  1.0000
 
              Baa     0.0000     0.000     0.000     0.000  1.0000  0.0000  0.0000
    12 H(1)   Bbb     0.0000     0.000     0.000     0.000 -0.0000  1.0000  0.0000
              Bcc     0.0000     0.000     0.000     0.000  0.0000  0.0000  1.0000
 
              Baa     0.0000     0.000     0.000     0.000  1.0000  0.0000  0.0000
    13 H(1)   Bbb     0.0000     0.000     0.000     0.000 -0.0000  1.0000  0.0000
              Bcc     0.0000     0.000     0.000     0.000  0.0000  0.0000  1.0000
 
              Baa     0.0000     0.000     0.000     0.000  1.0000  0.0000  0.0000
    14 H(1)   Bbb     0.0000     0.000     0.000     0.000 -0.0000  1.0000  0.0000
              Bcc     0.0000     0.000     0.000     0.000  0.0000  0.0000  1.0000
 
              Baa     0.0000     0.000     0.000     0.000  1.0000  0.0000  0.0000
    15 H(1)   Bbb     0.0000     0.000     0.000     0.000 -0.0000  1.0000  0.0000
              Bcc     0.0000     0.000     0.000     0.000  0.0000  0.0000  1.0000
 
              Baa     0.0000     0.000     0.000     0.000  1.0000  0.0000  0.0000
    16 H(1)   Bbb     0.0000     0.000     0.000     0.000 -0.0000  1.0000  0.0000
              Bcc     0.0000     0.000     0.000     0.000  0.0000  0.0000  1.0000
 

 ---------------------------------------------------------------------------------

 Calling FoFJK, ICntrl=  10005127 FMM=F ISym2X=0 I1Cent= 0 IOpClX= 1 NMat=1 NMatS=1 NMatT=0.
 Cartesian Forces:  Max     0.082853591 RMS     0.011087954
 SvSCFP is copying densities from files   528 and   530 to   603.
 ONIOM: saving gridpoint  2
 ONIOM: restoring gridpoint 17
 ONIOM: restoring gridpoint  1 on chk file.
 ONIOM: generating point  1 -- low level on model system.
 Standard basis: VSTO-6G (5D, 7F)
    40 basis functions,   240 primitive gaussians,    40 cartesian basis functions
    20 alpha electrons       20 beta electrons
       nuclear repulsion energy       184.5867495518 Hartrees.
 Integral buffers will be    131072 words long.
 Regular integral format.
 Two-electron integral symmetry is turned off.
 Do NDO integrals.
 One-electron integrals computed using PRISM.
 NBasis=    40 RedAO= F EigKep=  0.00D+00  NBF=    40
 NBsUse=    40 1.00D-04 EigRej=  0.00D+00 NBFU=    40
 Initial guess from the checkpoint file:  "a.chk"
 B after Tr=     0.000836    0.000221    0.001404
         Rot=    1.000000   -0.000168   -0.000247    0.000112 Ang=  -0.04 deg.
 Initial guess <Sx>= 0.0000 <Sy>= 0.0000 <Sz>= 0.0000 <S**2>= 0.8624 S= 0.5547
 Keep J ints in memory in canonical form, NReq=867663.
 Overlap will be assumed to be unity.
 Requested convergence on RMS density matrix=1.00D-08 within  64 cycles.
 Requested convergence on MAX density matrix=1.00D-06.
 Requested convergence on             energy=1.00D-06.
 No special actions if energy rises.
 SCF Done:  E(UPM6) =  0.860946776630E-01 A.U. after   16 cycles
            NFock= 15  Conv=0.44D-08     -V/T= 1.0014
 <Sx>= 0.0000 <Sy>= 0.0000 <Sz>= 0.0000 <S**2>= 0.8617 S= 0.5544
 <L.S>=  0.00000000000    
 Annihilation of the first spin contaminant:
 S**2 before annihilation     0.8617,   after     1.0975
 QCSCF skips out because SCF is already converged.

 **********************************************************************

            Population analysis using the SCF Density.

 **********************************************************************

 Alpha  occ. eigenvalues --   -1.09824  -1.00266  -0.95888  -0.90639  -0.81244
 Alpha  occ. eigenvalues --   -0.77861  -0.71465  -0.63777  -0.58628  -0.56710
 Alpha  occ. eigenvalues --   -0.54011  -0.52323  -0.50947  -0.49757  -0.48168
 Alpha  occ. eigenvalues --   -0.44833  -0.43238  -0.39517  -0.36782  -0.32089
 Alpha virt. eigenvalues --    0.00613   0.01792   0.04404   0.10004   0.15610
 Alpha virt. eigenvalues --    0.15618   0.17731   0.18321   0.18556   0.19295
 Alpha virt. eigenvalues --    0.19862   0.20424   0.21113   0.21563   0.22346
 Alpha virt. eigenvalues --    0.22656   0.22808   0.22942   0.23451   0.23469
  Beta  occ. eigenvalues --   -1.09766  -1.00192  -0.95840  -0.90778  -0.81278
  Beta  occ. eigenvalues --   -0.77871  -0.71553  -0.63603  -0.58547  -0.56774
  Beta  occ. eigenvalues --   -0.54128  -0.52281  -0.50961  -0.49549  -0.48030
  Beta  occ. eigenvalues --   -0.44717  -0.43246  -0.38682  -0.36156  -0.34114
  Beta virt. eigenvalues --   -0.01170   0.02371   0.05183   0.10522   0.15554
  Beta virt. eigenvalues --    0.15782   0.17714   0.18397   0.18618   0.19297
  Beta virt. eigenvalues --    0.19909   0.20610   0.21057   0.21510   0.22285
  Beta virt. eigenvalues --    0.22405   0.22747   0.23011   0.23421   0.23518
          Condensed to atoms (all electrons):
          Atomic-Atomic Spin Densities.
 Mulliken charges and spin densities:
               1          2
     1  C    0.029272  -0.392417
     2  C   -0.171776   0.379782
     3  C   -0.158554   0.387567
     4  C   -0.135341  -0.319782
     5  H    0.147431  -0.013294
     6  C   -0.148248   0.705846
     7  C   -0.141603  -0.321115
     8  H    0.150988  -0.013305
     9  C   -0.146840   0.379551
    10  H    0.144606   0.011153
    11  C   -0.311278  -0.840109
    12  H    0.149782  -0.034408
    13  H    0.144386   0.011227
    14  H    0.144971  -0.013069
    15  H    0.151429   0.035661
    16  H    0.150776   0.036712
    17  C    0.000000   0.000000
    18  H    0.000000   0.000000
    19  H    0.000000   0.000000
    20  Cl   0.000000   0.000000
    21  Cl   0.000000   0.000000
    22  C    0.000000   0.000000
    23  H    0.000000   0.000000
    24  H    0.000000   0.000000
    25  Cl   0.000000   0.000000
    26  Cl   0.000000   0.000000
    27  C    0.000000   0.000000
    28  H    0.000000   0.000000
    29  H    0.000000   0.000000
    30  Cl   0.000000   0.000000
    31  Cl   0.000000   0.000000
    32  C    0.000000   0.000000
    33  H    0.000000   0.000000
    34  H    0.000000   0.000000
    35  Cl   0.000000   0.000000
    36  Cl   0.000000   0.000000
    37  C    0.000000   0.000000
    38  H    0.000000   0.000000
    39  H    0.000000   0.000000
    40  Cl   0.000000   0.000000
    41  Cl   0.000000   0.000000
    42  C    0.000000   0.000000
    43  H    0.000000   0.000000
    44  H    0.000000   0.000000
    45  Cl   0.000000   0.000000
    46  Cl   0.000000   0.000000
    47  C    0.000000   0.000000
    48  H    0.000000   0.000000
    49  H    0.000000   0.000000
    50  Cl   0.000000   0.000000
    51  Cl   0.000000   0.000000
    52  C    0.000000   0.000000
    53  H    0.000000   0.000000
    54  H    0.000000   0.000000
    55  Cl   0.000000   0.000000
    56  Cl   0.000000   0.000000
    57  C    0.000000   0.000000
    58  H    0.000000   0.000000
    59  H    0.000000   0.000000
    60  Cl   0.000000   0.000000
    61  Cl   0.000000   0.000000
    62  C    0.000000   0.000000
    63  H    0.000000   0.000000
    64  H    0.000000   0.000000
    65  Cl   0.000000   0.000000
    66  Cl   0.000000   0.000000
    67  C    0.000000   0.000000
    68  H    0.000000   0.000000
    69  H    0.000000   0.000000
    70  Cl   0.000000   0.000000
    71  Cl   0.000000   0.000000
    72  C    0.000000   0.000000
    73  H    0.000000   0.000000
    74  H    0.000000   0.000000
    75  Cl   0.000000   0.000000
    76  Cl   0.000000   0.000000
    77  C    0.000000   0.000000
    78  H    0.000000   0.000000
    79  H    0.000000   0.000000
    80  Cl   0.000000   0.000000
    81  Cl   0.000000   0.000000
    82  C    0.000000   0.000000
    83  H    0.000000   0.000000
    84  H    0.000000   0.000000
    85  Cl   0.000000   0.000000
    86  Cl   0.000000   0.000000
    87  C    0.000000   0.000000
    88  H    0.000000   0.000000
    89  H    0.000000   0.000000
    90  Cl   0.000000   0.000000
    91  Cl   0.000000   0.000000
 Sum of Mulliken charges =  -0.00000   0.00000
 Mulliken charges and spin densities with hydrogens summed into heavy atoms:
               1          2
     1  C    0.029272  -0.392417
     2  C   -0.024345   0.366488
     3  C   -0.007566   0.374262
     4  C    0.009264  -0.308629
     6  C    0.001533   0.671438
     7  C    0.002783  -0.309888
     9  C   -0.001869   0.366482
    11  C   -0.009073  -0.767736
    17  C    0.000000   0.000000
    20  Cl   0.000000   0.000000
    21  Cl   0.000000   0.000000
    22  C    0.000000   0.000000
    25  Cl   0.000000   0.000000
    26  Cl   0.000000   0.000000
    27  C    0.000000   0.000000
    30  Cl   0.000000   0.000000
    31  Cl   0.000000   0.000000
    32  C    0.000000   0.000000
    35  Cl   0.000000   0.000000
    36  Cl   0.000000   0.000000
    37  C    0.000000   0.000000
    40  Cl   0.000000   0.000000
    41  Cl   0.000000   0.000000
    42  C    0.000000   0.000000
    45  Cl   0.000000   0.000000
    46  Cl   0.000000   0.000000
    47  C    0.000000   0.000000
    50  Cl   0.000000   0.000000
    51  Cl   0.000000   0.000000
    52  C    0.000000   0.000000
    55  Cl   0.000000   0.000000
    56  Cl   0.000000   0.000000
    57  C    0.000000   0.000000
    60  Cl   0.000000   0.000000
    61  Cl   0.000000   0.000000
    62  C    0.000000   0.000000
    65  Cl   0.000000   0.000000
    66  Cl   0.000000   0.000000
    67  C    0.000000   0.000000
    70  Cl   0.000000   0.000000
    71  Cl   0.000000   0.000000
    72  C    0.000000   0.000000
    75  Cl   0.000000   0.000000
    76  Cl   0.000000   0.000000
    77  C    0.000000   0.000000
    80  Cl   0.000000   0.000000
    81  Cl   0.000000   0.000000
    82  C    0.000000   0.000000
    85  Cl   0.000000   0.000000
    86  Cl   0.000000   0.000000
    87  C    0.000000   0.000000
    90  Cl   0.000000   0.000000
    91  Cl   0.000000   0.000000
 Charge=             -0.0000 electrons
 Dipole moment (field-independent basis, Debye):
    X=              0.0030    Y=             -0.0155    Z=             -0.1140  Tot=              0.1151
 N-N= 1.845867495518D+02 E-N=-2.806106881494D+02  KE=-6.323030024585D+01
 Calling FoFJK, ICntrl=      2127 FMM=F ISym2X=0 I1Cent= 0 IOpClX= 1 NMat=1 NMatS=1 NMatT=0.
 Cartesian Forces:  Max     0.027963620 RMS     0.004046449
 SvSCFP is copying densities from files   528 and   530 to   603.
 ONIOM: saving gridpoint  1
 ONIOM: restoring gridpoint  3
 ONIOM: calculating energy.
 ONIOM: gridpoint  1 method:  low   system:  model energy:     0.086094677663
 ONIOM: gridpoint  2 method:  high  system:  model energy:  -309.604152202777
 ONIOM: gridpoint  3 method:  low   system:  real  energy:    -0.404741055064
 ONIOM: extrapolated energy =    -310.094987935504
 ONIOM: calculating first derivatives.
 ONIOM: calculating electric field derivatives.
 ONIOM: Integrating ONIOM file  4 number   619
 ONIOM: Dipole        =-7.71716142D-02 2.49767907D-02 1.55573701D-01
 ONIOM: Dipole moment (Debye):
    X=    -0.1962    Y=     0.0635    Z=     0.3954  Tot=     0.4459
 ONIOM: Integrating ONIOM file  5 number   695
 Anisotropic Hyperfine tensors: 
                 1             2             3             4             5 
      1   0.000000D+00  0.000000D+00  0.000000D+00  0.000000D+00  0.000000D+00
      2   0.000000D+00  0.000000D+00  0.000000D+00  0.000000D+00  0.000000D+00
      3   0.000000D+00  0.000000D+00  0.000000D+00  0.000000D+00  0.000000D+00
      4   0.000000D+00  0.000000D+00  0.000000D+00  0.000000D+00  0.000000D+00
      5   0.000000D+00  0.000000D+00  0.000000D+00  0.000000D+00  0.000000D+00
      6   0.000000D+00  0.000000D+00  0.000000D+00  0.000000D+00  0.000000D+00
                 6             7             8             9            10 
      1   0.000000D+00  0.000000D+00  0.000000D+00  0.000000D+00  0.000000D+00
      2   0.000000D+00  0.000000D+00  0.000000D+00  0.000000D+00  0.000000D+00
      3   0.000000D+00  0.000000D+00  0.000000D+00  0.000000D+00  0.000000D+00
      4   0.000000D+00  0.000000D+00  0.000000D+00  0.000000D+00  0.000000D+00
      5   0.000000D+00  0.000000D+00  0.000000D+00  0.000000D+00  0.000000D+00
      6   0.000000D+00  0.000000D+00  0.000000D+00  0.000000D+00  0.000000D+00
                11            12            13            14            15 
      1   0.000000D+00  0.000000D+00  0.000000D+00  0.000000D+00  0.000000D+00
      2   0.000000D+00  0.000000D+00  0.000000D+00  0.000000D+00  0.000000D+00
      3   0.000000D+00  0.000000D+00  0.000000D+00  0.000000D+00  0.000000D+00
      4   0.000000D+00  0.000000D+00  0.000000D+00  0.000000D+00  0.000000D+00
      5   0.000000D+00  0.000000D+00  0.000000D+00  0.000000D+00  0.000000D+00
      6   0.000000D+00  0.000000D+00  0.000000D+00  0.000000D+00  0.000000D+00
                16            17            18            19            20 
      1   0.000000D+00  0.000000D+00  0.000000D+00  0.000000D+00  0.000000D+00
      2   0.000000D+00  0.000000D+00  0.000000D+00  0.000000D+00  0.000000D+00
      3   0.000000D+00  0.000000D+00  0.000000D+00  0.000000D+00  0.000000D+00
      4   0.000000D+00  0.000000D+00  0.000000D+00  0.000000D+00  0.000000D+00
      5   0.000000D+00  0.000000D+00  0.000000D+00  0.000000D+00  0.000000D+00
      6   0.000000D+00  0.000000D+00  0.000000D+00  0.000000D+00  0.000000D+00
                21            22            23            24            25 
      1   0.000000D+00  0.000000D+00  0.000000D+00  0.000000D+00  0.000000D+00
      2   0.000000D+00  0.000000D+00  0.000000D+00  0.000000D+00  0.000000D+00
      3   0.000000D+00  0.000000D+00  0.000000D+00  0.000000D+00  0.000000D+00
      4   0.000000D+00  0.000000D+00  0.000000D+00  0.000000D+00  0.000000D+00
      5   0.000000D+00  0.000000D+00  0.000000D+00  0.000000D+00  0.000000D+00
      6   0.000000D+00  0.000000D+00  0.000000D+00  0.000000D+00  0.000000D+00
                26            27            28            29            30 
      1   0.000000D+00  0.000000D+00  0.000000D+00  0.000000D+00  0.000000D+00
      2   0.000000D+00  0.000000D+00  0.000000D+00  0.000000D+00  0.000000D+00
      3   0.000000D+00  0.000000D+00  0.000000D+00  0.000000D+00  0.000000D+00
      4   0.000000D+00  0.000000D+00  0.000000D+00  0.000000D+00  0.000000D+00
      5   0.000000D+00  0.000000D+00  0.000000D+00  0.000000D+00  0.000000D+00
      6   0.000000D+00  0.000000D+00  0.000000D+00  0.000000D+00  0.000000D+00
[...]
   X21        9.32814   0.00000   0.00000  -0.00005  -0.00001   9.32813
   Y21       -2.20975  -0.00002   0.00000  -0.00082  -0.00032  -2.21007
   Z21        2.96617   0.00003   0.00000  -0.00118  -0.00009   2.96608
   X22       10.82963  -0.00000   0.00000   0.00005   0.00002  10.82966
   Y22       -2.02008   0.00002   0.00000   0.00005   0.00030  -2.01978
   Z22       -2.94884   0.00001   0.00000  -0.00111  -0.00004  -2.94888
   X23        8.79241  -0.00001   0.00000   0.00005   0.00003   8.79244
   Y23       -2.10108   0.00004   0.00000   0.00031   0.00057  -2.10050
   Z23       -2.44747  -0.00000   0.00000  -0.00089   0.00020  -2.44726
   X24       11.97259  -0.00001   0.00000  -0.00013  -0.00013  11.97246
   Y24       -3.17063  -0.00003   0.00000  -0.00060  -0.00027  -3.17090
   Z24       -1.62027  -0.00004   0.00000  -0.00143  -0.00032  -1.62059
   X25       11.88394   0.00005   0.00000   0.00070   0.00065  11.88459
   Y25        1.15937   0.00000   0.00000  -0.00024   0.00003   1.15940
   Z25       -2.85555   0.00009   0.00000  -0.00003   0.00089  -2.85467
   X26       11.26761  -0.00000   0.00000  -0.00013  -0.00017  11.26744
   Y26       -3.12581   0.00015   0.00000   0.00161   0.00173  -3.12407
   Z26       -6.06980  -0.00004   0.00000  -0.00178  -0.00066  -6.07046
   X27        3.98033  -0.00009   0.00000  -0.00109  -0.00113   3.97920
   Y27        6.01897   0.00006   0.00000   0.00029   0.00074   6.01971
   Z27        2.91460  -0.00001   0.00000  -0.00079  -0.00002   2.91458
   X28        3.45084  -0.00008   0.00000  -0.00114  -0.00117   3.44967
   Y28        4.05929   0.00008   0.00000   0.00077   0.00119   4.06048
   Z28        2.36729  -0.00011   0.00000  -0.00230  -0.00143   2.36586
   X29        2.56843  -0.00010   0.00000  -0.00111  -0.00117   2.56725
   Y29        7.39335   0.00011   0.00000   0.00107   0.00148   7.39483
   Z29        2.18670   0.00009   0.00000   0.00063   0.00136   2.18806
   X30        7.01089  -0.00006   0.00000  -0.00088  -0.00094   7.00995
   Y30        6.76288   0.00014   0.00000   0.00117   0.00160   6.76449
   Z30        1.69696   0.00011   0.00000   0.00023   0.00094   1.69790
   X31        4.18546  -0.00007   0.00000  -0.00098  -0.00099   4.18447
   Y31        6.25651  -0.00017   0.00000  -0.00302  -0.00242   6.25409
   Z31        6.24615   0.00001   0.00000  -0.00066   0.00010   6.24626
   X32       -4.27605  -0.00000   0.00000  -0.00024  -0.00020  -4.27625
   Y32        1.53981  -0.00007   0.00000  -0.00147  -0.00093   1.53888
   Z32        6.56263   0.00004   0.00000  -0.00035   0.00071   6.56334
   X33       -3.56751  -0.00015   0.00000  -0.00167  -0.00161  -3.56912
   Y33       -0.43420  -0.00012   0.00000  -0.00193  -0.00138  -0.43558
   Z33        6.61556   0.00007   0.00000   0.00016   0.00130   6.61685
   X34       -4.15454  -0.00010   0.00000  -0.00139  -0.00134  -4.15589
   Y34        2.44896  -0.00011   0.00000  -0.00182  -0.00120   2.44776
   Z34        8.45007   0.00006   0.00000  -0.00003   0.00098   8.45105
   X35       -7.45390   0.00006   0.00000   0.00070   0.00072  -7.45318
   Y35        1.55387   0.00006   0.00000   0.00021   0.00068   1.55455
   Z35        5.50855  -0.00012   0.00000  -0.00314  -0.00205   5.50650
   X36       -2.46622   0.00022   0.00000   0.00273   0.00273  -2.46349
   Y36        3.28920  -0.00010   0.00000  -0.00218  -0.00172   3.28747
   Z36        4.35626   0.00021   0.00000   0.00144   0.00240   4.35866
   X37       -1.98874  -0.00008   0.00000  -0.00105  -0.00106  -1.98980
   Y37        8.62153   0.00002   0.00000  -0.00033   0.00033   8.62186
   Z37        8.66451   0.00006   0.00000   0.00014   0.00085   8.66537
   X38       -0.72801  -0.00010   0.00000  -0.00141  -0.00143  -0.72945
   Y38       10.27590   0.00001   0.00000  -0.00032   0.00036  10.27625
   Z38        8.90688   0.00021   0.00000   0.00226   0.00289   8.90977
   X39       -1.66257  -0.00005   0.00000  -0.00046  -0.00048  -1.66305
   Y39        7.70623   0.00015   0.00000   0.00158   0.00215   7.70838
   Z39        6.80391  -0.00000   0.00000  -0.00064   0.00011   6.80402
   X40       -5.17363  -0.00009   0.00000  -0.00129  -0.00131  -5.17493
   Y40        9.57155  -0.00002   0.00000  -0.00121  -0.00057   9.57098
   Z40        8.92132   0.00008   0.00000   0.00001   0.00072   8.92204
   X41       -1.39556  -0.00011   0.00000  -0.00147  -0.00143  -1.39699
   Y41        6.40167  -0.00011   0.00000  -0.00265  -0.00188   6.39979
   Z41       11.11376  -0.00005   0.00000  -0.00189  -0.00108  11.11267
   X42        8.37853  -0.00001   0.00000  -0.00011  -0.00022   8.37830
   Y42        2.06387   0.00008   0.00000   0.00113   0.00112   2.06499
   Z42       -8.40557  -0.00000   0.00000  -0.00096  -0.00005  -8.40562
   X43        7.32088  -0.00006   0.00000  -0.00072  -0.00081   7.32007
   Y43        0.53791   0.00008   0.00000   0.00117   0.00120   0.53911
   Z43       -7.42492  -0.00006   0.00000  -0.00147  -0.00048  -7.42541
   X44       10.44595  -0.00002   0.00000  -0.00021  -0.00032  10.44563
   Y44        1.72865   0.00006   0.00000   0.00072   0.00074   1.72938
   Z44       -8.27181   0.00006   0.00000  -0.00012   0.00079  -8.27103
   X45        7.64031   0.00002   0.00000   0.00037   0.00024   7.64055
   Y45        5.02940   0.00007   0.00000   0.00103   0.00107   5.03047
   Z45       -7.01738   0.00002   0.00000  -0.00063   0.00016  -7.01722
   X46        7.44125  -0.00001   0.00000   0.00042   0.00027   7.44153
   Y46        2.21755   0.00018   0.00000   0.00242   0.00225   2.21980
   Z46      -11.60776  -0.00000   0.00000  -0.00114  -0.00023 -11.60798
   X47      -10.24972   0.00020   0.00000   0.00232   0.00227 -10.24745
   Y47        3.73052   0.00014   0.00000   0.00173   0.00189   3.73242
   Z47       -0.73565   0.00005   0.00000  -0.00035   0.00066  -0.73499
   X48      -11.94037   0.00015   0.00000   0.00181   0.00177 -11.93860
   Y48        2.66500   0.00030   0.00000   0.00346   0.00363   2.66862
   Z48       -0.10634   0.00012   0.00000   0.00090   0.00198  -0.10435
   X49       -8.73012   0.00018   0.00000   0.00253   0.00249  -8.72763
   Y49        3.65121   0.00011   0.00000   0.00146   0.00170   3.65290
   Z49        0.71008   0.00006   0.00000  -0.00045   0.00056   0.71063
   X50      -11.09220   0.00024   0.00000   0.00347   0.00338 -11.08882
   Y50        6.91806   0.00013   0.00000   0.00175   0.00188   6.91994
   Z50       -1.29362  -0.00004   0.00000  -0.00176  -0.00088  -1.29450
   X51       -9.13855  -0.00006   0.00000  -0.00043  -0.00050  -9.13905
   Y51        2.43727  -0.00002   0.00000  -0.00037  -0.00033   2.43695
   Z51       -3.61157   0.00004   0.00000  -0.00057   0.00049  -3.61107
   X52       -3.00469  -0.00001   0.00000   0.00005  -0.00006  -3.00475
   Y52        1.85203   0.00004   0.00000   0.00050   0.00042   1.85245
   Z52       -7.71776   0.00006   0.00000  -0.00014   0.00089  -7.71687
   X53       -3.62115   0.00004   0.00000   0.00043   0.00030  -3.62085
   Y53        2.45253   0.00002   0.00000   0.00055   0.00038   2.45290
   Z53       -9.62939   0.00004   0.00000  -0.00019   0.00082  -9.62857
   X54       -4.06173  -0.00007   0.00000  -0.00069  -0.00079  -4.06252
   Y54        2.88111  -0.00001   0.00000  -0.00020  -0.00023   2.88088
   Z54       -6.22089   0.00006   0.00000  -0.00006   0.00093  -6.21996
   X55        0.27980  -0.00002   0.00000  -0.00015  -0.00026   0.27954
   Y55        2.45818   0.00008   0.00000   0.00125   0.00121   2.45940
   Z55       -7.37529   0.00013   0.00000   0.00036   0.00133  -7.37396
   X56       -3.46201   0.00008   0.00000   0.00107   0.00100  -3.46102
   Y56       -1.43785   0.00002   0.00000   0.00028   0.00021  -1.43764
   Z56       -7.36289   0.00004   0.00000  -0.00119  -0.00001  -7.36290
   X57       -2.65110   0.00005   0.00000   0.00098   0.00088  -2.65022
   Y57       11.13648   0.00011   0.00000   0.00112   0.00145  11.13792
   Z57        1.43906  -0.00015   0.00000  -0.00242  -0.00181   1.43725
   X58       -1.96489   0.00023   0.00000   0.00271   0.00259  -1.96230
   Y58       11.56142   0.00022   0.00000   0.00245   0.00270  11.56412
   Z58       -0.50037  -0.00007   0.00000  -0.00152  -0.00093  -0.50130
   X59       -4.32025   0.00012   0.00000   0.00174   0.00163  -4.31861
   Y59       12.30546   0.00020   0.00000   0.00224   0.00257  12.30803
   Z59        1.93350  -0.00014   0.00000  -0.00223  -0.00166   1.93184
   X60       -0.18986   0.00002   0.00000   0.00048   0.00039  -0.18947
   Y60       11.72284  -0.00017   0.00000  -0.00269  -0.00225  11.72059
   Z60        3.63693  -0.00004   0.00000  -0.00097  -0.00041   3.63652
   X61       -3.45392  -0.00011   0.00000  -0.00138  -0.00145  -3.45536
   Y61        7.89311   0.00012   0.00000   0.00143   0.00176   7.89487
   Z61        1.67794  -0.00027   0.00000  -0.00496  -0.00420   1.67374
   X62        2.09812  -0.00005   0.00000  -0.00077  -0.00070   2.09741
   Y62        0.62404   0.00004   0.00000  -0.00022   0.00050   0.62454
   Z62        9.33333  -0.00011   0.00000  -0.00251  -0.00147   9.33186
   X63        1.38889  -0.00003   0.00000  -0.00025  -0.00020   1.38870
   Y63        2.51096   0.00005   0.00000   0.00005   0.00074   2.51170
   Z63        8.74697  -0.00013   0.00000  -0.00241  -0.00145   8.74552
   X64        3.69429  -0.00007   0.00000  -0.00114  -0.00106   3.69323
   Y64        0.80855   0.00001   0.00000  -0.00056   0.00023   0.80878
   Z64       10.67761  -0.00008   0.00000  -0.00191  -0.00090  10.67671
   X65        3.09305  -0.00006   0.00000  -0.00086  -0.00080   3.09226
   Y65       -1.08620  -0.00002   0.00000  -0.00076  -0.00014  -1.08634
   Z65        6.64078  -0.00008   0.00000  -0.00234  -0.00124   6.63955
   X66       -0.38076  -0.00011   0.00000  -0.00165  -0.00155  -0.38231
   Y66       -1.09687   0.00012   0.00000   0.00044   0.00121  -1.09566
   Z66       10.77876  -0.00013   0.00000  -0.00325  -0.00212  10.77664
   X67        2.01865   0.00005   0.00000   0.00072   0.00069   2.01934
   Y67       -4.10318   0.00004   0.00000   0.00019   0.00024  -4.10294
   Z67       -5.72082   0.00002   0.00000  -0.00101   0.00024  -5.72058
   X68        0.35778   0.00009   0.00000   0.00075   0.00072   0.35850
   Y68       -5.21682  -0.00002   0.00000   0.00008   0.00009  -5.21674
   Z68       -6.34145   0.00004   0.00000  -0.00064   0.00067  -6.34078
   X69        1.42634   0.00003   0.00000   0.00067   0.00063   1.42697
   Y69       -2.20511  -0.00000   0.00000  -0.00035  -0.00027  -2.20538
   Z69       -5.03881   0.00013   0.00000   0.00079   0.00195  -5.03685
   X70        4.16726  -0.00001   0.00000  -0.00027  -0.00033   4.16694
   Y70       -3.78196   0.00009   0.00000   0.00147   0.00142  -3.78053
   Z70       -8.25917  -0.00002   0.00000  -0.00181  -0.00060  -8.25976
   X71        3.60461   0.00008   0.00000   0.00142   0.00143   3.60604
   Y71       -5.73722  -0.00014   0.00000  -0.00199  -0.00182  -5.73903
   Z71       -3.26093  -0.00012   0.00000  -0.00307  -0.00176  -3.26269
   X72        3.53413  -0.00007   0.00000  -0.00064  -0.00083   3.53330
   Y72        7.42196  -0.00002   0.00000  -0.00008  -0.00026   7.42170
   Z72      -11.25634  -0.00006   0.00000  -0.00161  -0.00089 -11.25724
   X73        5.36770  -0.00007   0.00000  -0.00053  -0.00073   5.36696
   Y73        7.21571   0.00007   0.00000   0.00091   0.00070   7.21641
   Z73      -12.25226  -0.00007   0.00000  -0.00146  -0.00075 -12.25301
   X74        3.35717   0.00001   0.00000  -0.00001  -0.00017   3.35699
   Y74        5.97387  -0.00007   0.00000  -0.00053  -0.00065   5.97322
   Z74       -9.75122  -0.00009   0.00000  -0.00186  -0.00107  -9.75229
   X75        3.33394  -0.00014   0.00000  -0.00160  -0.00181   3.33213
   Y75       10.48446  -0.00003   0.00000  -0.00020  -0.00033  10.48413
   Z75       -9.90245  -0.00006   0.00000  -0.00149  -0.00091  -9.90336
   X76        1.00994  -0.00003   0.00000  -0.00011  -0.00032   1.00962
   Y76        7.11684  -0.00006   0.00000  -0.00044  -0.00074   7.11610
   Z76      -13.41519  -0.00010   0.00000  -0.00223  -0.00147 -13.41666
   X77       -2.87940   0.00016   0.00000   0.00262   0.00246  -2.87694
   Y77        8.72631   0.00002   0.00000   0.00038   0.00033   8.72665
   Z77       -6.96165   0.00008   0.00000   0.00012   0.00085  -6.96081
   X78       -1.02781   0.00010   0.00000   0.00170   0.00154  -1.02627
   Y78        7.95742   0.00004   0.00000  -0.00017  -0.00024   7.95718
   Z78       -7.58125  -0.00006   0.00000  -0.00144  -0.00071  -7.58196
   X79       -2.88036   0.00033   0.00000   0.00349   0.00330  -2.87706
   Y79       10.82166  -0.00000   0.00000   0.00022   0.00017  10.82183
   Z79       -7.04897  -0.00018   0.00000  -0.00263  -0.00201  -7.05097
   X80       -5.32072  -0.00005   0.00000  -0.00026  -0.00043  -5.32116
   Y80        7.51763  -0.00023   0.00000  -0.00243  -0.00259   7.51504
   Z80       -8.89665   0.00052   0.00000   0.00545   0.00625  -8.89040
   X81       -3.50839   0.00052   0.00000   0.00712   0.00699  -3.50139
   Y81        7.75010   0.00031   0.00000   0.00406   0.00414   7.75424
   Z81       -3.81209   0.00022   0.00000   0.00208   0.00286  -3.80923
   X82        4.07787  -0.00019   0.00000  -0.00244  -0.00258   4.07529
   Y82       11.27480  -0.00027   0.00000  -0.00326  -0.00308  11.27172
   Z82       -3.06990  -0.00007   0.00000  -0.00146  -0.00092  -3.07082
   X83        5.23931  -0.00024   0.00000  -0.00249  -0.00265   5.23666
   Y83       11.19868  -0.00023   0.00000  -0.00336  -0.00324  11.19544
   Z83       -4.81378  -0.00010   0.00000  -0.00143  -0.00090  -4.81468
   X84        5.28566  -0.00025   0.00000  -0.00309  -0.00322   5.28244
   Y84       11.20462  -0.00039   0.00000  -0.00556  -0.00529  11.19934
   Z84       -1.35776  -0.00003   0.00000  -0.00103  -0.00050  -1.35827
   X85        2.24563   0.00014   0.00000   0.00163   0.00146   2.24708
   Y85       14.06697  -0.00004   0.00000  -0.00070  -0.00052  14.06644
   Z85       -3.05882  -0.00000   0.00000  -0.00054  -0.00010  -3.05893
   X86        1.93507  -0.00043   0.00000  -0.00565  -0.00578   1.92930
   Y86        8.69348  -0.00003   0.00000  -0.00059  -0.00042   8.69306
   Z86       -3.04144  -0.00022   0.00000  -0.00377  -0.00309  -3.04453
   X87       -8.27213   0.00002   0.00000   0.00043   0.00027  -8.27187
   Y87       12.99205  -0.00018   0.00000  -0.00227  -0.00220  12.98984
   Z87       -3.18732  -0.00002   0.00000  -0.00081  -0.00023  -3.18754
   X88      -10.10865   0.00004   0.00000   0.00069   0.00052 -10.10813
   Y88       13.10214  -0.00005   0.00000  -0.00087  -0.00086  13.10128
   Z88       -4.18904  -0.00005   0.00000  -0.00114  -0.00054  -4.18958
   X89       -7.69733   0.00001   0.00000   0.00016   0.00001  -7.69731
   Y89       10.99143  -0.00020   0.00000  -0.00260  -0.00251  10.98891
   Z89       -2.91086  -0.00015   0.00000  -0.00246  -0.00179  -2.91265
   X90       -5.93966   0.00007   0.00000   0.00117   0.00098  -5.93868
   Y90       14.60817  -0.00004   0.00000  -0.00060  -0.00059  14.60759
   Z90       -4.95805   0.00019   0.00000   0.00169   0.00217  -4.95587
   X91       -8.52497  -0.00005   0.00000  -0.00039  -0.00054  -8.52551
   Y91       14.51294  -0.00038   0.00000  -0.00520  -0.00500  14.50795
   Z91       -0.22231   0.00008   0.00000   0.00052   0.00104  -0.22127
         Item               Value     Threshold  Converged?
 Maximum Force            0.050286     0.000450     NO 
 RMS     Force            0.006553     0.000300     NO 
 Maximum Displacement     0.140084     0.001800     NO 
 RMS     Displacement     0.018175     0.001200     NO 
 Predicted change in Energy=-1.216424D-02
 GradGradGradGradGradGradGradGradGradGradGradGradGradGradGradGradGradGrad

 Unable to Open any file for archive entry.
 1\1\GINC-X10P1N23\Force\ONIOM(B3LYP TD-FC/6-31G(d):PM6)\Mixed\C23H38Cl
 30\MAYUMIAO\12-Jul-2024\0\\# scf=(xqc,maxcycle=64) force guess=read on
 iom(td/b3lyp/em=gd3bj/6-31g(d):pm6) nosymm\\Title Card\\0,1\C,0.555419
 23,-0.17651694,-0.17839019\C,-0.08344282,-1.29484269,0.4176225\C,-0.26
 538849,0.88201333,-0.64069714\C,-1.45600709,-1.35571937,0.53312749\H,0
 .53524082,-2.11676496,0.77305658\C,1.977871,-0.14542313,-0.31152975\C,
 -1.64220961,0.81779676,-0.50495026\H,0.1869892,1.75330334,-1.10814389\
 C,-2.25166589,-0.3006992,0.06496309\H,-1.92113254,-2.22506522,0.990714
 34\C,2.68787769,0.88669739,-1.00644657\H,2.51840474,-1.00098536,0.0995
 4043\H,-2.25325533,1.64834925,-0.8497907\H,-3.33433712,-0.35442993,0.1
 3924409\H,3.61005671,1.3260665,-0.63397536\H,2.33478178,1.28206432,-1.
 95693491\C,4.97287645,0.55614485,1.99529348\H,5.25617104,1.14691061,1.
 09894512\H,3.9748961,0.85928261,2.3749883\Cl,6.18334689,0.7728532,3.25
 769621\Cl,4.93624156,-1.16935069,1.56962855\C,5.73079506,-1.06898182,-
 1.56045997\H,4.65274172,-1.11184235,-1.29514438\H,6.33562211,-1.677826
 08,-0.85741065\Cl,6.28870967,0.6135107,-1.51109427\Cl,5.96256421,-1.65
 410541,-3.21199934\C,2.10629905,3.18510119,1.54234136\H,1.82610426,2.1
 4808228,1.25271814\H,1.35915231,3.91239209,1.15715376\Cl,3.71000378,3.
 57876398,0.89799229\Cl,2.21485091,3.31080095,3.30532226\C,-2.26278742,
 0.81483214,3.47279305\H,-1.88784732,-0.22977049,3.50080208\H,-2.198488
 73,1.29593298,4.47158509\Cl,-3.94443368,0.82227238,2.91500119\Cl,-1.30
 506975,1.74056753,2.305235\C,-1.05239645,4.56231635,4.5850625\H,-0.385
 24813,5.43777019,4.71331672\H,-0.87979548,4.07796014,3.60047507\Cl,-2.
 73776486,5.06504555,4.72096083\Cl,-0.73849727,3.38761999,5.88114694\C,
 4.43372475,1.09215125,-4.44803662\H,3.87404247,0.28465115,-3.92910073\
 H,5.52776057,0.91476085,-4.37725484\Cl,4.04307613,2.66144392,-3.713436
 49\Cl,3.9377415,1.17347759,-6.14256011\C,-5.42391804,1.97410719,-0.389
 29168\H,-6.31857122,1.41025598,-0.05627178\H,-4.61978068,1.93213452,0.
 37575604\Cl,-5.86974019,3.66087897,-0.68455494\Cl,-4.83591051,1.289748
 22,-1.91115826\C,-1.5900135,0.98005033,-4.08406341\H,-1.91623101,1.297
 82052,-5.09565313\H,-2.14937601,1.52461604,-3.29195414\Cl,0.14806319,1
 .3008147,-3.90283712\Cl,-1.83201933,-0.76087947,-3.89627133\C,-1.40290
 26,5.89316901,0.76151687\H,-1.03977593,6.11804251,-0.26478223\H,-2.286
 17531,6.51176824,1.02316352\Cl,-0.10047043,6.20345979,1.92457837\Cl,-1
 .82773505,4.17685505,0.88792812\C,1.11027469,0.33022755,4.93898635\H,0
 .73497152,1.32874407,4.62869971\H,1.95493229,0.42786453,5.65034689\Cl,
 1.63677316,-0.574792,3.51415186\Cl,-0.20149207,-0.58043902,5.70387322\
 C,1.0682262,-2.17131191,-3.02732813\H,0.18932726,-2.76062423,-3.355751
 57\H,0.75478784,-1.16689266,-2.66642141\Cl,2.20522102,-2.00132499,-4.3
 7056202\Cl,1.90747932,-3.03600371,-1.72560783\C,1.8701827,3.92753273,-
 5.95660123\H,2.84046204,3.8183893,-6.48361925\H,1.77653631,3.16123747,
 -5.16012246\Cl,1.76424341,5.54813725,-5.24015301\Cl,0.53443821,3.76606
 877,-7.09901272\C,-1.5237122,4.61776588,-3.68394738\H,-0.5438919,4.210
 88472,-4.01182574\H,-1.5242213,5.72657607,-3.7301519\Cl,-2.81560489,3.
 97815597,-4.70790337\Cl,-1.85655952,4.10117372,-2.01727114\C,2.1579153
 1,5.96636592,-1.62452357\H,2.77252196,5.92608369,-2.54734221\H,2.79705
 006,5.92923136,-0.71849745\Cl,1.18833371,7.44391824,-1.61865879\Cl,1.0
 2399722,4.60039248,-1.60946005\C,-4.37742498,6.87509532,-1.68665561\H,
 -5.34926509,6.93335276,-2.2167434\H,-4.0732499,5.81641335,-1.5403601\C
 l,-3.14313318,7.73031308,-2.62368553\Cl,-4.51121754,7.67991858,-0.1176
 4311\\Version=ES64L-G16RevC.01\HF=0.0860947\S2=0.861664\S2-1=0.\S2A=1.
 097481\RMSD=4.444e-09\RMSF=6.553e-03\Dipole=-0.0771716,0.0249768,0.155
 5737\PG=C01 [X(C23H38Cl30)]\\@
 The archive entry for this job was punched.


 TIMES HAVE CHANGED. IN THE BIBLE WHEN AN ASS
 SPOKE IT WAS CONSIDERED A MIRACLE.
 Job cpu time:       0 days  0 hours 18 minutes 45.1 seconds.
 Elapsed time:       0 days  0 hours  0 minutes 45.0 seconds.
 File lengths (MBytes):  RWF=    173 Int=      0 D2E=      0 Chk=     37 Scr=      1
 Normal termination of Gaussian 16 at Fri Jul 12 22:55:40 2024.
