 Entering Gaussian System, Link 0=g16
 Input=JOBS/13_B.gjf
 Output=JOBS/13_B.log
 Initial command:
 /data/app/gaussian/C01-avx2//g16/l1.exe "/tmp/Gau-1781405.inp" -scrdir="/tmp/"
 Entering Link 1 = /data/app/gaussian/C01-avx2//g16/l1.exe PID=   1781406.
  
 Copyright (c) 1988-2019, Gaussian, Inc.  All Rights Reserved.
  
 This is part of the Gaussian(R) 16 program.  It is based on
 the Gaussian(R) 09 system (copyright 2009, Gaussian, Inc.),
 the Gaussian(R) 03 system (copyright 2003, Gaussian, Inc.),
 the Gaussian(R) 98 system (copyright 1998, Gaussian, Inc.),
 the Gaussian(R) 94 system (copyright 1995, Gaussian, Inc.),
 the Gaussian 92(TM) system (copyright 1992, Gaussian, Inc.),
 the Gaussian 90(TM) system (copyright 1990, Gaussian, Inc.),
 the Gaussian 88(TM) system (copyright 1988, Gaussian, Inc.),
 the Gaussian 86(TM) system (copyright 1986, Carnegie Mellon
 University), and the Gaussian 82(TM) system (copyright 1983,
 Carnegie Mellon University). Gaussian is a federally registered
 trademark of Gaussian, Inc.
  
 This software contains proprietary and confidential information,
 including trade secrets, belonging to Gaussian, Inc.
  
 This software is provided under written license and may be
 used, copied, transmitted, or stored only in accord with that
 written license.
  
 The following legend is applicable only to US Government
 contracts under FAR:
  
                    RESTRICTED RIGHTS LEGEND
  
 Use, reproduction and disclosure by the US Government is
 subject to restrictions as set forth in subparagraphs (a)
 and (c) of the Commercial Computer Software - Restricted
 Rights clause in FAR 52.227-19.
  
 Gaussian, Inc.
 340 Quinnipiac St., Bldg. 40, Wallingford CT 06492
  
  
 ---------------------------------------------------------------
 Warning -- This program may not be used in any manner that
 competes with the business of Gaussian, Inc. or will provide
 assistance to any competitor of Gaussian, Inc.  The licensee
 of this program is prohibited from giving any competitor of
 Gaussian, Inc. access to this program.  By using this program,
 the user acknowledges that Gaussian, Inc. is engaged in the
 business of creating and licensing software in the field of
 computational chemistry and represents and warrants to the
 licensee that it is not a competitor of Gaussian, Inc. and that
 it will not use this program in any manner prohibited above.
 ---------------------------------------------------------------
  

 Cite this work as:
 Gaussian 16, Revision C.01,
 M. J. Frisch, G. W. Trucks, H. B. Schlegel, G. E. Scuseria, 
 M. A. Robb, J. R. Cheeseman, G. Scalmani, V. Barone, 
 G. A. Petersson, H. Nakatsuji, X. Li, M. Caricato, A. V. Marenich, 
 J. Bloino, B. G. Janesko, R. Gomperts, B. Mennucci, H. P. Hratchian, 
 J. V. Ortiz, A. F. Izmaylov, J. L. Sonnenberg, D. Williams-Young, 
 F. Ding, F. Lipparini, F. Egidi, J. Goings, B. Peng, A. Petrone, 
 T. Henderson, D. Ranasinghe, V. G. Zakrzewski, J. Gao, N. Rega, 
 G. Zheng, W. Liang, M. Hada, M. Ehara, K. Toyota, R. Fukuda, 
 J. Hasegawa, M. Ishida, T. Nakajima, Y. Honda, O. Kitao, H. Nakai, 
 T. Vreven, K. Throssell, J. A. Montgomery, Jr., J. E. Peralta, 
 F. Ogliaro, M. J. Bearpark, J. J. Heyd, E. N. Brothers, K. N. Kudin, 
 V. N. Staroverov, T. A. Keith, R. Kobayashi, J. Normand, 
 K. Raghavachari, A. P. Rendell, J. C. Burant, S. S. Iyengar, 
 J. Tomasi, M. Cossi, J. M. Millam, M. Klene, C. Adamo, R. Cammi, 
 J. W. Ochterski, R. L. Martin, K. Morokuma, O. Farkas, 
 J. B. Foresman, and D. J. Fox, Gaussian, Inc., Wallingford CT, 2019.
 
 ******************************************
 Gaussian 16:  ES64L-G16RevC.01  3-Jul-2019
                12-Jul-2024 
 ******************************************
 %chk=b.chk
 %nprocshared=28
 Will use up to   28 processors via shared memory.
 %mem=48gb
 ----------------------------------------------------------------------
 # scf=(xqc,maxcycle=64) force guess=read oniom(b3lyp/em=gd3bj/6-31g(d)
 :pm6) nosymm
 ----------------------------------------------------------------------
 1/10=7,30=1,38=1,52=2/1,3;
 2/12=2,15=1,17=6,18=5,40=1/2;
 1/10=7,30=1,38=1,52=2,53=3172/20;
 3/5=2,25=1,41=3900000,71=1,116=-2/1,2,3;
 4/5=1,35=1/1;
 5/5=2,7=64,8=3,13=1,35=1,38=6/2,8;
 6/7=2,8=2,9=2,10=2,28=1/1;
 7/7=1,30=1,33=-1/1,2,3,16;
 1/10=7,30=1,52=2,53=2032/20;
 3/5=1,6=6,7=1,11=2,25=1,30=1,71=1,74=-5,116=-2,124=41/1,2,3;
 4/5=1/1;
 5/5=2,7=64,8=3,13=1,38=6/2,8;
 6/7=2,8=2,9=2,10=2,28=1/1;
 7/7=1,30=1,33=-1/1,2,3,16;
 1/10=7,30=1,52=2,53=1022/20;
 3/5=2,25=1,41=3900000,71=1,116=-2/1,2,3;
 4/5=1,35=1/1;
 5/5=2,7=64,8=3,13=1,35=1,38=6/2,8;
 6/7=2,8=2,9=2,10=2,28=1/1;
 7/7=1,30=1,33=-1/1,2,3,16;
 1/10=7,30=1,52=2,53=3015/20;
 7/9=1,29=1,44=-1,126=2/16;
 1/10=7,30=1,52=2/3;
 99//99;
 ONIOM: restoring gridpoint  3 on chk file.
 ----------
 Title Card
 ----------
 Symbolic Z-matrix:
 Charge =  0 Multiplicity = 1 for low   level calculation on real  system.
 Charge =  0 Multiplicity = 3 for high  level calculation on model system.
 Charge =  0 Multiplicity = 3 for low   level calculation on model system.
 c                     0.55542  -0.17652  -0.17839  h 
 c                    -0.08344  -1.29484   0.41762  h 
 c                    -0.26539   0.88201  -0.6407   h 
 c                    -1.45601  -1.35572   0.53313  h 
 h                     0.53524  -2.11676   0.77306  h 
 c                     1.97787  -0.14542  -0.31153  h 
 c                    -1.64221   0.8178   -0.50495  h 
 h                     0.18699   1.7533   -1.10814  h 
 c                    -2.25167  -0.3007    0.06496  h 
 h                    -1.92113  -2.22507   0.99071  h 
 c                     2.68788   0.8867   -1.00645  h 
 h                     2.5184   -1.00099   0.09954  h 
 h                    -2.25326   1.64835  -0.84979  h 
 h                    -3.33434  -0.35443   0.13924  h 
 h                     3.61006   1.32607  -0.63398  h 
 h                     2.33478   1.28206  -1.95693  h 
 c                     4.97288   0.55614   1.99529  l 
 h                     5.25617   1.14691   1.09895  l 
 h                     3.9749    0.85928   2.37499  l 
 cl                    6.18335   0.77285   3.2577   l 
 cl                    4.93624  -1.16935   1.56963  l 
 c                     5.7308   -1.06898  -1.56046  l 
 h                     4.65274  -1.11184  -1.29514  l 
 h                     6.33562  -1.67783  -0.85741  l 
 cl                    6.28871   0.61351  -1.51109  l 
 cl                    5.96256  -1.65411  -3.212    l 
 c                     2.1063    3.1851    1.54234  l 
 h                     1.8261    2.14808   1.25272  l 
 h                     1.35915   3.91239   1.15715  l 
 cl                    3.71      3.57876   0.89799  l 
 cl                    2.21485   3.3108    3.30532  l 
 c                    -2.26279   0.81483   3.47279  l 
 h                    -1.88785  -0.22977   3.5008   l 
 h                    -2.19849   1.29593   4.47159  l 
 cl                   -3.94443   0.82227   2.915    l 
 cl                   -1.30507   1.74057   2.30524  l 
 c                    -1.0524    4.56232   4.58506  l 
 h                    -0.38525   5.43777   4.71332  l 
 h                    -0.8798    4.07796   3.60048  l 
 cl                   -2.73776   5.06505   4.72096  l 
 cl                   -0.7385    3.38762   5.88115  l 
 c                     4.43372   1.09215  -4.44804  l 
 h                     3.87404   0.28465  -3.9291   l 
 h                     5.52776   0.91476  -4.37725  l 
 cl                    4.04308   2.66144  -3.71344  l 
 cl                    3.93774   1.17348  -6.14256  l 
 c                    -5.42392   1.97411  -0.38929  l 
 h                    -6.31857   1.41026  -0.05627  l 
 h                    -4.61978   1.93213   0.37576  l 
 cl                   -5.86974   3.66088  -0.68455  l 
 cl                   -4.83591   1.28975  -1.91116  l 
 c                    -1.59001   0.98005  -4.08406  l 
 h                    -1.91623   1.29782  -5.09565  l 
 h                    -2.14938   1.52462  -3.29195  l 
 cl                    0.14806   1.30081  -3.90284  l 
 cl                   -1.83202  -0.76088  -3.89627  l 
 c                    -1.4029    5.89317   0.76152  l 
 h                    -1.03978   6.11804  -0.26478  l 
 h                    -2.28618   6.51177   1.02316  l 
 cl                   -0.10047   6.20346   1.92458  l 
 cl                   -1.82774   4.17686   0.88793  l 
 c                     1.11027   0.33023   4.93899  l 
 h                     0.73497   1.32874   4.6287   l 
 h                     1.95493   0.42786   5.65035  l 
 cl                    1.63677  -0.57479   3.51415  l 
 cl                   -0.20149  -0.58044   5.70387  l 
 c                     1.06823  -2.17131  -3.02733  l 
 h                     0.18933  -2.76062  -3.35575  l 
 h                     0.75479  -1.16689  -2.66642  l 
 cl                    2.20522  -2.00132  -4.37056  l 
 cl                    1.90748  -3.036    -1.72561  l 
 c                     1.87018   3.92753  -5.9566   l 
 h                     2.84046   3.81839  -6.48362  l 
 h                     1.77654   3.16124  -5.16012  l 
 cl                    1.76424   5.54814  -5.24015  l 
 cl                    0.53444   3.76607  -7.09901  l 
 c                    -1.52371   4.61777  -3.68395  l 
 h                    -0.54389   4.21088  -4.01183  l 
 h                    -1.52422   5.72658  -3.73015  l 
 cl                   -2.8156    3.97816  -4.7079   l 
 cl                   -1.85656   4.10117  -2.01727  l 
 c                     2.15792   5.96637  -1.62452  l 
 h                     2.77252   5.92608  -2.54734  l 
 h                     2.79705   5.92923  -0.7185   l 
 cl                    1.18833   7.44392  -1.61866  l 
 cl                    1.024     4.60039  -1.60946  l 
 c                    -4.37742   6.8751   -1.68666  l 
 h                    -5.34927   6.93335  -2.21674  l 
 h                    -4.07325   5.81641  -1.54036  l 
 cl                   -3.14313   7.73031  -2.62369  l 
 cl                   -4.51122   7.67992  -0.11764  l 
 

 GradGradGradGradGradGradGradGradGradGradGradGradGradGradGradGradGradGrad
 Berny optimization.
 Initialization pass.
 Trust Radius=3.00D-01 FncErr=1.00D-07 GrdErr=1.00D-07 EigMax=2.50D+02 EigMin=1.00D-04
 Number of steps in this run=      2 maximum allowed number of steps=      2.
 GradGradGradGradGradGradGradGradGradGradGradGradGradGradGradGradGradGrad

 Symmetry turned off by external request.
 Stoichiometry    C23H38Cl30
 Framework group  C1[X(C23H38Cl30)]
 Deg. of freedom   267
 Full point group                 C1      NOp   1
                          Input orientation:                          
 ---------------------------------------------------------------------
 Center     Atomic      Atomic             Coordinates (Angstroms)
 Number     Number       Type             X           Y           Z
 ---------------------------------------------------------------------
      1          6           0        0.555419   -0.176517   -0.178390
      2          6           0       -0.083443   -1.294843    0.417623
      3          6           0       -0.265388    0.882013   -0.640697
      4          6           0       -1.456007   -1.355719    0.533127
      5          1           0        0.535241   -2.116765    0.773057
      6          6           0        1.977871   -0.145423   -0.311530
      7          6           0       -1.642210    0.817797   -0.504950
      8          1           0        0.186989    1.753303   -1.108144
      9          6           0       -2.251666   -0.300699    0.064963
     10          1           0       -1.921133   -2.225065    0.990714
     11          6           0        2.687878    0.886697   -1.006447
     12          1           0        2.518405   -1.000985    0.099540
     13          1           0       -2.253255    1.648349   -0.849791
     14          1           0       -3.334337   -0.354430    0.139244
     15          1           0        3.610057    1.326067   -0.633975
     16          1           0        2.334782    1.282064   -1.956935
     17          6           0        4.972876    0.556145    1.995293
     18          1           0        5.256171    1.146911    1.098945
     19          1           0        3.974896    0.859283    2.374988
     20         17           0        6.183347    0.772853    3.257696
     21         17           0        4.936242   -1.169351    1.569629
     22          6           0        5.730795   -1.068982   -1.560460
     23          1           0        4.652742   -1.111842   -1.295144
     24          1           0        6.335622   -1.677826   -0.857411
     25         17           0        6.288710    0.613511   -1.511094
     26         17           0        5.962564   -1.654105   -3.211999
     27          6           0        2.106299    3.185101    1.542341
     28          1           0        1.826104    2.148082    1.252718
     29          1           0        1.359152    3.912392    1.157154
     30         17           0        3.710004    3.578764    0.897992
     31         17           0        2.214851    3.310801    3.305322
     32          6           0       -2.262787    0.814832    3.472793
     33          1           0       -1.887847   -0.229770    3.500802
     34          1           0       -2.198489    1.295933    4.471585
     35         17           0       -3.944434    0.822272    2.915001
     36         17           0       -1.305070    1.740568    2.305235
     37          6           0       -1.052396    4.562316    4.585063
     38          1           0       -0.385248    5.437770    4.713317
     39          1           0       -0.879795    4.077960    3.600475
     40         17           0       -2.737765    5.065046    4.720961
     41         17           0       -0.738497    3.387620    5.881147
     42          6           0        4.433725    1.092151   -4.448037
     43          1           0        3.874042    0.284651   -3.929101
     44          1           0        5.527761    0.914761   -4.377255
     45         17           0        4.043076    2.661444   -3.713436
     46         17           0        3.937742    1.173478   -6.142560
     47          6           0       -5.423918    1.974107   -0.389292
     48          1           0       -6.318571    1.410256   -0.056272
     49          1           0       -4.619781    1.932135    0.375756
     50         17           0       -5.869740    3.660879   -0.684555
     51         17           0       -4.835911    1.289748   -1.911158
     52          6           0       -1.590014    0.980050   -4.084063
     53          1           0       -1.916231    1.297821   -5.095653
     54          1           0       -2.149376    1.524616   -3.291954
     55         17           0        0.148063    1.300815   -3.902837
     56         17           0       -1.832019   -0.760879   -3.896271
     57          6           0       -1.402903    5.893169    0.761517
     58          1           0       -1.039776    6.118043   -0.264782
     59          1           0       -2.286175    6.511768    1.023164
     60         17           0       -0.100470    6.203460    1.924578
     61         17           0       -1.827735    4.176855    0.887928
     62          6           0        1.110275    0.330228    4.938986
     63          1           0        0.734972    1.328744    4.628700
     64          1           0        1.954932    0.427865    5.650347
     65         17           0        1.636773   -0.574792    3.514152
     66         17           0       -0.201492   -0.580439    5.703873
     67          6           0        1.068226   -2.171312   -3.027328
     68          1           0        0.189327   -2.760624   -3.355752
     69          1           0        0.754788   -1.166893   -2.666421
     70         17           0        2.205221   -2.001325   -4.370562
     71         17           0        1.907479   -3.036004   -1.725608
     72          6           0        1.870183    3.927533   -5.956601
     73          1           0        2.840462    3.818389   -6.483619
     74          1           0        1.776536    3.161237   -5.160122
     75         17           0        1.764243    5.548137   -5.240153
     76         17           0        0.534438    3.766069   -7.099013
     77          6           0       -1.523712    4.617766   -3.683947
     78          1           0       -0.543892    4.210885   -4.011826
     79          1           0       -1.524221    5.726576   -3.730152
     80         17           0       -2.815605    3.978156   -4.707903
     81         17           0       -1.856560    4.101174   -2.017271
     82          6           0        2.157915    5.966366   -1.624524
     83          1           0        2.772522    5.926084   -2.547342
     84          1           0        2.797050    5.929231   -0.718497
     85         17           0        1.188334    7.443918   -1.618659
     86         17           0        1.023997    4.600392   -1.609460
     87          6           0       -4.377425    6.875095   -1.686656
     88          1           0       -5.349265    6.933353   -2.216743
     89          1           0       -4.073250    5.816413   -1.540360
     90         17           0       -3.143133    7.730313   -2.623686
     91         17           0       -4.511218    7.679919   -0.117643
 ---------------------------------------------------------------------
 Rotational constants (GHZ):           0.0225932           0.0200271           0.0153204
 ONIOM: saving gridpoint 17
 ONIOM: restoring gridpoint  3 on chk file.
 ONIOM: generating point  3 -- low level on real system.
 Standard basis: VSTO-6G (5D, 7F)
   400 basis functions,  2580 primitive gaussians,   430 cartesian basis functions
   170 alpha electrons      170 beta electrons
       nuclear repulsion energy      5298.1820533748 Hartrees.
 Integral buffers will be    131072 words long.
 Regular integral format.
 Two-electron integral symmetry is turned off.
 Do NDO integrals.
 One-electron integrals computed using PRISM.
 NBasis=   400 RedAO= F EigKep=  0.00D+00  NBF=   400
 NBsUse=   400 1.00D-04 EigRej=  0.00D+00 NBFU=   400
 Initial guess from the checkpoint file:  "b.chk"
 B after Tr=    -0.000139   -0.000183   -0.000144
         Rot=    1.000000   -0.000014    0.000005   -0.000011 Ang=  -0.00 deg.
 Initial guess <Sx>= 0.0000 <Sy>= 0.0000 <Sz>= 0.0000 <S**2>=-0.0000 S=-0.0000
 Keep J ints in memory in canonical form, NReq=3161508.
 Overlap will be assumed to be unity.
 Requested convergence on RMS density matrix=1.00D-08 within  64 cycles.
 Requested convergence on MAX density matrix=1.00D-06.
 Requested convergence on             energy=1.00D-06.
 No special actions if energy rises.
 SCF Done:  E(UPM6) = -0.404741055064     A.U. after   11 cycles
            NFock= 10  Conv=0.75D-08     -V/T= 0.9994
 <Sx>= 0.0000 <Sy>= 0.0000 <Sz>= 0.0000 <S**2>=-0.0000 S=-0.0000
 <L.S>=  0.00000000000    
 Annihilation of the first spin contaminant:
 S**2 before annihilation    -0.0000,   after    -0.0000
 QCSCF skips out because SCF is already converged.

 **********************************************************************

            Population analysis using the SCF Density.

 **********************************************************************

 Alpha  occ. eigenvalues --   -1.11305  -1.05652  -1.05344  -1.05295  -1.05196
 Alpha  occ. eigenvalues --   -1.05144  -1.05125  -1.04941  -1.04887  -1.04793
 Alpha  occ. eigenvalues --   -1.04749  -1.04713  -1.04485  -1.04454  -1.04350
 Alpha  occ. eigenvalues --   -1.04117  -1.01828  -0.98624  -0.98305  -0.98238
 Alpha  occ. eigenvalues --   -0.98162  -0.98119  -0.97975  -0.97952  -0.97791
 Alpha  occ. eigenvalues --   -0.97772  -0.97753  -0.97628  -0.97415  -0.97337
 Alpha  occ. eigenvalues --   -0.97275  -0.97249  -0.97010  -0.92371  -0.88798
 Alpha  occ. eigenvalues --   -0.88715  -0.88587  -0.88412  -0.88367  -0.88253
 Alpha  occ. eigenvalues --   -0.88226  -0.88130  -0.88088  -0.88014  -0.87886
 Alpha  occ. eigenvalues --   -0.87653  -0.87566  -0.87517  -0.87218  -0.82669
 Alpha  occ. eigenvalues --   -0.79244  -0.72995  -0.65447  -0.62732  -0.62378
 Alpha  occ. eigenvalues --   -0.62119  -0.61863  -0.61639  -0.61551  -0.61489
 Alpha  occ. eigenvalues --   -0.61311  -0.61253  -0.61171  -0.61061  -0.60911
 Alpha  occ. eigenvalues --   -0.60389  -0.60315  -0.60131  -0.60055  -0.60018
 Alpha  occ. eigenvalues --   -0.59781  -0.59618  -0.59540  -0.59468  -0.59375
 Alpha  occ. eigenvalues --   -0.59276  -0.59202  -0.59112  -0.59000  -0.58936
 Alpha  occ. eigenvalues --   -0.58745  -0.58608  -0.58581  -0.58484  -0.58339
 Alpha  occ. eigenvalues --   -0.58291  -0.58088  -0.57817  -0.57732  -0.57712
 Alpha  occ. eigenvalues --   -0.57682  -0.57585  -0.57527  -0.57509  -0.57438
 Alpha  occ. eigenvalues --   -0.57229  -0.57112  -0.57075  -0.56886  -0.56794
 Alpha  occ. eigenvalues --   -0.55178  -0.53422  -0.52394  -0.51074  -0.49681
 Alpha  occ. eigenvalues --   -0.46210  -0.45273  -0.45105  -0.44821  -0.44284
 Alpha  occ. eigenvalues --   -0.44256  -0.44122  -0.43992  -0.43939  -0.43870
 Alpha  occ. eigenvalues --   -0.43764  -0.43709  -0.43584  -0.43501  -0.43460
 Alpha  occ. eigenvalues --   -0.43425  -0.43422  -0.43393  -0.43315  -0.43291
 Alpha  occ. eigenvalues --   -0.43223  -0.43155  -0.43124  -0.43046  -0.42970
 Alpha  occ. eigenvalues --   -0.42913  -0.42862  -0.42807  -0.42766  -0.42629
 Alpha  occ. eigenvalues --   -0.42586  -0.42478  -0.42430  -0.42347  -0.42137
 Alpha  occ. eigenvalues --   -0.42026  -0.41930  -0.41911  -0.41799  -0.41792
 Alpha  occ. eigenvalues --   -0.41710  -0.41683  -0.41625  -0.41614  -0.41483
 Alpha  occ. eigenvalues --   -0.41370  -0.41308  -0.41295  -0.41241  -0.41201
 Alpha  occ. eigenvalues --   -0.41168  -0.41139  -0.41052  -0.41040  -0.40915
 Alpha  occ. eigenvalues --   -0.40862  -0.40772  -0.40600  -0.40589  -0.40509
 Alpha  occ. eigenvalues --   -0.40372  -0.40329  -0.39582  -0.36951  -0.32920
 Alpha virt. eigenvalues --   -0.03658  -0.01336  -0.00997  -0.00965  -0.00903
 Alpha virt. eigenvalues --   -0.00673  -0.00650  -0.00593  -0.00560  -0.00496
 Alpha virt. eigenvalues --   -0.00454  -0.00436  -0.00393  -0.00362  -0.00278
 Alpha virt. eigenvalues --   -0.00260  -0.00233  -0.00220  -0.00211  -0.00191
 Alpha virt. eigenvalues --   -0.00149  -0.00139  -0.00049  -0.00018   0.00042
 Alpha virt. eigenvalues --    0.00328   0.00383   0.00466   0.00488   0.00516
 Alpha virt. eigenvalues --    0.00596   0.00693   0.02597   0.08891   0.14201
 Alpha virt. eigenvalues --    0.14237   0.14419   0.14540   0.14697   0.14762
 Alpha virt. eigenvalues --    0.14876   0.14966   0.14971   0.15030   0.15053
 Alpha virt. eigenvalues --    0.15125   0.15150   0.15166   0.15239   0.15350
 Alpha virt. eigenvalues --    0.15403   0.15440   0.15491   0.15565   0.15618
 Alpha virt. eigenvalues --    0.15732   0.15793   0.15856   0.15912   0.15929
 Alpha virt. eigenvalues --    0.15959   0.15981   0.16090   0.16337   0.16396
 Alpha virt. eigenvalues --    0.16413   0.16707   0.16993   0.17223   0.17962
 Alpha virt. eigenvalues --    0.18560   0.19287   0.19797   0.20383   0.21072
 Alpha virt. eigenvalues --    0.21272   0.21594   0.21798   0.22173   0.22281
 Alpha virt. eigenvalues --    3.16405   3.16813   3.17308   3.17939   3.18098
 Alpha virt. eigenvalues --    3.18339   3.18617   3.18722   3.18966   3.19074
 Alpha virt. eigenvalues --    3.19094   3.19254   3.19325   3.19532   3.19626
 Alpha virt. eigenvalues --    3.19635   3.19701   3.19833   3.19902   3.19988
 Alpha virt. eigenvalues --    3.20015   3.20176   3.20268   3.20299   3.20424
 Alpha virt. eigenvalues --    3.20465   3.20531   3.20546   3.20623   3.20654
 Alpha virt. eigenvalues --    3.20690   3.20827   3.20865   3.20960   3.21004
 Alpha virt. eigenvalues --    3.21054   3.21091   3.21156   3.21169   3.21227
 Alpha virt. eigenvalues --    3.21397   3.21442   3.21551   3.21709   3.21826
 Alpha virt. eigenvalues --    3.21962   3.22056   3.22129   3.22157   3.22297
 Alpha virt. eigenvalues --    3.22438   3.22489   3.22524   3.22578   3.22727
 Alpha virt. eigenvalues --    3.22775   3.22935   3.22977   3.23125   3.23154
 Alpha virt. eigenvalues --    3.23185   3.23278   3.23364   3.23410   3.23475
 Alpha virt. eigenvalues --    3.23491   3.23566   3.23641   3.23735   3.23786
 Alpha virt. eigenvalues --    3.23847   3.23936   3.23959   3.23994   3.24086
 Alpha virt. eigenvalues --    3.24127   3.24151   3.24223   3.24268   3.24304
 Alpha virt. eigenvalues --    3.24365   3.24473   3.24481   3.24533   3.24633
 Alpha virt. eigenvalues --    3.24663   3.24715   3.24798   3.24846   3.24925
 Alpha virt. eigenvalues --    3.24948   3.25017   3.25052   3.25071   3.25090
 Alpha virt. eigenvalues --    3.25136   3.25294   3.25370   3.25450   3.25513
 Alpha virt. eigenvalues --    3.25528   3.25668   3.25721   3.25749   3.25843
 Alpha virt. eigenvalues --    3.25870   3.25918   3.25987   3.26092   3.26210
 Alpha virt. eigenvalues --    3.26264   3.26314   3.26410   3.26445   3.26780
 Alpha virt. eigenvalues --    3.26834   3.26903   3.26980   3.27018   3.27153
 Alpha virt. eigenvalues --    3.27223   3.27327   3.27371   3.27394   3.27459
 Alpha virt. eigenvalues --    3.27531   3.27627   3.27730   3.27750   3.27830
 Alpha virt. eigenvalues --    3.27845   3.27947   3.28139   3.28156   3.28194
 Alpha virt. eigenvalues --    3.28279   3.28372   3.28459   3.28537   3.28572
 Alpha virt. eigenvalues --    3.28630   3.28665   3.28719   3.28812   3.28905
 Alpha virt. eigenvalues --    3.29111   3.29241   3.29334   3.29699   3.29965
  Beta  occ. eigenvalues --   -1.11305  -1.05652  -1.05344  -1.05295  -1.05196
  Beta  occ. eigenvalues --   -1.05144  -1.05125  -1.04941  -1.04887  -1.04793
  Beta  occ. eigenvalues --   -1.04749  -1.04713  -1.04485  -1.04454  -1.04350
  Beta  occ. eigenvalues --   -1.04117  -1.01828  -0.98624  -0.98305  -0.98238
  Beta  occ. eigenvalues --   -0.98162  -0.98119  -0.97975  -0.97952  -0.97791
  Beta  occ. eigenvalues --   -0.97772  -0.97753  -0.97628  -0.97415  -0.97337
  Beta  occ. eigenvalues --   -0.97275  -0.97249  -0.97010  -0.92371  -0.88798
  Beta  occ. eigenvalues --   -0.88715  -0.88587  -0.88412  -0.88367  -0.88253
  Beta  occ. eigenvalues --   -0.88226  -0.88130  -0.88088  -0.88014  -0.87886
  Beta  occ. eigenvalues --   -0.87653  -0.87566  -0.87517  -0.87218  -0.82669
  Beta  occ. eigenvalues --   -0.79244  -0.72995  -0.65447  -0.62732  -0.62378
  Beta  occ. eigenvalues --   -0.62119  -0.61863  -0.61639  -0.61551  -0.61489
  Beta  occ. eigenvalues --   -0.61311  -0.61253  -0.61171  -0.61061  -0.60911
  Beta  occ. eigenvalues --   -0.60389  -0.60315  -0.60131  -0.60055  -0.60018
  Beta  occ. eigenvalues --   -0.59781  -0.59618  -0.59540  -0.59468  -0.59375
  Beta  occ. eigenvalues --   -0.59276  -0.59202  -0.59112  -0.59000  -0.58936
  Beta  occ. eigenvalues --   -0.58745  -0.58608  -0.58581  -0.58484  -0.58339
  Beta  occ. eigenvalues --   -0.58291  -0.58088  -0.57817  -0.57732  -0.57712
  Beta  occ. eigenvalues --   -0.57682  -0.57585  -0.57527  -0.57509  -0.57438
  Beta  occ. eigenvalues --   -0.57229  -0.57112  -0.57075  -0.56886  -0.56794
  Beta  occ. eigenvalues --   -0.55178  -0.53422  -0.52394  -0.51074  -0.49681
  Beta  occ. eigenvalues --   -0.46210  -0.45273  -0.45105  -0.44821  -0.44284
  Beta  occ. eigenvalues --   -0.44256  -0.44122  -0.43992  -0.43939  -0.43870
  Beta  occ. eigenvalues --   -0.43764  -0.43709  -0.43584  -0.43501  -0.43460
  Beta  occ. eigenvalues --   -0.43425  -0.43422  -0.43393  -0.43315  -0.43291
  Beta  occ. eigenvalues --   -0.43223  -0.43155  -0.43124  -0.43046  -0.42970
  Beta  occ. eigenvalues --   -0.42913  -0.42862  -0.42807  -0.42766  -0.42629
  Beta  occ. eigenvalues --   -0.42586  -0.42478  -0.42430  -0.42347  -0.42137
  Beta  occ. eigenvalues --   -0.42026  -0.41930  -0.41911  -0.41799  -0.41792
  Beta  occ. eigenvalues --   -0.41710  -0.41683  -0.41625  -0.41614  -0.41483
  Beta  occ. eigenvalues --   -0.41370  -0.41308  -0.41295  -0.41241  -0.41201
  Beta  occ. eigenvalues --   -0.41168  -0.41139  -0.41052  -0.41040  -0.40915
  Beta  occ. eigenvalues --   -0.40862  -0.40772  -0.40600  -0.40589  -0.40509
  Beta  occ. eigenvalues --   -0.40372  -0.40329  -0.39582  -0.36951  -0.32920
  Beta virt. eigenvalues --   -0.03658  -0.01336  -0.00997  -0.00965  -0.00903
  Beta virt. eigenvalues --   -0.00673  -0.00650  -0.00593  -0.00560  -0.00496
  Beta virt. eigenvalues --   -0.00454  -0.00436  -0.00393  -0.00362  -0.00278
  Beta virt. eigenvalues --   -0.00260  -0.00233  -0.00220  -0.00211  -0.00191
  Beta virt. eigenvalues --   -0.00149  -0.00139  -0.00049  -0.00018   0.00042
  Beta virt. eigenvalues --    0.00328   0.00383   0.00466   0.00488   0.00516
  Beta virt. eigenvalues --    0.00596   0.00693   0.02597   0.08891   0.14201
  Beta virt. eigenvalues --    0.14237   0.14419   0.14540   0.14697   0.14762
  Beta virt. eigenvalues --    0.14876   0.14966   0.14971   0.15030   0.15053
  Beta virt. eigenvalues --    0.15125   0.15150   0.15166   0.15239   0.15350
  Beta virt. eigenvalues --    0.15403   0.15440   0.15491   0.15565   0.15618
  Beta virt. eigenvalues --    0.15732   0.15793   0.15856   0.15912   0.15929
  Beta virt. eigenvalues --    0.15959   0.15981   0.16090   0.16337   0.16396
  Beta virt. eigenvalues --    0.16413   0.16707   0.16993   0.17223   0.17962
  Beta virt. eigenvalues --    0.18560   0.19287   0.19797   0.20383   0.21072
  Beta virt. eigenvalues --    0.21272   0.21594   0.21798   0.22173   0.22281
  Beta virt. eigenvalues --    3.16405   3.16813   3.17308   3.17939   3.18098
  Beta virt. eigenvalues --    3.18339   3.18617   3.18722   3.18966   3.19074
  Beta virt. eigenvalues --    3.19094   3.19254   3.19325   3.19532   3.19626
  Beta virt. eigenvalues --    3.19635   3.19701   3.19833   3.19902   3.19988
  Beta virt. eigenvalues --    3.20015   3.20176   3.20268   3.20299   3.20424
  Beta virt. eigenvalues --    3.20465   3.20531   3.20546   3.20623   3.20654
  Beta virt. eigenvalues --    3.20690   3.20827   3.20865   3.20960   3.21004
  Beta virt. eigenvalues --    3.21054   3.21091   3.21156   3.21169   3.21227
  Beta virt. eigenvalues --    3.21397   3.21442   3.21551   3.21709   3.21826
  Beta virt. eigenvalues --    3.21962   3.22056   3.22129   3.22157   3.22297
  Beta virt. eigenvalues --    3.22438   3.22489   3.22524   3.22578   3.22727
  Beta virt. eigenvalues --    3.22775   3.22935   3.22977   3.23125   3.23154
  Beta virt. eigenvalues --    3.23185   3.23278   3.23364   3.23410   3.23475
  Beta virt. eigenvalues --    3.23491   3.23566   3.23641   3.23735   3.23786
  Beta virt. eigenvalues --    3.23847   3.23936   3.23959   3.23994   3.24086
  Beta virt. eigenvalues --    3.24127   3.24151   3.24223   3.24268   3.24304
  Beta virt. eigenvalues --    3.24365   3.24473   3.24481   3.24533   3.24633
  Beta virt. eigenvalues --    3.24663   3.24715   3.24798   3.24846   3.24925
  Beta virt. eigenvalues --    3.24948   3.25017   3.25052   3.25071   3.25090
  Beta virt. eigenvalues --    3.25136   3.25294   3.25370   3.25450   3.25513
  Beta virt. eigenvalues --    3.25528   3.25668   3.25721   3.25749   3.25843
  Beta virt. eigenvalues --    3.25870   3.25918   3.25987   3.26092   3.26210
  Beta virt. eigenvalues --    3.26264   3.26314   3.26410   3.26445   3.26780
  Beta virt. eigenvalues --    3.26834   3.26903   3.26980   3.27018   3.27153
  Beta virt. eigenvalues --    3.27223   3.27327   3.27371   3.27394   3.27459
  Beta virt. eigenvalues --    3.27531   3.27627   3.27730   3.27750   3.27830
  Beta virt. eigenvalues --    3.27845   3.27947   3.28139   3.28156   3.28194
  Beta virt. eigenvalues --    3.28279   3.28372   3.28459   3.28537   3.28572
  Beta virt. eigenvalues --    3.28630   3.28665   3.28719   3.28812   3.28905
  Beta virt. eigenvalues --    3.29111   3.29241   3.29334   3.29699   3.29965
          Condensed to atoms (all electrons):
          Atomic-Atomic Spin Densities.
 Mulliken charges and spin densities:
               1          2
     1  C   -0.016087   0.000000
     2  C   -0.141971   0.000000
     3  C   -0.149526   0.000000
     4  C   -0.156364   0.000000
     5  H    0.153411   0.000000
     6  C   -0.125772   0.000000
     7  C   -0.151597   0.000000
     8  H    0.155201   0.000000
     9  C   -0.117841   0.000000
    10  H    0.149391   0.000000
    11  C   -0.369937   0.000000
    12  H    0.157086   0.000000
    13  H    0.150457   0.000000
    14  H    0.145721   0.000000
    15  H    0.159245   0.000000
    16  H    0.161526   0.000000
    17  C   -0.138997   0.000000
    18  H    0.187864   0.000000
    19  H    0.186123   0.000000
    20  Cl  -0.095087   0.000000
    21  Cl  -0.140413   0.000000
    22  C   -0.144308   0.000000
    23  H    0.192858   0.000000
    24  H    0.191532   0.000000
    25  Cl  -0.127758   0.000000
    26  Cl  -0.111699   0.000000
    27  C   -0.143697   0.000000
    28  H    0.198338   0.000000
    29  H    0.196865   0.000000
    30  Cl  -0.126288   0.000000
    31  Cl  -0.125936   0.000000
    32  C   -0.129302   0.000000
    33  H    0.192430   0.000000
    34  H    0.191986   0.000000
    35  Cl  -0.129749   0.000000
    36  Cl  -0.123587   0.000000
    37  C   -0.137711   0.000000
    38  H    0.184833   0.000000
    39  H    0.194050   0.000000
    40  Cl  -0.100832   0.000000
    41  Cl  -0.141975   0.000000
    42  C   -0.133079   0.000000
    43  H    0.193985   0.000000
    44  H    0.195232   0.000000
    45  Cl  -0.141552   0.000000
    46  Cl  -0.114480   0.000000
    47  C   -0.141833   0.000000
    48  H    0.183161   0.000000
    49  H    0.191418   0.000000
    50  Cl  -0.117467   0.000000
    51  Cl  -0.115029   0.000000
    52  C   -0.127210   0.000000
    53  H    0.190348   0.000000
    54  H    0.195691   0.000000
    55  Cl  -0.142051   0.000000
    56  Cl  -0.116520   0.000000
    57  C   -0.139170   0.000000
    58  H    0.198770   0.000000
    59  H    0.193936   0.000000
    60  Cl  -0.134590   0.000000
    61  Cl  -0.113535   0.000000
    62  C   -0.145687   0.000000
    63  H    0.191012   0.000000
    64  H    0.186478   0.000000
    65  Cl  -0.112295   0.000000
    66  Cl  -0.120128   0.000000
    67  C   -0.132958   0.000000
    68  H    0.184031   0.000000
    69  H    0.198435   0.000000
    70  Cl  -0.116767   0.000000
    71  Cl  -0.133623   0.000000
    72  C   -0.139012   0.000000
    73  H    0.191520   0.000000
    74  H    0.189556   0.000000
    75  Cl  -0.137072   0.000000
    76  Cl  -0.106352   0.000000
    77  C   -0.143269   0.000000
    78  H    0.192993   0.000000
    79  H    0.193947   0.000000
    80  Cl  -0.119360   0.000000
    81  Cl  -0.127409   0.000000
    82  C   -0.143561   0.000000
    83  H    0.189037   0.000000
    84  H    0.188367   0.000000
    85  Cl  -0.106652   0.000000
    86  Cl  -0.130884   0.000000
    87  C   -0.149305   0.000000
    88  H    0.186222   0.000000
    89  H    0.193262   0.000000
    90  Cl  -0.116902   0.000000
    91  Cl  -0.112138   0.000000
 Sum of Mulliken charges =  -0.00000   0.00000
 Mulliken charges and spin densities with hydrogens summed into heavy atoms:
               1          2
     1  C   -0.016087   0.000000
     2  C    0.011440   0.000000
     3  C    0.005675   0.000000
     4  C   -0.006973   0.000000
     6  C    0.031314   0.000000
     7  C   -0.001139   0.000000
     9  C    0.027881   0.000000
    11  C   -0.049165   0.000000
    17  C    0.234991   0.000000
    20  Cl  -0.095087   0.000000
    21  Cl  -0.140413   0.000000
    22  C    0.240082   0.000000
    25  Cl  -0.127758   0.000000
    26  Cl  -0.111699   0.000000
    27  C    0.251506   0.000000
    30  Cl  -0.126288   0.000000
    31  Cl  -0.125936   0.000000
    32  C    0.255114   0.000000
    35  Cl  -0.129749   0.000000
    36  Cl  -0.123587   0.000000
    37  C    0.241172   0.000000
    40  Cl  -0.100832   0.000000
    41  Cl  -0.141975   0.000000
    42  C    0.256138   0.000000
    45  Cl  -0.141552   0.000000
    46  Cl  -0.114480   0.000000
    47  C    0.232746   0.000000
    50  Cl  -0.117467   0.000000
    51  Cl  -0.115029   0.000000
    52  C    0.258829   0.000000
    55  Cl  -0.142051   0.000000
    56  Cl  -0.116520   0.000000
    57  C    0.253535   0.000000
    60  Cl  -0.134590   0.000000
    61  Cl  -0.113535   0.000000
    62  C    0.231803   0.000000
    65  Cl  -0.112295   0.000000
    66  Cl  -0.120128   0.000000
    67  C    0.249508   0.000000
    70  Cl  -0.116767   0.000000
    71  Cl  -0.133623   0.000000
    72  C    0.242064   0.000000
    75  Cl  -0.137072   0.000000
    76  Cl  -0.106352   0.000000
    77  C    0.243671   0.000000
    80  Cl  -0.119360   0.000000
    81  Cl  -0.127409   0.000000
    82  C    0.233843   0.000000
    85  Cl  -0.106652   0.000000
    86  Cl  -0.130884   0.000000
    87  C    0.230180   0.000000
    90  Cl  -0.116902   0.000000
    91  Cl  -0.112138   0.000000
 Charge=             -0.0000 electrons
 Dipole moment (field-independent basis, Debye):
    X=             -0.8818    Y=             -0.1716    Z=              0.4841  Tot=              1.0205
 N-N= 5.298182053375D+03 E-N=-9.741505499800D+03  KE=-6.384516567472D+02
 Calling FoFJK, ICntrl=      2127 FMM=F ISym2X=0 I1Cent= 0 IOpClX= 1 NMat=1 NMatS=1 NMatT=0.
 Cartesian Forces:  Max     0.060918511 RMS     0.008248401
 SvSCFP is copying densities from files   528 and   530 to   603.
 ONIOM: saving gridpoint  3
 ONIOM: restoring gridpoint 17
 ONIOM: restoring gridpoint  2 on chk file.
 ONIOM: generating point  2 -- high level on model system.
 Standard basis: 6-31G(d) (6D, 7F)
   136 basis functions,   256 primitive gaussians,   136 cartesian basis functions
    29 alpha electrons       27 beta electrons
       nuclear repulsion energy       319.2481935769 Hartrees.
 NAtoms=   91 NActive=   16 NUniq=   16 SFac= 1.00D+00 NAtFMM=   60 NAOKFM=F Big=F
 Integral buffers will be    131072 words long.
 Raffenetti 2 integral format.
 Two-electron integral symmetry is turned off.
 Nuclear repulsion after empirical dispersion term =      319.2205603775 Hartrees.
 One-electron integrals computed using PRISM.
 NBasis=   136 RedAO= T EigKep=  4.71D-04  NBF=   136
 NBsUse=   136 1.00D-06 EigRej= -1.00D+00 NBFU=   136
 Initial guess from the checkpoint file:  "b.chk"
 B after Tr=     0.000836    0.000221    0.001404
         Rot=    1.000000   -0.000168   -0.000247    0.000112 Ang=  -0.04 deg.
 Initial guess <Sx>= 0.0000 <Sy>= 0.0000 <Sz>= 1.0000 <S**2>= 2.0290 S= 1.0096
 Requested convergence on RMS density matrix=1.00D-08 within  64 cycles.
 Requested convergence on MAX density matrix=1.00D-06.
 Requested convergence on             energy=1.00D-06.
 No special actions if energy rises.
 SCF Done:  E(UB3LYP) =  -309.578637054     A.U. after   11 cycles
            NFock= 11  Conv=0.79D-08     -V/T= 2.0096
 <Sx>= 0.0000 <Sy>= 0.0000 <Sz>= 1.0000 <S**2>= 2.0290 S= 1.0096
 <L.S>=  0.00000000000    
 Annihilation of the first spin contaminant:
 S**2 before annihilation     2.0290,   after     2.0004
 QCSCF skips out because SCF is already converged.

 **********************************************************************

            Population analysis using the SCF Density.

 **********************************************************************

 Alpha  occ. eigenvalues --  -10.19793 -10.19671 -10.19510 -10.18848 -10.18777
 Alpha  occ. eigenvalues --  -10.18659 -10.18580 -10.18561  -0.85688  -0.79110
 Alpha  occ. eigenvalues --   -0.74494  -0.72222  -0.63257  -0.60035  -0.56327
 Alpha  occ. eigenvalues --   -0.51009  -0.46909  -0.45295  -0.43575  -0.41807
 Alpha  occ. eigenvalues --   -0.40941  -0.39702  -0.37044  -0.34962  -0.33526
 Alpha  occ. eigenvalues --   -0.29734  -0.25535  -0.23536  -0.14008
 Alpha virt. eigenvalues --    0.00216   0.02709   0.09790   0.11748   0.12860
 Alpha virt. eigenvalues --    0.15860   0.16105   0.16857   0.18161   0.19727
 Alpha virt. eigenvalues --    0.21116   0.26553   0.27908   0.30826   0.33635
 Alpha virt. eigenvalues --    0.35989   0.37344   0.45962   0.51372   0.52447
 Alpha virt. eigenvalues --    0.53731   0.54887   0.55310   0.57172   0.58034
 Alpha virt. eigenvalues --    0.58581   0.59705   0.60102   0.62032   0.62072
 Alpha virt. eigenvalues --    0.63364   0.64440   0.65146   0.68317   0.71558
 Alpha virt. eigenvalues --    0.77164   0.82447   0.83604   0.83888   0.84533
 Alpha virt. eigenvalues --    0.85458   0.88730   0.90568   0.92142   0.92897
 Alpha virt. eigenvalues --    0.93541   0.95245   0.98943   1.01425   1.04180
 Alpha virt. eigenvalues --    1.08595   1.14360   1.16649   1.18227   1.25778
 Alpha virt. eigenvalues --    1.28961   1.32714   1.38866   1.43809   1.44629
 Alpha virt. eigenvalues --    1.45562   1.48299   1.49331   1.51346   1.62952
 Alpha virt. eigenvalues --    1.69359   1.76972   1.80244   1.83672   1.87355
 Alpha virt. eigenvalues --    1.89339   1.91301   1.94335   1.96966   1.98045
 Alpha virt. eigenvalues --    2.04745   2.08636   2.10609   2.14497   2.14922
 Alpha virt. eigenvalues --    2.17903   2.22045   2.26645   2.32107   2.32540
 Alpha virt. eigenvalues --    2.34595   2.47219   2.50680   2.57220   2.59584
 Alpha virt. eigenvalues --    2.61954   2.65886   2.74092   2.75602   2.77012
 Alpha virt. eigenvalues --    2.85982   2.91896   3.13618   3.41881   4.06743
 Alpha virt. eigenvalues --    4.09502   4.12313   4.13239   4.24144   4.32910
 Alpha virt. eigenvalues --    4.42221   4.71100
  Beta  occ. eigenvalues --  -10.19595 -10.18933 -10.18750 -10.18745 -10.18450
  Beta  occ. eigenvalues --  -10.18426 -10.18366 -10.18287  -0.85086  -0.77261
  Beta  occ. eigenvalues --   -0.74126  -0.69899  -0.61540  -0.59648  -0.55149
  Beta  occ. eigenvalues --   -0.50418  -0.46238  -0.44816  -0.42747  -0.41653
  Beta  occ. eigenvalues --   -0.39883  -0.38407  -0.35804  -0.34496  -0.33296
  Beta  occ. eigenvalues --   -0.26135  -0.24531
  Beta virt. eigenvalues --   -0.11478  -0.02286   0.01123   0.06014   0.10048
  Beta virt. eigenvalues --    0.12497   0.13909   0.16350   0.16557   0.18045
  Beta virt. eigenvalues --    0.18756   0.20333   0.21997   0.27391   0.28895
  Beta virt. eigenvalues --    0.30900   0.34012   0.36839   0.37955   0.46406
  Beta virt. eigenvalues --    0.52746   0.53153   0.54777   0.55386   0.57700
  Beta virt. eigenvalues --    0.58214   0.59362   0.59670   0.60121   0.61980
  Beta virt. eigenvalues --    0.62487   0.63836   0.64148   0.65880   0.67084
  Beta virt. eigenvalues --    0.69977   0.72892   0.77638   0.83089   0.83963
  Beta virt. eigenvalues --    0.84187   0.85381   0.85686   0.89496   0.90986
  Beta virt. eigenvalues --    0.93009   0.93964   0.94633   0.95668   1.00003
  Beta virt. eigenvalues --    1.01767   1.05473   1.09207   1.14998   1.17072
  Beta virt. eigenvalues --    1.18711   1.26411   1.30071   1.34169   1.40211
  Beta virt. eigenvalues --    1.44314   1.45361   1.45970   1.49046   1.50325
  Beta virt. eigenvalues --    1.51788   1.67344   1.73032   1.78654   1.80722
  Beta virt. eigenvalues --    1.85756   1.89348   1.90645   1.92454   1.96302
  Beta virt. eigenvalues --    1.97671   1.99637   2.05542   2.11901   2.13002
  Beta virt. eigenvalues --    2.15268   2.15542   2.18656   2.23340   2.27746
  Beta virt. eigenvalues --    2.32744   2.34640   2.36650   2.49160   2.52228
  Beta virt. eigenvalues --    2.58381   2.60036   2.63433   2.66682   2.74543
  Beta virt. eigenvalues --    2.75833   2.77385   2.86386   2.92539   3.14027
  Beta virt. eigenvalues --    3.42091   4.08246   4.10256   4.12574   4.14883
  Beta virt. eigenvalues --    4.26219   4.33174   4.43137   4.71579
          Condensed to atoms (all electrons):
          Atomic-Atomic Spin Densities.
 Mulliken charges and spin densities:
               1          2
     1  C    0.190950  -0.103412
     2  C   -0.183377   0.237893
     3  C   -0.185114   0.275102
     4  C   -0.129291  -0.128034
     5  H    0.125528  -0.010524
     6  C   -0.172758   0.620845
     7  C   -0.126365  -0.143217
     8  H    0.125741  -0.010493
     9  C   -0.133751   0.316107
    10  H    0.128968   0.004842
    11  C   -0.344449   1.018288
    12  H    0.135781  -0.007046
    13  H    0.128354   0.005447
    14  H    0.128622  -0.015280
    15  H    0.154569  -0.033247
    16  H    0.156592  -0.027271
    17  C    0.000000   0.000000
    18  H    0.000000   0.000000
    19  H    0.000000   0.000000
    20  Cl   0.000000   0.000000
    21  Cl   0.000000   0.000000
    22  C    0.000000   0.000000
    23  H    0.000000   0.000000
    24  H    0.000000   0.000000
    25  Cl   0.000000   0.000000
    26  Cl   0.000000   0.000000
    27  C    0.000000   0.000000
    28  H    0.000000   0.000000
    29  H    0.000000   0.000000
    30  Cl   0.000000   0.000000
    31  Cl   0.000000   0.000000
    32  C    0.000000   0.000000
    33  H    0.000000   0.000000
    34  H    0.000000   0.000000
    35  Cl   0.000000   0.000000
    36  Cl   0.000000   0.000000
    37  C    0.000000   0.000000
    38  H    0.000000   0.000000
    39  H    0.000000   0.000000
    40  Cl   0.000000   0.000000
    41  Cl   0.000000   0.000000
    42  C    0.000000   0.000000
    43  H    0.000000   0.000000
    44  H    0.000000   0.000000
    45  Cl   0.000000   0.000000
    46  Cl   0.000000   0.000000
    47  C    0.000000   0.000000
    48  H    0.000000   0.000000
    49  H    0.000000   0.000000
    50  Cl   0.000000   0.000000
    51  Cl   0.000000   0.000000
    52  C    0.000000   0.000000
    53  H    0.000000   0.000000
    54  H    0.000000   0.000000
    55  Cl   0.000000   0.000000
    56  Cl   0.000000   0.000000
    57  C    0.000000   0.000000
    58  H    0.000000   0.000000
    59  H    0.000000   0.000000
    60  Cl   0.000000   0.000000
    61  Cl   0.000000   0.000000
    62  C    0.000000   0.000000
    63  H    0.000000   0.000000
    64  H    0.000000   0.000000
    65  Cl   0.000000   0.000000
    66  Cl   0.000000   0.000000
    67  C    0.000000   0.000000
    68  H    0.000000   0.000000
    69  H    0.000000   0.000000
    70  Cl   0.000000   0.000000
    71  Cl   0.000000   0.000000
    72  C    0.000000   0.000000
    73  H    0.000000   0.000000
    74  H    0.000000   0.000000
    75  Cl   0.000000   0.000000
    76  Cl   0.000000   0.000000
    77  C    0.000000   0.000000
    78  H    0.000000   0.000000
    79  H    0.000000   0.000000
    80  Cl   0.000000   0.000000
    81  Cl   0.000000   0.000000
    82  C    0.000000   0.000000
    83  H    0.000000   0.000000
    84  H    0.000000   0.000000
    85  Cl   0.000000   0.000000
    86  Cl   0.000000   0.000000
    87  C    0.000000   0.000000
    88  H    0.000000   0.000000
    89  H    0.000000   0.000000
    90  Cl   0.000000   0.000000
    91  Cl   0.000000   0.000000
 Sum of Mulliken charges =  -0.00000   2.00000
 Mulliken charges and spin densities with hydrogens summed into heavy atoms:
               1          2
     1  C    0.190950  -0.103412
     2  C   -0.057849   0.227369
     3  C   -0.059373   0.264609
     4  C   -0.000322  -0.123192
     6  C   -0.036977   0.613799
     7  C    0.001989  -0.137770
     9  C   -0.005129   0.300827
    11  C   -0.033289   0.957770
    17  C    0.000000   0.000000
    20  Cl   0.000000   0.000000
    21  Cl   0.000000   0.000000
    22  C    0.000000   0.000000
    25  Cl   0.000000   0.000000
    26  Cl   0.000000   0.000000
    27  C    0.000000   0.000000
    30  Cl   0.000000   0.000000
    31  Cl   0.000000   0.000000
    32  C    0.000000   0.000000
    35  Cl   0.000000   0.000000
    36  Cl   0.000000   0.000000
    37  C    0.000000   0.000000
    40  Cl   0.000000   0.000000
    41  Cl   0.000000   0.000000
    42  C    0.000000   0.000000
    45  Cl   0.000000   0.000000
    46  Cl   0.000000   0.000000
    47  C    0.000000   0.000000
    50  Cl   0.000000   0.000000
    51  Cl   0.000000   0.000000
    52  C    0.000000   0.000000
    55  Cl   0.000000   0.000000
    56  Cl   0.000000   0.000000
    57  C    0.000000   0.000000
    60  Cl   0.000000   0.000000
    61  Cl   0.000000   0.000000
    62  C    0.000000   0.000000
    65  Cl   0.000000   0.000000
    66  Cl   0.000000   0.000000
    67  C    0.000000   0.000000
    70  Cl   0.000000   0.000000
    71  Cl   0.000000   0.000000
    72  C    0.000000   0.000000
    75  Cl   0.000000   0.000000
    76  Cl   0.000000   0.000000
    77  C    0.000000   0.000000
    80  Cl   0.000000   0.000000
    81  Cl   0.000000   0.000000
    82  C    0.000000   0.000000
    85  Cl   0.000000   0.000000
    86  Cl   0.000000   0.000000
    87  C    0.000000   0.000000
    90  Cl   0.000000   0.000000
    91  Cl   0.000000   0.000000
 Electronic spatial extent (au):  <R**2>=            993.8737
 Charge=             -0.0000 electrons
 Dipole moment (field-independent basis, Debye):
    X=              0.0534    Y=             -0.0028    Z=             -0.0470  Tot=              0.0712
 Quadrupole moment (field-independent basis, Debye-Ang):
   XX=            -42.4377   YY=            -44.6690   ZZ=            -48.9131
   XY=              0.1489   XZ=             -0.1017   YZ=             -3.4623
 Traceless Quadrupole moment (field-independent basis, Debye-Ang):
   XX=              2.9022   YY=              0.6710   ZZ=             -3.5732
   XY=              0.1489   XZ=             -0.1017   YZ=             -3.4623
 Octapole moment (field-independent basis, Debye-Ang**2):
  XXX=             -2.0359  YYY=              7.1139  ZZZ=             30.4060  XYY=             -0.0415
  XXY=              4.6520  XXZ=             12.5492  XZZ=              1.9109  YZZ=              5.3732
  YYZ=             11.1347  XYZ=              0.5543
 Hexadecapole moment (field-independent basis, Debye-Ang**3):
 XXXX=           -845.1031 YYYY=           -307.2269 ZZZZ=           -157.2424 XXXY=            -51.1913
 XXXZ=             73.9420 YYYX=            -64.6738 YYYZ=             58.1447 ZZZX=             67.7964
 ZZZY=             68.4225 XXYY=           -191.0579 XXZZ=           -186.3593 YYZZ=            -74.0271
 XXYZ=             12.0689 YYXZ=             20.4002 ZZXY=            -18.1219
 N-N= 3.192205603775D+02 E-N=-1.354842967098D+03  KE= 3.066353916465D+02
                          Isotropic Fermi Contact Couplings
        Atom                 a.u.       MegaHertz       Gauss      10(-4) cm-1
     1  C(13)             -0.00336      -1.89093      -0.67473      -0.63075
     2  C(13)              0.02482      13.95051       4.97789       4.65339
     3  C(13)              0.03060      17.19733       6.13644       5.73641
     4  C(13)             -0.01943     -10.92321      -3.89767      -3.64359
     5  H(1)              -0.00369      -8.24784      -2.94304      -2.75118
     6  C(13)              0.04572      25.69884       9.16999       8.57221
     7  C(13)             -0.02141     -12.03461      -4.29425      -4.01431
     8  H(1)              -0.00403      -9.00723      -3.21400      -3.00449
     9  C(13)              0.03449      19.38780       6.91805       6.46707
    10  H(1)               0.00153       3.41671       1.21917       1.13969
    11  C(13)              0.08479      47.65920      17.00599      15.89740
    12  H(1)               0.00360       8.05092       2.87277       2.68550
    13  H(1)               0.00173       3.86125       1.37779       1.28798
    14  H(1)              -0.00473     -10.58126      -3.77566      -3.52953
    15  H(1)              -0.00657     -14.67915      -5.23788      -4.89644
    16  H(1)              -0.00546     -12.20045      -4.35342      -4.06963
 --------------------------------------------------------
       Center         ----  Spin Dipole Couplings  ----
                      3XX-RR        3YY-RR        3ZZ-RR
 --------------------------------------------------------
     1   Atom        0.077240     -0.005929     -0.071311
     2   Atom       -0.117819     -0.049776      0.167595
     3   Atom       -0.120992     -0.052680      0.173672
     4   Atom        0.055549      0.015423     -0.070972
     5   Atom       -0.005318      0.008935     -0.003617
     6   Atom       -0.347595     -0.116197      0.463793
     7   Atom        0.062766      0.021007     -0.083773
     8   Atom        0.004324      0.004141     -0.008465
     9   Atom       -0.145979     -0.076303      0.222281
    10   Atom        0.005202     -0.001001     -0.004202
    11   Atom       -0.054871      0.247429     -0.192558
    12   Atom       -0.027942      0.034016     -0.006074
    13   Atom        0.006449     -0.002004     -0.004445
    14   Atom        0.024050     -0.018206     -0.005844
    15   Atom        0.054008     -0.011739     -0.042269
    16   Atom       -0.039578     -0.020582      0.060161
 --------------------------------------------------------
                        XY            XZ            YZ
 --------------------------------------------------------
     1   Atom        0.037841      0.042807     -0.028736
     2   Atom        0.011741      0.010816      0.136116
     3   Atom        0.018269      0.027883      0.153457
     4   Atom       -0.006843     -0.009690     -0.057956
     5   Atom       -0.006806      0.003383     -0.008390
     6   Atom        0.076157      0.110884      0.438384
     7   Atom        0.001135     -0.012074     -0.062250
     8   Atom        0.003567     -0.001603     -0.010207
     9   Atom        0.008912      0.013913      0.182201
    10   Atom       -0.001343     -0.000115     -0.001698
    11   Atom       -0.603446     -0.409241      0.511196
    12   Atom       -0.033046      0.018655     -0.021037
    13   Atom        0.002508     -0.001951     -0.002014
    14   Atom        0.002999     -0.002591      0.007314
    15   Atom        0.034718      0.024683      0.040625
    16   Atom       -0.037533      0.020364     -0.031015
 --------------------------------------------------------


 ---------------------------------------------------------------------------------
              Anisotropic Spin Dipole Couplings in Principal Axis System
 ---------------------------------------------------------------------------------

       Atom             a.u.   MegaHertz   Gauss  10(-4) cm-1        Axes

              Baa    -0.0987   -13.248    -4.727    -4.419 -0.2960  0.3906  0.8716
     1 C(13)  Bbb     0.0012     0.157     0.056     0.052 -0.1798  0.8734 -0.4525
              Bcc     0.0976    13.092     4.671     4.367  0.9381  0.2907  0.1883
 
              Baa    -0.1230   -16.499    -5.887    -5.504  0.7931 -0.5624  0.2340
     2 C(13)  Bbb    -0.1108   -14.864    -5.304    -4.958  0.6077  0.7039 -0.3678
              Bcc     0.2337    31.363    11.191    10.462  0.0422  0.4339  0.9000
 
              Baa    -0.1319   -17.702    -6.316    -5.905 -0.4205  0.8256 -0.3762
     3 C(13)  Bbb    -0.1222   -16.396    -5.850    -5.469  0.9030  0.3406 -0.2618
              Bcc     0.2541    34.098    12.167    11.374  0.0880  0.4498  0.8888
 
              Baa    -0.1009   -13.545    -4.833    -4.518  0.0748  0.4481  0.8908
     4 C(13)  Bbb     0.0443     5.938     2.119     1.981  0.1429  0.8793 -0.4543
              Bcc     0.0567     7.606     2.714     2.537  0.9869 -0.1613 -0.0017
 
              Baa    -0.0080    -4.294    -1.532    -1.432  0.9371  0.3425 -0.0669
     5 H(1)   Bbb    -0.0078    -4.171    -1.488    -1.391 -0.0880  0.4173  0.9045
              Bcc     0.0159     8.464     3.020     2.823 -0.3377  0.8417 -0.4212
 
              Baa    -0.3739   -50.173   -17.903   -16.736  0.8298 -0.5320  0.1686
     6 C(13)  Bbb    -0.3423   -45.938   -16.392   -15.323  0.5439  0.7035 -0.4574
              Bcc     0.7162    96.111    34.295    32.059  0.1247  0.4712  0.8731
 
              Baa    -0.1134   -15.213    -5.428    -5.074  0.0594  0.4192  0.9060
     7 C(13)  Bbb     0.0476     6.389     2.280     2.131 -0.3605  0.8553 -0.3721
              Bcc     0.0658     8.824     3.149     2.943  0.9309  0.3045 -0.2019
 
              Baa    -0.0142    -7.557    -2.697    -2.521 -0.0189  0.4897  0.8717
     8 H(1)   Bbb     0.0023     1.234     0.440     0.412  0.8878 -0.3928  0.2399
              Bcc     0.0119     6.324     2.256     2.109  0.4599  0.7784 -0.4273
 
              Baa    -0.1628   -21.851    -7.797    -7.289 -0.1280  0.8983 -0.4204
     9 C(13)  Bbb    -0.1463   -19.632    -7.005    -6.548  0.9911  0.1004 -0.0871
              Bcc     0.3091    41.483    14.802    13.837  0.0360  0.4278  0.9032
 
              Baa    -0.0050    -2.655    -0.947    -0.886  0.0645  0.4103  0.9097
    10 H(1)   Bbb    -0.0005    -0.273    -0.097    -0.091  0.2004  0.8877 -0.4146
              Bcc     0.0055     2.927     1.045     0.976  0.9776 -0.2090  0.0250
 
              Baa    -0.5387   -72.291   -25.795   -24.114  0.6322 -0.0184  0.7746
    11 C(13)  Bbb    -0.5218   -70.021   -24.985   -23.357  0.5486  0.7166 -0.4308
              Bcc     1.0605   142.312    50.780    47.470 -0.5471  0.6972  0.4631
 
              Baa    -0.0447   -23.867    -8.516    -7.961  0.9113  0.3100 -0.2711
    12 H(1)   Bbb    -0.0146    -7.809    -2.787    -2.605  0.1079  0.4554  0.8837
              Bcc     0.0594    31.677    11.303    10.566 -0.3974  0.8346 -0.3816
 
              Baa    -0.0056    -2.989    -1.066    -0.997  0.0470  0.4629  0.8852
    13 H(1)   Bbb    -0.0020    -1.081    -0.386    -0.361 -0.3451  0.8391 -0.4205
              Bcc     0.0076     4.070     1.452     1.358  0.9374  0.2858 -0.1992
 
              Baa    -0.0219   -11.694    -4.173    -3.901 -0.0827  0.9020 -0.4238
    14 H(1)   Bbb    -0.0025    -1.330    -0.475    -0.444  0.0398  0.4279  0.9030
              Bcc     0.0244    13.024     4.647     4.344  0.9958  0.0578 -0.0713
 
              Baa    -0.0704   -37.564   -13.404   -12.530 -0.0051 -0.5673  0.8235
    15 H(1)   Bbb    -0.0114    -6.061    -2.163    -2.022 -0.5459  0.6916  0.4730
              Bcc     0.0818    43.626    15.567    14.552  0.8378  0.4472  0.3132
 
              Baa    -0.0689   -36.749   -13.113   -12.258  0.7809  0.6241  0.0268
    16 H(1)   Bbb    -0.0106    -5.677    -2.026    -1.894 -0.5633  0.6850  0.4621
              Bcc     0.0795    42.426    15.139    14.152  0.2700 -0.3759  0.8864
 

 ---------------------------------------------------------------------------------

 Calling FoFJK, ICntrl=      2127 FMM=F ISym2X=0 I1Cent= 0 IOpClX= 1 NMat=1 NMatS=1 NMatT=0.
 Cartesian Forces:  Max     0.035179089 RMS     0.003976826
 SvSCFP is copying densities from files   528 and   530 to   603.
 ONIOM: saving gridpoint  2
 ONIOM: restoring gridpoint 17
 ONIOM: restoring gridpoint  1 on chk file.
 ONIOM: generating point  1 -- low level on model system.
 Standard basis: VSTO-6G (5D, 7F)
    40 basis functions,   240 primitive gaussians,    40 cartesian basis functions
    21 alpha electrons       19 beta electrons
       nuclear repulsion energy       184.5867495518 Hartrees.
 Integral buffers will be    131072 words long.
 Regular integral format.
 Two-electron integral symmetry is turned off.
 Do NDO integrals.
 One-electron integrals computed using PRISM.
 NBasis=    40 RedAO= F EigKep=  0.00D+00  NBF=    40
 NBsUse=    40 1.00D-04 EigRej=  0.00D+00 NBFU=    40
 Initial guess from the checkpoint file:  "b.chk"
 B after Tr=     0.000836    0.000221    0.001404
         Rot=    1.000000   -0.000168   -0.000247    0.000112 Ang=  -0.04 deg.
 Initial guess <Sx>= 0.0000 <Sy>= 0.0000 <Sz>= 1.0000 <S**2>= 2.3218 S= 1.1037
 Keep J ints in memory in canonical form, NReq=867663.
 Overlap will be assumed to be unity.
 Requested convergence on RMS density matrix=1.00D-08 within  64 cycles.
 Requested convergence on MAX density matrix=1.00D-06.
 Requested convergence on             energy=1.00D-06.
 No special actions if energy rises.
 SCF Done:  E(UPM6) =  0.111647744621     A.U. after   14 cycles
            NFock= 13  Conv=0.68D-08     -V/T= 1.0018
 <Sx>= 0.0000 <Sy>= 0.0000 <Sz>= 1.0000 <S**2>= 2.3215 S= 1.1036
 <L.S>=  0.00000000000    
 Annihilation of the first spin contaminant:
 S**2 before annihilation     2.3215,   after     2.0530
 QCSCF skips out because SCF is already converged.

 **********************************************************************

            Population analysis using the SCF Density.

 **********************************************************************

 Alpha  occ. eigenvalues --   -1.09876  -1.00458  -0.95936  -0.91084  -0.81641
 Alpha  occ. eigenvalues --   -0.77986  -0.71836  -0.63959  -0.58889  -0.56928
 Alpha  occ. eigenvalues --   -0.54565  -0.52390  -0.51487  -0.50361  -0.48602
 Alpha  occ. eigenvalues --   -0.45095  -0.43357  -0.40796  -0.37149  -0.35896
 Alpha  occ. eigenvalues --   -0.29964
 Alpha virt. eigenvalues --    0.01857   0.02547   0.09682   0.15272   0.15574
 Alpha virt. eigenvalues --    0.17246   0.18231   0.18324   0.18981   0.19641
 Alpha virt. eigenvalues --    0.20342   0.20848   0.21476   0.22013   0.22269
 Alpha virt. eigenvalues --    0.22497   0.22821   0.23166   0.23402
  Beta  occ. eigenvalues --   -1.09749  -0.99776  -0.95832  -0.90030  -0.80943
  Beta  occ. eigenvalues --   -0.77753  -0.71137  -0.63362  -0.58239  -0.56544
  Beta  occ. eigenvalues --   -0.53569  -0.52250  -0.50274  -0.48902  -0.47630
  Beta  occ. eigenvalues --   -0.44545  -0.43135  -0.36794  -0.36271
  Beta virt. eigenvalues --   -0.03375   0.02191   0.02667   0.06993   0.10826
  Beta virt. eigenvalues --    0.15702   0.15940   0.17921   0.18487   0.18867
  Beta virt. eigenvalues --    0.19472   0.20277   0.20709   0.21322   0.21794
  Beta virt. eigenvalues --    0.22354   0.22901   0.22966   0.23167   0.23506
  Beta virt. eigenvalues --    0.23839
          Condensed to atoms (all electrons):
          Atomic-Atomic Spin Densities.
 Mulliken charges and spin densities:
               1          2
     1  C    0.041725  -0.375000
     2  C   -0.173572   0.442486
     3  C   -0.161205   0.456160
     4  C   -0.134413  -0.361875
     5  H    0.148069  -0.015488
     6  C   -0.170734   0.793685
     7  C   -0.140652  -0.364688
     8  H    0.150924  -0.016086
     9  C   -0.147168   0.445832
    10  H    0.144718   0.012594
    11  C   -0.305657   1.037011
    12  H    0.153326  -0.010219
    13  H    0.144432   0.012737
    14  H    0.145154  -0.015344
    15  H    0.152284  -0.021727
    16  H    0.152771  -0.020079
    17  C    0.000000   0.000000
    18  H    0.000000   0.000000
    19  H    0.000000   0.000000
    20  Cl   0.000000   0.000000
    21  Cl   0.000000   0.000000
    22  C    0.000000   0.000000
    23  H    0.000000   0.000000
    24  H    0.000000   0.000000
    25  Cl   0.000000   0.000000
    26  Cl   0.000000   0.000000
    27  C    0.000000   0.000000
    28  H    0.000000   0.000000
    29  H    0.000000   0.000000
    30  Cl   0.000000   0.000000
    31  Cl   0.000000   0.000000
    32  C    0.000000   0.000000
    33  H    0.000000   0.000000
    34  H    0.000000   0.000000
    35  Cl   0.000000   0.000000
    36  Cl   0.000000   0.000000
    37  C    0.000000   0.000000
    38  H    0.000000   0.000000
    39  H    0.000000   0.000000
    40  Cl   0.000000   0.000000
    41  Cl   0.000000   0.000000
    42  C    0.000000   0.000000
    43  H    0.000000   0.000000
    44  H    0.000000   0.000000
    45  Cl   0.000000   0.000000
    46  Cl   0.000000   0.000000
    47  C    0.000000   0.000000
    48  H    0.000000   0.000000
    49  H    0.000000   0.000000
    50  Cl   0.000000   0.000000
    51  Cl   0.000000   0.000000
    52  C    0.000000   0.000000
    53  H    0.000000   0.000000
    54  H    0.000000   0.000000
    55  Cl   0.000000   0.000000
    56  Cl   0.000000   0.000000
    57  C    0.000000   0.000000
    58  H    0.000000   0.000000
    59  H    0.000000   0.000000
    60  Cl   0.000000   0.000000
    61  Cl   0.000000   0.000000
    62  C    0.000000   0.000000
    63  H    0.000000   0.000000
    64  H    0.000000   0.000000
    65  Cl   0.000000   0.000000
    66  Cl   0.000000   0.000000
    67  C    0.000000   0.000000
    68  H    0.000000   0.000000
    69  H    0.000000   0.000000
    70  Cl   0.000000   0.000000
    71  Cl   0.000000   0.000000
    72  C    0.000000   0.000000
    73  H    0.000000   0.000000
    74  H    0.000000   0.000000
    75  Cl   0.000000   0.000000
    76  Cl   0.000000   0.000000
    77  C    0.000000   0.000000
    78  H    0.000000   0.000000
    79  H    0.000000   0.000000
    80  Cl   0.000000   0.000000
    81  Cl   0.000000   0.000000
    82  C    0.000000   0.000000
    83  H    0.000000   0.000000
    84  H    0.000000   0.000000
    85  Cl   0.000000   0.000000
    86  Cl   0.000000   0.000000
    87  C    0.000000   0.000000
    88  H    0.000000   0.000000
    89  H    0.000000   0.000000
    90  Cl   0.000000   0.000000
    91  Cl   0.000000   0.000000
 Sum of Mulliken charges =  -0.00000   2.00000
 Mulliken charges and spin densities with hydrogens summed into heavy atoms:
               1          2
     1  C    0.041725  -0.375000
     2  C   -0.025504   0.426998
     3  C   -0.010281   0.440074
     4  C    0.010305  -0.349281
     6  C   -0.017408   0.783466
     7  C    0.003779  -0.351951
     9  C   -0.002014   0.430488
    11  C   -0.000603   0.995205
    17  C    0.000000   0.000000
    20  Cl   0.000000   0.000000
    21  Cl   0.000000   0.000000
    22  C    0.000000   0.000000
    25  Cl   0.000000   0.000000
    26  Cl   0.000000   0.000000
    27  C    0.000000   0.000000
    30  Cl   0.000000   0.000000
    31  Cl   0.000000   0.000000
    32  C    0.000000   0.000000
    35  Cl   0.000000   0.000000
    36  Cl   0.000000   0.000000
    37  C    0.000000   0.000000
    40  Cl   0.000000   0.000000
    41  Cl   0.000000   0.000000
    42  C    0.000000   0.000000
    45  Cl   0.000000   0.000000
    46  Cl   0.000000   0.000000
    47  C    0.000000   0.000000
    50  Cl   0.000000   0.000000
    51  Cl   0.000000   0.000000
    52  C    0.000000   0.000000
    55  Cl   0.000000   0.000000
    56  Cl   0.000000   0.000000
    57  C    0.000000   0.000000
    60  Cl   0.000000   0.000000
    61  Cl   0.000000   0.000000
    62  C    0.000000   0.000000
    65  Cl   0.000000   0.000000
    66  Cl   0.000000   0.000000
    67  C    0.000000   0.000000
    70  Cl   0.000000   0.000000
    71  Cl   0.000000   0.000000
    72  C    0.000000   0.000000
    75  Cl   0.000000   0.000000
    76  Cl   0.000000   0.000000
    77  C    0.000000   0.000000
    80  Cl   0.000000   0.000000
    81  Cl   0.000000   0.000000
    82  C    0.000000   0.000000
    85  Cl   0.000000   0.000000
    86  Cl   0.000000   0.000000
    87  C    0.000000   0.000000
    90  Cl   0.000000   0.000000
    91  Cl   0.000000   0.000000
 Charge=             -0.0000 electrons
 Dipole moment (field-independent basis, Debye):
    X=             -0.0163    Y=              0.0291    Z=             -0.0869  Tot=              0.0930
 N-N= 1.845867495518D+02 E-N=-2.806055606155D+02  KE=-6.319476666428D+01
 Calling FoFJK, ICntrl=      2127 FMM=F ISym2X=0 I1Cent= 0 IOpClX= 1 NMat=1 NMatS=1 NMatT=0.
 Cartesian Forces:  Max     0.022406104 RMS     0.003141481
 SvSCFP is copying densities from files   528 and   530 to   603.
 ONIOM: saving gridpoint  1
 ONIOM: restoring gridpoint  3
 ONIOM: calculating energy.
 ONIOM: gridpoint  1 method:  low   system:  model energy:     0.111647744621
 ONIOM: gridpoint  2 method:  high  system:  model energy:  -309.578637054397
 ONIOM: gridpoint  3 method:  low   system:  real  energy:    -0.404741055064
 ONIOM: extrapolated energy =    -310.095025854082
 ONIOM: calculating first derivatives.
 ONIOM: calculating electric field derivatives.
 ONIOM: Integrating ONIOM file  4 number   619
 ONIOM: Dipole        =-3.19508823D-01-8.00502548D-02 2.06131344D-01
 ONIOM: Dipole moment (Debye):
    X=    -0.8121    Y=    -0.2035    Z=     0.5239  Tot=     0.9876
 ONIOM: Integrating ONIOM file  5 number   695
 Anisotropic Hyperfine tensors: 
                 1             2             3             4             5 
      1   0.772399D-01 -0.117819D+00 -0.120992D+00  0.555491D-01 -0.531828D-02
      2   0.378408D-01  0.117406D-01  0.182694D-01 -0.684262D-02 -0.680647D-02
      3  -0.592863D-02 -0.497760D-01 -0.526798D-01  0.154229D-01  0.893521D-02
      4   0.428068D-01  0.108164D-01  0.278832D-01 -0.969015D-02  0.338305D-02
      5  -0.287362D-01  0.136116D+00  0.153457D+00 -0.579564D-01 -0.839023D-02
      6  -0.713112D-01  0.167595D+00  0.173672D+00 -0.709720D-01 -0.361693D-02
                 6             7             8             9            10 
      1  -0.347595D+00  0.627665D-01  0.432369D-02 -0.145979D+00  0.520215D-02
      2   0.761570D-01  0.113524D-02  0.356748D-02  0.891185D-02 -0.134339D-02
      3  -0.116197D+00  0.210066D-01  0.414110D-02 -0.763029D-01 -0.100055D-02
      4   0.110884D+00 -0.120745D-01 -0.160284D-02  0.139126D-01 -0.115257D-03
      5   0.438384D+00 -0.622502D-01 -0.102068D-01  0.182201D+00 -0.169771D-02
      6   0.463793D+00 -0.837730D-01 -0.846478D-02  0.222281D+00 -0.420160D-02
                11            12            13            14            15 
      1  -0.548710D-01 -0.279423D-01  0.644852D-02  0.240498D-01  0.540077D-01
      2  -0.603446D+00 -0.330457D-01  0.250845D-02  0.299911D-02  0.347183D-01
      3   0.247429D+00  0.340164D-01 -0.200376D-02 -0.182056D-01 -0.117389D-01
      4  -0.409241D+00  0.186550D-01 -0.195078D-02 -0.259104D-02  0.246830D-01
      5   0.511196D+00 -0.210368D-01 -0.201424D-02  0.731410D-02  0.406246D-01
      6  -0.192558D+00 -0.607415D-02 -0.444476D-02 -0.584420D-02 -0.422688D-01
                16            17            18            19            20 
      1  -0.395785D-01  0.000000D+00  0.000000D+00  0.000000D+00  0.000000D+00
      2  -0.375331D-01  0.000000D+00  0.000000D+00  0.000000D+00  0.000000D+00
      3  -0.205824D-01  0.000000D+00  0.000000D+00  0.000000D+00  0.000000D+00
      4   0.203636D-01  0.000000D+00  0.000000D+00  0.000000D+00  0.000000D+00
      5  -0.310147D-01  0.000000D+00  0.000000D+00  0.000000D+00  0.000000D+00
      6   0.601609D-01  0.000000D+00  0.000000D+00  0.000000D+00  0.000000D+00
                21            22            23            24            25 
      1   0.000000D+00  0.000000D+00  0.000000D+00  0.000000D+00  0.000000D+00
      2   0.000000D+00  0.000000D+00  0.000000D+00  0.000000D+00  0.000000D+00
      3   0.000000D+00  0.000000D+00  0.000000D+00  0.000000D+00  0.000000D+00
      4   0.000000D+00  0.000000D+00  0.000000D+00  0.000000D+00  0.000000D+00
      5   0.000000D+00  0.000000D+00  0.000000D+00  0.000000D+00  0.000000D+00
      6   0.000000D+00  0.000000D+00  0.000000D+00  0.000000D+00  0.000000D+00
                26            27            28            29            30 
      1   0.000000D+00  0.000000D+00  0.000000D+00  0.000000D+00  0.000000D+00
      2   0.000000D+00  0.000000D+00  0.000000D+00  0.000000D+00  0.000000D+00
      3   0.000000D+00  0.000000D+00  0.000000D+00  0.000000D+00  0.000000D+00
      4   0.000000D+00  0.000000D+00  0.000000D+00  0.000000D+00  0.000000D+00
      5   0.000000D+00  0.000000D+00  0.000000D+00  0.000000D+00  0.000000D+00
      6   0.000000D+00  0.000000D+00  0.000000D+00  0.000000D+00  0.000000D+00
                31            32            33            34            35 
      1   0.000000D+00  0.000000D+00  0.000000D+00  0.000000D+00  0.000000D+00
      2   0.000000D+00  0.000000D+00  0.000000D+00  0.000000D+00  0.000000D+00
      3   0.000000D+00  0.000000D+00  0.000000D+00  0.000000D+00  0.000000D+00
      4   0.000000D+00  0.000000D+00  0.000000D+00  0.000000D+00  0.000000D+00
      5   0.000000D+00  0.000000D+00  0.000000D+00  0.000000D+00  0.000000D+00
      6   0.000000D+00  0.000000D+00  0.000000D+00  0.000000D+00  0.000000D+00
                36            37            38            39            40 
      1   0.000000D+00  0.000000D+00  0.000000D+00  0.000000D+00  0.000000D+00
      2   0.000000D+00  0.000000D+00  0.000000D+00  0.000000D+00  0.000000D+00
      3   0.000000D+00  0.000000D+00  0.000000D+00  0.000000D+00  0.000000D+00
      4   0.000000D+00  0.000000D+00  0.000000D+00  0.000000D+00  0.000000D+00
      5   0.000000D+00  0.000000D+00  0.000000D+00  0.000000D+00  0.000000D+00
      6   0.000000D+00  0.000000D+00  0.000000D+00  0.000000D+00  0.000000D+00
                41            42            43            44            45 
      1   0.000000D+00  0.000000D+00  0.000000D+00  0.000000D+00  0.000000D+00
      2   0.000000D+00  0.000000D+00  0.000000D+00  0.000000D+00  0.000000D+00
      3   0.000000D+00  0.000000D+00  0.000000D+00  0.000000D+00  0.000000D+00
      4   0.000000D+00  0.000000D+00  0.000000D+00  0.000000D+00  0.000000D+00
      5   0.000000D+00  0.000000D+00  0.000000D+00  0.000000D+00  0.000000D+00
      6   0.000000D+00  0.000000D+00  0.000000D+00  0.000000D+00  0.000000D+00
                46            47            48            49            50 
      1   0.000000D+00  0.000000D+00  0.000000D+00  0.000000D+00  0.000000D+00
      2   0.000000D+00  0.000000D+00  0.000000D+00  0.000000D+00  0.000000D+00
      3   0.000000D+00  0.000000D+00  0.000000D+00  0.000000D+00  0.000000D+00
      4   0.000000D+00  0.000000D+00  0.000000D+00  0.000000D+00  0.000000D+00
      5   0.000000D+00  0.000000D+00  0.000000D+00  0.000000D+00  0.000000D+00
      6   0.000000D+00  0.000000D+00  0.000000D+00  0.000000D+00  0.000000D+00
                51            52            53            54            55 
      1   0.000000D+00  0.000000D+00  0.000000D+00  0.000000D+00  0.000000D+00
      2   0.000000D+00  0.000000D+00  0.000000D+00  0.000000D+00  0.000000D+00
      3   0.000000D+00  0.000000D+00  0.000000D+00  0.000000D+00  0.000000D+00
      4   0.000000D+00  0.000000D+00  0.000000D+00  0.000000D+00  0.000000D+00
      5   0.000000D+00  0.000000D+00  0.000000D+00  0.000000D+00  0.000000D+00
      6   0.000000D+00  0.000000D+00  0.000000D+00  0.000000D+00  0.000000D+00
                56            57            58            59            60 
      1   0.000000D+00  0.000000D+00  0.000000D+00  0.000000D+00  0.000000D+00
      2   0.000000D+00  0.000000D+00  0.000000D+00  0.000000D+00  0.000000D+00
      3   0.000000D+00  0.000000D+00  0.000000D+00  0.000000D+00  0.000000D+00
      4   0.000000D+00  0.000000D+00  0.000000D+00  0.000000D+00  0.000000D+00
      5   0.000000D+00  0.000000D+00  0.000000D+00  0.000000D+00  0.000000D+00
      6   0.000000D+00  0.000000D+00  0.000000D+00  0.000000D+00  0.000000D+00
                61            62            63            64            65 
      1   0.000000D+00  0.000000D+00  0.000000D+00  0.000000D+00  0.000000D+00
      2   0.000000D+00  0.000000D+00  0.000000D+00  0.000000D+00  0.000000D+00
      3   0.000000D+00  0.000000D+00  0.000000D+00  0.000000D+00  0.000000D+00
      4   0.000000D+00  0.000000D+00  0.000000D+00  0.000000D+00  0.000000D+00
      5   0.000000D+00  0.000000D+00  0.000000D+00  0.000000D+00  0.000000D+00
      6   0.000000D+00  0.000000D+00  0.000000D+00  0.000000D+00  0.000000D+00
                66            67            68            69            70 
      1   0.000000D+00  0.000000D+00  0.000000D+00  0.000000D+00  0.000000D+00
      2   0.000000D+00  0.000000D+00  0.000000D+00  0.000000D+00  0.000000D+00
      3   0.000000D+00  0.000000D+00  0.000000D+00  0.000000D+00  0.000000D+00
      4   0.000000D+00  0.000000D+00  0.000000D+00  0.000000D+00  0.000000D+00
      5   0.000000D+00  0.000000D+00  0.000000D+00  0.000000D+00  0.000000D+00
      6   0.000000D+00  0.000000D+00  0.000000D+00  0.000000D+00  0.000000D+00
                71            72            73            74            75 
      1   0.000000D+00  0.000000D+00  0.000000D+00  0.000000D+00  0.000000D+00
      2   0.000000D+00  0.000000D+00  0.000000D+00  0.000000D+00  0.000000D+00
      3   0.000000D+00  0.000000D+00  0.000000D+00  0.000000D+00  0.000000D+00
      4   0.000000D+00  0.000000D+00  0.000000D+00  0.000000D+00  0.000000D+00
      5   0.000000D+00  0.000000D+00  0.000000D+00  0.000000D+00  0.000000D+00
      6   0.000000D+00  0.000000D+00  0.000000D+00  0.000000D+00  0.000000D+00
                76            77            78            79            80 
      1   0.000000D+00  0.000000D+00  0.000000D+00  0.000000D+00  0.000000D+00
      2   0.000000D+00  0.000000D+00  0.000000D+00  0.000000D+00  0.000000D+00
      3   0.000000D+00  0.000000D+00  0.000000D+00  0.000000D+00  0.000000D+00
      4   0.000000D+00  0.000000D+00  0.000000D+00  0.000000D+00  0.000000D+00
      5   0.000000D+00  0.000000D+00  0.000000D+00  0.000000D+00  0.000000D+00
      6   0.000000D+00  0.000000D+00  0.000000D+00  0.000000D+00  0.000000D+00
                81            82            83            84            85 
      1   0.000000D+00  0.000000D+00  0.000000D+00  0.000000D+00  0.000000D+00
      2   0.000000D+00  0.000000D+00  0.000000D+00  0.000000D+00  0.000000D+00
      3   0.000000D+00  0.000000D+00  0.000000D+00  0.000000D+00  0.000000D+00
      4   0.000000D+00  0.000000D+00  0.000000D+00  0.000000D+00  0.000000D+00
      5   0.000000D+00  0.000000D+00  0.000000D+00  0.000000D+00  0.000000D+00
      6   0.000000D+00  0.000000D+00  0.000000D+00  0.000000D+00  0.000000D+00
                86            87            88            89            90 
      1   0.000000D+00  0.000000D+00  0.000000D+00  0.000000D+00  0.000000D+00
      2   0.000000D+00  0.000000D+00  0.000000D+00  0.000000D+00  0.000000D+00
      3   0.000000D+00  0.000000D+00  0.000000D+00  0.000000D+00  0.000000D+00
      4   0.000000D+00  0.000000D+00  0.000000D+00  0.000000D+00  0.000000D+00
      5   0.000000D+00  0.000000D+00  0.000000D+00  0.000000D+00  0.000000D+00
      6   0.000000D+00  0.000000D+00  0.000000D+00  0.000000D+00  0.000000D+00
                91 
      1   0.000000D+00
      2   0.000000D+00
      3   0.000000D+00
      4   0.000000D+00
      5   0.000000D+00
      6   0.000000D+00
 ONIOM Fermi contact: 
               1
     1  C   -0.003364
     2  C    0.024819
     3  C    0.030595
     4  C   -0.019433
     5  H   -0.003690
     6  C    0.045720
     7  C   -0.021410
     8  H   -0.004030
     9  C    0.034492
    10  H    0.001529
    11  C    0.084788
    12  H    0.003602
    13  H    0.001728
    14  H   -0.004734
    15  H   -0.006568
    16  H   -0.005459
    17  C    0.000000
    18  H    0.000000
    19  H    0.000000
    20  Cl   0.000000
    21  Cl   0.000000
    22  C    0.000000
    23  H    0.000000
    24  H    0.000000
    25  Cl   0.000000
    26  Cl   0.000000
    27  C    0.000000
    28  H    0.000000
    29  H    0.000000
    30  Cl   0.000000
    31  Cl   0.000000
    32  C    0.000000
    33  H    0.000000
    34  H    0.000000
    35  Cl   0.000000
    36  Cl   0.000000
    37  C    0.000000
    38  H    0.000000
    39  H    0.000000
    40  Cl   0.000000
    41  Cl   0.000000
    42  C    0.000000
    43  H    0.000000
    44  H    0.000000
    45  Cl   0.000000
    46  Cl   0.000000
    47  C    0.000000
    48  H    0.000000
    49  H    0.000000
    50  Cl   0.000000
    51  Cl   0.000000
    52  C    0.000000
    53  H    0.000000
    54  H    0.000000
    55  Cl   0.000000
    56  Cl   0.000000
    57  C    0.000000
    58  H    0.000000
    59  H    0.000000
    60  Cl   0.000000
    61  Cl   0.000000
    62  C    0.000000
    63  H    0.000000
    64  H    0.000000
    65  Cl   0.000000
    66  Cl   0.000000
    67  C    0.000000
    68  H    0.000000
    69  H    0.000000
    70  Cl   0.000000
    71  Cl   0.000000
    72  C    0.000000
    73  H    0.000000
    74  H    0.000000
    75  Cl   0.000000
    76  Cl   0.000000
    77  C    0.000000
    78  H    0.000000
    79  H    0.000000
    80  Cl   0.000000
[...]
   Y21       -2.20975  -0.00002   0.00000   0.00008  -0.00026  -2.21001
   Z21        2.96617   0.00003   0.00000   0.00173   0.00076   2.96693
   X22       10.82963  -0.00000   0.00000  -0.00011  -0.00001  10.82963
   Y22       -2.02008   0.00002   0.00000   0.00029   0.00034  -2.01975
   Z22       -2.94884   0.00001   0.00000   0.00097   0.00003  -2.94881
   X23        8.79241  -0.00001   0.00000  -0.00016  -0.00006   8.79235
   Y23       -2.10108   0.00004   0.00000   0.00043   0.00042  -2.10066
   Z23       -2.44747  -0.00000   0.00000   0.00071  -0.00026  -2.44773
   X24       11.97259  -0.00001   0.00000  -0.00022  -0.00012  11.97247
   Y24       -3.17063  -0.00003   0.00000  -0.00044  -0.00047  -3.17110
   Z24       -1.62027  -0.00004   0.00000   0.00037  -0.00064  -1.62091
   X25       11.88394   0.00005   0.00000   0.00049   0.00056  11.88450
   Y25        1.15937   0.00000   0.00000   0.00003   0.00008   1.15945
   Z25       -2.85555   0.00009   0.00000   0.00216   0.00143  -2.85413
   X26       11.26761  -0.00000   0.00000  -0.00023  -0.00008  11.26753
   Y26       -3.12581   0.00015   0.00000   0.00137   0.00162  -3.12419
   Z26       -6.06980  -0.00004   0.00000   0.00068  -0.00033  -6.07013
   X27        3.98033  -0.00009   0.00000  -0.00101  -0.00105   3.97928
   Y27        6.01897   0.00006   0.00000   0.00105   0.00065   6.01962
   Z27        2.91460  -0.00001   0.00000   0.00057   0.00006   2.91466
   X28        3.45084  -0.00008   0.00000  -0.00088  -0.00090   3.44994
   Y28        4.05929   0.00008   0.00000   0.00137   0.00100   4.06029
   Z28        2.36729  -0.00011   0.00000  -0.00092  -0.00155   2.36574
   X29        2.56843  -0.00010   0.00000  -0.00104  -0.00109   2.56734
   Y29        7.39335   0.00011   0.00000   0.00149   0.00113   7.39448
   Z29        2.18670   0.00009   0.00000   0.00137   0.00094   2.18764
   X30        7.01089  -0.00006   0.00000  -0.00079  -0.00083   7.01006
   Y30        6.76288   0.00014   0.00000   0.00207   0.00178   6.76466
   Z30        1.69696   0.00011   0.00000   0.00174   0.00131   1.69827
   X31        4.18546  -0.00007   0.00000  -0.00098  -0.00106   4.18440
   Y31        6.25651  -0.00017   0.00000  -0.00124  -0.00184   6.25467
   Z31        6.24615   0.00001   0.00000   0.00076   0.00027   6.24642
   X32       -4.27605  -0.00000   0.00000  -0.00011  -0.00014  -4.27619
   Y32        1.53981  -0.00007   0.00000  -0.00031  -0.00102   1.53879
   Z32        6.56263   0.00004   0.00000   0.00147   0.00059   6.56322
   X33       -3.56751  -0.00015   0.00000  -0.00157  -0.00158  -3.56910
   Y33       -0.43420  -0.00012   0.00000  -0.00086  -0.00157  -0.43577
   Z33        6.61556   0.00007   0.00000   0.00141   0.00041   6.61597
   X34       -4.15454  -0.00010   0.00000  -0.00102  -0.00108  -4.15562
   Y34        2.44896  -0.00011   0.00000  -0.00087  -0.00170   2.44726
   Z34        8.45007   0.00006   0.00000   0.00167   0.00085   8.45092
   X35       -7.45390   0.00006   0.00000   0.00057   0.00054  -7.45335
   Y35        1.55387   0.00006   0.00000   0.00182   0.00114   1.55501
   Z35        5.50855  -0.00012   0.00000  -0.00032  -0.00122   5.50733
   X36       -2.46622   0.00022   0.00000   0.00257   0.00254  -2.46368
   Y36        3.28920  -0.00010   0.00000  -0.00051  -0.00107   3.28813
   Z36        4.35626   0.00021   0.00000   0.00350   0.00276   4.35902
   X37       -1.98874  -0.00008   0.00000  -0.00089  -0.00102  -1.98976
   Y37        8.62153   0.00002   0.00000   0.00106   0.00024   8.62177
   Z37        8.66451   0.00006   0.00000   0.00113   0.00072   8.66524
   X38       -0.72801  -0.00010   0.00000  -0.00101  -0.00116  -0.72917
   Y38       10.27590   0.00001   0.00000   0.00086   0.00004  10.27593
   Z38        8.90688   0.00021   0.00000   0.00252   0.00223   8.90911
   X39       -1.66257  -0.00005   0.00000  -0.00058  -0.00068  -1.66325
   Y39        7.70623   0.00015   0.00000   0.00225   0.00155   7.70777
   Z39        6.80391  -0.00000   0.00000   0.00052   0.00006   6.80397
   X40       -5.17363  -0.00009   0.00000  -0.00090  -0.00104  -5.17467
   Y40        9.57155  -0.00002   0.00000   0.00095   0.00008   9.57163
   Z40        8.92132   0.00008   0.00000   0.00144   0.00106   8.92239
   X41       -1.39556  -0.00011   0.00000  -0.00111  -0.00124  -1.39680
   Y41        6.40167  -0.00011   0.00000  -0.00010  -0.00107   6.40060
   Z41       11.11376  -0.00005   0.00000   0.00010  -0.00044  11.11331
   X42        8.37853  -0.00001   0.00000  -0.00027  -0.00015   8.37837
   Y42        2.06387   0.00008   0.00000   0.00071   0.00108   2.06494
   Z42       -8.40557  -0.00000   0.00000   0.00072   0.00001  -8.40556
   X43        7.32088  -0.00006   0.00000  -0.00075  -0.00063   7.32025
   Y43        0.53791   0.00008   0.00000   0.00069   0.00098   0.53889
   Z43       -7.42492  -0.00006   0.00000   0.00005  -0.00077  -7.42570
   X44       10.44595  -0.00002   0.00000  -0.00032  -0.00020  10.44575
   Y44        1.72865   0.00006   0.00000   0.00043   0.00081   1.72946
   Z44       -8.27181   0.00006   0.00000   0.00100   0.00029  -8.27152
   X45        7.64031   0.00002   0.00000   0.00008   0.00015   7.64045
   Y45        5.02940   0.00007   0.00000   0.00056   0.00083   5.03023
   Z45       -7.01738   0.00002   0.00000   0.00117   0.00064  -7.01674
   X46        7.44125  -0.00001   0.00000  -0.00020  -0.00005   7.44120
   Y46        2.21755   0.00018   0.00000   0.00145   0.00201   2.21956
   Z46      -11.60776  -0.00000   0.00000   0.00080   0.00009 -11.60767
   X47      -10.24972   0.00020   0.00000   0.00201   0.00203 -10.24769
   Y47        3.73052   0.00014   0.00000   0.00210   0.00178   3.73231
   Z47       -0.73565   0.00005   0.00000   0.00148   0.00068  -0.73497
   X48      -11.94037   0.00015   0.00000   0.00155   0.00157 -11.93880
   Y48        2.66500   0.00030   0.00000   0.00354   0.00317   2.66816
   Z48       -0.10634   0.00012   0.00000   0.00227   0.00139  -0.10495
   X49       -8.73012   0.00018   0.00000   0.00233   0.00233  -8.72779
   Y49        3.65121   0.00011   0.00000   0.00169   0.00130   3.65250
   Z49        0.71008   0.00006   0.00000   0.00111   0.00032   0.71040
   X50      -11.09220   0.00024   0.00000   0.00311   0.00310 -11.08910
   Y50        6.91806   0.00013   0.00000   0.00217   0.00188   6.91994
   Z50       -1.29362  -0.00004   0.00000   0.00039  -0.00022  -1.29384
   X51       -9.13855  -0.00006   0.00000  -0.00047  -0.00040  -9.13895
   Y51        2.43727  -0.00002   0.00000  -0.00007  -0.00020   2.43707
   Z51       -3.61157   0.00004   0.00000   0.00159   0.00072  -3.61084
   X52       -3.00469  -0.00001   0.00000  -0.00017  -0.00006  -3.00475
   Y52        1.85203   0.00004   0.00000   0.00015   0.00035   1.85238
   Z52       -7.71776   0.00006   0.00000   0.00156   0.00072  -7.71704
   X53       -3.62115   0.00004   0.00000   0.00046   0.00059  -3.62057
   Y53        2.45253   0.00002   0.00000  -0.00011   0.00020   2.45273
   Z53       -9.62939   0.00004   0.00000   0.00119   0.00038  -9.62901
   X54       -4.06173  -0.00007   0.00000  -0.00096  -0.00088  -4.06261
   Y54        2.88111  -0.00001   0.00000  -0.00006   0.00004   2.88114
   Z54       -6.22089   0.00006   0.00000   0.00113   0.00034  -6.22055
   X55        0.27980  -0.00002   0.00000  -0.00043  -0.00033   0.27947
   Y55        2.45818   0.00008   0.00000   0.00081   0.00103   2.45921
   Z55       -7.37529   0.00013   0.00000   0.00271   0.00193  -7.37336
   X56       -3.46201   0.00008   0.00000   0.00064   0.00078  -3.46123
   Y56       -1.43785   0.00002   0.00000   0.00006   0.00024  -1.43762
   Z56       -7.36289   0.00004   0.00000   0.00190   0.00085  -7.36204
   X57       -2.65110   0.00005   0.00000   0.00098   0.00090  -2.65020
   Y57       11.13648   0.00011   0.00000   0.00177   0.00139  11.13787
   Z57        1.43906  -0.00015   0.00000  -0.00140  -0.00165   1.43740
   X58       -1.96489   0.00023   0.00000   0.00252   0.00246  -1.96244
   Y58       11.56142   0.00022   0.00000   0.00251   0.00227  11.56369
   Z58       -0.50037  -0.00007   0.00000  -0.00074  -0.00096  -0.50133
   X59       -4.32025   0.00012   0.00000   0.00156   0.00146  -4.31879
   Y59       12.30546   0.00020   0.00000   0.00270   0.00228  12.30774
   Z59        1.93350  -0.00014   0.00000  -0.00159  -0.00179   1.93171
   X60       -0.18986   0.00002   0.00000   0.00038   0.00027  -0.18959
   Y60       11.72284  -0.00017   0.00000  -0.00116  -0.00164  11.72120
   Z60        3.63693  -0.00004   0.00000  -0.00000  -0.00019   3.63673
   X61       -3.45392  -0.00011   0.00000  -0.00124  -0.00129  -3.45521
   Y61        7.89311   0.00012   0.00000   0.00217   0.00177   7.89489
   Z61        1.67794  -0.00027   0.00000  -0.00284  -0.00331   1.67463
   X62        2.09812  -0.00005   0.00000  -0.00066  -0.00071   2.09740
   Y62        0.62404   0.00004   0.00000   0.00132   0.00050   0.62454
   Z62        9.33333  -0.00011   0.00000  -0.00037  -0.00123   9.33210
   X63        1.38889  -0.00003   0.00000  -0.00013  -0.00019   1.38870
   Y63        2.51096   0.00005   0.00000   0.00128   0.00049   2.51145
   Z63        8.74697  -0.00013   0.00000  -0.00101  -0.00177   8.74520
   X64        3.69429  -0.00007   0.00000  -0.00075  -0.00081   3.69347
   Y64        0.80855   0.00001   0.00000   0.00089  -0.00000   0.80855
   Z64       10.67761  -0.00008   0.00000  -0.00030  -0.00114  10.67647
   X65        3.09305  -0.00006   0.00000  -0.00076  -0.00077   3.09228
   Y65       -1.08620  -0.00002   0.00000   0.00047  -0.00017  -1.08637
   Z65        6.64078  -0.00008   0.00000   0.00025  -0.00071   6.64007
   X66       -0.38076  -0.00011   0.00000  -0.00137  -0.00142  -0.38218
   Y66       -1.09687   0.00012   0.00000   0.00264   0.00170  -1.09517
   Z66       10.77876  -0.00013   0.00000  -0.00010  -0.00110  10.77766
   X67        2.01865   0.00005   0.00000   0.00044   0.00059   2.01924
   Y67       -4.10318   0.00004   0.00000  -0.00001   0.00012  -4.10307
   Z67       -5.72082   0.00002   0.00000   0.00156   0.00039  -5.72043
   X68        0.35778   0.00009   0.00000   0.00066   0.00083   0.35860
   Y68       -5.21682  -0.00002   0.00000  -0.00010   0.00005  -5.21677
   Z68       -6.34145   0.00004   0.00000   0.00124  -0.00001  -6.34147
   X69        1.42634   0.00003   0.00000   0.00034   0.00046   1.42680
   Y69       -2.20511  -0.00000   0.00000  -0.00025  -0.00017  -2.20528
   Z69       -5.03881   0.00013   0.00000   0.00227   0.00122  -5.03759
   X70        4.16726  -0.00001   0.00000  -0.00011   0.00006   4.16732
   Y70       -3.78196   0.00009   0.00000   0.00080   0.00111  -3.78084
   Z70       -8.25917  -0.00002   0.00000   0.00129   0.00017  -8.25900
   X71        3.60461   0.00008   0.00000   0.00075   0.00090   3.60551
   Y71       -5.73722  -0.00014   0.00000  -0.00142  -0.00143  -5.73865
   Z71       -3.26093  -0.00012   0.00000   0.00046  -0.00079  -3.26172
   X72        3.53413  -0.00007   0.00000  -0.00081  -0.00072   3.53341
   Y72        7.42196  -0.00002   0.00000  -0.00070  -0.00021   7.42175
   Z72      -11.25634  -0.00006   0.00000  -0.00046  -0.00089 -11.25723
   X73        5.36770  -0.00007   0.00000  -0.00081  -0.00071   5.36699
   Y73        7.21571   0.00007   0.00000   0.00041   0.00098   7.21669
   Z73      -12.25226  -0.00007   0.00000  -0.00063  -0.00105 -12.25332
   X74        3.35717   0.00001   0.00000   0.00002   0.00011   3.35728
   Y74        5.97387  -0.00007   0.00000  -0.00105  -0.00065   5.97322
   Z74       -9.75122  -0.00009   0.00000  -0.00072  -0.00124  -9.75246
   X75        3.33394  -0.00014   0.00000  -0.00186  -0.00182   3.33212
   Y75       10.48446  -0.00003   0.00000  -0.00088  -0.00047  10.48399
   Z75       -9.90245  -0.00006   0.00000  -0.00027  -0.00050  -9.90296
   X76        1.00994  -0.00003   0.00000  -0.00066  -0.00055   1.00939
   Y76        7.11684  -0.00006   0.00000  -0.00159  -0.00099   7.11585
   Z76      -13.41519  -0.00010   0.00000  -0.00048  -0.00095 -13.41614
   X77       -2.87940   0.00016   0.00000   0.00225   0.00228  -2.87712
   Y77        8.72631   0.00002   0.00000   0.00016   0.00032   8.72663
   Z77       -6.96165   0.00008   0.00000   0.00131   0.00091  -6.96075
   X78       -1.02781   0.00010   0.00000   0.00133   0.00137  -1.02643
   Y78        7.95742   0.00004   0.00000  -0.00035  -0.00014   7.95728
   Z78       -7.58125  -0.00006   0.00000  -0.00046  -0.00089  -7.58215
   X79       -2.88036   0.00033   0.00000   0.00308   0.00309  -2.87728
   Y79       10.82166  -0.00000   0.00000   0.00001   0.00017  10.82183
   Z79       -7.04897  -0.00018   0.00000  -0.00181  -0.00208  -7.05105
   X80       -5.32072  -0.00005   0.00000  -0.00064  -0.00058  -5.32130
   Y80        7.51763  -0.00023   0.00000  -0.00285  -0.00260   7.51503
   Z80       -8.89665   0.00052   0.00000   0.00682   0.00631  -8.89034
   X81       -3.50839   0.00052   0.00000   0.00658   0.00659  -3.50180
   Y81        7.75010   0.00031   0.00000   0.00406   0.00401   7.75411
   Z81       -3.81209   0.00022   0.00000   0.00342   0.00294  -3.80915
   X82        4.07787  -0.00019   0.00000  -0.00235  -0.00239   4.07548
   Y82       11.27480  -0.00027   0.00000  -0.00281  -0.00283  11.27197
   Z82       -3.06990  -0.00007   0.00000  -0.00071  -0.00089  -3.07079
   X83        5.23931  -0.00024   0.00000  -0.00256  -0.00257   5.23673
   Y83       11.19868  -0.00023   0.00000  -0.00310  -0.00300  11.19568
   Z83       -4.81378  -0.00010   0.00000  -0.00083  -0.00100  -4.81478
   X84        5.28566  -0.00025   0.00000  -0.00280  -0.00285   5.28281
   Y84       11.20462  -0.00039   0.00000  -0.00484  -0.00496  11.19967
   Z84       -1.35776  -0.00003   0.00000  -0.00047  -0.00064  -1.35840
   X85        2.24563   0.00014   0.00000   0.00144   0.00138   2.24700
   Y85       14.06697  -0.00004   0.00000  -0.00039  -0.00043  14.06654
   Z85       -3.05882  -0.00000   0.00000   0.00012   0.00010  -3.05872
   X86        1.93507  -0.00043   0.00000  -0.00538  -0.00539   1.92969
   Y86        8.69348  -0.00003   0.00000  -0.00028  -0.00032   8.69316
   Z86       -3.04144  -0.00022   0.00000  -0.00210  -0.00246  -3.04390
   X87       -8.27213   0.00002   0.00000   0.00027   0.00022  -8.27192
   Y87       12.99205  -0.00018   0.00000  -0.00188  -0.00202  12.99003
   Z87       -3.18732  -0.00002   0.00000   0.00003  -0.00016  -3.18748
   X88      -10.10865   0.00004   0.00000   0.00059   0.00054 -10.10811
   Y88       13.10214  -0.00005   0.00000  -0.00067  -0.00077  13.10137
   Z88       -4.18904  -0.00005   0.00000  -0.00046  -0.00066  -4.18970
   X89       -7.69733   0.00001   0.00000   0.00006   0.00003  -7.69730
   Y89       10.99143  -0.00020   0.00000  -0.00219  -0.00234  10.98908
   Z89       -2.91086  -0.00015   0.00000  -0.00156  -0.00188  -2.91273
   X90       -5.93966   0.00007   0.00000   0.00096   0.00091  -5.93875
   Y90       14.60817  -0.00004   0.00000  -0.00046  -0.00047  14.60771
   Z90       -4.95805   0.00019   0.00000   0.00229   0.00222  -4.95583
   X91       -8.52497  -0.00005   0.00000  -0.00046  -0.00056  -8.52552
   Y91       14.51294  -0.00038   0.00000  -0.00424  -0.00457  14.50838
   Z91       -0.22231   0.00008   0.00000   0.00117   0.00107  -0.22124
         Item               Value     Threshold  Converged?
 Maximum Force            0.052270     0.000450     NO 
 RMS     Force            0.006767     0.000300     NO 
 Maximum Displacement     0.149673     0.001800     NO 
 RMS     Displacement     0.018187     0.001200     NO 
 Predicted change in Energy=-1.294110D-02
 GradGradGradGradGradGradGradGradGradGradGradGradGradGradGradGradGradGrad

 Unable to Open any file for archive entry.
 1\1\GINC-X10P1N23\Force\ONIOM(B3LYP/6-31G(d):PM6)\Mixed\C23H38Cl30\MAY
 UMIAO\12-Jul-2024\0\\# scf=(xqc,maxcycle=64) force guess=read oniom(b3
 lyp/em=gd3bj/6-31g(d):pm6) nosymm\\Title Card\\0,1\C,0.55541923,-0.176
 51694,-0.17839019\C,-0.08344282,-1.29484269,0.4176225\C,-0.26538849,0.
 88201333,-0.64069714\C,-1.45600709,-1.35571937,0.53312749\H,0.53524082
 ,-2.11676496,0.77305658\C,1.977871,-0.14542313,-0.31152975\C,-1.642209
 61,0.81779676,-0.50495026\H,0.1869892,1.75330334,-1.10814389\C,-2.2516
 6589,-0.3006992,0.06496309\H,-1.92113254,-2.22506522,0.99071434\C,2.68
 787769,0.88669739,-1.00644657\H,2.51840474,-1.00098536,0.09954043\H,-2
 .25325533,1.64834925,-0.8497907\H,-3.33433712,-0.35442993,0.13924409\H
 ,3.61005671,1.3260665,-0.63397536\H,2.33478178,1.28206432,-1.95693491\
 C,4.97287645,0.55614485,1.99529348\H,5.25617104,1.14691061,1.09894512\
 H,3.9748961,0.85928261,2.3749883\Cl,6.18334689,0.7728532,3.25769621\Cl
 ,4.93624156,-1.16935069,1.56962855\C,5.73079506,-1.06898182,-1.5604599
 7\H,4.65274172,-1.11184235,-1.29514438\H,6.33562211,-1.67782608,-0.857
 41065\Cl,6.28870967,0.6135107,-1.51109427\Cl,5.96256421,-1.65410541,-3
 .21199934\C,2.10629905,3.18510119,1.54234136\H,1.82610426,2.14808228,1
 .25271814\H,1.35915231,3.91239209,1.15715376\Cl,3.71000378,3.57876398,
 0.89799229\Cl,2.21485091,3.31080095,3.30532226\C,-2.26278742,0.8148321
 4,3.47279305\H,-1.88784732,-0.22977049,3.50080208\H,-2.19848873,1.2959
 3298,4.47158509\Cl,-3.94443368,0.82227238,2.91500119\Cl,-1.30506975,1.
 74056753,2.305235\C,-1.05239645,4.56231635,4.5850625\H,-0.38524813,5.4
 3777019,4.71331672\H,-0.87979548,4.07796014,3.60047507\Cl,-2.73776486,
 5.06504555,4.72096083\Cl,-0.73849727,3.38761999,5.88114694\C,4.4337247
 5,1.09215125,-4.44803662\H,3.87404247,0.28465115,-3.92910073\H,5.52776
 057,0.91476085,-4.37725484\Cl,4.04307613,2.66144392,-3.71343649\Cl,3.9
 377415,1.17347759,-6.14256011\C,-5.42391804,1.97410719,-0.38929168\H,-
 6.31857122,1.41025598,-0.05627178\H,-4.61978068,1.93213452,0.37575604\
 Cl,-5.86974019,3.66087897,-0.68455494\Cl,-4.83591051,1.28974822,-1.911
 15826\C,-1.5900135,0.98005033,-4.08406341\H,-1.91623101,1.29782052,-5.
 09565313\H,-2.14937601,1.52461604,-3.29195414\Cl,0.14806319,1.3008147,
 -3.90283712\Cl,-1.83201933,-0.76087947,-3.89627133\C,-1.4029026,5.8931
 6901,0.76151687\H,-1.03977593,6.11804251,-0.26478223\H,-2.28617531,6.5
 1176824,1.02316352\Cl,-0.10047043,6.20345979,1.92457837\Cl,-1.82773505
 ,4.17685505,0.88792812\C,1.11027469,0.33022755,4.93898635\H,0.73497152
 ,1.32874407,4.62869971\H,1.95493229,0.42786453,5.65034689\Cl,1.6367731
 6,-0.574792,3.51415186\Cl,-0.20149207,-0.58043902,5.70387322\C,1.06822
 62,-2.17131191,-3.02732813\H,0.18932726,-2.76062423,-3.35575157\H,0.75
 478784,-1.16689266,-2.66642141\Cl,2.20522102,-2.00132499,-4.37056202\C
 l,1.90747932,-3.03600371,-1.72560783\C,1.8701827,3.92753273,-5.9566012
 3\H,2.84046204,3.8183893,-6.48361925\H,1.77653631,3.16123747,-5.160122
 46\Cl,1.76424341,5.54813725,-5.24015301\Cl,0.53443821,3.76606877,-7.09
 901272\C,-1.5237122,4.61776588,-3.68394738\H,-0.5438919,4.21088472,-4.
 01182574\H,-1.5242213,5.72657607,-3.7301519\Cl,-2.81560489,3.97815597,
 -4.70790337\Cl,-1.85655952,4.10117372,-2.01727114\C,2.15791531,5.96636
 592,-1.62452357\H,2.77252196,5.92608369,-2.54734221\H,2.79705006,5.929
 23136,-0.71849745\Cl,1.18833371,7.44391824,-1.61865879\Cl,1.02399722,4
 .60039248,-1.60946005\C,-4.37742498,6.87509532,-1.68665561\H,-5.349265
 09,6.93335276,-2.2167434\H,-4.0732499,5.81641335,-1.5403601\Cl,-3.1431
 3318,7.73031308,-2.62368553\Cl,-4.51121754,7.67991858,-0.11764311\\Ver
 sion=ES64L-G16RevC.01\HF=0.1116477\S2=2.321514\S2-1=0.\S2A=2.053023\RM
 SD=6.846e-09\RMSF=6.767e-03\Dipole=-0.3195088,-0.0800503,0.2061313\Qua
 drupole=2.1577045,0.4988539,-2.6565584,0.1106848,-0.0756326,-2.5741166
 \PG=C01 [X(C23H38Cl30)]\\@
 The archive entry for this job was punched.


 LOVE IS BLIND, THAT'S WHY ALL THE WORLD LOVES A LOUVER.
 Job cpu time:       0 days  0 hours  4 minutes 13.3 seconds.
 Elapsed time:       0 days  0 hours  0 minutes 10.3 seconds.
 File lengths (MBytes):  RWF=    104 Int=      0 D2E=      0 Chk=     34 Scr=      1
 Normal termination of Gaussian 16 at Fri Jul 12 22:54:53 2024.
