 Entering Gaussian System, Link 0=g16
 Input=JOBS/1_A.gjf
 Output=JOBS/1_A.log
 Initial command:
 /data/app/gaussian/C01-avx2//g16/l1.exe "/tmp/Gau-1752699.inp" -scrdir="/tmp/"
 Entering Link 1 = /data/app/gaussian/C01-avx2//g16/l1.exe PID=   1752700.
  
 Copyright (c) 1988-2019, Gaussian, Inc.  All Rights Reserved.
  
 This is part of the Gaussian(R) 16 program.  It is based on
 the Gaussian(R) 09 system (copyright 2009, Gaussian, Inc.),
 the Gaussian(R) 03 system (copyright 2003, Gaussian, Inc.),
 the Gaussian(R) 98 system (copyright 1998, Gaussian, Inc.),
 the Gaussian(R) 94 system (copyright 1995, Gaussian, Inc.),
 the Gaussian 92(TM) system (copyright 1992, Gaussian, Inc.),
 the Gaussian 90(TM) system (copyright 1990, Gaussian, Inc.),
 the Gaussian 88(TM) system (copyright 1988, Gaussian, Inc.),
 the Gaussian 86(TM) system (copyright 1986, Carnegie Mellon
 University), and the Gaussian 82(TM) system (copyright 1983,
 Carnegie Mellon University). Gaussian is a federally registered
 trademark of Gaussian, Inc.
  
 This software contains proprietary and confidential information,
 including trade secrets, belonging to Gaussian, Inc.
  
 This software is provided under written license and may be
 used, copied, transmitted, or stored only in accord with that
 written license.
  
 The following legend is applicable only to US Government
 contracts under FAR:
  
                    RESTRICTED RIGHTS LEGEND
  
 Use, reproduction and disclosure by the US Government is
 subject to restrictions as set forth in subparagraphs (a)
 and (c) of the Commercial Computer Software - Restricted
 Rights clause in FAR 52.227-19.
  
 Gaussian, Inc.
 340 Quinnipiac St., Bldg. 40, Wallingford CT 06492
  
  
 ---------------------------------------------------------------
 Warning -- This program may not be used in any manner that
 competes with the business of Gaussian, Inc. or will provide
 assistance to any competitor of Gaussian, Inc.  The licensee
 of this program is prohibited from giving any competitor of
 Gaussian, Inc. access to this program.  By using this program,
 the user acknowledges that Gaussian, Inc. is engaged in the
 business of creating and licensing software in the field of
 computational chemistry and represents and warrants to the
 licensee that it is not a competitor of Gaussian, Inc. and that
 it will not use this program in any manner prohibited above.
 ---------------------------------------------------------------
  

 Cite this work as:
 Gaussian 16, Revision C.01,
 M. J. Frisch, G. W. Trucks, H. B. Schlegel, G. E. Scuseria, 
 M. A. Robb, J. R. Cheeseman, G. Scalmani, V. Barone, 
 G. A. Petersson, H. Nakatsuji, X. Li, M. Caricato, A. V. Marenich, 
 J. Bloino, B. G. Janesko, R. Gomperts, B. Mennucci, H. P. Hratchian, 
 J. V. Ortiz, A. F. Izmaylov, J. L. Sonnenberg, D. Williams-Young, 
 F. Ding, F. Lipparini, F. Egidi, J. Goings, B. Peng, A. Petrone, 
 T. Henderson, D. Ranasinghe, V. G. Zakrzewski, J. Gao, N. Rega, 
 G. Zheng, W. Liang, M. Hada, M. Ehara, K. Toyota, R. Fukuda, 
 J. Hasegawa, M. Ishida, T. Nakajima, Y. Honda, O. Kitao, H. Nakai, 
 T. Vreven, K. Throssell, J. A. Montgomery, Jr., J. E. Peralta, 
 F. Ogliaro, M. J. Bearpark, J. J. Heyd, E. N. Brothers, K. N. Kudin, 
 V. N. Staroverov, T. A. Keith, R. Kobayashi, J. Normand, 
 K. Raghavachari, A. P. Rendell, J. C. Burant, S. S. Iyengar, 
 J. Tomasi, M. Cossi, J. M. Millam, M. Klene, C. Adamo, R. Cammi, 
 J. W. Ochterski, R. L. Martin, K. Morokuma, O. Farkas, 
 J. B. Foresman, and D. J. Fox, Gaussian, Inc., Wallingford CT, 2019.
 
 ******************************************
 Gaussian 16:  ES64L-G16RevC.01  3-Jul-2019
                12-Jul-2024 
 ******************************************
 %chk=a.chk
 %nprocshared=28
 Will use up to   28 processors via shared memory.
 %mem=48gb
 ----------------------------------------------------------------------
 # scf=(xqc,maxcycle=64) force guess=read oniom(td/b3lyp/em=gd3bj/6-31g
 (d):pm6) nosymm
 ----------------------------------------------------------------------
 1/10=7,30=1,38=1,52=2/1,3;
 2/12=2,15=1,17=6,18=5,40=1/2;
 1/10=7,30=1,38=1,52=2,53=3172/20;
 3/5=2,25=1,41=3900000,71=1,116=-2/1,2,3;
 4/5=1,35=1/1;
 5/5=2,7=64,8=3,13=1,35=1,38=6/2,8;
 6/7=2,8=2,9=2,10=2,28=1/1;
 7/7=1,30=1,33=-1/1,2,3,16;
 1/10=7,30=1,52=2,53=2032/20;
 3/5=1,6=6,7=1,11=9,25=1,30=1,71=1,74=-5,116=-2,124=41/1,2,3,8;
 4/5=1/1;
 5/5=2,7=64,8=3,13=1,38=6/2,8;
 8/6=1,10=2/1;
 9/15=2,42=1,70=2/14;
 10/5=4,31=1/2;
 6/7=2,8=2,9=2,10=2,18=1/1;
 7/7=1,12=6,13=5,30=1,33=-1/1,2,3,16;
 1/10=7,30=1,52=2,53=1022/20;
 3/5=2,25=1,41=3900000,71=1,116=-2/1,2,3;
 4/5=1,35=1/1;
 5/5=2,7=64,8=3,13=1,35=1,38=6/2,8;
 6/7=2,8=2,9=2,10=2,28=1/1;
 7/7=1,30=1,33=-1/1,2,3,16;
 1/10=7,30=1,52=2,53=3015/20;
 7/9=1,29=1,44=-1,126=2/16;
 1/10=7,30=1,52=2/3;
 99//99;
 ONIOM: restoring gridpoint  3 on chk file.
 ----------
 Title Card
 ----------
 Symbolic Z-matrix:
 Charge =  0 Multiplicity = 1 for low   level calculation on real  system.
 Charge =  0 Multiplicity = 1 for high  level calculation on model system.
 Charge =  0 Multiplicity = 1 for low   level calculation on model system.
 c                     0.5502   -0.1731   -0.17724  h 
 c                    -0.08886  -1.29372   0.42419  h 
 c                    -0.27374   0.87438  -0.65379  h 
 c                    -1.46236  -1.35406   0.52421  h 
 h                     0.53051  -2.10719   0.79341  h 
 c                     1.96998  -0.1381   -0.31335  h 
 c                    -1.65567   0.80975  -0.51687  h 
 h                     0.17497   1.73664  -1.13848  h 
 c                    -2.25491  -0.30886   0.05837  h 
 h                    -1.92507  -2.23777   0.9713   h 
 c                     2.68752   0.90466  -0.99866  h 
 h                     2.52546  -0.98789   0.09102  h 
 h                    -2.26337   1.63664  -0.87627  h 
 h                    -3.34579  -0.36731   0.1299   h 
 h                     3.63614   1.2852   -0.63379  h 
 h                     2.35619   1.28994  -1.96123  h 
 c                     4.98022   0.55632   1.99041  l 
 h                     5.26455   1.14288   1.09153  l 
 h                     3.98385   0.86492   2.37019  l 
 cl                    6.19327   0.77285   3.25002  l 
 cl                    4.93565  -1.1706    1.57115  l 
 c                     5.72105  -1.06435  -1.56235  l 
 h                     4.64504  -1.12143  -1.29078  l 
 h                     6.33842  -1.66067  -0.8594   l 
 cl                    6.25776   0.62521  -1.52412  l 
 cl                    5.9524   -1.65444  -3.21192  l 
 c                     2.11217   3.18223   1.54659  l 
 h                     1.84666   2.14145   1.25707  l 
 h                     1.36182   3.90072   1.15141  l 
 cl                    3.71881   3.58869   0.91874  l 
 cl                    2.20007   3.31484   3.31035  l 
 c                    -2.25025   0.80761   3.49637  l 
 h                    -1.89264  -0.24271   3.53719  l 
 h                    -2.20952   1.28569   4.49808  l 
 cl                   -3.91533   0.83814   2.88972  l 
 cl                   -1.25361   1.723     2.35238  l 
 c                    -1.04124   4.54929   4.56469  l 
 h                    -0.37026   5.42304   4.68293  l 
 h                    -0.87973   4.06312   3.57909  l 
 cl                   -2.72446   5.05425   4.71763  l 
 cl                   -0.71709   3.37977   5.86326  l 
 c                     4.43389   1.07196  -4.43881  l 
 h                     3.88502   0.25264  -3.92657  l 
 h                     5.5302    0.90759  -4.37079  l 
 cl                    4.02611   2.63096  -3.69175  l 
 cl                    3.93342   1.16281  -6.13155  l 
 c                    -5.42786   1.95658  -0.38535  l 
 h                    -6.32157   1.37395  -0.08439  l 
 h                    -4.64691   1.92354   0.40401  l 
 cl                   -5.89467   3.63739  -0.68181  l 
 cl                   -4.78672   1.29414  -1.89519  l 
 c                    -1.59488   0.98815  -4.09601  l 
 h                    -1.92998   1.301    -5.10636  l 
 h                    -2.145     1.53625  -3.2997   l 
 cl                    0.14532   1.3053   -3.93157  l 
 cl                   -1.83737  -0.75213  -3.89964  l 
 c                    -1.42032   5.89742   0.75236  l 
 h                    -1.05685   6.12654  -0.2732   l 
 h                    -2.29673   6.52492   1.01599  l 
 cl                   -0.11009   6.19286   1.91054  l 
 cl                   -1.85616   4.18288   0.88193  l 
 c                     1.10744   0.33547   4.94928  l 
 h                     0.73021   1.33847   4.65539  l 
 h                     1.95542   0.42225   5.65789  l 
 cl                    1.62662  -0.54876   3.50873  l 
 cl                   -0.20015  -0.58637   5.70851  l 
 c                     1.06632  -2.16972  -3.02921  l 
 h                     0.193    -2.7675   -3.35755  l 
 h                     0.74476  -1.16224  -2.68394  l 
 cl                    2.21451  -2.01293  -4.36447  l 
 cl                    1.89759  -3.01631  -1.71089  l 
 c                     1.87226   3.92504  -5.94274  l 
 h                     2.8428    3.81472  -6.46859  l 
 h                     1.77635   3.15632  -5.14903  l 
 cl                    1.77081   5.54407  -5.22273  l 
 cl                    0.53771   3.77159  -7.08731  l 
 c                    -1.51187   4.64038  -3.68001  l 
 h                    -0.52676   4.25348  -4.01538  l 
 h                    -1.5393    5.74694  -3.75598  l 
 cl                   -2.80609   3.94397  -4.66455  l 
 cl                   -1.8122    4.14748  -2.00057  l 
 c                     2.149     5.97964  -1.62512  l 
 h                     2.76472   5.9376   -2.54669  l 
 h                     2.78395   5.94153  -0.71674  l 
 cl                    1.18355   7.46033  -1.62404  l 
 cl                    1.01427   4.61712  -1.61107  l 
 c                    -4.377     6.88672  -1.68593  l 
 h                    -5.34946   6.94448  -2.21515  l 
 h                    -4.08348   5.82797  -1.51822  l 
 cl                   -3.13779   7.71211  -2.64304  l 
 cl                   -4.49796   7.72627  -0.13429  l 
 

 GradGradGradGradGradGradGradGradGradGradGradGradGradGradGradGradGradGrad
 Berny optimization.
 Initialization pass.
 Trust Radius=3.00D-01 FncErr=1.00D-07 GrdErr=1.00D-07 EigMax=2.50D+02 EigMin=1.00D-04
 Number of steps in this run=      2 maximum allowed number of steps=      2.
 GradGradGradGradGradGradGradGradGradGradGradGradGradGradGradGradGradGrad

 Symmetry turned off by external request.
 Stoichiometry    C23H38Cl30
 Framework group  C1[X(C23H38Cl30)]
 Deg. of freedom   267
 Full point group                 C1      NOp   1
                          Input orientation:                          
 ---------------------------------------------------------------------
 Center     Atomic      Atomic             Coordinates (Angstroms)
 Number     Number       Type             X           Y           Z
 ---------------------------------------------------------------------
      1          6           0        0.550201   -0.173101   -0.177241
      2          6           0       -0.088856   -1.293721    0.424193
      3          6           0       -0.273744    0.874382   -0.653785
      4          6           0       -1.462361   -1.354058    0.524207
      5          1           0        0.530510   -2.107192    0.793414
      6          6           0        1.969982   -0.138098   -0.313349
      7          6           0       -1.655668    0.809752   -0.516867
      8          1           0        0.174968    1.736636   -1.138480
      9          6           0       -2.254911   -0.308856    0.058375
     10          1           0       -1.925068   -2.237768    0.971299
     11          6           0        2.687516    0.904662   -0.998660
     12          1           0        2.525461   -0.987890    0.091024
     13          1           0       -2.263373    1.636643   -0.876267
     14          1           0       -3.345788   -0.367308    0.129902
     15          1           0        3.636143    1.285204   -0.633789
     16          1           0        2.356190    1.289942   -1.961229
     17          6           0        4.980220    0.556316    1.990409
     18          1           0        5.264551    1.142882    1.091527
     19          1           0        3.983848    0.864918    2.370190
     20         17           0        6.193273    0.772847    3.250023
     21         17           0        4.935647   -1.170603    1.571148
     22          6           0        5.721054   -1.064349   -1.562352
     23          1           0        4.645044   -1.121429   -1.290780
     24          1           0        6.338419   -1.660670   -0.859395
     25         17           0        6.257765    0.625209   -1.524116
     26         17           0        5.952405   -1.654437   -3.211924
     27          6           0        2.112172    3.182231    1.546594
     28          1           0        1.846665    2.141445    1.257066
     29          1           0        1.361818    3.900719    1.151411
     30         17           0        3.718810    3.588686    0.918743
     31         17           0        2.200068    3.314845    3.310347
     32          6           0       -2.250251    0.807610    3.496370
     33          1           0       -1.892638   -0.242707    3.537192
     34          1           0       -2.209521    1.285685    4.498080
     35         17           0       -3.915331    0.838143    2.889721
     36         17           0       -1.253606    1.723000    2.352377
     37          6           0       -1.041243    4.549288    4.564687
     38          1           0       -0.370256    5.423043    4.682931
     39          1           0       -0.879727    4.063123    3.579088
     40         17           0       -2.724456    5.054246    4.717631
     41         17           0       -0.717086    3.379770    5.863257
     42          6           0        4.433895    1.071964   -4.438807
     43          1           0        3.885017    0.252635   -3.926571
     44          1           0        5.530197    0.907593   -4.370788
     45         17           0        4.026108    2.630961   -3.691748
     46         17           0        3.933415    1.162814   -6.131549
     47          6           0       -5.427861    1.956580   -0.385351
     48          1           0       -6.321573    1.373952   -0.084391
     49          1           0       -4.646912    1.923539    0.404014
     50         17           0       -5.894673    3.637391   -0.681809
     51         17           0       -4.786716    1.294144   -1.895192
     52          6           0       -1.594882    0.988150   -4.096008
     53          1           0       -1.929975    1.301002   -5.106358
     54          1           0       -2.145003    1.536247   -3.299696
     55         17           0        0.145316    1.305303   -3.931573
     56         17           0       -1.837371   -0.752130   -3.899635
     57          6           0       -1.420320    5.897419    0.752362
     58          1           0       -1.056848    6.126535   -0.273200
     59          1           0       -2.296734    6.524920    1.015987
     60         17           0       -0.110094    6.192860    1.910540
     61         17           0       -1.856156    4.182883    0.881930
     62          6           0        1.107439    0.335473    4.949280
     63          1           0        0.730211    1.338471    4.655387
     64          1           0        1.955419    0.422251    5.657891
     65         17           0        1.626616   -0.548756    3.508728
     66         17           0       -0.200150   -0.586373    5.708509
     67          6           0        1.066318   -2.169718   -3.029214
     68          1           0        0.193003   -2.767502   -3.357546
     69          1           0        0.744765   -1.162240   -2.683937
     70         17           0        2.214512   -2.012928   -4.364475
     71         17           0        1.897589   -3.016311   -1.710890
     72          6           0        1.872256    3.925044   -5.942736
     73          1           0        2.842805    3.814717   -6.468588
     74          1           0        1.776354    3.156321   -5.149029
     75         17           0        1.770813    5.544068   -5.222727
     76         17           0        0.537713    3.771587   -7.087312
     77          6           0       -1.511868    4.640382   -3.680010
     78          1           0       -0.526761    4.253476   -4.015381
     79          1           0       -1.539297    5.746937   -3.755976
     80         17           0       -2.806087    3.943972   -4.664547
     81         17           0       -1.812198    4.147483   -2.000572
     82          6           0        2.148999    5.979636   -1.625123
     83          1           0        2.764718    5.937599   -2.546690
     84          1           0        2.783954    5.941527   -0.716738
     85         17           0        1.183554    7.460327   -1.624045
     86         17           0        1.014273    4.617120   -1.611069
     87          6           0       -4.376997    6.886717   -1.685932
     88          1           0       -5.349461    6.944478   -2.215153
     89          1           0       -4.083482    5.827967   -1.518217
     90         17           0       -3.137790    7.712109   -2.643037
     91         17           0       -4.497957    7.726271   -0.134294
 ---------------------------------------------------------------------
 Rotational constants (GHZ):           0.0226270           0.0200716           0.0153543
 ONIOM: saving gridpoint 17
 ONIOM: restoring gridpoint  3 on chk file.
 ONIOM: generating point  3 -- low level on real system.
 Standard basis: VSTO-6G (5D, 7F)
   400 basis functions,  2580 primitive gaussians,   430 cartesian basis functions
   170 alpha electrons      170 beta electrons
       nuclear repulsion energy      5301.3480801140 Hartrees.
 Integral buffers will be    131072 words long.
 Regular integral format.
 Two-electron integral symmetry is turned off.
 Do NDO integrals.
 One-electron integrals computed using PRISM.
 NBasis=   400 RedAO= F EigKep=  0.00D+00  NBF=   400
 NBsUse=   400 1.00D-04 EigRej=  0.00D+00 NBFU=   400
 Initial guess from the checkpoint file:  "a.chk"
 B after Tr=    -0.000582   -0.000698   -0.001692
         Rot=    1.000000   -0.000045    0.000039   -0.000009 Ang=  -0.01 deg.
 Initial guess <Sx>= 0.0000 <Sy>= 0.0000 <Sz>= 0.0000 <S**2>=-0.0000 S=-0.0000
 Keep J ints in memory in canonical form, NReq=3161508.
 Overlap will be assumed to be unity.
 Requested convergence on RMS density matrix=1.00D-08 within  64 cycles.
 Requested convergence on MAX density matrix=1.00D-06.
 Requested convergence on             energy=1.00D-06.
 No special actions if energy rises.
 SCF Done:  E(UPM6) = -0.403534898780     A.U. after   15 cycles
            NFock= 14  Conv=0.63D-08     -V/T= 0.9994
 <Sx>= 0.0000 <Sy>= 0.0000 <Sz>= 0.0000 <S**2>=-0.0000 S=-0.0000
 <L.S>=  0.00000000000    
 Annihilation of the first spin contaminant:
 S**2 before annihilation     0.0000,   after     0.0000
 QCSCF skips out because SCF is already converged.

 **********************************************************************

            Population analysis using the SCF Density.

 **********************************************************************

 Alpha  occ. eigenvalues --   -1.11237  -1.05569  -1.05293  -1.05236  -1.05165
 Alpha  occ. eigenvalues --   -1.05148  -1.05098  -1.04948  -1.04874  -1.04803
 Alpha  occ. eigenvalues --   -1.04749  -1.04657  -1.04487  -1.04454  -1.04318
 Alpha  occ. eigenvalues --   -1.04122  -1.01706  -0.98531  -0.98249  -0.98157
 Alpha  occ. eigenvalues --   -0.98101  -0.98088  -0.97959  -0.97905  -0.97846
 Alpha  occ. eigenvalues --   -0.97757  -0.97740  -0.97636  -0.97414  -0.97340
 Alpha  occ. eigenvalues --   -0.97227  -0.97155  -0.96975  -0.92300  -0.88721
 Alpha  occ. eigenvalues --   -0.88642  -0.88580  -0.88390  -0.88347  -0.88255
 Alpha  occ. eigenvalues --   -0.88188  -0.88106  -0.88081  -0.87993  -0.87881
 Alpha  occ. eigenvalues --   -0.87656  -0.87563  -0.87480  -0.87218  -0.82503
 Alpha  occ. eigenvalues --   -0.79261  -0.72818  -0.65352  -0.62684  -0.62335
 Alpha  occ. eigenvalues --   -0.62118  -0.61869  -0.61687  -0.61548  -0.61485
 Alpha  occ. eigenvalues --   -0.61311  -0.61253  -0.61140  -0.61054  -0.60910
 Alpha  occ. eigenvalues --   -0.60333  -0.60290  -0.60109  -0.60008  -0.59960
 Alpha  occ. eigenvalues --   -0.59742  -0.59588  -0.59512  -0.59428  -0.59315
 Alpha  occ. eigenvalues --   -0.59253  -0.59178  -0.59098  -0.58963  -0.58900
 Alpha  occ. eigenvalues --   -0.58725  -0.58582  -0.58483  -0.58478  -0.58318
 Alpha  occ. eigenvalues --   -0.58188  -0.58001  -0.57777  -0.57720  -0.57686
 Alpha  occ. eigenvalues --   -0.57640  -0.57580  -0.57514  -0.57489  -0.57341
 Alpha  occ. eigenvalues --   -0.57236  -0.57106  -0.57028  -0.56888  -0.56799
 Alpha  occ. eigenvalues --   -0.55158  -0.53303  -0.52157  -0.51081  -0.49628
 Alpha  occ. eigenvalues --   -0.46035  -0.45381  -0.44995  -0.44780  -0.44223
 Alpha  occ. eigenvalues --   -0.44177  -0.44051  -0.44016  -0.43920  -0.43800
 Alpha  occ. eigenvalues --   -0.43739  -0.43662  -0.43625  -0.43480  -0.43449
 Alpha  occ. eigenvalues --   -0.43404  -0.43386  -0.43370  -0.43323  -0.43274
 Alpha  occ. eigenvalues --   -0.43197  -0.43143  -0.43108  -0.43032  -0.42956
 Alpha  occ. eigenvalues --   -0.42870  -0.42860  -0.42772  -0.42759  -0.42625
 Alpha  occ. eigenvalues --   -0.42585  -0.42480  -0.42335  -0.42250  -0.42057
 Alpha  occ. eigenvalues --   -0.41970  -0.41892  -0.41844  -0.41775  -0.41757
 Alpha  occ. eigenvalues --   -0.41730  -0.41646  -0.41614  -0.41567  -0.41449
 Alpha  occ. eigenvalues --   -0.41322  -0.41274  -0.41256  -0.41229  -0.41204
 Alpha  occ. eigenvalues --   -0.41116  -0.41106  -0.41054  -0.40995  -0.40869
 Alpha  occ. eigenvalues --   -0.40826  -0.40776  -0.40590  -0.40572  -0.40464
 Alpha  occ. eigenvalues --   -0.40334  -0.40318  -0.39656  -0.36845  -0.32837
 Alpha virt. eigenvalues --   -0.03599  -0.01159  -0.00884  -0.00850  -0.00797
 Alpha virt. eigenvalues --   -0.00637  -0.00599  -0.00515  -0.00504  -0.00493
 Alpha virt. eigenvalues --   -0.00446  -0.00432  -0.00366  -0.00349  -0.00252
 Alpha virt. eigenvalues --   -0.00245  -0.00230  -0.00210  -0.00196  -0.00179
 Alpha virt. eigenvalues --   -0.00161  -0.00130  -0.00081  -0.00013   0.00078
 Alpha virt. eigenvalues --    0.00381   0.00391   0.00392   0.00473   0.00486
 Alpha virt. eigenvalues --    0.00635   0.00683   0.02724   0.09000   0.14232
 Alpha virt. eigenvalues --    0.14332   0.14529   0.14653   0.14702   0.14837
 Alpha virt. eigenvalues --    0.14866   0.14909   0.15006   0.15067   0.15094
 Alpha virt. eigenvalues --    0.15142   0.15153   0.15193   0.15303   0.15369
 Alpha virt. eigenvalues --    0.15442   0.15477   0.15553   0.15621   0.15633
 Alpha virt. eigenvalues --    0.15746   0.15765   0.15852   0.15951   0.15961
 Alpha virt. eigenvalues --    0.16004   0.16015   0.16089   0.16405   0.16431
 Alpha virt. eigenvalues --    0.16484   0.16707   0.17090   0.17347   0.17976
 Alpha virt. eigenvalues --    0.18591   0.19354   0.19865   0.20431   0.21197
 Alpha virt. eigenvalues --    0.21351   0.21587   0.21825   0.22215   0.22381
 Alpha virt. eigenvalues --    3.16291   3.16765   3.17365   3.17913   3.18139
 Alpha virt. eigenvalues --    3.18395   3.18643   3.18693   3.18942   3.19079
 Alpha virt. eigenvalues --    3.19121   3.19291   3.19324   3.19555   3.19630
 Alpha virt. eigenvalues --    3.19674   3.19692   3.19827   3.19910   3.19982
 Alpha virt. eigenvalues --    3.20031   3.20198   3.20266   3.20307   3.20451
 Alpha virt. eigenvalues --    3.20497   3.20546   3.20581   3.20643   3.20674
 Alpha virt. eigenvalues --    3.20747   3.20821   3.20897   3.20990   3.21012
 Alpha virt. eigenvalues --    3.21053   3.21133   3.21174   3.21228   3.21259
 Alpha virt. eigenvalues --    3.21444   3.21470   3.21576   3.21724   3.21873
 Alpha virt. eigenvalues --    3.21979   3.22065   3.22126   3.22206   3.22360
 Alpha virt. eigenvalues --    3.22428   3.22525   3.22536   3.22638   3.22747
 Alpha virt. eigenvalues --    3.22823   3.22978   3.23030   3.23176   3.23186
 Alpha virt. eigenvalues --    3.23237   3.23344   3.23393   3.23451   3.23499
 Alpha virt. eigenvalues --    3.23536   3.23599   3.23696   3.23767   3.23793
 Alpha virt. eigenvalues --    3.23845   3.23997   3.24009   3.24016   3.24123
 Alpha virt. eigenvalues --    3.24138   3.24148   3.24274   3.24331   3.24348
 Alpha virt. eigenvalues --    3.24411   3.24513   3.24517   3.24562   3.24659
 Alpha virt. eigenvalues --    3.24697   3.24753   3.24841   3.24873   3.24984
 Alpha virt. eigenvalues --    3.24994   3.25059   3.25083   3.25114   3.25139
 Alpha virt. eigenvalues --    3.25175   3.25318   3.25424   3.25493   3.25533
 Alpha virt. eigenvalues --    3.25578   3.25704   3.25763   3.25801   3.25870
 Alpha virt. eigenvalues --    3.25923   3.25933   3.26010   3.26140   3.26236
 Alpha virt. eigenvalues --    3.26353   3.26369   3.26428   3.26512   3.26783
 Alpha virt. eigenvalues --    3.26843   3.26905   3.27055   3.27072   3.27179
 Alpha virt. eigenvalues --    3.27290   3.27360   3.27412   3.27414   3.27501
 Alpha virt. eigenvalues --    3.27568   3.27670   3.27749   3.27783   3.27857
 Alpha virt. eigenvalues --    3.27905   3.27967   3.28169   3.28176   3.28245
 Alpha virt. eigenvalues --    3.28290   3.28411   3.28473   3.28584   3.28635
 Alpha virt. eigenvalues --    3.28682   3.28724   3.28745   3.28854   3.28994
 Alpha virt. eigenvalues --    3.29168   3.29319   3.29415   3.29751   3.29967
  Beta  occ. eigenvalues --   -1.11237  -1.05569  -1.05293  -1.05236  -1.05165
  Beta  occ. eigenvalues --   -1.05148  -1.05098  -1.04948  -1.04874  -1.04803
  Beta  occ. eigenvalues --   -1.04749  -1.04657  -1.04487  -1.04454  -1.04318
  Beta  occ. eigenvalues --   -1.04122  -1.01706  -0.98531  -0.98249  -0.98157
  Beta  occ. eigenvalues --   -0.98101  -0.98088  -0.97959  -0.97905  -0.97846
  Beta  occ. eigenvalues --   -0.97757  -0.97740  -0.97636  -0.97414  -0.97340
  Beta  occ. eigenvalues --   -0.97227  -0.97155  -0.96975  -0.92300  -0.88721
  Beta  occ. eigenvalues --   -0.88642  -0.88580  -0.88390  -0.88347  -0.88255
  Beta  occ. eigenvalues --   -0.88188  -0.88106  -0.88081  -0.87993  -0.87881
  Beta  occ. eigenvalues --   -0.87656  -0.87563  -0.87480  -0.87218  -0.82503
  Beta  occ. eigenvalues --   -0.79261  -0.72818  -0.65352  -0.62684  -0.62335
  Beta  occ. eigenvalues --   -0.62118  -0.61869  -0.61687  -0.61548  -0.61485
  Beta  occ. eigenvalues --   -0.61311  -0.61253  -0.61140  -0.61054  -0.60910
  Beta  occ. eigenvalues --   -0.60333  -0.60290  -0.60109  -0.60008  -0.59960
  Beta  occ. eigenvalues --   -0.59742  -0.59588  -0.59512  -0.59428  -0.59315
  Beta  occ. eigenvalues --   -0.59253  -0.59178  -0.59098  -0.58963  -0.58900
  Beta  occ. eigenvalues --   -0.58725  -0.58582  -0.58483  -0.58478  -0.58318
  Beta  occ. eigenvalues --   -0.58188  -0.58001  -0.57777  -0.57720  -0.57686
  Beta  occ. eigenvalues --   -0.57640  -0.57580  -0.57514  -0.57489  -0.57341
  Beta  occ. eigenvalues --   -0.57236  -0.57106  -0.57028  -0.56888  -0.56799
  Beta  occ. eigenvalues --   -0.55158  -0.53303  -0.52157  -0.51081  -0.49628
  Beta  occ. eigenvalues --   -0.46035  -0.45381  -0.44995  -0.44780  -0.44223
  Beta  occ. eigenvalues --   -0.44177  -0.44051  -0.44016  -0.43920  -0.43800
  Beta  occ. eigenvalues --   -0.43739  -0.43662  -0.43625  -0.43480  -0.43449
  Beta  occ. eigenvalues --   -0.43404  -0.43386  -0.43370  -0.43323  -0.43274
  Beta  occ. eigenvalues --   -0.43197  -0.43143  -0.43108  -0.43032  -0.42956
  Beta  occ. eigenvalues --   -0.42870  -0.42860  -0.42772  -0.42759  -0.42625
  Beta  occ. eigenvalues --   -0.42585  -0.42480  -0.42335  -0.42250  -0.42057
  Beta  occ. eigenvalues --   -0.41970  -0.41892  -0.41844  -0.41775  -0.41757
  Beta  occ. eigenvalues --   -0.41730  -0.41646  -0.41614  -0.41567  -0.41449
  Beta  occ. eigenvalues --   -0.41322  -0.41274  -0.41256  -0.41229  -0.41204
  Beta  occ. eigenvalues --   -0.41116  -0.41106  -0.41054  -0.40995  -0.40869
  Beta  occ. eigenvalues --   -0.40826  -0.40776  -0.40590  -0.40572  -0.40464
  Beta  occ. eigenvalues --   -0.40334  -0.40318  -0.39656  -0.36845  -0.32837
  Beta virt. eigenvalues --   -0.03599  -0.01159  -0.00884  -0.00850  -0.00797
  Beta virt. eigenvalues --   -0.00637  -0.00599  -0.00515  -0.00504  -0.00493
  Beta virt. eigenvalues --   -0.00446  -0.00432  -0.00366  -0.00349  -0.00252
  Beta virt. eigenvalues --   -0.00245  -0.00230  -0.00210  -0.00196  -0.00179
  Beta virt. eigenvalues --   -0.00161  -0.00130  -0.00081  -0.00013   0.00078
  Beta virt. eigenvalues --    0.00381   0.00391   0.00392   0.00473   0.00486
  Beta virt. eigenvalues --    0.00635   0.00683   0.02724   0.09000   0.14232
  Beta virt. eigenvalues --    0.14332   0.14529   0.14653   0.14702   0.14837
  Beta virt. eigenvalues --    0.14866   0.14909   0.15006   0.15067   0.15094
  Beta virt. eigenvalues --    0.15142   0.15153   0.15193   0.15303   0.15369
  Beta virt. eigenvalues --    0.15442   0.15477   0.15553   0.15621   0.15633
  Beta virt. eigenvalues --    0.15746   0.15765   0.15852   0.15951   0.15961
  Beta virt. eigenvalues --    0.16004   0.16015   0.16089   0.16405   0.16431
  Beta virt. eigenvalues --    0.16484   0.16707   0.17090   0.17347   0.17976
  Beta virt. eigenvalues --    0.18591   0.19354   0.19865   0.20431   0.21197
  Beta virt. eigenvalues --    0.21351   0.21587   0.21825   0.22215   0.22381
  Beta virt. eigenvalues --    3.16291   3.16765   3.17365   3.17913   3.18139
  Beta virt. eigenvalues --    3.18395   3.18643   3.18693   3.18942   3.19079
  Beta virt. eigenvalues --    3.19121   3.19291   3.19324   3.19555   3.19630
  Beta virt. eigenvalues --    3.19674   3.19692   3.19827   3.19910   3.19982
  Beta virt. eigenvalues --    3.20031   3.20198   3.20266   3.20307   3.20451
  Beta virt. eigenvalues --    3.20497   3.20546   3.20581   3.20643   3.20674
  Beta virt. eigenvalues --    3.20747   3.20821   3.20897   3.20990   3.21012
  Beta virt. eigenvalues --    3.21053   3.21133   3.21174   3.21228   3.21259
  Beta virt. eigenvalues --    3.21444   3.21470   3.21576   3.21724   3.21873
  Beta virt. eigenvalues --    3.21979   3.22065   3.22126   3.22206   3.22360
  Beta virt. eigenvalues --    3.22428   3.22525   3.22536   3.22638   3.22747
  Beta virt. eigenvalues --    3.22823   3.22978   3.23030   3.23176   3.23186
  Beta virt. eigenvalues --    3.23237   3.23344   3.23393   3.23451   3.23499
  Beta virt. eigenvalues --    3.23536   3.23599   3.23696   3.23767   3.23793
  Beta virt. eigenvalues --    3.23845   3.23997   3.24009   3.24016   3.24123
  Beta virt. eigenvalues --    3.24138   3.24148   3.24274   3.24331   3.24348
  Beta virt. eigenvalues --    3.24411   3.24513   3.24517   3.24562   3.24659
  Beta virt. eigenvalues --    3.24697   3.24753   3.24841   3.24873   3.24984
  Beta virt. eigenvalues --    3.24994   3.25059   3.25083   3.25114   3.25139
  Beta virt. eigenvalues --    3.25175   3.25318   3.25424   3.25493   3.25533
  Beta virt. eigenvalues --    3.25578   3.25704   3.25763   3.25801   3.25870
  Beta virt. eigenvalues --    3.25923   3.25933   3.26010   3.26140   3.26236
  Beta virt. eigenvalues --    3.26353   3.26369   3.26428   3.26512   3.26783
  Beta virt. eigenvalues --    3.26843   3.26905   3.27055   3.27072   3.27179
  Beta virt. eigenvalues --    3.27290   3.27360   3.27412   3.27414   3.27501
  Beta virt. eigenvalues --    3.27568   3.27670   3.27749   3.27783   3.27857
  Beta virt. eigenvalues --    3.27905   3.27967   3.28169   3.28176   3.28245
  Beta virt. eigenvalues --    3.28290   3.28411   3.28473   3.28584   3.28635
  Beta virt. eigenvalues --    3.28682   3.28724   3.28745   3.28854   3.28994
  Beta virt. eigenvalues --    3.29168   3.29319   3.29415   3.29751   3.29967
          Condensed to atoms (all electrons):
          Atomic-Atomic Spin Densities.
 Mulliken charges and spin densities:
               1          2
     1  C   -0.015664   0.000000
     2  C   -0.139539   0.000000
     3  C   -0.149639   0.000000
     4  C   -0.158579   0.000000
     5  H    0.152871   0.000000
     6  C   -0.127579   0.000000
     7  C   -0.151411   0.000000
     8  H    0.155087   0.000000
     9  C   -0.118278   0.000000
    10  H    0.149971   0.000000
    11  C   -0.368150   0.000000
    12  H    0.156009   0.000000
    13  H    0.151114   0.000000
    14  H    0.146639   0.000000
    15  H    0.156021   0.000000
    16  H    0.163370   0.000000
    17  C   -0.139454   0.000000
    18  H    0.187920   0.000000
    19  H    0.186492   0.000000
    20  Cl  -0.094685   0.000000
    21  Cl  -0.140763   0.000000
    22  C   -0.145241   0.000000
    23  H    0.192815   0.000000
    24  H    0.191832   0.000000
    25  Cl  -0.127361   0.000000
    26  Cl  -0.111103   0.000000
    27  C   -0.143188   0.000000
    28  H    0.198558   0.000000
    29  H    0.196697   0.000000
    30  Cl  -0.126249   0.000000
    31  Cl  -0.126865   0.000000
    32  C   -0.126917   0.000000
    33  H    0.192372   0.000000
    34  H    0.191880   0.000000
    35  Cl  -0.132060   0.000000
    36  Cl  -0.123608   0.000000
    37  C   -0.137032   0.000000
    38  H    0.184731   0.000000
    39  H    0.194747   0.000000
    40  Cl  -0.101343   0.000000
    41  Cl  -0.142808   0.000000
    42  C   -0.133223   0.000000
    43  H    0.194079   0.000000
    44  H    0.195139   0.000000
    45  Cl  -0.141004   0.000000
    46  Cl  -0.114881   0.000000
    47  C   -0.141937   0.000000
    48  H    0.182889   0.000000
    49  H    0.191785   0.000000
    50  Cl  -0.117264   0.000000
    51  Cl  -0.115071   0.000000
    52  C   -0.126221   0.000000
    53  H    0.190415   0.000000
    54  H    0.195692   0.000000
    55  Cl  -0.141823   0.000000
    56  Cl  -0.117920   0.000000
    57  C   -0.138524   0.000000
    58  H    0.199475   0.000000
    59  H    0.193487   0.000000
    60  Cl  -0.134910   0.000000
    61  Cl  -0.112433   0.000000
    62  C   -0.145040   0.000000
    63  H    0.191982   0.000000
    64  H    0.186141   0.000000
    65  Cl  -0.112462   0.000000
    66  Cl  -0.121405   0.000000
    67  C   -0.132918   0.000000
    68  H    0.184015   0.000000
    69  H    0.198713   0.000000
    70  Cl  -0.117047   0.000000
    71  Cl  -0.133468   0.000000
    72  C   -0.139302   0.000000
    73  H    0.191350   0.000000
    74  H    0.189899   0.000000
    75  Cl  -0.137005   0.000000
    76  Cl  -0.106193   0.000000
    77  C   -0.143632   0.000000
    78  H    0.193150   0.000000
    79  H    0.193775   0.000000
    80  Cl  -0.122165   0.000000
    81  Cl  -0.124008   0.000000
    82  C   -0.145658   0.000000
    83  H    0.188779   0.000000
    84  H    0.188155   0.000000
    85  Cl  -0.107940   0.000000
    86  Cl  -0.128445   0.000000
    87  C   -0.149104   0.000000
    88  H    0.186164   0.000000
    89  H    0.193262   0.000000
    90  Cl  -0.116972   0.000000
    91  Cl  -0.111980   0.000000
 Sum of Mulliken charges =  -0.00000   0.00000
 Mulliken charges and spin densities with hydrogens summed into heavy atoms:
               1          2
     1  C   -0.015664   0.000000
     2  C    0.013332   0.000000
     3  C    0.005448   0.000000
     4  C   -0.008608   0.000000
     6  C    0.028429   0.000000
     7  C   -0.000296   0.000000
     9  C    0.028361   0.000000
    11  C   -0.048759   0.000000
    17  C    0.234958   0.000000
    20  Cl  -0.094685   0.000000
    21  Cl  -0.140763   0.000000
    22  C    0.239406   0.000000
    25  Cl  -0.127361   0.000000
    26  Cl  -0.111103   0.000000
    27  C    0.252067   0.000000
    30  Cl  -0.126249   0.000000
    31  Cl  -0.126865   0.000000
    32  C    0.257334   0.000000
    35  Cl  -0.132060   0.000000
    36  Cl  -0.123608   0.000000
    37  C    0.242445   0.000000
    40  Cl  -0.101343   0.000000
    41  Cl  -0.142808   0.000000
    42  C    0.255996   0.000000
    45  Cl  -0.141004   0.000000
    46  Cl  -0.114881   0.000000
    47  C    0.232738   0.000000
    50  Cl  -0.117264   0.000000
    51  Cl  -0.115071   0.000000
    52  C    0.259887   0.000000
    55  Cl  -0.141823   0.000000
    56  Cl  -0.117920   0.000000
    57  C    0.254438   0.000000
    60  Cl  -0.134910   0.000000
    61  Cl  -0.112433   0.000000
    62  C    0.233084   0.000000
    65  Cl  -0.112462   0.000000
    66  Cl  -0.121405   0.000000
    67  C    0.249809   0.000000
    70  Cl  -0.117047   0.000000
    71  Cl  -0.133468   0.000000
    72  C    0.241947   0.000000
    75  Cl  -0.137005   0.000000
    76  Cl  -0.106193   0.000000
    77  C    0.243293   0.000000
    80  Cl  -0.122165   0.000000
    81  Cl  -0.124008   0.000000
    82  C    0.231277   0.000000
    85  Cl  -0.107940   0.000000
    86  Cl  -0.128445   0.000000
    87  C    0.230321   0.000000
    90  Cl  -0.116972   0.000000
    91  Cl  -0.111980   0.000000
 Charge=              0.0000 electrons
 Dipole moment (field-independent basis, Debye):
    X=             -0.9314    Y=             -0.2746    Z=              0.4099  Tot=              1.0540
 N-N= 5.301348080114D+03 E-N=-9.747943063196D+03  KE=-6.384549429891D+02
 Calling FoFJK, ICntrl=      2127 FMM=F ISym2X=0 I1Cent= 0 IOpClX= 1 NMat=1 NMatS=1 NMatT=0.
 Cartesian Forces:  Max     0.067607544 RMS     0.008730645
 SvSCFP is copying densities from files   528 and   530 to   603.
 ONIOM: saving gridpoint  3
 ONIOM: restoring gridpoint 17
 ONIOM: restoring gridpoint  2 on chk file.
 ONIOM: generating point  2 -- high level on model system.
 Standard basis: 6-31G(d) (6D, 7F)
   136 basis functions,   256 primitive gaussians,   136 cartesian basis functions
    28 alpha electrons       28 beta electrons
       nuclear repulsion energy       319.1131857794 Hartrees.
 NAtoms=   91 NActive=   16 NUniq=   16 SFac= 1.00D+00 NAtFMM=   60 NAOKFM=F Big=F
 Integral buffers will be    131072 words long.
 Regular integral format.
 Two-electron integral symmetry is turned off.
 Nuclear repulsion after empirical dispersion term =      319.0855853540 Hartrees.
 One-electron integrals computed using PRISM.
 NBasis=   136 RedAO= T EigKep=  4.70D-04  NBF=   136
 NBsUse=   136 1.00D-06 EigRej= -1.00D+00 NBFU=   136
 Initial guess from the checkpoint file:  "a.chk"
 B after Tr=     0.002531   -0.000821   -0.002022
         Rot=    1.000000   -0.000375   -0.000153    0.000407 Ang=  -0.07 deg.
 Initial guess <Sx>= 0.0000 <Sy>= 0.0000 <Sz>= 0.0000 <S**2>=-0.0000 S=-0.0000
 Requested convergence on RMS density matrix=1.00D-08 within  64 cycles.
 Requested convergence on MAX density matrix=1.00D-06.
 Requested convergence on             energy=1.00D-06.
 No special actions if energy rises.
 SCF Done:  E(UB3LYP) =  -309.636004510     A.U. after   10 cycles
            NFock= 10  Conv=0.90D-08     -V/T= 2.0104
 <Sx>= 0.0000 <Sy>= 0.0000 <Sz>= 0.0000 <S**2>=-0.0000 S=-0.0000
 <L.S>=  0.00000000000    
 Annihilation of the first spin contaminant:
 S**2 before annihilation    -0.0000,   after     0.0000
 QCSCF skips out because SCF is already converged.
 DoSCS=F DFT=T ScalE2(SS,OS)=  1.000000  1.000000
 ExpMin= 1.61D-01 ExpMax= 3.05D+03 ExpMxC= 4.57D+02 IAcc=3 IRadAn=         5 AccDes= 0.00D+00
 HarFok:  IExCor=  205 AccDes= 0.00D+00 IRadAn=         5 IDoV=-2 UseB2=F ITyADJ=14
 ICtDFT= 12500011 ScaDFX=  1.000000  1.000000  1.000000  1.000000
 Range of M.O.s used for correlation:     9   136
 NBasis=   136 NAE=    28 NBE=    28 NFC=     8 NFV=     0
 NROrb=    128 NOA=    20 NOB=    20 NVA=   108 NVB=   108
 Keep R1, R2, and R3 ints in memory in canonical form, NReq=183338682.
    12 initial guesses have been made.
 Convergence on wavefunction:    0.000001000000000
 Iteration     1 Dimension    12 NMult     0 NNew     12
 CISAX will form    12 AO SS matrices at one time.
 New state      2 was old state      4
 New state      3 was old state      7
 Iteration     2 Dimension    18 NMult    12 NNew      6
 New state      2 was old state      3
 New state      3 was old state      2
 Iteration     3 Dimension    24 NMult    18 NNew      6
 Iteration     4 Dimension    30 NMult    24 NNew      6
 Iteration     5 Dimension    36 NMult    30 NNew      6
 Iteration     6 Dimension    42 NMult    36 NNew      6
 Iteration     7 Dimension    48 NMult    42 NNew      6
 Iteration     8 Dimension    54 NMult    48 NNew      6
 Iteration     9 Dimension    58 NMult    54 NNew      4
 ***********************************************************************
 Excited states from <AA,BB:AA,BB> singles matrix:
 ***********************************************************************
 
 ExtSpn:  IState=     1 X2= 1.381 Y2= 0.381 X2-Y2-1= 2.22D-16
          S2Grnd= -0.000 Ra=  0.500 Rb=  0.500 T=  1.000 S2Ext=  2.000 S2=  2.000
 ExtSpn:  IState=     2 X2= 1.027 Y2= 0.027 X2-Y2-1= 4.44D-16
          S2Grnd= -0.000 Ra=  0.500 Rb=  0.500 T=  1.000 S2Ext=  2.000 S2=  2.000
 ExtSpn:  IState=     3 X2= 1.007 Y2= 0.007 X2-Y2-1= 1.11D-15
          S2Grnd= -0.000 Ra=  0.500 Rb=  0.500 T=  1.000 S2Ext=  2.000 S2=  2.000
 Ground to excited state transition densities written to RWF  633
 Ground to excited state transition electric dipole moments (Au):
       state          X           Y           Z        Dip. S.      Osc.
         1        -0.0000     -0.0000      0.0000      0.0000      0.0000
         2        -0.0000      0.0000     -0.0000      0.0000      0.0000
         3         0.0000     -0.0000      0.0000      0.0000      0.0000
 Ground to excited state transition velocity dipole moments (Au):
       state          X           Y           Z        Dip. S.      Osc.
         1        -0.0000     -0.0000      0.0000      0.0000      0.0000
         2         0.0000      0.0000     -0.0000      0.0000      0.0000
         3        -0.0000     -0.0000      0.0000      0.0000      0.0000
 Ground to excited state transition magnetic dipole moments (Au):
       state          X           Y           Z
         1        -0.0000     -0.0000     -0.0000
         2        -0.0000     -0.0000     -0.0000
         3        -0.0000      0.0000      0.0000
 Ground to excited state transition velocity quadrupole moments (Au):
       state          XX          YY          ZZ          XY          XZ          YZ
         1        -0.0000     -0.0000     -0.0000     -0.0000      0.0000      0.0000
         2         0.0000      0.0000      0.0000      0.0000     -0.0000     -0.0000
         3        -0.0000     -0.0000     -0.0000     -0.0000      0.0000      0.0000
 <0|del|b> * <b|rxdel|0> + <0|del|b> * <b|delr+rdel|0>
 Rotatory Strengths (R) in cgs (10**-40 erg-esu-cm/Gauss)
       state          XX          YY          ZZ    R(velocity)    E-M Angle
         1        -0.0000     -0.0000      0.0000      0.0000       90.00
         2         0.0000      0.0000     -0.0000      0.0000       90.00
         3         0.0000      0.0000     -0.0000      0.0000       90.00
 1/2[<0|r|b>*<b|rxdel|0> + (<0|rxdel|b>*<b|r|0>)*]
 Rotatory Strengths (R) in cgs (10**-40 erg-esu-cm/Gauss)
       state          XX          YY          ZZ     R(length)
         1        -0.0000     -0.0000      0.0000     -0.0000
         2        -0.0000      0.0000     -0.0000      0.0000
         3         0.0000      0.0000     -0.0000      0.0000
  1/2[<0|del|b>*<b|r|0> + (<0|r|b>*<b|del|0>)*] (Au)
       state          X           Y           Z        Dip. S.   Osc.(frdel)
         1         0.0000      0.0000      0.0000     -0.0000     -0.0000
         2        -0.0000      0.0000      0.0000     -0.0000     -0.0000
         3        -0.0000      0.0000      0.0000     -0.0000     -0.0000

 Excitation energies and oscillator strengths:
 
 Excited state symmetry could not be determined.
 Excited State   1:  3.000-?Sym    0.8564 eV 1447.67 nm  f=0.0000  <S**2>=2.000
     26A -> 29A        0.14604
     26A -> 31A        0.12593
     28A -> 29A       -0.78588
     28A -> 31A       -0.12713
     26B -> 29B       -0.14604
     26B -> 31B       -0.12593
     28B -> 29B        0.78588
     28B -> 31B        0.12713
     28A <- 29A       -0.39214
     28B <- 29B        0.39214
 This state for optimization and/or second-order correction.
 Total Energy, E(TD-HF/TD-DFT) =  -309.604530909    
 Copying the excited state density for this state as the 1-particle RhoCI density.
 
 Excited state symmetry could not be determined.
 Excited State   2:  3.000-?Sym    3.7691 eV  328.95 nm  f=0.0000  <S**2>=2.000
     26A -> 29A        0.46908
     27A -> 29A       -0.24890
     27A -> 30A        0.30163
     28A -> 31A       -0.32260
     26B -> 29B       -0.46908
     27B -> 29B        0.24890
     27B -> 30B       -0.30163
     28B -> 31B        0.32260
 
 Excited state symmetry could not be determined.
 Excited State   3:  3.000-?Sym    3.8462 eV  322.36 nm  f=0.0000  <S**2>=2.000
     26A -> 29A       -0.18419
     27A -> 29A       -0.56421
     27A -> 30A       -0.10618
     28A -> 30A       -0.32998
     28A -> 31A        0.11720
     26B -> 29B        0.18419
     27B -> 29B        0.56421
     27B -> 30B        0.10618
     28B -> 30B        0.32998
     28B -> 31B       -0.11720
 SavETr:  write IOETrn=   770 NScale= 10 NData=  16 NLR=1 NState=    3 LETran=      64.
          IDoAtm=11111111111111110000000000000000000000000000000000
          IDoAtm=00000000000000000000000000000000000000000
          Differentiating once with respect to electric field.
                with respect to dipole field.
          Differentiating once with respect to nuclear coordinates.
 Keep R1 and R2 ints in memory in canonical form, NReq=114009024.
          There are     1 degrees of freedom in the 1st order CPHF.  IDoFFX=0 NUNeed=     1.
 LinEq1:  Iter=  0 NonCon=     1 RMS=2.39D-03 Max=4.86D-02 NDo=     1
 AX will form     1 AO Fock derivatives at one time.
 LinEq1:  Iter=  1 NonCon=     1 RMS=3.06D-03 Max=1.34D-01 NDo=     1
 LinEq1:  Iter=  2 NonCon=     1 RMS=1.17D-03 Max=1.48D-02 NDo=     1
 LinEq1:  Iter=  3 NonCon=     1 RMS=5.89D-04 Max=1.21D-02 NDo=     1
 LinEq1:  Iter=  4 NonCon=     1 RMS=3.34D-04 Max=8.93D-03 NDo=     1
 LinEq1:  Iter=  5 NonCon=     1 RMS=2.16D-04 Max=4.41D-03 NDo=     1
 LinEq1:  Iter=  6 NonCon=     1 RMS=1.01D-04 Max=1.51D-03 NDo=     1
 LinEq1:  Iter=  7 NonCon=     1 RMS=4.76D-05 Max=6.68D-04 NDo=     1
 LinEq1:  Iter=  8 NonCon=     1 RMS=2.29D-05 Max=3.53D-04 NDo=     1
 LinEq1:  Iter=  9 NonCon=     1 RMS=1.62D-05 Max=3.68D-04 NDo=     1
 LinEq1:  Iter= 10 NonCon=     1 RMS=9.56D-06 Max=1.81D-04 NDo=     1
 LinEq1:  Iter= 11 NonCon=     1 RMS=5.26D-06 Max=6.58D-05 NDo=     1
 LinEq1:  Iter= 12 NonCon=     1 RMS=1.60D-06 Max=1.94D-05 NDo=     1
 LinEq1:  Iter= 13 NonCon=     1 RMS=4.43D-07 Max=4.83D-06 NDo=     1
 LinEq1:  Iter= 14 NonCon=     1 RMS=2.06D-07 Max=6.17D-06 NDo=     1
 LinEq1:  Iter= 15 NonCon=     1 RMS=8.60D-08 Max=6.42D-07 NDo=     1
 LinEq1:  Iter= 16 NonCon=     1 RMS=2.55D-08 Max=3.94D-07 NDo=     1
 LinEq1:  Iter= 17 NonCon=     1 RMS=1.49D-08 Max=2.63D-07 NDo=     1
 LinEq1:  Iter= 18 NonCon=     1 RMS=5.77D-09 Max=4.53D-08 NDo=     1
 LinEq1:  Iter= 19 NonCon=     1 RMS=1.04D-09 Max=1.51D-08 NDo=     1
 LinEq1:  Iter= 20 NonCon=     1 RMS=1.96D-10 Max=1.74D-09 NDo=     1
 LinEq1:  Iter= 21 NonCon=     0 RMS=3.78D-11 Max=2.76D-10 NDo=     1
 Linear equations converged to 1.000D-10 1.000D-09 after    21 iterations.
 End of Minotr F.D. properties file   721 does not exist.
 End of Minotr F.D. properties file   722 does not exist.
 End of Minotr F.D. properties file   788 does not exist.

 **********************************************************************

            Population analysis using the SCF Density.

 **********************************************************************

 Alpha  occ. eigenvalues --  -10.20206 -10.19631 -10.19137 -10.19010 -10.18978
 Alpha  occ. eigenvalues --  -10.18870 -10.18849 -10.18726  -0.85560  -0.78187
 Alpha  occ. eigenvalues --   -0.74496  -0.70816  -0.62548  -0.60092  -0.55818
 Alpha  occ. eigenvalues --   -0.50810  -0.46680  -0.45094  -0.43114  -0.41874
 Alpha  occ. eigenvalues --   -0.40057  -0.39014  -0.36643  -0.34855  -0.33546
 Alpha  occ. eigenvalues --   -0.28122  -0.25106  -0.19771
 Alpha virt. eigenvalues --   -0.05884   0.00317   0.04357   0.09623   0.12165
 Alpha virt. eigenvalues --    0.13300   0.15973   0.16207   0.17371   0.18378
 Alpha virt. eigenvalues --    0.19942   0.21606   0.26819   0.28252   0.30782
 Alpha virt. eigenvalues --    0.33388   0.36571   0.37719   0.46084   0.51992
 Alpha virt. eigenvalues --    0.52878   0.54415   0.55018   0.56510   0.57357
 Alpha virt. eigenvalues --    0.58760   0.59159   0.59812   0.61261   0.62030
 Alpha virt. eigenvalues --    0.62336   0.63557   0.65005   0.66088   0.68799
 Alpha virt. eigenvalues --    0.72025   0.77294   0.82700   0.83421   0.83794
 Alpha virt. eigenvalues --    0.84924   0.85438   0.88886   0.90447   0.92869
 Alpha virt. eigenvalues --    0.93567   0.94278   0.95982   0.99281   1.01415
 Alpha virt. eigenvalues --    1.04817   1.08903   1.14665   1.16721   1.18439
 Alpha virt. eigenvalues --    1.25927   1.29064   1.33916   1.39185   1.43758
 Alpha virt. eigenvalues --    1.45027   1.45540   1.48335   1.49883   1.51331
 Alpha virt. eigenvalues --    1.63601   1.72394   1.77781   1.80158   1.86193
 Alpha virt. eigenvalues --    1.88489   1.89649   1.91590   1.94971   1.97244
 Alpha virt. eigenvalues --    1.98380   2.04980   2.10783   2.11622   2.14797
 Alpha virt. eigenvalues --    2.15025   2.17955   2.22655   2.27292   2.32056
 Alpha virt. eigenvalues --    2.32936   2.35659   2.47937   2.51449   2.57204
 Alpha virt. eigenvalues --    2.59558   2.62574   2.66186   2.73995   2.75517
 Alpha virt. eigenvalues --    2.76939   2.86439   2.91956   3.13828   3.41834
 Alpha virt. eigenvalues --    4.07309   4.09779   4.12088   4.14005   4.25065
 Alpha virt. eigenvalues --    4.32864   4.42474   4.71119
  Beta  occ. eigenvalues --  -10.20206 -10.19631 -10.19137 -10.19010 -10.18978
  Beta  occ. eigenvalues --  -10.18870 -10.18849 -10.18726  -0.85560  -0.78187
  Beta  occ. eigenvalues --   -0.74496  -0.70816  -0.62548  -0.60092  -0.55818
  Beta  occ. eigenvalues --   -0.50810  -0.46680  -0.45094  -0.43114  -0.41874
  Beta  occ. eigenvalues --   -0.40057  -0.39014  -0.36643  -0.34855  -0.33546
  Beta  occ. eigenvalues --   -0.28122  -0.25106  -0.19771
  Beta virt. eigenvalues --   -0.05884   0.00317   0.04357   0.09623   0.12165
  Beta virt. eigenvalues --    0.13300   0.15973   0.16207   0.17371   0.18378
  Beta virt. eigenvalues --    0.19942   0.21606   0.26819   0.28252   0.30782
  Beta virt. eigenvalues --    0.33388   0.36571   0.37719   0.46084   0.51992
  Beta virt. eigenvalues --    0.52878   0.54415   0.55018   0.56510   0.57357
  Beta virt. eigenvalues --    0.58760   0.59159   0.59812   0.61261   0.62030
  Beta virt. eigenvalues --    0.62336   0.63557   0.65005   0.66088   0.68799
  Beta virt. eigenvalues --    0.72025   0.77294   0.82700   0.83421   0.83794
  Beta virt. eigenvalues --    0.84924   0.85438   0.88886   0.90447   0.92869
  Beta virt. eigenvalues --    0.93567   0.94278   0.95982   0.99281   1.01415
  Beta virt. eigenvalues --    1.04817   1.08903   1.14665   1.16721   1.18439
  Beta virt. eigenvalues --    1.25927   1.29064   1.33916   1.39185   1.43758
  Beta virt. eigenvalues --    1.45027   1.45540   1.48335   1.49883   1.51331
  Beta virt. eigenvalues --    1.63601   1.72394   1.77781   1.80158   1.86193
  Beta virt. eigenvalues --    1.88489   1.89649   1.91590   1.94971   1.97244
  Beta virt. eigenvalues --    1.98380   2.04980   2.10783   2.11622   2.14797
  Beta virt. eigenvalues --    2.15025   2.17955   2.22655   2.27292   2.32056
  Beta virt. eigenvalues --    2.32936   2.35659   2.47937   2.51449   2.57204
  Beta virt. eigenvalues --    2.59558   2.62574   2.66186   2.73995   2.75517
  Beta virt. eigenvalues --    2.76939   2.86439   2.91956   3.13828   3.41834
  Beta virt. eigenvalues --    4.07309   4.09779   4.12088   4.14005   4.25065
  Beta virt. eigenvalues --    4.32864   4.42474   4.71119
          Condensed to atoms (all electrons):
          Atomic-Atomic Spin Densities.
 Mulliken charges and spin densities:
               1          2
     1  C    0.186155   0.000000
     2  C   -0.187896  -0.000000
     3  C   -0.176190  -0.000000
     4  C   -0.126313   0.000000
     5  H    0.127714   0.000000
     6  C   -0.161913  -0.000000
     7  C   -0.127659   0.000000
     8  H    0.129388  -0.000000
     9  C   -0.129598  -0.000000
    10  H    0.129556   0.000000
    11  C   -0.369783   0.000000
    12  H    0.138467   0.000000
    13  H    0.130253   0.000000
    14  H    0.129901  -0.000000
    15  H    0.152250  -0.000000
    16  H    0.155668  -0.000000
    17  C    0.000000   0.000000
    18  H    0.000000   0.000000
    19  H    0.000000   0.000000
    20  Cl   0.000000   0.000000
    21  Cl   0.000000   0.000000
    22  C    0.000000   0.000000
    23  H    0.000000   0.000000
    24  H    0.000000   0.000000
    25  Cl   0.000000   0.000000
    26  Cl   0.000000   0.000000
    27  C    0.000000   0.000000
    28  H    0.000000   0.000000
    29  H    0.000000   0.000000
    30  Cl   0.000000   0.000000
    31  Cl   0.000000   0.000000
    32  C    0.000000   0.000000
    33  H    0.000000   0.000000
    34  H    0.000000   0.000000
    35  Cl   0.000000   0.000000
    36  Cl   0.000000   0.000000
    37  C    0.000000   0.000000
    38  H    0.000000   0.000000
    39  H    0.000000   0.000000
    40  Cl   0.000000   0.000000
    41  Cl   0.000000   0.000000
    42  C    0.000000   0.000000
    43  H    0.000000   0.000000
    44  H    0.000000   0.000000
    45  Cl   0.000000   0.000000
    46  Cl   0.000000   0.000000
    47  C    0.000000   0.000000
    48  H    0.000000   0.000000
    49  H    0.000000   0.000000
    50  Cl   0.000000   0.000000
    51  Cl   0.000000   0.000000
    52  C    0.000000   0.000000
    53  H    0.000000   0.000000
    54  H    0.000000   0.000000
    55  Cl   0.000000   0.000000
    56  Cl   0.000000   0.000000
    57  C    0.000000   0.000000
    58  H    0.000000   0.000000
    59  H    0.000000   0.000000
    60  Cl   0.000000   0.000000
    61  Cl   0.000000   0.000000
    62  C    0.000000   0.000000
    63  H    0.000000   0.000000
    64  H    0.000000   0.000000
    65  Cl   0.000000   0.000000
    66  Cl   0.000000   0.000000
    67  C    0.000000   0.000000
    68  H    0.000000   0.000000
    69  H    0.000000   0.000000
    70  Cl   0.000000   0.000000
    71  Cl   0.000000   0.000000
    72  C    0.000000   0.000000
    73  H    0.000000   0.000000
    74  H    0.000000   0.000000
    75  Cl   0.000000   0.000000
    76  Cl   0.000000   0.000000
    77  C    0.000000   0.000000
    78  H    0.000000   0.000000
    79  H    0.000000   0.000000
    80  Cl   0.000000   0.000000
    81  Cl   0.000000   0.000000
    82  C    0.000000   0.000000
    83  H    0.000000   0.000000
    84  H    0.000000   0.000000
    85  Cl   0.000000   0.000000
    86  Cl   0.000000   0.000000
    87  C    0.000000   0.000000
    88  H    0.000000   0.000000
    89  H    0.000000   0.000000
    90  Cl   0.000000   0.000000
    91  Cl   0.000000   0.000000
 Sum of Mulliken charges =  -0.00000   0.00000
 Mulliken charges and spin densities with hydrogens summed into heavy atoms:
               1          2
     1  C    0.186155   0.000000
     2  C   -0.060182  -0.000000
     3  C   -0.046802  -0.000000
     4  C    0.003244   0.000000
     6  C   -0.023447  -0.000000
     7  C    0.002594   0.000000
     9  C    0.000303  -0.000000
    11  C   -0.061865   0.000000
    17  C    0.000000   0.000000
    20  Cl   0.000000   0.000000
    21  Cl   0.000000   0.000000
    22  C    0.000000   0.000000
    25  Cl   0.000000   0.000000
    26  Cl   0.000000   0.000000
    27  C    0.000000   0.000000
    30  Cl   0.000000   0.000000
    31  Cl   0.000000   0.000000
    32  C    0.000000   0.000000
    35  Cl   0.000000   0.000000
    36  Cl   0.000000   0.000000
    37  C    0.000000   0.000000
    40  Cl   0.000000   0.000000
    41  Cl   0.000000   0.000000
    42  C    0.000000   0.000000
    45  Cl   0.000000   0.000000
    46  Cl   0.000000   0.000000
    47  C    0.000000   0.000000
    50  Cl   0.000000   0.000000
    51  Cl   0.000000   0.000000
    52  C    0.000000   0.000000
    55  Cl   0.000000   0.000000
    56  Cl   0.000000   0.000000
    57  C    0.000000   0.000000
    60  Cl   0.000000   0.000000
    61  Cl   0.000000   0.000000
    62  C    0.000000   0.000000
    65  Cl   0.000000   0.000000
    66  Cl   0.000000   0.000000
    67  C    0.000000   0.000000
    70  Cl   0.000000   0.000000
    71  Cl   0.000000   0.000000
    72  C    0.000000   0.000000
    75  Cl   0.000000   0.000000
    76  Cl   0.000000   0.000000
    77  C    0.000000   0.000000
    80  Cl   0.000000   0.000000
    81  Cl   0.000000   0.000000
    82  C    0.000000   0.000000
    85  Cl   0.000000   0.000000
    86  Cl   0.000000   0.000000
    87  C    0.000000   0.000000
    90  Cl   0.000000   0.000000
    91  Cl   0.000000   0.000000
 Electronic spatial extent (au):  <R**2>=            996.4650
 Charge=              0.0000 electrons
 Dipole moment (field-independent basis, Debye):
    X=             -0.2566    Y=             -0.1495    Z=             -0.0441  Tot=              0.3002
 Quadrupole moment (field-independent basis, Debye-Ang):
   XX=            -43.0323   YY=            -44.3516   ZZ=            -48.7047
   XY=             -0.0154   XZ=              0.0424   YZ=             -3.6714
 Traceless Quadrupole moment (field-independent basis, Debye-Ang):
   XX=              2.3306   YY=              1.0112   ZZ=             -3.3418
   XY=             -0.0154   XZ=              0.0424   YZ=             -3.6714
 Octapole moment (field-independent basis, Debye-Ang**2):
  XXX=             -4.2373  YYY=              6.5040  ZZZ=             30.2446  XYY=              0.5260
  XXY=              4.9348  XXZ=             12.6249  XZZ=              2.3352  YZZ=              5.8984
  YYZ=             11.1333  XYZ=              0.2173
 Hexadecapole moment (field-independent basis, Debye-Ang**3):
 XXXX=           -855.1238 YYYY=           -304.8202 ZZZZ=           -155.4410 XXXY=            -50.7342
 XXXZ=             73.6738 YYYX=            -66.3044 YYYZ=             58.8336 ZZZX=             64.7833
 ZZZY=             67.4918 XXYY=           -189.3842 XXZZ=           -186.2001 YYZZ=            -73.7018
 XXYZ=             10.6576 YYXZ=             19.6855 ZZXY=            -17.8178
 N-N= 3.190855853540D+02 E-N=-1.354418575984D+03  KE= 3.064344221442D+02
                          Isotropic Fermi Contact Couplings
        Atom                 a.u.       MegaHertz       Gauss      10(-4) cm-1
     1  C(13)              0.00000       0.00000       0.00000       0.00000
     2  C(13)             -0.00000      -0.00000      -0.00000      -0.00000
     3  C(13)             -0.00000      -0.00000      -0.00000      -0.00000
     4  C(13)              0.00000       0.00000       0.00000       0.00000
     5  H(1)              -0.00000      -0.00000      -0.00000      -0.00000
     6  C(13)              0.00000       0.00000       0.00000       0.00000
     7  C(13)             -0.00000      -0.00000      -0.00000      -0.00000
     8  H(1)              -0.00000      -0.00000      -0.00000      -0.00000
     9  C(13)              0.00000       0.00000       0.00000       0.00000
    10  H(1)               0.00000       0.00000       0.00000       0.00000
    11  C(13)              0.00000       0.00000       0.00000       0.00000
    12  H(1)              -0.00000      -0.00000      -0.00000      -0.00000
    13  H(1)              -0.00000      -0.00000      -0.00000      -0.00000
    14  H(1)               0.00000       0.00000       0.00000       0.00000
    15  H(1)               0.00000       0.00000       0.00000       0.00000
    16  H(1)               0.00000       0.00000       0.00000       0.00000
 --------------------------------------------------------
       Center         ----  Spin Dipole Couplings  ----
                      3XX-RR        3YY-RR        3ZZ-RR
 --------------------------------------------------------
     1   Atom        0.000000      0.000000      0.000000
     2   Atom        0.000000      0.000000      0.000000
     3   Atom        0.000000      0.000000      0.000000
     4   Atom        0.000000      0.000000      0.000000
     5   Atom        0.000000      0.000000      0.000000
     6   Atom        0.000000      0.000000      0.000000
     7   Atom        0.000000      0.000000      0.000000
     8   Atom        0.000000      0.000000      0.000000
     9   Atom        0.000000      0.000000      0.000000
    10   Atom        0.000000      0.000000      0.000000
    11   Atom        0.000000      0.000000      0.000000
    12   Atom        0.000000      0.000000      0.000000
    13   Atom        0.000000      0.000000      0.000000
    14   Atom        0.000000      0.000000      0.000000
    15   Atom        0.000000      0.000000      0.000000
    16   Atom        0.000000      0.000000      0.000000
 --------------------------------------------------------
                        XY            XZ            YZ
 --------------------------------------------------------
     1   Atom        0.000000      0.000000      0.000000
     2   Atom        0.000000      0.000000      0.000000
     3   Atom        0.000000      0.000000      0.000000
     4   Atom        0.000000      0.000000      0.000000
     5   Atom        0.000000      0.000000      0.000000
     6   Atom        0.000000      0.000000      0.000000
     7   Atom        0.000000      0.000000      0.000000
     8   Atom        0.000000      0.000000      0.000000
     9   Atom        0.000000      0.000000      0.000000
    10   Atom        0.000000      0.000000      0.000000
    11   Atom        0.000000      0.000000      0.000000
    12   Atom        0.000000      0.000000      0.000000
    13   Atom        0.000000      0.000000      0.000000
    14   Atom        0.000000      0.000000      0.000000
    15   Atom        0.000000      0.000000      0.000000
    16   Atom        0.000000      0.000000      0.000000
 --------------------------------------------------------


 ---------------------------------------------------------------------------------
              Anisotropic Spin Dipole Couplings in Principal Axis System
 ---------------------------------------------------------------------------------

       Atom             a.u.   MegaHertz   Gauss  10(-4) cm-1        Axes

              Baa     0.0000     0.000     0.000     0.000  1.0000  0.0000  0.0000
     1 C(13)  Bbb     0.0000     0.000     0.000     0.000 -0.0000  1.0000  0.0000
              Bcc     0.0000     0.000     0.000     0.000  0.0000  0.0000  1.0000
 
              Baa     0.0000     0.000     0.000     0.000  1.0000  0.0000  0.0000
     2 C(13)  Bbb     0.0000     0.000     0.000     0.000 -0.0000  1.0000  0.0000
              Bcc     0.0000     0.000     0.000     0.000  0.0000  0.0000  1.0000
 
              Baa     0.0000     0.000     0.000     0.000  1.0000  0.0000  0.0000
     3 C(13)  Bbb     0.0000     0.000     0.000     0.000 -0.0000  1.0000  0.0000
              Bcc     0.0000     0.000     0.000     0.000  0.0000  0.0000  1.0000
 
              Baa     0.0000     0.000     0.000     0.000  1.0000  0.0000  0.0000
     4 C(13)  Bbb     0.0000     0.000     0.000     0.000 -0.0000  1.0000  0.0000
              Bcc     0.0000     0.000     0.000     0.000  0.0000  0.0000  1.0000
 
              Baa     0.0000     0.000     0.000     0.000  1.0000  0.0000  0.0000
     5 H(1)   Bbb     0.0000     0.000     0.000     0.000 -0.0000  1.0000  0.0000
              Bcc     0.0000     0.000     0.000     0.000  0.0000  0.0000  1.0000
 
              Baa     0.0000     0.000     0.000     0.000  1.0000  0.0000  0.0000
     6 C(13)  Bbb     0.0000     0.000     0.000     0.000 -0.0000  1.0000  0.0000
              Bcc     0.0000     0.000     0.000     0.000  0.0000  0.0000  1.0000
 
              Baa     0.0000     0.000     0.000     0.000  1.0000  0.0000  0.0000
     7 C(13)  Bbb     0.0000     0.000     0.000     0.000 -0.0000  1.0000  0.0000
              Bcc     0.0000     0.000     0.000     0.000  0.0000  0.0000  1.0000
 
              Baa     0.0000     0.000     0.000     0.000  1.0000  0.0000  0.0000
     8 H(1)   Bbb     0.0000     0.000     0.000     0.000 -0.0000  1.0000  0.0000
              Bcc     0.0000     0.000     0.000     0.000  0.0000  0.0000  1.0000
 
              Baa     0.0000     0.000     0.000     0.000  1.0000  0.0000  0.0000
     9 C(13)  Bbb     0.0000     0.000     0.000     0.000 -0.0000  1.0000  0.0000
              Bcc     0.0000     0.000     0.000     0.000  0.0000  0.0000  1.0000
 
              Baa     0.0000     0.000     0.000     0.000  1.0000  0.0000  0.0000
    10 H(1)   Bbb     0.0000     0.000     0.000     0.000 -0.0000  1.0000  0.0000
              Bcc     0.0000     0.000     0.000     0.000  0.0000  0.0000  1.0000
 
              Baa     0.0000     0.000     0.000     0.000  1.0000  0.0000  0.0000
    11 C(13)  Bbb     0.0000     0.000     0.000     0.000 -0.0000  1.0000  0.0000
              Bcc     0.0000     0.000     0.000     0.000  0.0000  0.0000  1.0000
 
              Baa     0.0000     0.000     0.000     0.000  1.0000  0.0000  0.0000
    12 H(1)   Bbb     0.0000     0.000     0.000     0.000 -0.0000  1.0000  0.0000
              Bcc     0.0000     0.000     0.000     0.000  0.0000  0.0000  1.0000
 
              Baa     0.0000     0.000     0.000     0.000  1.0000  0.0000  0.0000
    13 H(1)   Bbb     0.0000     0.000     0.000     0.000 -0.0000  1.0000  0.0000
              Bcc     0.0000     0.000     0.000     0.000  0.0000  0.0000  1.0000
 
              Baa     0.0000     0.000     0.000     0.000  1.0000  0.0000  0.0000
    14 H(1)   Bbb     0.0000     0.000     0.000     0.000 -0.0000  1.0000  0.0000
              Bcc     0.0000     0.000     0.000     0.000  0.0000  0.0000  1.0000
 
              Baa     0.0000     0.000     0.000     0.000  1.0000  0.0000  0.0000
    15 H(1)   Bbb     0.0000     0.000     0.000     0.000 -0.0000  1.0000  0.0000
              Bcc     0.0000     0.000     0.000     0.000  0.0000  0.0000  1.0000
 
              Baa     0.0000     0.000     0.000     0.000  1.0000  0.0000  0.0000
    16 H(1)   Bbb     0.0000     0.000     0.000     0.000 -0.0000  1.0000  0.0000
              Bcc     0.0000     0.000     0.000     0.000  0.0000  0.0000  1.0000
 

 ---------------------------------------------------------------------------------

 Calling FoFJK, ICntrl=  10005127 FMM=F ISym2X=0 I1Cent= 0 IOpClX= 1 NMat=1 NMatS=1 NMatT=0.
 Cartesian Forces:  Max     0.082047509 RMS     0.010901485
 SvSCFP is copying densities from files   528 and   530 to   603.
 ONIOM: saving gridpoint  2
 ONIOM: restoring gridpoint 17
 ONIOM: restoring gridpoint  1 on chk file.
 ONIOM: generating point  1 -- low level on model system.
 Standard basis: VSTO-6G (5D, 7F)
    40 basis functions,   240 primitive gaussians,    40 cartesian basis functions
    20 alpha electrons       20 beta electrons
       nuclear repulsion energy       184.5133911388 Hartrees.
 Integral buffers will be    131072 words long.
 Regular integral format.
 Two-electron integral symmetry is turned off.
 Do NDO integrals.
 One-electron integrals computed using PRISM.
 NBasis=    40 RedAO= F EigKep=  0.00D+00  NBF=    40
 NBsUse=    40 1.00D-04 EigRej=  0.00D+00 NBFU=    40
 Initial guess from the checkpoint file:  "a.chk"
 B after Tr=     0.002531   -0.000821   -0.002022
         Rot=    1.000000   -0.000375   -0.000153    0.000407 Ang=  -0.07 deg.
 Initial guess <Sx>= 0.0000 <Sy>= 0.0000 <Sz>= 0.0000 <S**2>= 0.8635 S= 0.5552
 Keep J ints in memory in canonical form, NReq=867663.
 Overlap will be assumed to be unity.
 Requested convergence on RMS density matrix=1.00D-08 within  64 cycles.
 Requested convergence on MAX density matrix=1.00D-06.
 Requested convergence on             energy=1.00D-06.
 No special actions if energy rises.
 SCF Done:  E(UPM6) =  0.863660296555E-01 A.U. after   18 cycles
            NFock= 17  Conv=0.34D-08     -V/T= 1.0014
 <Sx>= 0.0000 <Sy>= 0.0000 <Sz>= 0.0000 <S**2>= 0.8673 S= 0.5570
 <L.S>=  0.00000000000    
 Annihilation of the first spin contaminant:
 S**2 before annihilation     0.8673,   after     1.1081
 QCSCF skips out because SCF is already converged.

 **********************************************************************

            Population analysis using the SCF Density.

 **********************************************************************

 Alpha  occ. eigenvalues --   -1.09842  -1.00202  -0.95795  -0.90612  -0.81135
 Alpha  occ. eigenvalues --   -0.77951  -0.71345  -0.63730  -0.58610  -0.56647
 Alpha  occ. eigenvalues --   -0.54042  -0.52257  -0.50766  -0.49831  -0.48190
 Alpha  occ. eigenvalues --   -0.44706  -0.43243  -0.39621  -0.36728  -0.32079
 Alpha virt. eigenvalues --    0.00677   0.01761   0.04467   0.10035   0.15559
 Alpha virt. eigenvalues --    0.15667   0.17742   0.18354   0.18606   0.19233
 Alpha virt. eigenvalues --    0.19817   0.20408   0.21132   0.21536   0.22339
 Alpha virt. eigenvalues --    0.22618   0.22821   0.22970   0.23428   0.23479
  Beta  occ. eigenvalues --   -1.09781  -1.00124  -0.95744  -0.90755  -0.81173
  Beta  occ. eigenvalues --   -0.77953  -0.71435  -0.63559  -0.58523  -0.56707
  Beta  occ. eigenvalues --   -0.54179  -0.52214  -0.50782  -0.49618  -0.48048
  Beta  occ. eigenvalues --   -0.44589  -0.43249  -0.38782  -0.36067  -0.34153
  Beta virt. eigenvalues --   -0.01163   0.02380   0.05248   0.10562   0.15520
  Beta virt. eigenvalues --    0.15813   0.17715   0.18450   0.18660   0.19248
  Beta virt. eigenvalues --    0.19864   0.20598   0.21077   0.21488   0.22286
  Beta virt. eigenvalues --    0.22420   0.22734   0.22967   0.23406   0.23541
          Condensed to atoms (all electrons):
          Atomic-Atomic Spin Densities.
 Mulliken charges and spin densities:
               1          2
     1  C    0.029680  -0.391063
     2  C   -0.170296   0.384329
     3  C   -0.158600   0.391066
     4  C   -0.137041  -0.315735
     5  H    0.147234  -0.013363
     6  C   -0.149924   0.709032
     7  C   -0.140765  -0.324466
     8  H    0.150821  -0.013401
     9  C   -0.147600   0.372854
    10  H    0.145305   0.011201
    11  C   -0.309654  -0.845749
    12  H    0.149088  -0.034408
    13  H    0.144537   0.011292
    14  H    0.146110  -0.013098
    15  H    0.149477   0.034619
    16  H    0.151629   0.036888
    17  C    0.000000   0.000000
    18  H    0.000000   0.000000
    19  H    0.000000   0.000000
    20  Cl   0.000000   0.000000
    21  Cl   0.000000   0.000000
    22  C    0.000000   0.000000
    23  H    0.000000   0.000000
    24  H    0.000000   0.000000
    25  Cl   0.000000   0.000000
    26  Cl   0.000000   0.000000
    27  C    0.000000   0.000000
    28  H    0.000000   0.000000
    29  H    0.000000   0.000000
    30  Cl   0.000000   0.000000
    31  Cl   0.000000   0.000000
    32  C    0.000000   0.000000
    33  H    0.000000   0.000000
    34  H    0.000000   0.000000
    35  Cl   0.000000   0.000000
    36  Cl   0.000000   0.000000
    37  C    0.000000   0.000000
    38  H    0.000000   0.000000
    39  H    0.000000   0.000000
    40  Cl   0.000000   0.000000
    41  Cl   0.000000   0.000000
    42  C    0.000000   0.000000
    43  H    0.000000   0.000000
    44  H    0.000000   0.000000
    45  Cl   0.000000   0.000000
    46  Cl   0.000000   0.000000
    47  C    0.000000   0.000000
    48  H    0.000000   0.000000
    49  H    0.000000   0.000000
    50  Cl   0.000000   0.000000
    51  Cl   0.000000   0.000000
    52  C    0.000000   0.000000
    53  H    0.000000   0.000000
    54  H    0.000000   0.000000
    55  Cl   0.000000   0.000000
    56  Cl   0.000000   0.000000
    57  C    0.000000   0.000000
    58  H    0.000000   0.000000
    59  H    0.000000   0.000000
    60  Cl   0.000000   0.000000
    61  Cl   0.000000   0.000000
    62  C    0.000000   0.000000
    63  H    0.000000   0.000000
    64  H    0.000000   0.000000
    65  Cl   0.000000   0.000000
    66  Cl   0.000000   0.000000
    67  C    0.000000   0.000000
    68  H    0.000000   0.000000
    69  H    0.000000   0.000000
    70  Cl   0.000000   0.000000
    71  Cl   0.000000   0.000000
    72  C    0.000000   0.000000
    73  H    0.000000   0.000000
    74  H    0.000000   0.000000
    75  Cl   0.000000   0.000000
    76  Cl   0.000000   0.000000
    77  C    0.000000   0.000000
    78  H    0.000000   0.000000
    79  H    0.000000   0.000000
    80  Cl   0.000000   0.000000
    81  Cl   0.000000   0.000000
    82  C    0.000000   0.000000
    83  H    0.000000   0.000000
    84  H    0.000000   0.000000
    85  Cl   0.000000   0.000000
    86  Cl   0.000000   0.000000
    87  C    0.000000   0.000000
    88  H    0.000000   0.000000
    89  H    0.000000   0.000000
    90  Cl   0.000000   0.000000
    91  Cl   0.000000   0.000000
 Sum of Mulliken charges =  -0.00000   0.00000
 Mulliken charges and spin densities with hydrogens summed into heavy atoms:
               1          2
     1  C    0.029680  -0.391063
     2  C   -0.023061   0.370967
     3  C   -0.007779   0.377665
     4  C    0.008264  -0.304534
     6  C   -0.000836   0.674624
     7  C    0.003772  -0.313174
     9  C   -0.001490   0.359756
    11  C   -0.008549  -0.774241
    17  C    0.000000   0.000000
    20  Cl   0.000000   0.000000
    21  Cl   0.000000   0.000000
    22  C    0.000000   0.000000
    25  Cl   0.000000   0.000000
    26  Cl   0.000000   0.000000
    27  C    0.000000   0.000000
    30  Cl   0.000000   0.000000
    31  Cl   0.000000   0.000000
    32  C    0.000000   0.000000
    35  Cl   0.000000   0.000000
    36  Cl   0.000000   0.000000
    37  C    0.000000   0.000000
    40  Cl   0.000000   0.000000
    41  Cl   0.000000   0.000000
    42  C    0.000000   0.000000
    45  Cl   0.000000   0.000000
    46  Cl   0.000000   0.000000
    47  C    0.000000   0.000000
    50  Cl   0.000000   0.000000
    51  Cl   0.000000   0.000000
    52  C    0.000000   0.000000
    55  Cl   0.000000   0.000000
    56  Cl   0.000000   0.000000
    57  C    0.000000   0.000000
    60  Cl   0.000000   0.000000
    61  Cl   0.000000   0.000000
    62  C    0.000000   0.000000
    65  Cl   0.000000   0.000000
    66  Cl   0.000000   0.000000
    67  C    0.000000   0.000000
    70  Cl   0.000000   0.000000
    71  Cl   0.000000   0.000000
    72  C    0.000000   0.000000
    75  Cl   0.000000   0.000000
    76  Cl   0.000000   0.000000
    77  C    0.000000   0.000000
    80  Cl   0.000000   0.000000
    81  Cl   0.000000   0.000000
    82  C    0.000000   0.000000
    85  Cl   0.000000   0.000000
    86  Cl   0.000000   0.000000
    87  C    0.000000   0.000000
    90  Cl   0.000000   0.000000
    91  Cl   0.000000   0.000000
 Charge=             -0.0000 electrons
 Dipole moment (field-independent basis, Debye):
    X=              0.0336    Y=             -0.0892    Z=             -0.1655  Tot=              0.1909
 N-N= 1.845133911388D+02 E-N=-2.804805802015D+02  KE=-6.322578132054D+01
 Calling FoFJK, ICntrl=      2127 FMM=F ISym2X=0 I1Cent= 0 IOpClX= 1 NMat=1 NMatS=1 NMatT=0.
 Cartesian Forces:  Max     0.033814302 RMS     0.004546091
 SvSCFP is copying densities from files   528 and   530 to   603.
 ONIOM: saving gridpoint  1
 ONIOM: restoring gridpoint  3
 ONIOM: calculating energy.
 ONIOM: gridpoint  1 method:  low   system:  model energy:     0.086366029655
 ONIOM: gridpoint  2 method:  high  system:  model energy:  -309.604530908960
 ONIOM: gridpoint  3 method:  low   system:  real  energy:    -0.403534898780
 ONIOM: extrapolated energy =    -310.094431837396
 ONIOM: calculating first derivatives.
 ONIOM: calculating electric field derivatives.
 ONIOM: Integrating ONIOM file  4 number   619
 ONIOM: Dipole        =-8.70594795D-02 4.78491878D-03 1.36407072D-01
 ONIOM: Dipole moment (Debye):
    X=    -0.2213    Y=     0.0122    Z=     0.3467  Tot=     0.4115
 ONIOM: Integrating ONIOM file  5 number   695
 Anisotropic Hyperfine tensors: 
                 1             2             3             4             5 
      1   0.000000D+00  0.000000D+00  0.000000D+00  0.000000D+00  0.000000D+00
      2   0.000000D+00  0.000000D+00  0.000000D+00  0.000000D+00  0.000000D+00
      3   0.000000D+00  0.000000D+00  0.000000D+00  0.000000D+00  0.000000D+00
      4   0.000000D+00  0.000000D+00  0.000000D+00  0.000000D+00  0.000000D+00
      5   0.000000D+00  0.000000D+00  0.000000D+00  0.000000D+00  0.000000D+00
      6   0.000000D+00  0.000000D+00  0.000000D+00  0.000000D+00  0.000000D+00
                 6             7             8             9            10 
      1   0.000000D+00  0.000000D+00  0.000000D+00  0.000000D+00  0.000000D+00
      2   0.000000D+00  0.000000D+00  0.000000D+00  0.000000D+00  0.000000D+00
      3   0.000000D+00  0.000000D+00  0.000000D+00  0.000000D+00  0.000000D+00
      4   0.000000D+00  0.000000D+00  0.000000D+00  0.000000D+00  0.000000D+00
      5   0.000000D+00  0.000000D+00  0.000000D+00  0.000000D+00  0.000000D+00
      6   0.000000D+00  0.000000D+00  0.000000D+00  0.000000D+00  0.000000D+00
                11            12            13            14            15 
      1   0.000000D+00  0.000000D+00  0.000000D+00  0.000000D+00  0.000000D+00
      2   0.000000D+00  0.000000D+00  0.000000D+00  0.000000D+00  0.000000D+00
      3   0.000000D+00  0.000000D+00  0.000000D+00  0.000000D+00  0.000000D+00
      4   0.000000D+00  0.000000D+00  0.000000D+00  0.000000D+00  0.000000D+00
      5   0.000000D+00  0.000000D+00  0.000000D+00  0.000000D+00  0.000000D+00
      6   0.000000D+00  0.000000D+00  0.000000D+00  0.000000D+00  0.000000D+00
                16            17            18            19            20 
      1   0.000000D+00  0.000000D+00  0.000000D+00  0.000000D+00  0.000000D+00
      2   0.000000D+00  0.000000D+00  0.000000D+00  0.000000D+00  0.000000D+00
      3   0.000000D+00  0.000000D+00  0.000000D+00  0.000000D+00  0.000000D+00
      4   0.000000D+00  0.000000D+00  0.000000D+00  0.000000D+00  0.000000D+00
      5   0.000000D+00  0.000000D+00  0.000000D+00  0.000000D+00  0.000000D+00
      6   0.000000D+00  0.000000D+00  0.000000D+00  0.000000D+00  0.000000D+00
                21            22            23            24            25 
      1   0.000000D+00  0.000000D+00  0.000000D+00  0.000000D+00  0.000000D+00
      2   0.000000D+00  0.000000D+00  0.000000D+00  0.000000D+00  0.000000D+00
      3   0.000000D+00  0.000000D+00  0.000000D+00  0.000000D+00  0.000000D+00
      4   0.000000D+00  0.000000D+00  0.000000D+00  0.000000D+00  0.000000D+00
      5   0.000000D+00  0.000000D+00  0.000000D+00  0.000000D+00  0.000000D+00
      6   0.000000D+00  0.000000D+00  0.000000D+00  0.000000D+00  0.000000D+00
                26            27            28            29            30 
      1   0.000000D+00  0.000000D+00  0.000000D+00  0.000000D+00  0.000000D+00
      2   0.000000D+00  0.000000D+00  0.000000D+00  0.000000D+00  0.000000D+00
      3   0.000000D+00  0.000000D+00  0.000000D+00  0.000000D+00  0.000000D+00
      4   0.000000D+00  0.000000D+00  0.000000D+00  0.000000D+00  0.000000D+00
      5   0.000000D+00  0.000000D+00  0.000000D+00  0.000000D+00  0.000000D+00
      6   0.000000D+00  0.000000D+00  0.000000D+00  0.000000D+00  0.000000D+00
                31            32            33            34            35 
[...]
   Z20        6.14165   0.00011   0.00000   0.00005   0.00087   6.14252
   X21        9.32702   0.00001   0.00000   0.00033   0.00016   9.32718
   Y21       -2.21212  -0.00001   0.00000  -0.00026   0.00012  -2.21200
   Z21        2.96904  -0.00003   0.00000  -0.00164  -0.00065   2.96839
   X22       10.81123   0.00008   0.00000   0.00149   0.00129  10.81252
   Y22       -2.01133  -0.00006   0.00000  -0.00076  -0.00064  -2.01197
   Z22       -2.95242   0.00008   0.00000  -0.00075   0.00022  -2.95220
   X23        8.77786   0.00012   0.00000   0.00132   0.00113   8.77899
   Y23       -2.11919   0.00009   0.00000   0.00112   0.00125  -2.11794
   Z23       -2.43922  -0.00005   0.00000  -0.00138  -0.00039  -2.43961
   X24       11.97788  -0.00006   0.00000  -0.00035  -0.00053  11.97735
   Y24       -3.13821  -0.00016   0.00000  -0.00233  -0.00214  -3.14035
   Z24       -1.62402   0.00000   0.00000  -0.00057   0.00045  -1.62357
   X25       11.82546   0.00033   0.00000   0.00462   0.00441  11.82987
   Y25        1.18147  -0.00011   0.00000  -0.00174  -0.00161   1.17986
   Z25       -2.88016   0.00014   0.00000   0.00066   0.00149  -2.87867
   X26       11.24841   0.00011   0.00000   0.00162   0.00142  11.24984
   Y26       -3.12643  -0.00002   0.00000  -0.00004  -0.00006  -3.12649
   Z26       -6.06966  -0.00004   0.00000  -0.00123  -0.00021  -6.06986
   X27        3.99143  -0.00008   0.00000  -0.00052  -0.00074   3.99069
   Y27        6.01354   0.00006   0.00000   0.00004   0.00038   6.01393
   Z27        2.92264  -0.00002   0.00000  -0.00121  -0.00057   2.92207
   X28        3.48969  -0.00028   0.00000  -0.00294  -0.00315   3.48654
   Y28        4.04674   0.00000   0.00000   0.00051   0.00082   4.04757
   Z28        2.37551  -0.00009   0.00000  -0.00139  -0.00065   2.37486
   X29        2.57346  -0.00005   0.00000  -0.00020  -0.00043   2.57303
   Y29        7.37129   0.00011   0.00000   0.00125   0.00155   7.37284
   Z29        2.17585   0.00002   0.00000   0.00020   0.00078   2.17663
   X30        7.02753  -0.00000   0.00000  -0.00073  -0.00096   7.02657
   Y30        6.78163  -0.00008   0.00000  -0.00187  -0.00157   6.78007
   Z30        1.73617  -0.00027   0.00000  -0.00390  -0.00331   1.73287
   X31        4.15753   0.00016   0.00000   0.00244   0.00224   4.15977
   Y31        6.26415  -0.00003   0.00000  -0.00111  -0.00062   6.26353
   Z31        6.25565   0.00006   0.00000  -0.00105  -0.00041   6.25523
   X32       -4.25236  -0.00011   0.00000  -0.00134  -0.00151  -4.25387
   Y32        1.52616   0.00007   0.00000   0.00067   0.00113   1.52729
   Z32        6.60718  -0.00025   0.00000  -0.00415  -0.00327   6.60391
   X33       -3.57657   0.00005   0.00000   0.00078   0.00061  -3.57595
   Y33       -0.45865   0.00012   0.00000   0.00133   0.00179  -0.45686
   Z33        6.68432  -0.00042   0.00000  -0.00560  -0.00464   6.67969
   X34       -4.17539   0.00013   0.00000   0.00164   0.00146  -4.17392
   Y34        2.42959   0.00016   0.00000   0.00124   0.00178   2.43137
   Z34        8.50014  -0.00029   0.00000  -0.00443  -0.00359   8.49655
   X35       -7.39890  -0.00034   0.00000  -0.00379  -0.00397  -7.40288
   Y35        1.58386  -0.00018   0.00000  -0.00277  -0.00238   1.58148
   Z35        5.46078   0.00027   0.00000   0.00218   0.00307   5.46385
   X36       -2.36897  -0.00055   0.00000  -0.00702  -0.00721  -2.37618
   Y36        3.25600   0.00022   0.00000   0.00230   0.00267   3.25867
   Z36        4.44535  -0.00049   0.00000  -0.00778  -0.00698   4.43837
   X37       -1.96766  -0.00009   0.00000  -0.00124  -0.00145  -1.96911
   Y37        8.59691   0.00016   0.00000   0.00125   0.00181   8.59872
   Z37        8.62601   0.00020   0.00000   0.00223   0.00279   8.62879
   X38       -0.69968  -0.00016   0.00000  -0.00184  -0.00206  -0.70174
   Y38       10.24807   0.00015   0.00000   0.00151   0.00209  10.25015
   Z38        8.84946   0.00030   0.00000   0.00372   0.00419   8.85365
   X39       -1.66244   0.00001   0.00000   0.00033   0.00011  -1.66233
   Y39        7.67819   0.00015   0.00000   0.00180   0.00228   7.68047
   Z39        6.76350   0.00024   0.00000   0.00232   0.00291   6.76640
   X40       -5.14848  -0.00017   0.00000  -0.00171  -0.00192  -5.15039
   Y40        9.55114   0.00013   0.00000   0.00064   0.00119   9.55233
   Z40        8.91503   0.00004   0.00000  -0.00020   0.00033   8.91536
   X41       -1.35510  -0.00022   0.00000  -0.00268  -0.00286  -1.35796
   Y41        6.38684   0.00005   0.00000   0.00006   0.00073   6.38757
   Z41       11.07995   0.00020   0.00000   0.00164   0.00229  11.08224
   X42        8.37885   0.00002   0.00000   0.00010  -0.00014   8.37871
   Y42        2.02572   0.00018   0.00000   0.00280   0.00266   2.02838
   Z42       -8.38813  -0.00004   0.00000  -0.00194  -0.00113  -8.38926
   X43        7.34162  -0.00010   0.00000  -0.00130  -0.00153   7.34009
   Y43        0.47741   0.00033   0.00000   0.00430   0.00420   0.48161
   Z43       -7.42014  -0.00004   0.00000  -0.00108  -0.00020  -7.42034
   X44       10.45056  -0.00007   0.00000  -0.00031  -0.00055  10.45001
   Y44        1.71510   0.00009   0.00000   0.00110   0.00098   1.71608
   Z44       -8.25959  -0.00009   0.00000  -0.00145  -0.00064  -8.26023
   X45        7.60824   0.00017   0.00000   0.00252   0.00227   7.61051
   Y45        4.97180   0.00034   0.00000   0.00434   0.00426   4.97605
   Z45       -6.97639  -0.00020   0.00000  -0.00371  -0.00303  -6.97942
   X46        7.43308   0.00005   0.00000   0.00107   0.00081   7.43389
   Y46        2.19740   0.00010   0.00000   0.00173   0.00144   2.19884
   Z46      -11.58695  -0.00015   0.00000  -0.00247  -0.00167 -11.58862
   X47      -10.25717  -0.00001   0.00000   0.00050   0.00028 -10.25689
   Y47        3.69740   0.00022   0.00000   0.00227   0.00236   3.69976
   Z47       -0.72821   0.00005   0.00000  -0.00130  -0.00050  -0.72871
   X48      -11.94604  -0.00001   0.00000   0.00040   0.00019 -11.94585
   Y48        2.59639   0.00032   0.00000   0.00451   0.00462   2.60101
   Z48       -0.15948   0.00033   0.00000   0.00329   0.00415  -0.15532
   X49       -8.78139   0.00027   0.00000   0.00380   0.00359  -8.77781
   Y49        3.63496   0.00009   0.00000   0.00118   0.00134   3.63631
   Z49        0.76348  -0.00038   0.00000  -0.00478  -0.00397   0.75950
   X50      -11.13932   0.00028   0.00000   0.00388   0.00364 -11.13568
   Y50        6.87367   0.00029   0.00000   0.00329   0.00335   6.87703
   Z50       -1.28843  -0.00003   0.00000  -0.00130  -0.00063  -1.28906
   X51       -9.04558  -0.00044   0.00000  -0.00620  -0.00642  -9.05200
   Y51        2.44558  -0.00007   0.00000  -0.00064  -0.00067   2.44491
   Z51       -3.58139  -0.00021   0.00000  -0.00320  -0.00235  -3.58374
   X52       -3.01389   0.00004   0.00000   0.00089   0.00066  -3.01323
   Y52        1.86733  -0.00002   0.00000  -0.00078  -0.00096   1.86637
   Z52       -7.74033   0.00010   0.00000   0.00073   0.00159  -7.73874
   X53       -3.64713   0.00014   0.00000   0.00187   0.00162  -3.64550
   Y53        2.45854  -0.00002   0.00000  -0.00003  -0.00030   2.45824
   Z53       -9.64962   0.00014   0.00000   0.00077   0.00160  -9.64802
   X54       -4.05347  -0.00004   0.00000  -0.00029  -0.00052  -4.05399
   Y54        2.90309  -0.00012   0.00000  -0.00150  -0.00162   2.90147
   Z54       -6.23552   0.00006   0.00000   0.00041   0.00123  -6.23429
   X55        0.27461   0.00006   0.00000   0.00072   0.00049   0.27509
   Y55        2.46666  -0.00003   0.00000  -0.00033  -0.00047   2.46619
   Z55       -7.42960   0.00031   0.00000   0.00284   0.00366  -7.42594
   X56       -3.47213   0.00003   0.00000   0.00096   0.00074  -3.47139
   Y56       -1.42132  -0.00017   0.00000  -0.00120  -0.00136  -1.42269
   Z56       -7.36924   0.00005   0.00000  -0.00092   0.00009  -7.36915
   X57       -2.68402   0.00019   0.00000   0.00259   0.00234  -2.68168
   Y57       11.14451  -0.00004   0.00000  -0.00108  -0.00084  11.14366
   Z57        1.42176   0.00012   0.00000   0.00088   0.00133   1.42308
   X58       -1.99715   0.00015   0.00000   0.00228   0.00202  -1.99514
   Y58       11.57747  -0.00012   0.00000  -0.00116  -0.00101  11.57646
   Z58       -0.51627   0.00002   0.00000   0.00066   0.00108  -0.51519
   X59       -4.34020   0.00011   0.00000   0.00170   0.00144  -4.33876
   Y59       12.33031  -0.00014   0.00000  -0.00211  -0.00186  12.32845
   Z59        1.91994   0.00009   0.00000   0.00069   0.00109   1.92102
   X60       -0.20805   0.00015   0.00000   0.00178   0.00153  -0.20651
   Y60       11.70281   0.00017   0.00000   0.00111   0.00145  11.70426
   Z60        3.61040   0.00022   0.00000   0.00162   0.00202   3.61242
   X61       -3.50763   0.00028   0.00000   0.00426   0.00403  -3.50360
   Y61        7.90450  -0.00015   0.00000  -0.00173  -0.00149   7.90302
   Z61        1.66661   0.00003   0.00000  -0.00004   0.00055   1.66716
   X62        2.09276   0.00005   0.00000   0.00058   0.00042   2.09318
   Y62        0.63395  -0.00002   0.00000  -0.00132  -0.00070   0.63325
   Z62        9.35278  -0.00010   0.00000  -0.00233  -0.00143   9.35135
   X63        1.37990   0.00007   0.00000   0.00084   0.00067   1.38057
   Y63        2.52934  -0.00011   0.00000  -0.00182  -0.00124   2.52811
   Z63        8.79741  -0.00029   0.00000  -0.00431  -0.00350   8.79391
   X64        3.69521  -0.00002   0.00000  -0.00006  -0.00022   3.69499
   Y64        0.79794   0.00006   0.00000   0.00016   0.00085   0.79879
   Z64       10.69186  -0.00010   0.00000  -0.00176  -0.00088  10.69098
   X65        3.07386   0.00011   0.00000   0.00168   0.00152   3.07538
   Y65       -1.03700  -0.00026   0.00000  -0.00389  -0.00339  -1.04039
   Z65        6.63053   0.00005   0.00000  -0.00047   0.00049   6.63103
   X66       -0.37823  -0.00004   0.00000  -0.00005  -0.00019  -0.37842
   Y66       -1.10808   0.00003   0.00000  -0.00025   0.00042  -1.10767
   Z66       10.78752  -0.00002   0.00000  -0.00183  -0.00085  10.78667
   X67        2.01505  -0.00008   0.00000   0.00043   0.00023   2.01528
   Y67       -4.10017  -0.00009   0.00000  -0.00033  -0.00039  -4.10056
   Z67       -5.72438  -0.00003   0.00000  -0.00093   0.00017  -5.72421
   X68        0.36472  -0.00000   0.00000  -0.00039  -0.00057   0.36415
   Y68       -5.22982   0.00012   0.00000   0.00109   0.00099  -5.22883
   Z68       -6.34484  -0.00002   0.00000  -0.00087   0.00029  -6.34455
   X69        1.40740   0.00017   0.00000   0.00188   0.00168   1.40908
   Y69       -2.19632  -0.00006   0.00000  -0.00075  -0.00078  -2.19710
   Z69       -5.07191   0.00020   0.00000   0.00163   0.00266  -5.06925
   X70        4.18482  -0.00012   0.00000  -0.00144  -0.00165   4.18317
   Y70       -3.80388   0.00016   0.00000   0.00200   0.00184  -3.80204
   Z70       -8.24766  -0.00011   0.00000  -0.00248  -0.00140  -8.24906
   X71        3.58592   0.00014   0.00000   0.00178   0.00160   3.58753
   Y71       -5.70000  -0.00018   0.00000  -0.00248  -0.00242  -5.70242
   Z71       -3.23311  -0.00001   0.00000  -0.00287  -0.00170  -3.23481
   X72        3.53805   0.00005   0.00000   0.00006  -0.00022   3.53783
   Y72        7.41726  -0.00000   0.00000   0.00065   0.00035   7.41761
   Z72      -11.23014  -0.00017   0.00000  -0.00251  -0.00193 -11.23208
   X73        5.37212   0.00003   0.00000   0.00022  -0.00007   5.37205
   Y73        7.20877   0.00001   0.00000   0.00050   0.00017   7.20894
   Z73      -12.22386  -0.00017   0.00000  -0.00239  -0.00181 -12.22567
   X74        3.35682  -0.00001   0.00000   0.00010  -0.00017   3.35665
   Y74        5.96458   0.00003   0.00000   0.00093   0.00070   5.96529
   Z74       -9.73025  -0.00007   0.00000  -0.00197  -0.00132  -9.73158
   X75        3.34635  -0.00008   0.00000  -0.00051  -0.00081   3.34555
   Y75       10.47677   0.00014   0.00000   0.00110   0.00086  10.47763
   Z75       -9.86952  -0.00011   0.00000  -0.00274  -0.00229  -9.87181
   X76        1.01613  -0.00013   0.00000  -0.00025  -0.00054   1.01559
   Y76        7.12727  -0.00008   0.00000  -0.00026  -0.00067   7.12660
   Z76      -13.39308  -0.00019   0.00000  -0.00257  -0.00196 -13.39504
   X77       -2.85702  -0.00001   0.00000  -0.00078  -0.00105  -2.85807
   Y77        8.76905  -0.00028   0.00000  -0.00294  -0.00308   8.76597
   Z77       -6.95421  -0.00007   0.00000  -0.00107  -0.00052  -6.95473
   X78       -0.99543  -0.00003   0.00000  -0.00110  -0.00137  -0.99680
   Y78        8.03791  -0.00040   0.00000  -0.00498  -0.00514   8.03277
   Z78       -7.58797  -0.00006   0.00000  -0.00047   0.00010  -7.58787
   X79       -2.90885   0.00019   0.00000   0.00274   0.00245  -2.90640
   Y79       10.86014  -0.00008   0.00000  -0.00229  -0.00243  10.85770
   Z79       -7.09777   0.00027   0.00000   0.00289   0.00335  -7.09442
   X80       -5.30274  -0.00022   0.00000  -0.00158  -0.00185  -5.30459
   Y80        7.45303   0.00027   0.00000   0.00442   0.00418   7.45720
   Z80       -8.81472  -0.00038   0.00000  -0.00569  -0.00507  -8.81978
   X81       -3.42456  -0.00064   0.00000  -0.00716  -0.00741  -3.43197
   Y81        7.83761  -0.00056   0.00000  -0.00715  -0.00715   7.83045
   Z81       -3.78053  -0.00011   0.00000  -0.00317  -0.00257  -3.78311
   X82        4.06102   0.00013   0.00000   0.00139   0.00111   4.06213
   Y82       11.29987  -0.00008   0.00000  -0.00168  -0.00160  11.29827
   Z82       -3.07104  -0.00000   0.00000  -0.00038   0.00003  -3.07101
   X83        5.22456   0.00008   0.00000   0.00116   0.00088   5.22544
   Y83       11.22044  -0.00016   0.00000  -0.00172  -0.00172  11.21872
   Z83       -4.81255  -0.00008   0.00000  -0.00069  -0.00028  -4.81283
   X84        5.26091   0.00010   0.00000   0.00145   0.00118   5.26209
   Y84       11.22786  -0.00018   0.00000  -0.00210  -0.00194  11.22592
   Z84       -1.35444   0.00004   0.00000  -0.00031   0.00010  -1.35434
   X85        2.23659   0.00003   0.00000   0.00118   0.00088   2.23748
   Y85       14.09797   0.00000   0.00000  -0.00139  -0.00133  14.09665
   Z85       -3.06900   0.00006   0.00000   0.00033   0.00062  -3.06838
   X86        1.91670   0.00014   0.00000   0.00234   0.00208   1.91878
   Y86        8.72509  -0.00030   0.00000  -0.00283  -0.00277   8.72232
   Z86       -3.04448   0.00004   0.00000  -0.00032   0.00021  -3.04427
   X87       -8.27132  -0.00006   0.00000   0.00019  -0.00009  -8.27142
   Y87       13.01401  -0.00017   0.00000  -0.00156  -0.00157  13.01244
   Z87       -3.18595  -0.00005   0.00000  -0.00053  -0.00015  -3.18610
   X88      -10.10902   0.00004   0.00000   0.00029   0.00000 -10.10902
   Y88       13.12316  -0.00014   0.00000  -0.00155  -0.00162  13.12155
   Z88       -4.18603   0.00001   0.00000  -0.00047  -0.00009  -4.18612
   X89       -7.71666   0.00010   0.00000   0.00152   0.00125  -7.71541
   Y89       11.01326  -0.00007   0.00000  -0.00151  -0.00150  11.01176
   Z89       -2.86902  -0.00024   0.00000  -0.00338  -0.00291  -2.87193
   X90       -5.92956  -0.00002   0.00000  -0.00031  -0.00061  -5.93017
   Y90       14.57377   0.00020   0.00000   0.00255   0.00247  14.57625
   Z90       -4.99462   0.00016   0.00000   0.00205   0.00235  -4.99227
   X91       -8.49991  -0.00015   0.00000  -0.00144  -0.00172  -8.50163
   Y91       14.60054  -0.00046   0.00000  -0.00628  -0.00616  14.59438
   Z91       -0.25378   0.00024   0.00000   0.00207   0.00238  -0.25140
         Item               Value     Threshold  Converged?
 Maximum Force            0.048920     0.000450     NO 
 RMS     Force            0.006361     0.000300     NO 
 Maximum Displacement     0.148398     0.001800     NO 
 RMS     Displacement     0.018155     0.001200     NO 
 Predicted change in Energy=-1.197771D-02
 GradGradGradGradGradGradGradGradGradGradGradGradGradGradGradGradGradGrad

 Unable to Open any file for archive entry.
 1\1\GINC-X10P1N23\Force\ONIOM(B3LYP TD-FC/6-31G(d):PM6)\Mixed\C23H38Cl
 30\MAYUMIAO\12-Jul-2024\0\\# scf=(xqc,maxcycle=64) force guess=read on
 iom(td/b3lyp/em=gd3bj/6-31g(d):pm6) nosymm\\Title Card\\0,1\C,0.550200
 91,-0.17310112,-0.17724054\C,-0.08885561,-1.29372116,0.42419273\C,-0.2
 7374415,0.87438226,-0.65378522\C,-1.46236066,-1.35405833,0.52420687\H,
 0.53051032,-2.10719167,0.79341405\C,1.96998231,-0.13809806,-0.31334892
 \C,-1.65566826,0.80975183,-0.51686671\H,0.1749676,1.73663635,-1.138479
 62\C,-2.25491146,-0.30885641,0.05837482\H,-1.92506841,-2.23776803,0.97
 129923\C,2.68751615,0.90466158,-0.99866018\H,2.52546123,-0.98789047,0.
 09102362\H,-2.26337332,1.63664286,-0.87626711\H,-3.34578781,-0.3673076
 8,0.12990222\H,3.63614308,1.28520373,-0.63378872\H,2.35619038,1.289941
 64,-1.96122922\C,4.98022006,0.55631628,1.99040854\H,5.26455073,1.14288
 156,1.09152717\H,3.98384833,0.8649182,2.37019044\Cl,6.19327264,0.77284
 72,3.25002316\Cl,4.93564717,-1.1706025,1.57114751\C,5.72105398,-1.0643
 4862,-1.56235154\H,4.64504422,-1.12142884,-1.29077989\H,6.33841902,-1.
 66067018,-0.85939531\Cl,6.25776464,0.62520949,-1.52411611\Cl,5.9524048
 ,-1.65443689,-3.21192396\C,2.11217229,3.18223089,1.54659374\H,1.846664
 85,2.14144502,1.25706556\H,1.36181818,3.90071882,1.15141059\Cl,3.71881
 033,3.5886856,0.91874331\Cl,2.20006822,3.31484495,3.31034657\C,-2.2502
 5134,0.80761037,3.49637012\H,-1.89263795,-0.24270707,3.5371921\H,-2.20
 952073,1.28568526,4.49807961\Cl,-3.91533116,0.83814283,2.88972062\Cl,-
 1.25360624,1.7229999,2.35237697\C,-1.04124256,4.54928797,4.56468742\H,
 -0.37025579,5.42304347,4.68293123\H,-0.87972733,4.0631235,3.57908752\C
 l,-2.72445574,5.0542459,4.71763059\Cl,-0.71708568,3.37976969,5.8632567
 \C,4.43389478,1.07196398,-4.43880709\H,3.88501737,0.25263534,-3.926571
 43\H,5.53019729,0.90759298,-4.37078845\Cl,4.02610815,2.63096134,-3.691
 74786\Cl,3.93341524,1.16281434,-6.13154856\C,-5.42786058,1.9565801,-0.
 38535098\H,-6.32157281,1.3739522,-0.08439069\H,-4.6469124,1.92353908,0
 .40401397\Cl,-5.8946731,3.63739072,-0.68180886\Cl,-4.78671616,1.294144
 48,-1.89519234\C,-1.59488158,0.98815008,-4.09600789\H,-1.92997544,1.30
 100179,-5.10635776\H,-2.14500324,1.53624697,-3.29969622\Cl,0.14531628,
 1.30530251,-3.93157289\Cl,-1.83737144,-0.75213042,-3.89963525\C,-1.420
 32011,5.8974194,0.75236223\H,-1.05684823,6.12653501,-0.2731997\H,-2.29
 67335,6.52492042,1.01598701\Cl,-0.11009414,6.19285957,1.91054046\Cl,-1
 .85615617,4.18288345,0.88193046\C,1.10743862,0.33547304,4.94928006\H,0
 .73021138,1.33847125,4.6553871\H,1.95541896,0.42225093,5.65789071\Cl,1
 .62661609,-0.54875593,3.50872769\Cl,-0.20014987,-0.58637306,5.70850919
 \C,1.06631752,-2.16971786,-3.02921388\H,0.19300281,-2.76750228,-3.3575
 463\H,0.74476468,-1.16224012,-2.68393665\Cl,2.21451246,-2.01292801,-4.
 36447498\Cl,1.89758934,-3.01631147,-1.71089029\C,1.87225592,3.92504445
 ,-5.94273642\H,2.84280492,3.81471735,-6.46858821\H,1.77635362,3.156320
 55,-5.14902918\Cl,1.77081348,5.54406777,-5.22272653\Cl,0.53771256,3.77
 158652,-7.08731249\C,-1.51186768,4.64038229,-3.68001048\H,-0.52676133,
 4.25347625,-4.01538083\H,-1.53929744,5.74693651,-3.75597598\Cl,-2.8060
 8721,3.94397226,-4.66454715\Cl,-1.81219841,4.14748284,-2.00057164\C,2.
 14899931,5.97963619,-1.62512287\H,2.76471795,5.93759868,-2.54668957\H,
 2.78395355,5.94152726,-0.71673805\Cl,1.18355363,7.46032687,-1.62404463
 \Cl,1.01427337,4.61711962,-1.61106865\C,-4.37699668,6.88671683,-1.6859
 3234\H,-5.34946141,6.94447844,-2.21515321\H,-4.08348209,5.82796744,-1.
 51821749\Cl,-3.13778962,7.71210867,-2.64303732\Cl,-4.49795693,7.726271
 19,-0.13429374\\Version=ES64L-G16RevC.01\HF=0.086366\S2=0.867274\S2-1=
 0.\S2A=1.108085\RMSD=3.385e-09\RMSF=6.361e-03\Dipole=-0.0870595,0.0047
 849,0.1364071\PG=C01 [X(C23H38Cl30)]\\@
 The archive entry for this job was punched.


 GARBAGE IN, GARBAGE OUT
 Job cpu time:       0 days  0 hours 19 minutes 21.0 seconds.
 Elapsed time:       0 days  0 hours  0 minutes 46.3 seconds.
 File lengths (MBytes):  RWF=    173 Int=      0 D2E=      0 Chk=     37 Scr=      1
 Normal termination of Gaussian 16 at Fri Jul 12 22:43:04 2024.
