 Entering Gaussian System, Link 0=g16
 Input=JOBS/4_A.gjf
 Output=JOBS/4_A.log
 Initial command:
 /data/app/gaussian/C01-avx2//g16/l1.exe "/tmp/Gau-1760171.inp" -scrdir="/tmp/"
 Entering Link 1 = /data/app/gaussian/C01-avx2//g16/l1.exe PID=   1760172.
  
 Copyright (c) 1988-2019, Gaussian, Inc.  All Rights Reserved.
  
 This is part of the Gaussian(R) 16 program.  It is based on
 the Gaussian(R) 09 system (copyright 2009, Gaussian, Inc.),
 the Gaussian(R) 03 system (copyright 2003, Gaussian, Inc.),
 the Gaussian(R) 98 system (copyright 1998, Gaussian, Inc.),
 the Gaussian(R) 94 system (copyright 1995, Gaussian, Inc.),
 the Gaussian 92(TM) system (copyright 1992, Gaussian, Inc.),
 the Gaussian 90(TM) system (copyright 1990, Gaussian, Inc.),
 the Gaussian 88(TM) system (copyright 1988, Gaussian, Inc.),
 the Gaussian 86(TM) system (copyright 1986, Carnegie Mellon
 University), and the Gaussian 82(TM) system (copyright 1983,
 Carnegie Mellon University). Gaussian is a federally registered
 trademark of Gaussian, Inc.
  
 This software contains proprietary and confidential information,
 including trade secrets, belonging to Gaussian, Inc.
  
 This software is provided under written license and may be
 used, copied, transmitted, or stored only in accord with that
 written license.
  
 The following legend is applicable only to US Government
 contracts under FAR:
  
                    RESTRICTED RIGHTS LEGEND
  
 Use, reproduction and disclosure by the US Government is
 subject to restrictions as set forth in subparagraphs (a)
 and (c) of the Commercial Computer Software - Restricted
 Rights clause in FAR 52.227-19.
  
 Gaussian, Inc.
 340 Quinnipiac St., Bldg. 40, Wallingford CT 06492
  
  
 ---------------------------------------------------------------
 Warning -- This program may not be used in any manner that
 competes with the business of Gaussian, Inc. or will provide
 assistance to any competitor of Gaussian, Inc.  The licensee
 of this program is prohibited from giving any competitor of
 Gaussian, Inc. access to this program.  By using this program,
 the user acknowledges that Gaussian, Inc. is engaged in the
 business of creating and licensing software in the field of
 computational chemistry and represents and warrants to the
 licensee that it is not a competitor of Gaussian, Inc. and that
 it will not use this program in any manner prohibited above.
 ---------------------------------------------------------------
  

 Cite this work as:
 Gaussian 16, Revision C.01,
 M. J. Frisch, G. W. Trucks, H. B. Schlegel, G. E. Scuseria, 
 M. A. Robb, J. R. Cheeseman, G. Scalmani, V. Barone, 
 G. A. Petersson, H. Nakatsuji, X. Li, M. Caricato, A. V. Marenich, 
 J. Bloino, B. G. Janesko, R. Gomperts, B. Mennucci, H. P. Hratchian, 
 J. V. Ortiz, A. F. Izmaylov, J. L. Sonnenberg, D. Williams-Young, 
 F. Ding, F. Lipparini, F. Egidi, J. Goings, B. Peng, A. Petrone, 
 T. Henderson, D. Ranasinghe, V. G. Zakrzewski, J. Gao, N. Rega, 
 G. Zheng, W. Liang, M. Hada, M. Ehara, K. Toyota, R. Fukuda, 
 J. Hasegawa, M. Ishida, T. Nakajima, Y. Honda, O. Kitao, H. Nakai, 
 T. Vreven, K. Throssell, J. A. Montgomery, Jr., J. E. Peralta, 
 F. Ogliaro, M. J. Bearpark, J. J. Heyd, E. N. Brothers, K. N. Kudin, 
 V. N. Staroverov, T. A. Keith, R. Kobayashi, J. Normand, 
 K. Raghavachari, A. P. Rendell, J. C. Burant, S. S. Iyengar, 
 J. Tomasi, M. Cossi, J. M. Millam, M. Klene, C. Adamo, R. Cammi, 
 J. W. Ochterski, R. L. Martin, K. Morokuma, O. Farkas, 
 J. B. Foresman, and D. J. Fox, Gaussian, Inc., Wallingford CT, 2019.
 
 ******************************************
 Gaussian 16:  ES64L-G16RevC.01  3-Jul-2019
                12-Jul-2024 
 ******************************************
 %chk=a.chk
 %nprocshared=28
 Will use up to   28 processors via shared memory.
 %mem=48gb
 ----------------------------------------------------------------------
 # scf=(xqc,maxcycle=64) force guess=read oniom(td/b3lyp/em=gd3bj/6-31g
 (d):pm6) nosymm
 ----------------------------------------------------------------------
 1/10=7,30=1,38=1,52=2/1,3;
 2/12=2,15=1,17=6,18=5,40=1/2;
 1/10=7,30=1,38=1,52=2,53=3172/20;
 3/5=2,25=1,41=3900000,71=1,116=-2/1,2,3;
 4/5=1,35=1/1;
 5/5=2,7=64,8=3,13=1,35=1,38=6/2,8;
 6/7=2,8=2,9=2,10=2,28=1/1;
 7/7=1,30=1,33=-1/1,2,3,16;
 1/10=7,30=1,52=2,53=2032/20;
 3/5=1,6=6,7=1,11=9,25=1,30=1,71=1,74=-5,116=-2,124=41/1,2,3,8;
 4/5=1/1;
 5/5=2,7=64,8=3,13=1,38=6/2,8;
 8/6=1,10=2/1;
 9/15=2,42=1,70=2/14;
 10/5=4,31=1/2;
 6/7=2,8=2,9=2,10=2,18=1/1;
 7/7=1,12=6,13=5,30=1,33=-1/1,2,3,16;
 1/10=7,30=1,52=2,53=1022/20;
 3/5=2,25=1,41=3900000,71=1,116=-2/1,2,3;
 4/5=1,35=1/1;
 5/5=2,7=64,8=3,13=1,35=1,38=6/2,8;
 6/7=2,8=2,9=2,10=2,28=1/1;
 7/7=1,30=1,33=-1/1,2,3,16;
 1/10=7,30=1,52=2,53=3015/20;
 7/9=1,29=1,44=-1,126=2/16;
 1/10=7,30=1,52=2/3;
 99//99;
 ONIOM: restoring gridpoint  3 on chk file.
 ----------
 Title Card
 ----------
 Symbolic Z-matrix:
 Charge =  0 Multiplicity = 1 for low   level calculation on real  system.
 Charge =  0 Multiplicity = 1 for high  level calculation on model system.
 Charge =  0 Multiplicity = 1 for low   level calculation on model system.
 c                     0.55158  -0.17511  -0.17919  h 
 c                    -0.08645  -1.29393   0.41798  h 
 c                    -0.27292   0.87648  -0.65502  h 
 c                    -1.45937  -1.35831   0.52521  h 
 h                     0.53457  -2.10737   0.78674  h 
 c                     1.97095  -0.144    -0.31004  h 
 c                    -1.6514    0.81361  -0.51828  h 
 h                     0.17963   1.74379  -1.12939  h 
 c                    -2.25842  -0.30552   0.05615  h 
 h                    -1.91981  -2.23027   0.98071  h 
 c                     2.68644   0.8984   -1.00208  h 
 h                     2.5284   -0.98899   0.09882  h 
 h                    -2.26378   1.64162  -0.86697  h 
 h                    -3.34066  -0.36501   0.13179  h 
 h                     3.63019   1.29023  -0.62853  h 
 h                     2.34037   1.28814  -1.95828  h 
 c                     4.97849   0.55644   1.99136  l 
 h                     5.26261   1.14408   1.09315  l 
 h                     3.98188   0.86382   2.37132  l 
 cl                    6.19117   0.77251   3.25155  l 
 cl                    4.9357   -1.17023   1.57075  l 
 c                     5.72345  -1.06571  -1.56175  l 
 h                     4.64685  -1.11896  -1.292    l 
 h                     6.33805  -1.66483  -0.85879  l 
 cl                    6.2653    0.62227  -1.52126  l 
 cl                    5.95489  -1.65498  -3.21173  l 
 c                     2.11095   3.18291   1.54536  l 
 h                     1.84272   2.14251   1.25672  l 
 h                     1.36136   3.90381   1.15293  l 
 cl                    3.71688   3.58537   0.91277  l 
 cl                    2.20354   3.31444   3.30898  l 
 c                    -2.25329   0.8098    3.49027  l 
 h                    -1.89062  -0.23882   3.52877  l 
 h                    -2.20651   1.2876    4.49182  l 
 cl                   -3.92288   0.83441   2.89607  l 
 cl                   -1.26748   1.72815   2.3392   l 
 c                    -1.0437    4.55243   4.56942  l 
 h                    -0.37353   5.42652   4.68981  l 
 h                    -0.87969   4.06624   3.58425  l 
 cl                   -2.72746   5.057     4.71808  l 
 cl                   -0.72196   3.38237   5.86809  l 
 c                     4.43423   1.07665  -4.44125  l 
 h                     3.88244   0.26073  -3.92689  l 
 h                     5.52995   0.90889  -4.37256  l 
 cl                    4.03024   2.63829  -3.69753  l 
 cl                    3.93432   1.1648   -6.13442  l 
 c                    -5.4269    1.96043  -0.38645  l 
 h                    -6.32115   1.38236  -0.07839  l 
 h                    -4.6409    1.92525   0.3978   l 
 cl                   -5.88994   3.64245  -0.68226  l 
 cl                   -4.79931   1.29274  -1.89996  l 
 c                    -1.59371   0.98604  -4.09318  l 
 h                    -1.92656   1.2998   -5.10389  l 
 h                    -2.14572   1.53344  -3.29773  l 
 cl                    0.14611   1.30379  -3.92506  l 
 cl                   -1.8363   -0.75448  -3.89909  l 
 c                    -1.41658   5.89604   0.75521  l 
 h                    -1.05306   6.12443  -0.27045  l 
 h                    -2.29514   6.52107   1.01778  l 
 cl                   -0.10745   6.19551   1.91371  l 
 cl                   -1.84846   4.18067   0.88576  l 
 c                     1.10848   0.33406   4.94712  l 
 h                     0.73125   1.33587   4.64942  l 
 h                     1.9557    0.42362   5.65635  l 
 cl                    1.62944  -0.55549   3.51043  l 
 cl                   -0.20002  -0.58534   5.70769  l 
 c                     1.06647  -2.16975  -3.02892  l 
 h                     0.19166  -2.76545  -3.35629  l 
 h                     0.74585  -1.16292  -2.68064  l 
 cl                    2.21315  -2.0109   -4.36537  l 
 cl                    1.90018  -3.02166  -1.71525  l 
 c                     1.87184   3.92568  -5.94569  l 
 h                     2.84209   3.81557  -6.47199  l 
 h                     1.77664   3.15744  -5.15134  l 
 cl                    1.76999   5.54542  -5.22709  l 
 cl                    0.5371    3.77047  -7.09004  l 
 c                    -1.51667   4.63465  -3.68118  l 
 h                    -0.53314   4.24084  -4.01272  l 
 h                    -1.53822   5.74212  -3.74865  l 
 cl                   -2.8076    3.95453  -4.68114  l 
 cl                   -1.82251   4.13534  -2.0044   l 
 c                     2.15243   5.97687  -1.62439  l 
 h                     2.76896   5.93595  -2.54555  l 
 h                     2.79028   5.94078  -0.71778  l 
 cl                    1.18278   7.45491  -1.62275  l 
 cl                    1.01675   4.61414  -1.61007  l 
 c                    -4.3772    6.88422  -1.68612  l 
 h                    -5.3495    6.94214  -2.21543  l 
 h                    -4.08097   5.82555  -1.523    l 
 cl                   -3.13947   7.71703  -2.63891  l 
 cl                   -4.50099   7.71641  -0.13055  l 
 

 GradGradGradGradGradGradGradGradGradGradGradGradGradGradGradGradGradGrad
 Berny optimization.
 Initialization pass.
 Trust Radius=3.00D-01 FncErr=1.00D-07 GrdErr=1.00D-07 EigMax=2.50D+02 EigMin=1.00D-04
 Number of steps in this run=      2 maximum allowed number of steps=      2.
 GradGradGradGradGradGradGradGradGradGradGradGradGradGradGradGradGradGrad

 Symmetry turned off by external request.
 Stoichiometry    C23H38Cl30
 Framework group  C1[X(C23H38Cl30)]
 Deg. of freedom   267
 Full point group                 C1      NOp   1
                          Input orientation:                          
 ---------------------------------------------------------------------
 Center     Atomic      Atomic             Coordinates (Angstroms)
 Number     Number       Type             X           Y           Z
 ---------------------------------------------------------------------
      1          6           0        0.551575   -0.175107   -0.179186
      2          6           0       -0.086453   -1.293926    0.417982
      3          6           0       -0.272917    0.876478   -0.655016
      4          6           0       -1.459371   -1.358306    0.525213
      5          1           0        0.534573   -2.107371    0.786742
      6          6           0        1.970953   -0.143997   -0.310040
      7          6           0       -1.651395    0.813611   -0.518281
      8          1           0        0.179626    1.743793   -1.129392
      9          6           0       -2.258415   -0.305519    0.056150
     10          1           0       -1.919808   -2.230270    0.980705
     11          6           0        2.686438    0.898404   -1.002077
     12          1           0        2.528402   -0.988989    0.098823
     13          1           0       -2.263783    1.641620   -0.866968
     14          1           0       -3.340658   -0.365014    0.131793
     15          1           0        3.630188    1.290226   -0.628534
     16          1           0        2.340369    1.288137   -1.958277
     17          6           0        4.978490    0.556435    1.991357
     18          1           0        5.262611    1.144084    1.093154
     19          1           0        3.981881    0.863817    2.371323
     20         17           0        6.191171    0.772505    3.251546
     21         17           0        4.935704   -1.170233    1.570747
     22          6           0        5.723455   -1.065706   -1.561751
     23          1           0        4.646850   -1.118962   -1.292001
     24          1           0        6.338051   -1.664833   -0.858795
     25         17           0        6.265295    0.622271   -1.521256
     26         17           0        5.954887   -1.654983   -3.211726
     27          6           0        2.110952    3.182911    1.545362
     28          1           0        1.842724    2.142512    1.256723
     29          1           0        1.361364    3.903813    1.152929
     30         17           0        3.716879    3.585367    0.912771
     31         17           0        2.203545    3.314443    3.308980
     32          6           0       -2.253292    0.809802    3.490269
     33          1           0       -1.890624   -0.238824    3.528775
     34          1           0       -2.206505    1.287602    4.491817
     35         17           0       -3.922875    0.834413    2.896073
     36         17           0       -1.267480    1.728152    2.339205
     37          6           0       -1.043696    4.552433    4.569420
     38          1           0       -0.373529    5.426520    4.689809
     39          1           0       -0.879694    4.066243    3.584253
     40         17           0       -2.727457    5.057004    4.718083
     41         17           0       -0.721956    3.382368    5.868089
     42          6           0        4.434228    1.076651   -4.441252
     43          1           0        3.882436    0.260728   -3.926892
     44          1           0        5.529950    0.908887   -4.372561
     45         17           0        4.030240    2.638289   -3.697530
     46         17           0        3.934324    1.164802   -6.134425
     47          6           0       -5.426897    1.960433   -0.386452
     48          1           0       -6.321152    1.382357   -0.078392
     49          1           0       -4.640896    1.925248    0.397796
     50         17           0       -5.889941    3.642446   -0.682264
     51         17           0       -4.799307    1.292745   -1.899962
     52          6           0       -1.593713    0.986040   -4.093175
     53          1           0       -1.926560    1.299796   -5.103894
     54          1           0       -2.145724    1.533436   -3.297728
     55         17           0        0.146114    1.303789   -3.925060
     56         17           0       -1.836300   -0.754476   -3.899085
     57          6           0       -1.416580    5.896040    0.755211
     58          1           0       -1.053063    6.124426   -0.270450
     59          1           0       -2.295135    6.521065    1.017780
     60         17           0       -0.107452    6.195505    1.913707
     61         17           0       -1.848462    4.180668    0.885763
     62          6           0        1.108484    0.334061    4.947119
     63          1           0        0.731247    1.335871    4.649425
     64          1           0        1.955701    0.423624    5.656349
     65         17           0        1.629438   -0.555493    3.510429
     66         17           0       -0.200023   -0.585337    5.707695
     67          6           0        1.066473   -2.169751   -3.028919
     68          1           0        0.191663   -2.765455   -3.356288
     69          1           0        0.745851   -1.162922   -2.680643
     70         17           0        2.213148   -2.010898   -4.365373
     71         17           0        1.900185   -3.021655   -1.715247
     72          6           0        1.871841    3.925678   -5.945692
     73          1           0        2.842093    3.815567   -6.471987
     74          1           0        1.776645    3.157438   -5.151338
     75         17           0        1.769987    5.545423   -5.227089
     76         17           0        0.537105    3.770475   -7.090036
     77          6           0       -1.516672    4.634646   -3.681176
     78          1           0       -0.533142    4.240841   -4.012717
     79          1           0       -1.538223    5.742121   -3.748653
     80         17           0       -2.807598    3.954530   -4.681145
     81         17           0       -1.822508    4.135344   -2.004400
     82          6           0        2.152434    5.976867   -1.624394
     83          1           0        2.768955    5.935951   -2.545550
     84          1           0        2.790284    5.940777   -0.717782
     85         17           0        1.182776    7.454910   -1.622754
     86         17           0        1.016751    4.614141   -1.610072
     87          6           0       -4.377202    6.884219   -1.686119
     88          1           0       -5.349501    6.942136   -2.215432
     89          1           0       -4.080972    5.825553   -1.523003
     90         17           0       -3.139471    7.717033   -2.638906
     91         17           0       -4.500993    7.716414   -0.130549
 ---------------------------------------------------------------------
 Rotational constants (GHZ):           0.0226160           0.0200586           0.0153442
 ONIOM: saving gridpoint 17
 ONIOM: restoring gridpoint  3 on chk file.
 ONIOM: generating point  3 -- low level on real system.
 Standard basis: VSTO-6G (5D, 7F)
   400 basis functions,  2580 primitive gaussians,   430 cartesian basis functions
   170 alpha electrons      170 beta electrons
       nuclear repulsion energy      5300.3108199799 Hartrees.
 Integral buffers will be    131072 words long.
 Regular integral format.
 Two-electron integral symmetry is turned off.
 Do NDO integrals.
 One-electron integrals computed using PRISM.
 NBasis=   400 RedAO= F EigKep=  0.00D+00  NBF=   400
 NBsUse=   400 1.00D-04 EigRej=  0.00D+00 NBFU=   400
 Initial guess from the checkpoint file:  "a.chk"
 B after Tr=    -0.000819   -0.000918   -0.002015
         Rot=    1.000000   -0.000056    0.000048   -0.000013 Ang=  -0.01 deg.
 Initial guess <Sx>= 0.0000 <Sy>= 0.0000 <Sz>= 0.0000 <S**2>=-0.0000 S=-0.0000
 Keep J ints in memory in canonical form, NReq=3161508.
 Overlap will be assumed to be unity.
 Requested convergence on RMS density matrix=1.00D-08 within  64 cycles.
 Requested convergence on MAX density matrix=1.00D-06.
 Requested convergence on             energy=1.00D-06.
 No special actions if energy rises.
 SCF Done:  E(UPM6) = -0.403849977168     A.U. after   15 cycles
            NFock= 14  Conv=0.71D-08     -V/T= 0.9994
 <Sx>= 0.0000 <Sy>= 0.0000 <Sz>= 0.0000 <S**2>=-0.0000 S=-0.0000
 <L.S>=  0.00000000000    
 Annihilation of the first spin contaminant:
 S**2 before annihilation     0.0000,   after     0.0000
 QCSCF skips out because SCF is already converged.

 **********************************************************************

            Population analysis using the SCF Density.

 **********************************************************************

 Alpha  occ. eigenvalues --   -1.11157  -1.05597  -1.05302  -1.05248  -1.05164
 Alpha  occ. eigenvalues --   -1.05147  -1.05116  -1.04943  -1.04873  -1.04797
 Alpha  occ. eigenvalues --   -1.04750  -1.04677  -1.04481  -1.04462  -1.04330
 Alpha  occ. eigenvalues --   -1.04104  -1.01682  -0.98567  -0.98267  -0.98177
 Alpha  occ. eigenvalues --   -0.98123  -0.98092  -0.97956  -0.97924  -0.97832
 Alpha  occ. eigenvalues --   -0.97759  -0.97755  -0.97638  -0.97407  -0.97347
 Alpha  occ. eigenvalues --   -0.97237  -0.97188  -0.96986  -0.92225  -0.88747
 Alpha  occ. eigenvalues --   -0.88663  -0.88584  -0.88387  -0.88359  -0.88257
 Alpha  occ. eigenvalues --   -0.88200  -0.88109  -0.88096  -0.88006  -0.87887
 Alpha  occ. eigenvalues --   -0.87662  -0.87559  -0.87495  -0.87211  -0.82560
 Alpha  occ. eigenvalues --   -0.79189  -0.72863  -0.65401  -0.62696  -0.62359
 Alpha  occ. eigenvalues --   -0.62116  -0.61864  -0.61679  -0.61542  -0.61491
 Alpha  occ. eigenvalues --   -0.61312  -0.61258  -0.61146  -0.61055  -0.60908
 Alpha  occ. eigenvalues --   -0.60348  -0.60301  -0.60115  -0.60034  -0.59977
 Alpha  occ. eigenvalues --   -0.59754  -0.59600  -0.59516  -0.59440  -0.59342
 Alpha  occ. eigenvalues --   -0.59255  -0.59193  -0.59103  -0.58975  -0.58925
 Alpha  occ. eigenvalues --   -0.58734  -0.58590  -0.58517  -0.58487  -0.58322
 Alpha  occ. eigenvalues --   -0.58218  -0.58015  -0.57772  -0.57720  -0.57696
 Alpha  occ. eigenvalues --   -0.57654  -0.57580  -0.57512  -0.57495  -0.57376
 Alpha  occ. eigenvalues --   -0.57241  -0.57099  -0.57043  -0.56888  -0.56776
 Alpha  occ. eigenvalues --   -0.55174  -0.53372  -0.52159  -0.51026  -0.49636
 Alpha  occ. eigenvalues --   -0.46164  -0.45358  -0.45036  -0.44773  -0.44240
 Alpha  occ. eigenvalues --   -0.44210  -0.44072  -0.44009  -0.43927  -0.43818
 Alpha  occ. eigenvalues --   -0.43748  -0.43680  -0.43614  -0.43482  -0.43455
 Alpha  occ. eigenvalues --   -0.43413  -0.43398  -0.43379  -0.43320  -0.43279
 Alpha  occ. eigenvalues --   -0.43214  -0.43146  -0.43112  -0.43041  -0.42968
 Alpha  occ. eigenvalues --   -0.42881  -0.42866  -0.42784  -0.42755  -0.42626
 Alpha  occ. eigenvalues --   -0.42585  -0.42474  -0.42362  -0.42285  -0.42083
 Alpha  occ. eigenvalues --   -0.41986  -0.41893  -0.41864  -0.41775  -0.41770
 Alpha  occ. eigenvalues --   -0.41723  -0.41667  -0.41618  -0.41583  -0.41461
 Alpha  occ. eigenvalues --   -0.41331  -0.41281  -0.41267  -0.41225  -0.41214
 Alpha  occ. eigenvalues --   -0.41129  -0.41120  -0.41056  -0.41013  -0.40874
 Alpha  occ. eigenvalues --   -0.40856  -0.40757  -0.40600  -0.40573  -0.40495
 Alpha  occ. eigenvalues --   -0.40346  -0.40320  -0.39609  -0.36907  -0.32816
 Alpha virt. eigenvalues --   -0.03655  -0.01219  -0.00923  -0.00888  -0.00834
 Alpha virt. eigenvalues --   -0.00645  -0.00615  -0.00546  -0.00514  -0.00482
 Alpha virt. eigenvalues --   -0.00457  -0.00448  -0.00377  -0.00362  -0.00253
 Alpha virt. eigenvalues --   -0.00248  -0.00246  -0.00224  -0.00203  -0.00184
 Alpha virt. eigenvalues --   -0.00166  -0.00127  -0.00077  -0.00010   0.00063
 Alpha virt. eigenvalues --    0.00382   0.00395   0.00411   0.00461   0.00497
 Alpha virt. eigenvalues --    0.00620   0.00693   0.02653   0.08944   0.14221
 Alpha virt. eigenvalues --    0.14317   0.14490   0.14611   0.14700   0.14808
 Alpha virt. eigenvalues --    0.14866   0.14927   0.15003   0.15046   0.15090
 Alpha virt. eigenvalues --    0.15133   0.15160   0.15168   0.15282   0.15369
 Alpha virt. eigenvalues --    0.15439   0.15455   0.15530   0.15600   0.15624
 Alpha virt. eigenvalues --    0.15742   0.15769   0.15860   0.15935   0.15946
 Alpha virt. eigenvalues --    0.15985   0.15996   0.16094   0.16383   0.16399
 Alpha virt. eigenvalues --    0.16427   0.16722   0.17060   0.17261   0.17949
 Alpha virt. eigenvalues --    0.18576   0.19337   0.19872   0.20449   0.21139
 Alpha virt. eigenvalues --    0.21344   0.21623   0.21847   0.22185   0.22341
 Alpha virt. eigenvalues --    3.16318   3.16782   3.17346   3.17919   3.18125
 Alpha virt. eigenvalues --    3.18375   3.18636   3.18701   3.18951   3.19083
 Alpha virt. eigenvalues --    3.19107   3.19286   3.19317   3.19547   3.19629
 Alpha virt. eigenvalues --    3.19657   3.19694   3.19830   3.19908   3.19989
 Alpha virt. eigenvalues --    3.20025   3.20190   3.20269   3.20306   3.20443
 Alpha virt. eigenvalues --    3.20487   3.20547   3.20569   3.20629   3.20671
 Alpha virt. eigenvalues --    3.20728   3.20825   3.20886   3.20981   3.21009
 Alpha virt. eigenvalues --    3.21058   3.21127   3.21166   3.21210   3.21246
 Alpha virt. eigenvalues --    3.21429   3.21461   3.21573   3.21725   3.21859
 Alpha virt. eigenvalues --    3.21981   3.22065   3.22129   3.22190   3.22340
 Alpha virt. eigenvalues --    3.22435   3.22521   3.22527   3.22622   3.22742
 Alpha virt. eigenvalues --    3.22813   3.22962   3.23020   3.23163   3.23187
 Alpha virt. eigenvalues --    3.23211   3.23325   3.23384   3.23438   3.23492
 Alpha virt. eigenvalues --    3.23523   3.23590   3.23679   3.23758   3.23793
 Alpha virt. eigenvalues --    3.23849   3.23977   3.23992   3.24009   3.24109
 Alpha virt. eigenvalues --    3.24140   3.24147   3.24261   3.24307   3.24333
 Alpha virt. eigenvalues --    3.24395   3.24498   3.24502   3.24555   3.24655
 Alpha virt. eigenvalues --    3.24680   3.24740   3.24829   3.24867   3.24968
 Alpha virt. eigenvalues --    3.24980   3.25047   3.25079   3.25100   3.25127
 Alpha virt. eigenvalues --    3.25161   3.25313   3.25407   3.25477   3.25525
 Alpha virt. eigenvalues --    3.25566   3.25698   3.25756   3.25788   3.25868
 Alpha virt. eigenvalues --    3.25911   3.25926   3.26003   3.26131   3.26229
 Alpha virt. eigenvalues --    3.26329   3.26354   3.26429   3.26488   3.26787
 Alpha virt. eigenvalues --    3.26847   3.26907   3.27041   3.27050   3.27172
 Alpha virt. eigenvalues --    3.27273   3.27353   3.27404   3.27407   3.27489
 Alpha virt. eigenvalues --    3.27559   3.27656   3.27744   3.27769   3.27849
 Alpha virt. eigenvalues --    3.27892   3.27961   3.28163   3.28170   3.28230
 Alpha virt. eigenvalues --    3.28285   3.28402   3.28479   3.28575   3.28617
 Alpha virt. eigenvalues --    3.28663   3.28710   3.28743   3.28851   3.28968
 Alpha virt. eigenvalues --    3.29166   3.29295   3.29388   3.29728   3.29958
  Beta  occ. eigenvalues --   -1.11157  -1.05597  -1.05302  -1.05248  -1.05164
  Beta  occ. eigenvalues --   -1.05147  -1.05116  -1.04943  -1.04873  -1.04797
  Beta  occ. eigenvalues --   -1.04750  -1.04677  -1.04481  -1.04462  -1.04330
  Beta  occ. eigenvalues --   -1.04104  -1.01682  -0.98567  -0.98267  -0.98177
  Beta  occ. eigenvalues --   -0.98123  -0.98092  -0.97956  -0.97924  -0.97832
  Beta  occ. eigenvalues --   -0.97759  -0.97755  -0.97638  -0.97407  -0.97347
  Beta  occ. eigenvalues --   -0.97237  -0.97188  -0.96986  -0.92225  -0.88747
  Beta  occ. eigenvalues --   -0.88663  -0.88584  -0.88387  -0.88359  -0.88257
  Beta  occ. eigenvalues --   -0.88200  -0.88109  -0.88096  -0.88006  -0.87887
  Beta  occ. eigenvalues --   -0.87662  -0.87559  -0.87495  -0.87211  -0.82560
  Beta  occ. eigenvalues --   -0.79189  -0.72863  -0.65401  -0.62696  -0.62359
  Beta  occ. eigenvalues --   -0.62116  -0.61864  -0.61679  -0.61542  -0.61491
  Beta  occ. eigenvalues --   -0.61312  -0.61258  -0.61146  -0.61055  -0.60908
  Beta  occ. eigenvalues --   -0.60348  -0.60301  -0.60115  -0.60034  -0.59977
  Beta  occ. eigenvalues --   -0.59754  -0.59600  -0.59516  -0.59440  -0.59342
  Beta  occ. eigenvalues --   -0.59255  -0.59193  -0.59103  -0.58975  -0.58925
  Beta  occ. eigenvalues --   -0.58734  -0.58590  -0.58517  -0.58487  -0.58322
  Beta  occ. eigenvalues --   -0.58218  -0.58015  -0.57772  -0.57720  -0.57696
  Beta  occ. eigenvalues --   -0.57654  -0.57580  -0.57512  -0.57495  -0.57376
  Beta  occ. eigenvalues --   -0.57241  -0.57099  -0.57043  -0.56888  -0.56776
  Beta  occ. eigenvalues --   -0.55174  -0.53372  -0.52159  -0.51026  -0.49636
  Beta  occ. eigenvalues --   -0.46164  -0.45358  -0.45036  -0.44773  -0.44240
  Beta  occ. eigenvalues --   -0.44210  -0.44072  -0.44009  -0.43927  -0.43818
  Beta  occ. eigenvalues --   -0.43748  -0.43680  -0.43614  -0.43482  -0.43455
  Beta  occ. eigenvalues --   -0.43413  -0.43398  -0.43379  -0.43320  -0.43279
  Beta  occ. eigenvalues --   -0.43214  -0.43146  -0.43112  -0.43041  -0.42968
  Beta  occ. eigenvalues --   -0.42881  -0.42866  -0.42784  -0.42755  -0.42626
  Beta  occ. eigenvalues --   -0.42585  -0.42474  -0.42362  -0.42285  -0.42083
  Beta  occ. eigenvalues --   -0.41986  -0.41893  -0.41864  -0.41775  -0.41770
  Beta  occ. eigenvalues --   -0.41723  -0.41667  -0.41618  -0.41583  -0.41461
  Beta  occ. eigenvalues --   -0.41331  -0.41281  -0.41267  -0.41225  -0.41214
  Beta  occ. eigenvalues --   -0.41129  -0.41120  -0.41056  -0.41013  -0.40874
  Beta  occ. eigenvalues --   -0.40856  -0.40757  -0.40600  -0.40573  -0.40495
  Beta  occ. eigenvalues --   -0.40346  -0.40320  -0.39609  -0.36907  -0.32816
  Beta virt. eigenvalues --   -0.03655  -0.01219  -0.00923  -0.00888  -0.00834
  Beta virt. eigenvalues --   -0.00645  -0.00615  -0.00546  -0.00514  -0.00482
  Beta virt. eigenvalues --   -0.00457  -0.00448  -0.00377  -0.00362  -0.00253
  Beta virt. eigenvalues --   -0.00248  -0.00246  -0.00224  -0.00203  -0.00184
  Beta virt. eigenvalues --   -0.00166  -0.00127  -0.00077  -0.00010   0.00063
  Beta virt. eigenvalues --    0.00382   0.00395   0.00411   0.00461   0.00497
  Beta virt. eigenvalues --    0.00620   0.00693   0.02653   0.08944   0.14221
  Beta virt. eigenvalues --    0.14317   0.14490   0.14611   0.14700   0.14808
  Beta virt. eigenvalues --    0.14866   0.14927   0.15003   0.15046   0.15090
  Beta virt. eigenvalues --    0.15133   0.15160   0.15168   0.15282   0.15369
  Beta virt. eigenvalues --    0.15439   0.15455   0.15530   0.15600   0.15624
  Beta virt. eigenvalues --    0.15742   0.15769   0.15860   0.15935   0.15946
  Beta virt. eigenvalues --    0.15985   0.15996   0.16094   0.16383   0.16399
  Beta virt. eigenvalues --    0.16427   0.16722   0.17060   0.17261   0.17949
  Beta virt. eigenvalues --    0.18576   0.19337   0.19872   0.20449   0.21139
  Beta virt. eigenvalues --    0.21344   0.21623   0.21847   0.22185   0.22341
  Beta virt. eigenvalues --    3.16318   3.16782   3.17346   3.17919   3.18125
  Beta virt. eigenvalues --    3.18375   3.18636   3.18701   3.18951   3.19083
  Beta virt. eigenvalues --    3.19107   3.19286   3.19317   3.19547   3.19629
  Beta virt. eigenvalues --    3.19657   3.19694   3.19830   3.19908   3.19989
  Beta virt. eigenvalues --    3.20025   3.20190   3.20269   3.20306   3.20443
  Beta virt. eigenvalues --    3.20487   3.20547   3.20569   3.20629   3.20671
  Beta virt. eigenvalues --    3.20728   3.20825   3.20886   3.20981   3.21009
  Beta virt. eigenvalues --    3.21058   3.21127   3.21166   3.21210   3.21246
  Beta virt. eigenvalues --    3.21429   3.21461   3.21573   3.21725   3.21859
  Beta virt. eigenvalues --    3.21981   3.22065   3.22129   3.22190   3.22340
  Beta virt. eigenvalues --    3.22435   3.22521   3.22527   3.22622   3.22742
  Beta virt. eigenvalues --    3.22813   3.22962   3.23020   3.23163   3.23187
  Beta virt. eigenvalues --    3.23211   3.23325   3.23384   3.23438   3.23492
  Beta virt. eigenvalues --    3.23523   3.23590   3.23679   3.23758   3.23793
  Beta virt. eigenvalues --    3.23849   3.23977   3.23992   3.24009   3.24109
  Beta virt. eigenvalues --    3.24140   3.24147   3.24261   3.24307   3.24333
  Beta virt. eigenvalues --    3.24395   3.24498   3.24502   3.24555   3.24655
  Beta virt. eigenvalues --    3.24680   3.24740   3.24829   3.24867   3.24968
  Beta virt. eigenvalues --    3.24980   3.25047   3.25079   3.25100   3.25127
  Beta virt. eigenvalues --    3.25161   3.25313   3.25407   3.25477   3.25525
  Beta virt. eigenvalues --    3.25566   3.25698   3.25756   3.25788   3.25868
  Beta virt. eigenvalues --    3.25911   3.25926   3.26003   3.26131   3.26229
  Beta virt. eigenvalues --    3.26329   3.26354   3.26429   3.26488   3.26787
  Beta virt. eigenvalues --    3.26847   3.26907   3.27041   3.27050   3.27172
  Beta virt. eigenvalues --    3.27273   3.27353   3.27404   3.27407   3.27489
  Beta virt. eigenvalues --    3.27559   3.27656   3.27744   3.27769   3.27849
  Beta virt. eigenvalues --    3.27892   3.27961   3.28163   3.28170   3.28230
  Beta virt. eigenvalues --    3.28285   3.28402   3.28479   3.28575   3.28617
  Beta virt. eigenvalues --    3.28663   3.28710   3.28743   3.28851   3.28968
  Beta virt. eigenvalues --    3.29166   3.29295   3.29388   3.29728   3.29958
          Condensed to atoms (all electrons):
          Atomic-Atomic Spin Densities.
 Mulliken charges and spin densities:
               1          2
     1  C   -0.014966   0.000000
     2  C   -0.141377   0.000000
     3  C   -0.149047   0.000000
     4  C   -0.157173   0.000000
     5  H    0.153185   0.000000
     6  C   -0.129103   0.000000
     7  C   -0.152073   0.000000
     8  H    0.155126   0.000000
     9  C   -0.116833   0.000000
    10  H    0.148962   0.000000
    11  C   -0.366654   0.000000
    12  H    0.156363   0.000000
    13  H    0.151030   0.000000
    14  H    0.145486   0.000000
    15  H    0.156681   0.000000
    16  H    0.162846   0.000000
    17  C   -0.139444   0.000000
    18  H    0.187899   0.000000
    19  H    0.186352   0.000000
    20  Cl  -0.094684   0.000000
    21  Cl  -0.140590   0.000000
    22  C   -0.144893   0.000000
    23  H    0.192829   0.000000
    24  H    0.191742   0.000000
    25  Cl  -0.127600   0.000000
    26  Cl  -0.111220   0.000000
    27  C   -0.143229   0.000000
    28  H    0.198386   0.000000
    29  H    0.196840   0.000000
    30  Cl  -0.126283   0.000000
    31  Cl  -0.126686   0.000000
    32  C   -0.127589   0.000000
    33  H    0.192325   0.000000
    34  H    0.191913   0.000000
    35  Cl  -0.131287   0.000000
    36  Cl  -0.123614   0.000000
    37  C   -0.137149   0.000000
    38  H    0.184759   0.000000
    39  H    0.194576   0.000000
    40  Cl  -0.101211   0.000000
    41  Cl  -0.142678   0.000000
    42  C   -0.132979   0.000000
    43  H    0.194053   0.000000
    44  H    0.195138   0.000000
    45  Cl  -0.141261   0.000000
    46  Cl  -0.114870   0.000000
    47  C   -0.141837   0.000000
    48  H    0.182899   0.000000
    49  H    0.191726   0.000000
    50  Cl  -0.117408   0.000000
    51  Cl  -0.115029   0.000000
    52  C   -0.126376   0.000000
    53  H    0.190367   0.000000
    54  H    0.195681   0.000000
    55  Cl  -0.141944   0.000000
    56  Cl  -0.117531   0.000000
    57  C   -0.138570   0.000000
    58  H    0.199300   0.000000
    59  H    0.193609   0.000000
    60  Cl  -0.134887   0.000000
    61  Cl  -0.112886   0.000000
    62  C   -0.145155   0.000000
    63  H    0.191711   0.000000
    64  H    0.186258   0.000000
    65  Cl  -0.112464   0.000000
    66  Cl  -0.121082   0.000000
    67  C   -0.132755   0.000000
    68  H    0.183886   0.000000
    69  H    0.198693   0.000000
    70  Cl  -0.117015   0.000000
    71  Cl  -0.133592   0.000000
    72  C   -0.139141   0.000000
    73  H    0.191319   0.000000
    74  H    0.189838   0.000000
    75  Cl  -0.137013   0.000000
    76  Cl  -0.106304   0.000000
    77  C   -0.143356   0.000000
    78  H    0.193037   0.000000
    79  H    0.193972   0.000000
    80  Cl  -0.121364   0.000000
    81  Cl  -0.125177   0.000000
    82  C   -0.144963   0.000000
    83  H    0.188761   0.000000
    84  H    0.188139   0.000000
    85  Cl  -0.107700   0.000000
    86  Cl  -0.128974   0.000000
    87  C   -0.149006   0.000000
    88  H    0.186176   0.000000
    89  H    0.193237   0.000000
    90  Cl  -0.116984   0.000000
    91  Cl  -0.112094   0.000000
 Sum of Mulliken charges =  -0.00000   0.00000
 Mulliken charges and spin densities with hydrogens summed into heavy atoms:
               1          2
     1  C   -0.014966   0.000000
     2  C    0.011808   0.000000
     3  C    0.006079   0.000000
     4  C   -0.008210   0.000000
     6  C    0.027261   0.000000
     7  C   -0.001043   0.000000
     9  C    0.028653   0.000000
    11  C   -0.047126   0.000000
    17  C    0.234807   0.000000
    20  Cl  -0.094684   0.000000
    21  Cl  -0.140590   0.000000
    22  C    0.239679   0.000000
    25  Cl  -0.127600   0.000000
    26  Cl  -0.111220   0.000000
    27  C    0.251997   0.000000
    30  Cl  -0.126283   0.000000
    31  Cl  -0.126686   0.000000
    32  C    0.256649   0.000000
    35  Cl  -0.131287   0.000000
    36  Cl  -0.123614   0.000000
    37  C    0.242186   0.000000
    40  Cl  -0.101211   0.000000
    41  Cl  -0.142678   0.000000
    42  C    0.256212   0.000000
    45  Cl  -0.141261   0.000000
    46  Cl  -0.114870   0.000000
    47  C    0.232788   0.000000
    50  Cl  -0.117408   0.000000
    51  Cl  -0.115029   0.000000
    52  C    0.259672   0.000000
    55  Cl  -0.141944   0.000000
    56  Cl  -0.117531   0.000000
    57  C    0.254339   0.000000
    60  Cl  -0.134887   0.000000
    61  Cl  -0.112886   0.000000
    62  C    0.232814   0.000000
    65  Cl  -0.112464   0.000000
    66  Cl  -0.121082   0.000000
    67  C    0.249823   0.000000
    70  Cl  -0.117015   0.000000
    71  Cl  -0.133592   0.000000
    72  C    0.242016   0.000000
    75  Cl  -0.137013   0.000000
    76  Cl  -0.106304   0.000000
    77  C    0.243653   0.000000
    80  Cl  -0.121364   0.000000
    81  Cl  -0.125177   0.000000
    82  C    0.231937   0.000000
    85  Cl  -0.107700   0.000000
    86  Cl  -0.128974   0.000000
    87  C    0.230406   0.000000
    90  Cl  -0.116984   0.000000
    91  Cl  -0.112094   0.000000
 Charge=              0.0000 electrons
 Dipole moment (field-independent basis, Debye):
    X=             -0.9101    Y=             -0.2282    Z=              0.4627  Tot=              1.0461
 N-N= 5.300310819980D+03 E-N=-9.745847708029D+03  KE=-6.384489084091D+02
 Calling FoFJK, ICntrl=      2127 FMM=F ISym2X=0 I1Cent= 0 IOpClX= 1 NMat=1 NMatS=1 NMatT=0.
 Cartesian Forces:  Max     0.066691959 RMS     0.008858926
 SvSCFP is copying densities from files   528 and   530 to   603.
 ONIOM: saving gridpoint  3
 ONIOM: restoring gridpoint 17
 ONIOM: restoring gridpoint  2 on chk file.
 ONIOM: generating point  2 -- high level on model system.
 Standard basis: 6-31G(d) (6D, 7F)
   136 basis functions,   256 primitive gaussians,   136 cartesian basis functions
    28 alpha electrons       28 beta electrons
       nuclear repulsion energy       319.0242876625 Hartrees.
 NAtoms=   91 NActive=   16 NUniq=   16 SFac= 1.00D+00 NAtFMM=   60 NAOKFM=F Big=F
 Integral buffers will be    131072 words long.
 Regular integral format.
 Two-electron integral symmetry is turned off.
 Nuclear repulsion after empirical dispersion term =      318.9966746017 Hartrees.
 One-electron integrals computed using PRISM.
 NBasis=   136 RedAO= T EigKep=  4.74D-04  NBF=   136
 NBsUse=   136 1.00D-06 EigRej= -1.00D+00 NBFU=   136
 Initial guess from the checkpoint file:  "a.chk"
 B after Tr=     0.002629   -0.001256   -0.001601
         Rot=    1.000000   -0.000473   -0.000217    0.000506 Ang=  -0.08 deg.
 Initial guess <Sx>= 0.0000 <Sy>= 0.0000 <Sz>= 0.0000 <S**2>=-0.0000 S=-0.0000
 Requested convergence on RMS density matrix=1.00D-08 within  64 cycles.
 Requested convergence on MAX density matrix=1.00D-06.
 Requested convergence on             energy=1.00D-06.
 No special actions if energy rises.
 SCF Done:  E(UB3LYP) =  -309.636347797     A.U. after   10 cycles
            NFock= 10  Conv=0.46D-08     -V/T= 2.0105
 <Sx>= 0.0000 <Sy>= 0.0000 <Sz>= 0.0000 <S**2>=-0.0000 S=-0.0000
 <L.S>=  0.00000000000    
 Annihilation of the first spin contaminant:
 S**2 before annihilation    -0.0000,   after    -0.0000
 QCSCF skips out because SCF is already converged.
 DoSCS=F DFT=T ScalE2(SS,OS)=  1.000000  1.000000
 ExpMin= 1.61D-01 ExpMax= 3.05D+03 ExpMxC= 4.57D+02 IAcc=3 IRadAn=         5 AccDes= 0.00D+00
 HarFok:  IExCor=  205 AccDes= 0.00D+00 IRadAn=         5 IDoV=-2 UseB2=F ITyADJ=14
 ICtDFT= 12500011 ScaDFX=  1.000000  1.000000  1.000000  1.000000
 Range of M.O.s used for correlation:     9   136
 NBasis=   136 NAE=    28 NBE=    28 NFC=     8 NFV=     0
 NROrb=    128 NOA=    20 NOB=    20 NVA=   108 NVB=   108
 Keep R1, R2, and R3 ints in memory in canonical form, NReq=183338682.
    12 initial guesses have been made.
 Convergence on wavefunction:    0.000001000000000
 Iteration     1 Dimension    12 NMult     0 NNew     12
 CISAX will form    12 AO SS matrices at one time.
 New state      2 was old state      3
 New state      3 was old state      8
 Iteration     2 Dimension    18 NMult    12 NNew      6
 New state      2 was old state      3
 New state      3 was old state      2
 Iteration     3 Dimension    24 NMult    18 NNew      6
 Iteration     4 Dimension    30 NMult    24 NNew      6
 Iteration     5 Dimension    36 NMult    30 NNew      6
 Iteration     6 Dimension    42 NMult    36 NNew      6
 Iteration     7 Dimension    48 NMult    42 NNew      6
 Iteration     8 Dimension    54 NMult    48 NNew      6
 Iteration     9 Dimension    58 NMult    54 NNew      4
 ***********************************************************************
 Excited states from <AA,BB:AA,BB> singles matrix:
 ***********************************************************************
 
 ExtSpn:  IState=     1 X2= 1.381 Y2= 0.381 X2-Y2-1=-1.11D-15
          S2Grnd= -0.000 Ra=  0.500 Rb=  0.500 T=  1.000 S2Ext=  2.000 S2=  2.000
 ExtSpn:  IState=     2 X2= 1.026 Y2= 0.026 X2-Y2-1=-1.11D-16
          S2Grnd= -0.000 Ra=  0.500 Rb=  0.500 T=  1.000 S2Ext=  2.000 S2=  2.000
 ExtSpn:  IState=     3 X2= 1.008 Y2= 0.008 X2-Y2-1=-3.33D-16
          S2Grnd= -0.000 Ra=  0.500 Rb=  0.500 T=  1.000 S2Ext=  2.000 S2=  2.000
 Ground to excited state transition densities written to RWF  633
 Ground to excited state transition electric dipole moments (Au):
       state          X           Y           Z        Dip. S.      Osc.
         1        -0.0000      0.0000     -0.0000      0.0000      0.0000
         2         0.0000     -0.0000      0.0000      0.0000      0.0000
         3        -0.0000     -0.0000      0.0000      0.0000      0.0000
 Ground to excited state transition velocity dipole moments (Au):
       state          X           Y           Z        Dip. S.      Osc.
         1         0.0000      0.0000     -0.0000      0.0000      0.0000
         2        -0.0000     -0.0000      0.0000      0.0000      0.0000
         3         0.0000     -0.0000     -0.0000      0.0000      0.0000
 Ground to excited state transition magnetic dipole moments (Au):
       state          X           Y           Z
         1         0.0000      0.0000      0.0000
         2        -0.0000      0.0000      0.0000
         3         0.0000      0.0000      0.0000
 Ground to excited state transition velocity quadrupole moments (Au):
       state          XX          YY          ZZ          XY          XZ          YZ
         1         0.0000      0.0000      0.0000      0.0000     -0.0000     -0.0000
         2        -0.0000      0.0000      0.0000     -0.0000      0.0000     -0.0000
         3        -0.0000      0.0000      0.0000     -0.0000      0.0000     -0.0000
 <0|del|b> * <b|rxdel|0> + <0|del|b> * <b|delr+rdel|0>
 Rotatory Strengths (R) in cgs (10**-40 erg-esu-cm/Gauss)
       state          XX          YY          ZZ    R(velocity)    E-M Angle
         1         0.0000     -0.0000      0.0000      0.0000       90.00
         2         0.0000      0.0000     -0.0000     -0.0000       90.00
         3        -0.0000     -0.0000      0.0000     -0.0000       90.00
 1/2[<0|r|b>*<b|rxdel|0> + (<0|rxdel|b>*<b|r|0>)*]
 Rotatory Strengths (R) in cgs (10**-40 erg-esu-cm/Gauss)
       state          XX          YY          ZZ     R(length)
         1         0.0000     -0.0000      0.0000      0.0000
         2         0.0000      0.0000     -0.0000      0.0000
         3         0.0000      0.0000     -0.0000      0.0000
  1/2[<0|del|b>*<b|r|0> + (<0|r|b>*<b|del|0>)*] (Au)
       state          X           Y           Z        Dip. S.   Osc.(frdel)
         1        -0.0000      0.0000      0.0000      0.0000      0.0000
         2        -0.0000      0.0000      0.0000     -0.0000     -0.0000
         3        -0.0000      0.0000     -0.0000      0.0000      0.0000

 Excitation energies and oscillator strengths:
 
 Excited state symmetry could not be determined.
 Excited State   1:  3.000-?Sym    0.8561 eV 1448.22 nm  f=0.0000  <S**2>=2.000
     26A -> 29A       -0.14573
     26A -> 31A       -0.12823
     28A -> 29A        0.78554
     28A -> 31A        0.12788
     26B -> 29B        0.14573
     26B -> 31B        0.12823
     28B -> 29B       -0.78554
     28B -> 31B       -0.12788
     28A <- 29A        0.39190
     28B <- 29B       -0.39190
 This state for optimization and/or second-order correction.
 Total Energy, E(TD-HF/TD-DFT) =  -309.604886147    
 Copying the excited state density for this state as the 1-particle RhoCI density.
 
 Excited state symmetry could not be determined.
 Excited State   2:  3.000-?Sym    3.7357 eV  331.89 nm  f=0.0000  <S**2>=2.000
     26A -> 29A        0.45572
     27A -> 29A       -0.29395
     27A -> 30A        0.27860
     28A -> 31A       -0.31821
     26B -> 29B       -0.45572
     27B -> 29B        0.29395
     27B -> 30B       -0.27860
     28B -> 31B        0.31821
 
 Excited state symmetry could not be determined.
 Excited State   3:  3.000-?Sym    3.8635 eV  320.92 nm  f=0.0000  <S**2>=2.000
     26A -> 29A        0.23109
     27A -> 29A        0.54354
     27A -> 30A        0.11447
     28A -> 30A        0.31898
     28A -> 31A       -0.14750
     26B -> 29B       -0.23109
     27B -> 29B       -0.54354
     27B -> 30B       -0.11447
     28B -> 30B       -0.31898
     28B -> 31B        0.14750
 SavETr:  write IOETrn=   770 NScale= 10 NData=  16 NLR=1 NState=    3 LETran=      64.
          IDoAtm=11111111111111110000000000000000000000000000000000
          IDoAtm=00000000000000000000000000000000000000000
          Differentiating once with respect to electric field.
                with respect to dipole field.
          Differentiating once with respect to nuclear coordinates.
 Keep R1 and R2 ints in memory in canonical form, NReq=114009024.
          There are     1 degrees of freedom in the 1st order CPHF.  IDoFFX=0 NUNeed=     1.
 LinEq1:  Iter=  0 NonCon=     1 RMS=2.38D-03 Max=4.75D-02 NDo=     1
 AX will form     1 AO Fock derivatives at one time.
 LinEq1:  Iter=  1 NonCon=     1 RMS=2.99D-03 Max=1.30D-01 NDo=     1
 LinEq1:  Iter=  2 NonCon=     1 RMS=1.16D-03 Max=1.48D-02 NDo=     1
 LinEq1:  Iter=  3 NonCon=     1 RMS=5.87D-04 Max=1.19D-02 NDo=     1
 LinEq1:  Iter=  4 NonCon=     1 RMS=3.36D-04 Max=9.21D-03 NDo=     1
 LinEq1:  Iter=  5 NonCon=     1 RMS=2.17D-04 Max=4.50D-03 NDo=     1
 LinEq1:  Iter=  6 NonCon=     1 RMS=9.99D-05 Max=1.51D-03 NDo=     1
 LinEq1:  Iter=  7 NonCon=     1 RMS=4.76D-05 Max=7.29D-04 NDo=     1
 LinEq1:  Iter=  8 NonCon=     1 RMS=2.33D-05 Max=3.81D-04 NDo=     1
 LinEq1:  Iter=  9 NonCon=     1 RMS=1.66D-05 Max=3.64D-04 NDo=     1
 LinEq1:  Iter= 10 NonCon=     1 RMS=9.70D-06 Max=1.78D-04 NDo=     1
 LinEq1:  Iter= 11 NonCon=     1 RMS=5.19D-06 Max=6.36D-05 NDo=     1
 LinEq1:  Iter= 12 NonCon=     1 RMS=1.56D-06 Max=1.91D-05 NDo=     1
 LinEq1:  Iter= 13 NonCon=     1 RMS=4.33D-07 Max=4.83D-06 NDo=     1
 LinEq1:  Iter= 14 NonCon=     1 RMS=8.51D-08 Max=1.31D-06 NDo=     1
 LinEq1:  Iter= 15 NonCon=     1 RMS=4.21D-08 Max=6.40D-07 NDo=     1
 LinEq1:  Iter= 16 NonCon=     1 RMS=1.90D-08 Max=2.18D-07 NDo=     1
 LinEq1:  Iter= 17 NonCon=     1 RMS=5.32D-09 Max=9.81D-08 NDo=     1
 LinEq1:  Iter= 18 NonCon=     1 RMS=2.58D-09 Max=3.78D-08 NDo=     1
 LinEq1:  Iter= 19 NonCon=     1 RMS=1.04D-09 Max=1.47D-08 NDo=     1
 LinEq1:  Iter= 20 NonCon=     1 RMS=1.96D-10 Max=1.85D-09 NDo=     1
 LinEq1:  Iter= 21 NonCon=     0 RMS=3.77D-11 Max=3.12D-10 NDo=     1
 Linear equations converged to 1.000D-10 1.000D-09 after    21 iterations.
 End of Minotr F.D. properties file   721 does not exist.
 End of Minotr F.D. properties file   722 does not exist.
 End of Minotr F.D. properties file   788 does not exist.

 **********************************************************************

            Population analysis using the SCF Density.

 **********************************************************************

 Alpha  occ. eigenvalues --  -10.20186 -10.19619 -10.19178 -10.19047 -10.18946
 Alpha  occ. eigenvalues --  -10.18882 -10.18864 -10.18752  -0.85495  -0.78125
 Alpha  occ. eigenvalues --   -0.74520  -0.70752  -0.62579  -0.60006  -0.55855
 Alpha  occ. eigenvalues --   -0.50835  -0.46724  -0.45088  -0.43097  -0.41913
 Alpha  occ. eigenvalues --   -0.40045  -0.38950  -0.36597  -0.34976  -0.33496
 Alpha  occ. eigenvalues --   -0.28055  -0.25132  -0.19753
 Alpha virt. eigenvalues --   -0.05892   0.00371   0.04271   0.09769   0.12146
 Alpha virt. eigenvalues --    0.13282   0.16041   0.16238   0.17309   0.18396
 Alpha virt. eigenvalues --    0.19907   0.21587   0.26697   0.28195   0.30665
 Alpha virt. eigenvalues --    0.33540   0.36458   0.37659   0.46173   0.52009
 Alpha virt. eigenvalues --    0.52789   0.54261   0.54942   0.56567   0.57389
 Alpha virt. eigenvalues --    0.58835   0.59124   0.59675   0.61244   0.62043
 Alpha virt. eigenvalues --    0.62280   0.63558   0.64994   0.65991   0.68859
 Alpha virt. eigenvalues --    0.71988   0.77278   0.82683   0.83677   0.83986
 Alpha virt. eigenvalues --    0.85022   0.85556   0.88917   0.90716   0.92746
 Alpha virt. eigenvalues --    0.93629   0.94098   0.95811   0.99265   1.01517
 Alpha virt. eigenvalues --    1.04742   1.08721   1.14619   1.16650   1.18283
 Alpha virt. eigenvalues --    1.25939   1.29161   1.33584   1.39317   1.44094
 Alpha virt. eigenvalues --    1.44861   1.45665   1.48432   1.49573   1.51300
 Alpha virt. eigenvalues --    1.64144   1.72168   1.77638   1.80104   1.85890
 Alpha virt. eigenvalues --    1.88518   1.89903   1.91775   1.94886   1.97262
 Alpha virt. eigenvalues --    1.98469   2.04948   2.10926   2.11293   2.14576
 Alpha virt. eigenvalues --    2.14896   2.17797   2.22415   2.26748   2.32188
 Alpha virt. eigenvalues --    2.32905   2.35663   2.47788   2.51080   2.57014
 Alpha virt. eigenvalues --    2.59583   2.62445   2.65862   2.73949   2.75440
 Alpha virt. eigenvalues --    2.76849   2.86046   2.91807   3.13799   3.41515
 Alpha virt. eigenvalues --    4.07304   4.09556   4.12210   4.13918   4.25064
 Alpha virt. eigenvalues --    4.32825   4.42438   4.71074
  Beta  occ. eigenvalues --  -10.20186 -10.19619 -10.19178 -10.19047 -10.18946
  Beta  occ. eigenvalues --  -10.18882 -10.18864 -10.18752  -0.85495  -0.78125
  Beta  occ. eigenvalues --   -0.74520  -0.70752  -0.62579  -0.60006  -0.55855
  Beta  occ. eigenvalues --   -0.50835  -0.46724  -0.45088  -0.43097  -0.41913
  Beta  occ. eigenvalues --   -0.40045  -0.38950  -0.36597  -0.34976  -0.33496
  Beta  occ. eigenvalues --   -0.28055  -0.25132  -0.19753
  Beta virt. eigenvalues --   -0.05892   0.00371   0.04271   0.09769   0.12146
  Beta virt. eigenvalues --    0.13282   0.16041   0.16238   0.17309   0.18396
  Beta virt. eigenvalues --    0.19907   0.21587   0.26697   0.28195   0.30665
  Beta virt. eigenvalues --    0.33540   0.36458   0.37659   0.46173   0.52009
  Beta virt. eigenvalues --    0.52789   0.54261   0.54942   0.56567   0.57389
  Beta virt. eigenvalues --    0.58835   0.59124   0.59675   0.61244   0.62043
  Beta virt. eigenvalues --    0.62280   0.63558   0.64994   0.65991   0.68859
  Beta virt. eigenvalues --    0.71988   0.77278   0.82683   0.83677   0.83986
  Beta virt. eigenvalues --    0.85022   0.85556   0.88917   0.90716   0.92746
  Beta virt. eigenvalues --    0.93629   0.94098   0.95811   0.99265   1.01517
  Beta virt. eigenvalues --    1.04742   1.08721   1.14619   1.16650   1.18283
  Beta virt. eigenvalues --    1.25939   1.29161   1.33584   1.39317   1.44094
  Beta virt. eigenvalues --    1.44861   1.45665   1.48432   1.49573   1.51300
  Beta virt. eigenvalues --    1.64144   1.72168   1.77638   1.80104   1.85890
  Beta virt. eigenvalues --    1.88518   1.89903   1.91775   1.94886   1.97262
  Beta virt. eigenvalues --    1.98469   2.04948   2.10926   2.11293   2.14576
  Beta virt. eigenvalues --    2.14896   2.17797   2.22415   2.26748   2.32188
  Beta virt. eigenvalues --    2.32905   2.35663   2.47788   2.51080   2.57014
  Beta virt. eigenvalues --    2.59583   2.62445   2.65862   2.73949   2.75440
  Beta virt. eigenvalues --    2.76849   2.86046   2.91807   3.13799   3.41515
  Beta virt. eigenvalues --    4.07304   4.09556   4.12210   4.13918   4.25064
  Beta virt. eigenvalues --    4.32825   4.42438   4.71074
          Condensed to atoms (all electrons):
          Atomic-Atomic Spin Densities.
 Mulliken charges and spin densities:
               1          2
     1  C    0.187053  -0.000000
     2  C   -0.187661   0.000000
     3  C   -0.175531   0.000000
     4  C   -0.127609  -0.000000
     5  H    0.127330  -0.000000
     6  C   -0.162660  -0.000000
     7  C   -0.127443  -0.000000
     8  H    0.129394  -0.000000
     9  C   -0.130940   0.000000
    10  H    0.129967   0.000000
    11  C   -0.369122   0.000000
    12  H    0.138958   0.000000
    13  H    0.130111  -0.000000
    14  H    0.130566   0.000000
    15  H    0.152121   0.000000
    16  H    0.155467  -0.000000
    17  C    0.000000   0.000000
    18  H    0.000000   0.000000
    19  H    0.000000   0.000000
    20  Cl   0.000000   0.000000
    21  Cl   0.000000   0.000000
    22  C    0.000000   0.000000
    23  H    0.000000   0.000000
    24  H    0.000000   0.000000
    25  Cl   0.000000   0.000000
    26  Cl   0.000000   0.000000
    27  C    0.000000   0.000000
    28  H    0.000000   0.000000
    29  H    0.000000   0.000000
    30  Cl   0.000000   0.000000
    31  Cl   0.000000   0.000000
    32  C    0.000000   0.000000
    33  H    0.000000   0.000000
    34  H    0.000000   0.000000
    35  Cl   0.000000   0.000000
    36  Cl   0.000000   0.000000
    37  C    0.000000   0.000000
    38  H    0.000000   0.000000
    39  H    0.000000   0.000000
    40  Cl   0.000000   0.000000
    41  Cl   0.000000   0.000000
    42  C    0.000000   0.000000
    43  H    0.000000   0.000000
    44  H    0.000000   0.000000
    45  Cl   0.000000   0.000000
    46  Cl   0.000000   0.000000
    47  C    0.000000   0.000000
    48  H    0.000000   0.000000
    49  H    0.000000   0.000000
    50  Cl   0.000000   0.000000
    51  Cl   0.000000   0.000000
    52  C    0.000000   0.000000
    53  H    0.000000   0.000000
    54  H    0.000000   0.000000
    55  Cl   0.000000   0.000000
    56  Cl   0.000000   0.000000
    57  C    0.000000   0.000000
    58  H    0.000000   0.000000
    59  H    0.000000   0.000000
    60  Cl   0.000000   0.000000
    61  Cl   0.000000   0.000000
    62  C    0.000000   0.000000
    63  H    0.000000   0.000000
    64  H    0.000000   0.000000
    65  Cl   0.000000   0.000000
    66  Cl   0.000000   0.000000
    67  C    0.000000   0.000000
    68  H    0.000000   0.000000
    69  H    0.000000   0.000000
    70  Cl   0.000000   0.000000
    71  Cl   0.000000   0.000000
    72  C    0.000000   0.000000
    73  H    0.000000   0.000000
    74  H    0.000000   0.000000
    75  Cl   0.000000   0.000000
    76  Cl   0.000000   0.000000
    77  C    0.000000   0.000000
    78  H    0.000000   0.000000
    79  H    0.000000   0.000000
    80  Cl   0.000000   0.000000
    81  Cl   0.000000   0.000000
    82  C    0.000000   0.000000
    83  H    0.000000   0.000000
    84  H    0.000000   0.000000
    85  Cl   0.000000   0.000000
    86  Cl   0.000000   0.000000
    87  C    0.000000   0.000000
    88  H    0.000000   0.000000
    89  H    0.000000   0.000000
    90  Cl   0.000000   0.000000
    91  Cl   0.000000   0.000000
 Sum of Mulliken charges =  -0.00000   0.00000
 Mulliken charges and spin densities with hydrogens summed into heavy atoms:
               1          2
     1  C    0.187053  -0.000000
     2  C   -0.060332   0.000000
     3  C   -0.046137   0.000000
     4  C    0.002358  -0.000000
     6  C   -0.023703  -0.000000
     7  C    0.002668  -0.000000
     9  C   -0.000374   0.000000
    11  C   -0.061534   0.000000
    17  C    0.000000   0.000000
    20  Cl   0.000000   0.000000
    21  Cl   0.000000   0.000000
    22  C    0.000000   0.000000
    25  Cl   0.000000   0.000000
    26  Cl   0.000000   0.000000
    27  C    0.000000   0.000000
    30  Cl   0.000000   0.000000
    31  Cl   0.000000   0.000000
    32  C    0.000000   0.000000
    35  Cl   0.000000   0.000000
    36  Cl   0.000000   0.000000
    37  C    0.000000   0.000000
    40  Cl   0.000000   0.000000
    41  Cl   0.000000   0.000000
    42  C    0.000000   0.000000
    45  Cl   0.000000   0.000000
    46  Cl   0.000000   0.000000
    47  C    0.000000   0.000000
    50  Cl   0.000000   0.000000
    51  Cl   0.000000   0.000000
    52  C    0.000000   0.000000
    55  Cl   0.000000   0.000000
    56  Cl   0.000000   0.000000
    57  C    0.000000   0.000000
    60  Cl   0.000000   0.000000
    61  Cl   0.000000   0.000000
    62  C    0.000000   0.000000
    65  Cl   0.000000   0.000000
    66  Cl   0.000000   0.000000
    67  C    0.000000   0.000000
    70  Cl   0.000000   0.000000
    71  Cl   0.000000   0.000000
    72  C    0.000000   0.000000
    75  Cl   0.000000   0.000000
    76  Cl   0.000000   0.000000
    77  C    0.000000   0.000000
    80  Cl   0.000000   0.000000
    81  Cl   0.000000   0.000000
    82  C    0.000000   0.000000
    85  Cl   0.000000   0.000000
    86  Cl   0.000000   0.000000
    87  C    0.000000   0.000000
    90  Cl   0.000000   0.000000
    91  Cl   0.000000   0.000000
 Electronic spatial extent (au):  <R**2>=            995.9868
 Charge=             -0.0000 electrons
 Dipole moment (field-independent basis, Debye):
    X=             -0.2709    Y=             -0.1331    Z=             -0.0074  Tot=              0.3019
 Quadrupole moment (field-independent basis, Debye-Ang):
   XX=            -43.0307   YY=            -44.3220   ZZ=            -48.7503
   XY=              0.0105   XZ=              0.0734   YZ=             -3.6757
 Traceless Quadrupole moment (field-independent basis, Debye-Ang):
   XX=              2.3369   YY=              1.0457   ZZ=             -3.3826
   XY=              0.0105   XZ=              0.0734   YZ=             -3.6757
 Octapole moment (field-independent basis, Debye-Ang**2):
  XXX=             -4.8483  YYY=              6.7364  ZZZ=             30.5242  XYY=              0.5440
  XXY=              4.9515  XXZ=             13.0705  XZZ=              2.1375  YZZ=              5.8361
  YYZ=             11.2311  XYZ=              0.2646
 Hexadecapole moment (field-independent basis, Debye-Ang**3):
 XXXX=           -854.4640 YYYY=           -305.0914 ZZZZ=           -155.5916 XXXY=            -50.0399
 XXXZ=             74.3686 YYYX=            -65.3874 YYYZ=             58.6474 ZZZX=             64.8407
 ZZZY=             67.4096 XXYY=           -189.0725 XXZZ=           -186.5229 YYZZ=            -73.7831
 XXYZ=             10.7289 YYXZ=             19.5573 ZZXY=            -17.5104
 N-N= 3.189966746017D+02 E-N=-1.354234656830D+03  KE= 3.064238903764D+02
                          Isotropic Fermi Contact Couplings
        Atom                 a.u.       MegaHertz       Gauss      10(-4) cm-1
     1  C(13)             -0.00000      -0.00000      -0.00000      -0.00000
     2  C(13)              0.00000       0.00000       0.00000       0.00000
     3  C(13)              0.00000       0.00000       0.00000       0.00000
     4  C(13)              0.00000       0.00000       0.00000       0.00000
     5  H(1)               0.00000       0.00000       0.00000       0.00000
     6  C(13)              0.00000       0.00000       0.00000       0.00000
     7  C(13)              0.00000       0.00000       0.00000       0.00000
     8  H(1)               0.00000       0.00000       0.00000       0.00000
     9  C(13)              0.00000       0.00000       0.00000       0.00000
    10  H(1)               0.00000       0.00000       0.00000       0.00000
    11  C(13)              0.00000       0.00000       0.00000       0.00000
    12  H(1)               0.00000       0.00000       0.00000       0.00000
    13  H(1)              -0.00000      -0.00000      -0.00000      -0.00000
    14  H(1)               0.00000       0.00000       0.00000       0.00000
    15  H(1)              -0.00000      -0.00000      -0.00000      -0.00000
    16  H(1)              -0.00000      -0.00000      -0.00000      -0.00000
 --------------------------------------------------------
       Center         ----  Spin Dipole Couplings  ----
                      3XX-RR        3YY-RR        3ZZ-RR
 --------------------------------------------------------
     1   Atom        0.000000      0.000000      0.000000
     2   Atom        0.000000      0.000000      0.000000
     3   Atom        0.000000      0.000000      0.000000
     4   Atom        0.000000      0.000000      0.000000
     5   Atom        0.000000      0.000000      0.000000
     6   Atom        0.000000      0.000000      0.000000
     7   Atom        0.000000      0.000000      0.000000
     8   Atom        0.000000      0.000000      0.000000
     9   Atom        0.000000      0.000000      0.000000
    10   Atom        0.000000      0.000000      0.000000
    11   Atom        0.000000      0.000000      0.000000
    12   Atom        0.000000      0.000000      0.000000
    13   Atom        0.000000      0.000000      0.000000
    14   Atom        0.000000      0.000000      0.000000
    15   Atom        0.000000      0.000000      0.000000
    16   Atom        0.000000      0.000000      0.000000
 --------------------------------------------------------
                        XY            XZ            YZ
 --------------------------------------------------------
     1   Atom        0.000000      0.000000      0.000000
     2   Atom        0.000000      0.000000      0.000000
     3   Atom        0.000000      0.000000      0.000000
     4   Atom        0.000000      0.000000      0.000000
     5   Atom        0.000000      0.000000      0.000000
     6   Atom        0.000000      0.000000      0.000000
     7   Atom        0.000000      0.000000      0.000000
     8   Atom        0.000000      0.000000      0.000000
     9   Atom        0.000000      0.000000      0.000000
    10   Atom        0.000000      0.000000      0.000000
    11   Atom        0.000000      0.000000      0.000000
    12   Atom        0.000000      0.000000      0.000000
    13   Atom        0.000000      0.000000      0.000000
    14   Atom        0.000000      0.000000      0.000000
    15   Atom        0.000000      0.000000      0.000000
    16   Atom        0.000000      0.000000      0.000000
 --------------------------------------------------------


 ---------------------------------------------------------------------------------
              Anisotropic Spin Dipole Couplings in Principal Axis System
 ---------------------------------------------------------------------------------

       Atom             a.u.   MegaHertz   Gauss  10(-4) cm-1        Axes

              Baa     0.0000     0.000     0.000     0.000  1.0000  0.0000  0.0000
     1 C(13)  Bbb     0.0000     0.000     0.000     0.000 -0.0000  1.0000  0.0000
              Bcc     0.0000     0.000     0.000     0.000  0.0000  0.0000  1.0000
 
              Baa     0.0000     0.000     0.000     0.000  1.0000  0.0000  0.0000
     2 C(13)  Bbb     0.0000     0.000     0.000     0.000 -0.0000  1.0000  0.0000
              Bcc     0.0000     0.000     0.000     0.000  0.0000  0.0000  1.0000
 
              Baa     0.0000     0.000     0.000     0.000  1.0000  0.0000  0.0000
     3 C(13)  Bbb     0.0000     0.000     0.000     0.000 -0.0000  1.0000  0.0000
              Bcc     0.0000     0.000     0.000     0.000  0.0000  0.0000  1.0000
 
              Baa     0.0000     0.000     0.000     0.000  1.0000  0.0000  0.0000
     4 C(13)  Bbb     0.0000     0.000     0.000     0.000 -0.0000  1.0000  0.0000
              Bcc     0.0000     0.000     0.000     0.000  0.0000  0.0000  1.0000
 
              Baa     0.0000     0.000     0.000     0.000  1.0000  0.0000  0.0000
     5 H(1)   Bbb     0.0000     0.000     0.000     0.000 -0.0000  1.0000  0.0000
              Bcc     0.0000     0.000     0.000     0.000  0.0000  0.0000  1.0000
 
              Baa     0.0000     0.000     0.000     0.000  1.0000  0.0000  0.0000
     6 C(13)  Bbb     0.0000     0.000     0.000     0.000 -0.0000  1.0000  0.0000
              Bcc     0.0000     0.000     0.000     0.000  0.0000  0.0000  1.0000
 
              Baa     0.0000     0.000     0.000     0.000  1.0000  0.0000  0.0000
     7 C(13)  Bbb     0.0000     0.000     0.000     0.000 -0.0000  1.0000  0.0000
              Bcc     0.0000     0.000     0.000     0.000  0.0000  0.0000  1.0000
 
              Baa     0.0000     0.000     0.000     0.000  1.0000  0.0000  0.0000
     8 H(1)   Bbb     0.0000     0.000     0.000     0.000 -0.0000  1.0000  0.0000
              Bcc     0.0000     0.000     0.000     0.000  0.0000  0.0000  1.0000
 
              Baa     0.0000     0.000     0.000     0.000  1.0000  0.0000  0.0000
     9 C(13)  Bbb     0.0000     0.000     0.000     0.000 -0.0000  1.0000  0.0000
              Bcc     0.0000     0.000     0.000     0.000  0.0000  0.0000  1.0000
 
              Baa     0.0000     0.000     0.000     0.000  1.0000  0.0000  0.0000
    10 H(1)   Bbb     0.0000     0.000     0.000     0.000 -0.0000  1.0000  0.0000
              Bcc     0.0000     0.000     0.000     0.000  0.0000  0.0000  1.0000
 
              Baa     0.0000     0.000     0.000     0.000  1.0000  0.0000  0.0000
    11 C(13)  Bbb     0.0000     0.000     0.000     0.000 -0.0000  1.0000  0.0000
              Bcc     0.0000     0.000     0.000     0.000  0.0000  0.0000  1.0000
 
              Baa     0.0000     0.000     0.000     0.000  1.0000  0.0000  0.0000
    12 H(1)   Bbb     0.0000     0.000     0.000     0.000 -0.0000  1.0000  0.0000
              Bcc     0.0000     0.000     0.000     0.000  0.0000  0.0000  1.0000
 
              Baa     0.0000     0.000     0.000     0.000  1.0000  0.0000  0.0000
    13 H(1)   Bbb     0.0000     0.000     0.000     0.000 -0.0000  1.0000  0.0000
              Bcc     0.0000     0.000     0.000     0.000  0.0000  0.0000  1.0000
 
              Baa     0.0000     0.000     0.000     0.000  1.0000  0.0000  0.0000
    14 H(1)   Bbb     0.0000     0.000     0.000     0.000 -0.0000  1.0000  0.0000
              Bcc     0.0000     0.000     0.000     0.000  0.0000  0.0000  1.0000
 
              Baa     0.0000     0.000     0.000     0.000  1.0000  0.0000  0.0000
    15 H(1)   Bbb     0.0000     0.000     0.000     0.000 -0.0000  1.0000  0.0000
              Bcc     0.0000     0.000     0.000     0.000  0.0000  0.0000  1.0000
 
              Baa     0.0000     0.000     0.000     0.000  1.0000  0.0000  0.0000
    16 H(1)   Bbb     0.0000     0.000     0.000     0.000 -0.0000  1.0000  0.0000
              Bcc     0.0000     0.000     0.000     0.000  0.0000  0.0000  1.0000
 

 ---------------------------------------------------------------------------------

 Calling FoFJK, ICntrl=  10005127 FMM=F ISym2X=0 I1Cent= 0 IOpClX= 1 NMat=1 NMatS=1 NMatT=0.
 Cartesian Forces:  Max     0.080193063 RMS     0.010590869
 SvSCFP is copying densities from files   528 and   530 to   603.
 ONIOM: saving gridpoint  2
 ONIOM: restoring gridpoint 17
 ONIOM: restoring gridpoint  1 on chk file.
 ONIOM: generating point  1 -- low level on model system.
 Standard basis: VSTO-6G (5D, 7F)
    40 basis functions,   240 primitive gaussians,    40 cartesian basis functions
    20 alpha electrons       20 beta electrons
       nuclear repulsion energy       184.4990753023 Hartrees.
 Integral buffers will be    131072 words long.
 Regular integral format.
 Two-electron integral symmetry is turned off.
 Do NDO integrals.
 One-electron integrals computed using PRISM.
 NBasis=    40 RedAO= F EigKep=  0.00D+00  NBF=    40
 NBsUse=    40 1.00D-04 EigRej=  0.00D+00 NBFU=    40
 Initial guess from the checkpoint file:  "a.chk"
 B after Tr=     0.002629   -0.001256   -0.001601
         Rot=    1.000000   -0.000473   -0.000217    0.000506 Ang=  -0.08 deg.
 Initial guess <Sx>= 0.0000 <Sy>= 0.0000 <Sz>= 0.0000 <S**2>= 0.8715 S= 0.5590
 Keep J ints in memory in canonical form, NReq=867663.
 Overlap will be assumed to be unity.
 Requested convergence on RMS density matrix=1.00D-08 within  64 cycles.
 Requested convergence on MAX density matrix=1.00D-06.
 Requested convergence on             energy=1.00D-06.
 No special actions if energy rises.
 SCF Done:  E(UPM6) =  0.861132672358E-01 A.U. after   17 cycles
            NFock= 16  Conv=0.52D-08     -V/T= 1.0014
 <Sx>= 0.0000 <Sy>= 0.0000 <Sz>= 0.0000 <S**2>= 0.8784 S= 0.5623
 <L.S>=  0.00000000000    
 Annihilation of the first spin contaminant:
 S**2 before annihilation     0.8784,   after     1.1510
 QCSCF skips out because SCF is already converged.

 **********************************************************************

            Population analysis using the SCF Density.

 **********************************************************************

 Alpha  occ. eigenvalues --   -1.09740  -1.00164  -0.95841  -0.90521  -0.81181
 Alpha  occ. eigenvalues --   -0.77859  -0.71376  -0.63769  -0.58681  -0.56643
 Alpha  occ. eigenvalues --   -0.54043  -0.52316  -0.50765  -0.49748  -0.48181
 Alpha  occ. eigenvalues --   -0.44836  -0.43218  -0.39591  -0.36781  -0.32083
 Alpha virt. eigenvalues --    0.00646   0.01803   0.04433   0.09998   0.15561
 Alpha virt. eigenvalues --    0.15665   0.17680   0.18327   0.18547   0.19230
 Alpha virt. eigenvalues --    0.19801   0.20421   0.21147   0.21569   0.22357
 Alpha virt. eigenvalues --    0.22661   0.22840   0.22953   0.23406   0.23461
  Beta  occ. eigenvalues --   -1.09679  -1.00086  -0.95793  -0.90659  -0.81219
  Beta  occ. eigenvalues --   -0.77866  -0.71470  -0.63592  -0.58590  -0.56709
  Beta  occ. eigenvalues --   -0.54182  -0.52274  -0.50773  -0.49545  -0.48029
  Beta  occ. eigenvalues --   -0.44714  -0.43223  -0.38750  -0.36144  -0.34125
  Beta virt. eigenvalues --   -0.01178   0.02396   0.05205   0.10528   0.15505
  Beta virt. eigenvalues --    0.15828   0.17655   0.18402   0.18618   0.19238
  Beta virt. eigenvalues --    0.19856   0.20611   0.21095   0.21509   0.22282
  Beta virt. eigenvalues --    0.22414   0.22742   0.23026   0.23402   0.23522
          Condensed to atoms (all electrons):
          Atomic-Atomic Spin Densities.
 Mulliken charges and spin densities:
               1          2
     1  C    0.030111  -0.395522
     2  C   -0.171673   0.385086
     3  C   -0.158030   0.394545
     4  C   -0.135811  -0.324142
     5  H    0.147436  -0.013463
     6  C   -0.150677   0.709189
     7  C   -0.141326  -0.326516
     8  H    0.150924  -0.013542
     9  C   -0.146424   0.385650
    10  H    0.144341   0.011303
    11  C   -0.309326  -0.848203
    12  H    0.149323  -0.033961
    13  H    0.144543   0.011397
    14  H    0.144943  -0.013270
    15  H    0.150081   0.034919
    16  H    0.151567   0.036530
    17  C    0.000000   0.000000
    18  H    0.000000   0.000000
    19  H    0.000000   0.000000
    20  Cl   0.000000   0.000000
    21  Cl   0.000000   0.000000
    22  C    0.000000   0.000000
    23  H    0.000000   0.000000
    24  H    0.000000   0.000000
    25  Cl   0.000000   0.000000
    26  Cl   0.000000   0.000000
    27  C    0.000000   0.000000
    28  H    0.000000   0.000000
    29  H    0.000000   0.000000
    30  Cl   0.000000   0.000000
    31  Cl   0.000000   0.000000
    32  C    0.000000   0.000000
    33  H    0.000000   0.000000
    34  H    0.000000   0.000000
    35  Cl   0.000000   0.000000
    36  Cl   0.000000   0.000000
    37  C    0.000000   0.000000
    38  H    0.000000   0.000000
    39  H    0.000000   0.000000
    40  Cl   0.000000   0.000000
    41  Cl   0.000000   0.000000
    42  C    0.000000   0.000000
    43  H    0.000000   0.000000
    44  H    0.000000   0.000000
    45  Cl   0.000000   0.000000
    46  Cl   0.000000   0.000000
    47  C    0.000000   0.000000
    48  H    0.000000   0.000000
    49  H    0.000000   0.000000
    50  Cl   0.000000   0.000000
    51  Cl   0.000000   0.000000
    52  C    0.000000   0.000000
    53  H    0.000000   0.000000
    54  H    0.000000   0.000000
    55  Cl   0.000000   0.000000
    56  Cl   0.000000   0.000000
    57  C    0.000000   0.000000
    58  H    0.000000   0.000000
    59  H    0.000000   0.000000
    60  Cl   0.000000   0.000000
    61  Cl   0.000000   0.000000
    62  C    0.000000   0.000000
    63  H    0.000000   0.000000
    64  H    0.000000   0.000000
    65  Cl   0.000000   0.000000
    66  Cl   0.000000   0.000000
    67  C    0.000000   0.000000
    68  H    0.000000   0.000000
    69  H    0.000000   0.000000
    70  Cl   0.000000   0.000000
    71  Cl   0.000000   0.000000
    72  C    0.000000   0.000000
    73  H    0.000000   0.000000
    74  H    0.000000   0.000000
    75  Cl   0.000000   0.000000
    76  Cl   0.000000   0.000000
    77  C    0.000000   0.000000
    78  H    0.000000   0.000000
    79  H    0.000000   0.000000
    80  Cl   0.000000   0.000000
    81  Cl   0.000000   0.000000
    82  C    0.000000   0.000000
    83  H    0.000000   0.000000
    84  H    0.000000   0.000000
    85  Cl   0.000000   0.000000
    86  Cl   0.000000   0.000000
    87  C    0.000000   0.000000
    88  H    0.000000   0.000000
    89  H    0.000000   0.000000
    90  Cl   0.000000   0.000000
    91  Cl   0.000000   0.000000
 Sum of Mulliken charges =  -0.00000   0.00000
 Mulliken charges and spin densities with hydrogens summed into heavy atoms:
               1          2
     1  C    0.030111  -0.395522
     2  C   -0.024238   0.371624
     3  C   -0.007107   0.381003
     4  C    0.008530  -0.312839
     6  C   -0.001354   0.675228
     7  C    0.003217  -0.315119
     9  C   -0.001482   0.372380
    11  C   -0.007678  -0.776755
    17  C    0.000000   0.000000
    20  Cl   0.000000   0.000000
    21  Cl   0.000000   0.000000
    22  C    0.000000   0.000000
    25  Cl   0.000000   0.000000
    26  Cl   0.000000   0.000000
    27  C    0.000000   0.000000
    30  Cl   0.000000   0.000000
    31  Cl   0.000000   0.000000
    32  C    0.000000   0.000000
    35  Cl   0.000000   0.000000
    36  Cl   0.000000   0.000000
    37  C    0.000000   0.000000
    40  Cl   0.000000   0.000000
    41  Cl   0.000000   0.000000
    42  C    0.000000   0.000000
    45  Cl   0.000000   0.000000
    46  Cl   0.000000   0.000000
    47  C    0.000000   0.000000
    50  Cl   0.000000   0.000000
    51  Cl   0.000000   0.000000
    52  C    0.000000   0.000000
    55  Cl   0.000000   0.000000
    56  Cl   0.000000   0.000000
    57  C    0.000000   0.000000
    60  Cl   0.000000   0.000000
    61  Cl   0.000000   0.000000
    62  C    0.000000   0.000000
    65  Cl   0.000000   0.000000
    66  Cl   0.000000   0.000000
    67  C    0.000000   0.000000
    70  Cl   0.000000   0.000000
    71  Cl   0.000000   0.000000
    72  C    0.000000   0.000000
    75  Cl   0.000000   0.000000
    76  Cl   0.000000   0.000000
    77  C    0.000000   0.000000
    80  Cl   0.000000   0.000000
    81  Cl   0.000000   0.000000
    82  C    0.000000   0.000000
    85  Cl   0.000000   0.000000
    86  Cl   0.000000   0.000000
    87  C    0.000000   0.000000
    90  Cl   0.000000   0.000000
    91  Cl   0.000000   0.000000
 Charge=             -0.0000 electrons
 Dipole moment (field-independent basis, Debye):
    X=              0.0377    Y=             -0.0511    Z=             -0.1262  Tot=              0.1413
 N-N= 1.844990753023D+02 E-N=-2.804554609226D+02  KE=-6.322290043217D+01
 Calling FoFJK, ICntrl=      2127 FMM=F ISym2X=0 I1Cent= 0 IOpClX= 1 NMat=1 NMatS=1 NMatT=0.
 Cartesian Forces:  Max     0.033456560 RMS     0.004507687
 SvSCFP is copying densities from files   528 and   530 to   603.
 ONIOM: saving gridpoint  1
 ONIOM: restoring gridpoint  3
 ONIOM: calculating energy.
 ONIOM: gridpoint  1 method:  low   system:  model energy:     0.086113267236
 ONIOM: gridpoint  2 method:  high  system:  model energy:  -309.604886147165
 ONIOM: gridpoint  3 method:  low   system:  real  energy:    -0.403849977168
 ONIOM: extrapolated energy =    -310.094849391569
 ONIOM: calculating first derivatives.
 ONIOM: calculating electric field derivatives.
 ONIOM: Integrating ONIOM file  4 number   619
 ONIOM: Dipole        =-8.83422715D-02 9.85957740D-03 1.52479505D-01
 ONIOM: Dipole moment (Debye):
    X=    -0.2245    Y=     0.0251    Z=     0.3876  Tot=     0.4486
 ONIOM: Integrating ONIOM file  5 number   695
 Anisotropic Hyperfine tensors: 
                 1             2             3             4             5 
      1   0.000000D+00  0.000000D+00  0.000000D+00  0.000000D+00  0.000000D+00
      2   0.000000D+00  0.000000D+00  0.000000D+00  0.000000D+00  0.000000D+00
      3   0.000000D+00  0.000000D+00  0.000000D+00  0.000000D+00  0.000000D+00
      4   0.000000D+00  0.000000D+00  0.000000D+00  0.000000D+00  0.000000D+00
      5   0.000000D+00  0.000000D+00  0.000000D+00  0.000000D+00  0.000000D+00
      6   0.000000D+00  0.000000D+00  0.000000D+00  0.000000D+00  0.000000D+00
                 6             7             8             9            10 
      1   0.000000D+00  0.000000D+00  0.000000D+00  0.000000D+00  0.000000D+00
      2   0.000000D+00  0.000000D+00  0.000000D+00  0.000000D+00  0.000000D+00
      3   0.000000D+00  0.000000D+00  0.000000D+00  0.000000D+00  0.000000D+00
      4   0.000000D+00  0.000000D+00  0.000000D+00  0.000000D+00  0.000000D+00
      5   0.000000D+00  0.000000D+00  0.000000D+00  0.000000D+00  0.000000D+00
      6   0.000000D+00  0.000000D+00  0.000000D+00  0.000000D+00  0.000000D+00
                11            12            13            14            15 
      1   0.000000D+00  0.000000D+00  0.000000D+00  0.000000D+00  0.000000D+00
      2   0.000000D+00  0.000000D+00  0.000000D+00  0.000000D+00  0.000000D+00
      3   0.000000D+00  0.000000D+00  0.000000D+00  0.000000D+00  0.000000D+00
      4   0.000000D+00  0.000000D+00  0.000000D+00  0.000000D+00  0.000000D+00
      5   0.000000D+00  0.000000D+00  0.000000D+00  0.000000D+00  0.000000D+00
      6   0.000000D+00  0.000000D+00  0.000000D+00  0.000000D+00  0.000000D+00
                16            17            18            19            20 
      1   0.000000D+00  0.000000D+00  0.000000D+00  0.000000D+00  0.000000D+00
      2   0.000000D+00  0.000000D+00  0.000000D+00  0.000000D+00  0.000000D+00
      3   0.000000D+00  0.000000D+00  0.000000D+00  0.000000D+00  0.000000D+00
      4   0.000000D+00  0.000000D+00  0.000000D+00  0.000000D+00  0.000000D+00
      5   0.000000D+00  0.000000D+00  0.000000D+00  0.000000D+00  0.000000D+00
      6   0.000000D+00  0.000000D+00  0.000000D+00  0.000000D+00  0.000000D+00
                21            22            23            24            25 
      1   0.000000D+00  0.000000D+00  0.000000D+00  0.000000D+00  0.000000D+00
      2   0.000000D+00  0.000000D+00  0.000000D+00  0.000000D+00  0.000000D+00
      3   0.000000D+00  0.000000D+00  0.000000D+00  0.000000D+00  0.000000D+00
      4   0.000000D+00  0.000000D+00  0.000000D+00  0.000000D+00  0.000000D+00
      5   0.000000D+00  0.000000D+00  0.000000D+00  0.000000D+00  0.000000D+00
      6   0.000000D+00  0.000000D+00  0.000000D+00  0.000000D+00  0.000000D+00
                26            27            28            29            30 
      1   0.000000D+00  0.000000D+00  0.000000D+00  0.000000D+00  0.000000D+00
      2   0.000000D+00  0.000000D+00  0.000000D+00  0.000000D+00  0.000000D+00
      3   0.000000D+00  0.000000D+00  0.000000D+00  0.000000D+00  0.000000D+00
      4   0.000000D+00  0.000000D+00  0.000000D+00  0.000000D+00  0.000000D+00
      5   0.000000D+00  0.000000D+00  0.000000D+00  0.000000D+00  0.000000D+00
      6   0.000000D+00  0.000000D+00  0.000000D+00  0.000000D+00  0.000000D+00
                31            32            33            34            35 
[...]
   X22       10.81576   0.00008   0.00000   0.00108   0.00100  10.81676
   Y22       -2.01389  -0.00001   0.00000  -0.00060  -0.00037  -2.01426
   Z22       -2.95128   0.00000   0.00000  -0.00099   0.00005  -2.95123
   X23        8.78127   0.00010   0.00000   0.00099   0.00092   8.78220
   Y23       -2.11453   0.00005   0.00000   0.00069   0.00092  -2.11361
   Z23       -2.44153  -0.00002   0.00000  -0.00125  -0.00018  -2.44171
   X24       11.97718  -0.00008   0.00000  -0.00053  -0.00058  11.97660
   Y24       -3.14608  -0.00013   0.00000  -0.00199  -0.00169  -3.14777
   Z24       -1.62289   0.00000   0.00000  -0.00081   0.00027  -1.62262
   X25       11.83969   0.00026   0.00000   0.00357   0.00346  11.84315
   Y25        1.17592  -0.00009   0.00000  -0.00146  -0.00122   1.17471
   Z25       -2.87476   0.00013   0.00000   0.00055   0.00142  -2.87334
   X26       11.25311   0.00009   0.00000   0.00118   0.00108  11.25419
   Y26       -3.12746   0.00004   0.00000   0.00039   0.00047  -3.12699
   Z26       -6.06928  -0.00002   0.00000  -0.00145  -0.00036  -6.06964
   X27        3.98912  -0.00005   0.00000  -0.00074  -0.00085   3.98827
   Y27        6.01483   0.00001   0.00000  -0.00016   0.00028   6.01511
   Z27        2.92031   0.00003   0.00000  -0.00108  -0.00035   2.91996
   X28        3.48224  -0.00032   0.00000  -0.00324  -0.00333   3.47892
   Y28        4.04876   0.00007   0.00000   0.00066   0.00107   4.04983
   Z28        2.37486  -0.00013   0.00000  -0.00192  -0.00109   2.37377
   X29        2.57260  -0.00004   0.00000  -0.00033  -0.00046   2.57214
   Y29        7.37714   0.00004   0.00000   0.00084   0.00122   7.37836
   Z29        2.17872  -0.00002   0.00000  -0.00002   0.00066   2.17938
   X30        7.02388  -0.00004   0.00000  -0.00094  -0.00106   7.02282
   Y30        6.77536   0.00001   0.00000  -0.00106  -0.00064   6.77472
   Z30        1.72489  -0.00013   0.00000  -0.00265  -0.00199   1.72290
   X31        4.16410   0.00016   0.00000   0.00187   0.00180   4.16590
   Y31        6.26339  -0.00006   0.00000  -0.00172  -0.00112   6.26227
   Z31        6.25307   0.00004   0.00000  -0.00099  -0.00027   6.25279
   X32       -4.25811  -0.00011   0.00000  -0.00125  -0.00126  -4.25936
   Y32        1.53030   0.00004   0.00000   0.00006   0.00058   1.53088
   Z32        6.59565  -0.00019   0.00000  -0.00341  -0.00237   6.59328
   X33       -3.57276  -0.00003   0.00000  -0.00014  -0.00012  -3.57288
   Y33       -0.45131   0.00004   0.00000   0.00039   0.00092  -0.45039
   Z33        6.66842  -0.00041   0.00000  -0.00492  -0.00379   6.66463
   X34       -4.16969   0.00008   0.00000   0.00095   0.00095  -4.16874
   Y34        2.43322   0.00021   0.00000   0.00123   0.00184   2.43506
   Z34        8.48830  -0.00028   0.00000  -0.00401  -0.00301   8.48529
   X35       -7.41316  -0.00016   0.00000  -0.00267  -0.00269  -7.41585
   Y35        1.57681  -0.00017   0.00000  -0.00240  -0.00198   1.57484
   Z35        5.47279   0.00023   0.00000   0.00100   0.00207   5.47486
   X36       -2.39519  -0.00037   0.00000  -0.00468  -0.00473  -2.39992
   Y36        3.26573   0.00006   0.00000   0.00075   0.00119   3.26692
   Z36        4.42046  -0.00020   0.00000  -0.00530  -0.00436   4.41609
   X37       -1.97230  -0.00011   0.00000  -0.00132  -0.00139  -1.97368
   Y37        8.60285   0.00012   0.00000   0.00085   0.00150   8.60435
   Z37        8.63495   0.00019   0.00000   0.00177   0.00244   8.63739
   X38       -0.70587  -0.00015   0.00000  -0.00188  -0.00197  -0.70784
   Y38       10.25464   0.00014   0.00000   0.00114   0.00181  10.25644
   Z38        8.86245   0.00026   0.00000   0.00336   0.00394   8.86639
   X39       -1.66238   0.00001   0.00000   0.00018   0.00010  -1.66228
   Y39        7.68409   0.00015   0.00000   0.00177   0.00233   7.68642
   Z39        6.77326   0.00020   0.00000   0.00167   0.00239   6.77564
   X40       -5.15415  -0.00013   0.00000  -0.00169  -0.00176  -5.15591
   Y40        9.55635   0.00009   0.00000   0.00012   0.00074   9.55709
   Z40        8.91588   0.00005   0.00000  -0.00017   0.00049   8.91637
   X41       -1.36430  -0.00019   0.00000  -0.00262  -0.00263  -1.36693
   Y41        6.39175  -0.00001   0.00000  -0.00094  -0.00017   6.39158
   Z41       11.08908   0.00011   0.00000   0.00049   0.00126  11.09034
   X42        8.37948  -0.00006   0.00000  -0.00027  -0.00046   8.37902
   Y42        2.03458   0.00018   0.00000   0.00235   0.00228   2.03686
   Z42       -8.39275  -0.00004   0.00000  -0.00158  -0.00071  -8.39346
   X43        7.33674  -0.00008   0.00000  -0.00117  -0.00132   7.33542
   Y43        0.49270   0.00021   0.00000   0.00309   0.00306   0.49577
   Z43       -7.42075  -0.00005   0.00000  -0.00129  -0.00033  -7.42108
   X44       10.45009  -0.00008   0.00000  -0.00056  -0.00075  10.44934
   Y44        1.71755   0.00010   0.00000   0.00124   0.00121   1.71875
   Z44       -8.26294  -0.00006   0.00000  -0.00118  -0.00031  -8.26326
   X45        7.61605   0.00013   0.00000   0.00182   0.00161   7.61766
   Y45        4.98564   0.00026   0.00000   0.00337   0.00337   4.98901
   Z45       -6.98732  -0.00011   0.00000  -0.00260  -0.00186  -6.98918
   X46        7.43479   0.00007   0.00000   0.00106   0.00083   7.43563
   Y46        2.20116   0.00011   0.00000   0.00193   0.00170   2.20285
   Z46      -11.59238  -0.00006   0.00000  -0.00202  -0.00114 -11.59353
   X47      -10.25535  -0.00006   0.00000   0.00035   0.00023 -10.25512
   Y47        3.70468   0.00017   0.00000   0.00215   0.00224   3.70692
   Z47       -0.73029  -0.00002   0.00000  -0.00130  -0.00029  -0.73058
   X48      -11.94525   0.00002   0.00000   0.00052   0.00042 -11.94483
   Y48        2.61228   0.00025   0.00000   0.00389   0.00399   2.61627
   Z48       -0.14814   0.00034   0.00000   0.00305   0.00413  -0.14401
   X49       -8.77002   0.00027   0.00000   0.00353   0.00343  -8.76659
   Y49        3.63819   0.00009   0.00000   0.00128   0.00146   3.63965
   Z49        0.75173  -0.00040   0.00000  -0.00475  -0.00376   0.74796
   X50      -11.13038   0.00035   0.00000   0.00431   0.00414 -11.12623
   Y50        6.88323   0.00027   0.00000   0.00323   0.00328   6.88651
   Z50       -1.28929  -0.00005   0.00000  -0.00169  -0.00083  -1.29012
   X51       -9.06938  -0.00031   0.00000  -0.00449  -0.00462  -9.07400
   Y51        2.44293   0.00003   0.00000  -0.00010  -0.00014   2.44280
   Z51       -3.59041   0.00000   0.00000  -0.00216  -0.00110  -3.59151
   X52       -3.01168   0.00005   0.00000   0.00065   0.00047  -3.01121
   Y52        1.86334  -0.00006   0.00000  -0.00043  -0.00060   1.86275
   Z52       -7.73498   0.00009   0.00000   0.00034   0.00135  -7.73363
   X53       -3.64067   0.00009   0.00000   0.00138   0.00118  -3.63949
   Y53        2.45626   0.00004   0.00000   0.00044   0.00018   2.45644
   Z53       -9.64496   0.00010   0.00000   0.00043   0.00142  -9.64355
   X54       -4.05483  -0.00006   0.00000  -0.00052  -0.00069  -4.05552
   Y54        2.89777  -0.00009   0.00000  -0.00117  -0.00127   2.89650
   Z54       -6.23180   0.00003   0.00000   0.00004   0.00101  -6.23080
   X55        0.27612   0.00003   0.00000   0.00041   0.00023   0.27634
   Y55        2.46380   0.00001   0.00000   0.00017   0.00006   2.46386
   Z55       -7.41729   0.00028   0.00000   0.00230   0.00325  -7.41404
   X56       -3.47011   0.00004   0.00000   0.00089   0.00075  -3.46935
   Y56       -1.42575  -0.00008   0.00000  -0.00068  -0.00083  -1.42658
   Z56       -7.36820   0.00006   0.00000  -0.00105   0.00012  -7.36808
   X57       -2.67695   0.00022   0.00000   0.00247   0.00229  -2.67466
   Y57       11.14190  -0.00004   0.00000  -0.00069  -0.00041  11.14149
   Z57        1.42714   0.00006   0.00000  -0.00007   0.00049   1.42763
   X58       -1.99000   0.00011   0.00000   0.00211   0.00190  -1.98810
   Y58       11.57349  -0.00014   0.00000  -0.00086  -0.00066  11.57283
   Z58       -0.51108  -0.00003   0.00000  -0.00024   0.00029  -0.51079
   X59       -4.33718   0.00018   0.00000   0.00214   0.00196  -4.33522
   Y59       12.32303  -0.00008   0.00000  -0.00131  -0.00102  12.32200
   Z59        1.92333   0.00009   0.00000   0.00027   0.00078   1.92411
   X60       -0.20305   0.00007   0.00000   0.00116   0.00100  -0.20206
   Y60       11.70781   0.00015   0.00000   0.00050   0.00092  11.70873
   Z60        3.61638   0.00021   0.00000   0.00134   0.00183   3.61822
   X61       -3.49309   0.00017   0.00000   0.00271   0.00257  -3.49052
   Y61        7.90032   0.00000   0.00000  -0.00083  -0.00055   7.89977
   Z61        1.67385  -0.00020   0.00000  -0.00264  -0.00192   1.67193
   X62        2.09473  -0.00001   0.00000  -0.00001   0.00002   2.09475
   Y62        0.63128  -0.00004   0.00000  -0.00115  -0.00042   0.63086
   Z62        9.34870  -0.00010   0.00000  -0.00247  -0.00146   9.34724
   X63        1.38186   0.00008   0.00000   0.00066   0.00066   1.38252
   Y63        2.52443  -0.00007   0.00000  -0.00139  -0.00070   2.52373
   Z63        8.78614  -0.00027   0.00000  -0.00409  -0.00317   8.78297
   X64        3.69574  -0.00004   0.00000  -0.00054  -0.00050   3.69524
   Y64        0.80053   0.00005   0.00000  -0.00013   0.00068   0.80121
   Z64       10.68895  -0.00009   0.00000  -0.00193  -0.00094  10.68801
   X65        3.07919   0.00006   0.00000   0.00079   0.00081   3.08000
   Y65       -1.04973  -0.00015   0.00000  -0.00292  -0.00231  -1.05204
   Z65        6.63375   0.00003   0.00000  -0.00110  -0.00002   6.63373
   X66       -0.37799  -0.00005   0.00000  -0.00069  -0.00062  -0.37860
   Y66       -1.10613   0.00006   0.00000  -0.00013   0.00064  -1.10549
   Z66       10.78598  -0.00004   0.00000  -0.00224  -0.00112  10.78486
   X67        2.01534   0.00004   0.00000   0.00062   0.00053   2.01588
   Y67       -4.10024  -0.00011   0.00000  -0.00060  -0.00061  -4.10085
   Z67       -5.72383   0.00004   0.00000  -0.00097   0.00028  -5.72355
   X68        0.36219  -0.00002   0.00000  -0.00014  -0.00022   0.36197
   Y68       -5.22595   0.00003   0.00000   0.00063   0.00058  -5.22538
   Z68       -6.34246  -0.00014   0.00000  -0.00156  -0.00025  -6.34271
   X69        1.40945   0.00029   0.00000   0.00256   0.00246   1.41191
   Y69       -2.19760  -0.00012   0.00000  -0.00110  -0.00108  -2.19868
   Z69       -5.06568   0.00023   0.00000   0.00178   0.00294  -5.06274
   X70        4.18224  -0.00021   0.00000  -0.00196  -0.00207   4.18017
   Y70       -3.80005   0.00020   0.00000   0.00230   0.00219  -3.79785
   Z70       -8.24936  -0.00013   0.00000  -0.00287  -0.00167  -8.25103
   X71        3.59083   0.00006   0.00000   0.00135   0.00132   3.59215
   Y71       -5.71010  -0.00003   0.00000  -0.00152  -0.00138  -5.71149
   Z71       -3.24135   0.00007   0.00000  -0.00202  -0.00072  -3.24206
   X72        3.53727  -0.00000   0.00000   0.00001  -0.00027   3.53700
   Y72        7.41846   0.00002   0.00000   0.00052   0.00026   7.41872
   Z72      -11.23573  -0.00018   0.00000  -0.00256  -0.00190 -11.23763
   X73        5.37078   0.00008   0.00000   0.00038   0.00009   5.37087
   Y73        7.21038  -0.00000   0.00000   0.00044   0.00015   7.21053
   Z73      -12.23028  -0.00016   0.00000  -0.00227  -0.00161 -12.23190
   X74        3.35737  -0.00004   0.00000  -0.00019  -0.00044   3.35694
   Y74        5.96669   0.00006   0.00000   0.00086   0.00068   5.96737
   Z74       -9.73462  -0.00009   0.00000  -0.00213  -0.00139  -9.73601
   X75        3.34479  -0.00013   0.00000  -0.00107  -0.00137   3.34342
   Y75       10.47933   0.00004   0.00000   0.00049   0.00030  10.47963
   Z75       -9.87777  -0.00008   0.00000  -0.00228  -0.00176  -9.87952
   X76        1.01498  -0.00009   0.00000  -0.00020  -0.00051   1.01447
   Y76        7.12516  -0.00007   0.00000  -0.00030  -0.00069   7.12447
   Z76      -13.39823  -0.00012   0.00000  -0.00243  -0.00172 -13.39995
   X77       -2.86610   0.00012   0.00000   0.00124   0.00099  -2.86510
   Y77        8.75821  -0.00017   0.00000  -0.00205  -0.00218   8.75603
   Z77       -6.95641  -0.00007   0.00000  -0.00095  -0.00028  -6.95669
   X78       -1.00749   0.00020   0.00000   0.00111   0.00086  -1.00663
   Y78        8.01403  -0.00009   0.00000  -0.00251  -0.00264   8.01138
   Z78       -7.58294  -0.00024   0.00000  -0.00201  -0.00132  -7.58426
   X79       -2.90682   0.00036   0.00000   0.00390   0.00362  -2.90320
   Y79       10.85104  -0.00015   0.00000  -0.00188  -0.00201  10.84902
   Z79       -7.08393   0.00014   0.00000   0.00134   0.00192  -7.08201
   X80       -5.30559  -0.00017   0.00000  -0.00150  -0.00175  -5.30734
   Y80        7.47298   0.00006   0.00000   0.00174   0.00149   7.47447
   Z80       -8.84608   0.00037   0.00000   0.00061   0.00137  -8.84471
   X81       -3.44404  -0.00068   0.00000  -0.00573  -0.00593  -3.44997
   Y81        7.81467  -0.00040   0.00000  -0.00479  -0.00477   7.80990
   Z81       -3.78777  -0.00022   0.00000  -0.00309  -0.00237  -3.79013
   X82        4.06751  -0.00004   0.00000  -0.00017  -0.00041   4.06711
   Y82       11.29464  -0.00005   0.00000  -0.00190  -0.00175  11.29289
   Z82       -3.06966  -0.00006   0.00000  -0.00096  -0.00049  -3.07015
   X83        5.23257  -0.00015   0.00000  -0.00083  -0.00108   5.23149
   Y83       11.21732  -0.00023   0.00000  -0.00256  -0.00249  11.21484
   Z83       -4.81039  -0.00019   0.00000  -0.00151  -0.00105  -4.81144
   X84        5.27287  -0.00023   0.00000  -0.00140  -0.00161   5.27126
   Y84       11.22644  -0.00034   0.00000  -0.00379  -0.00355  11.22290
   Z84       -1.35641   0.00010   0.00000  -0.00014   0.00032  -1.35609
   X85        2.23512   0.00022   0.00000   0.00241   0.00215   2.23727
   Y85       14.08774   0.00014   0.00000   0.00006   0.00018  14.08792
   Z85       -3.06656   0.00006   0.00000   0.00012   0.00048  -3.06608
   X86        1.92138   0.00022   0.00000   0.00141   0.00120   1.92258
   Y86        8.71946  -0.00032   0.00000  -0.00316  -0.00304   8.71643
   Z86       -3.04260   0.00001   0.00000  -0.00112  -0.00050  -3.04310
   X87       -8.27171   0.00001   0.00000   0.00027   0.00001  -8.27170
   Y87       13.00929  -0.00009   0.00000  -0.00158  -0.00159  13.00770
   Z87       -3.18630   0.00000   0.00000  -0.00066  -0.00013  -3.18643
   X88      -10.10909   0.00001   0.00000   0.00030   0.00003 -10.10906
   Y88       13.11874  -0.00014   0.00000  -0.00153  -0.00160  13.11713
   Z88       -4.18656  -0.00001   0.00000  -0.00068  -0.00014  -4.18670
   X89       -7.71192   0.00007   0.00000   0.00123   0.00100  -7.71092
   Y89       11.00870  -0.00008   0.00000  -0.00159  -0.00157  11.00713
   Z89       -2.87806  -0.00024   0.00000  -0.00337  -0.00275  -2.88081
   X90       -5.93274  -0.00001   0.00000   0.00012  -0.00018  -5.93292
   Y90       14.58308   0.00009   0.00000   0.00159   0.00152  14.58460
   Z90       -4.98681   0.00019   0.00000   0.00191   0.00234  -4.98447
   X91       -8.50564  -0.00013   0.00000  -0.00127  -0.00151  -8.50715
   Y91       14.58191  -0.00048   0.00000  -0.00630  -0.00616  14.57575
   Z91       -0.24670   0.00017   0.00000   0.00167   0.00213  -0.24457
         Item               Value     Threshold  Converged?
 Maximum Force            0.046450     0.000450     NO 
 RMS     Force            0.005978     0.000300     NO 
 Maximum Displacement     0.148464     0.001800     NO 
 RMS     Displacement     0.018175     0.001200     NO 
 Predicted change in Energy=-1.135850D-02
 GradGradGradGradGradGradGradGradGradGradGradGradGradGradGradGradGradGrad

 Unable to Open any file for archive entry.
 1\1\GINC-X10P1N23\Force\ONIOM(B3LYP TD-FC/6-31G(d):PM6)\Mixed\C23H38Cl
 30\MAYUMIAO\12-Jul-2024\0\\# scf=(xqc,maxcycle=64) force guess=read on
 iom(td/b3lyp/em=gd3bj/6-31g(d):pm6) nosymm\\Title Card\\0,1\C,0.551575
 31,-0.175107,-0.17918555\C,-0.08645272,-1.2939258,0.41798239\C,-0.2729
 1732,0.87647812,-0.65501562\C,-1.45937077,-1.35830611,0.52521276\H,0.5
 3457335,-2.10737135,0.78674175\C,1.97095311,-0.14399679,-0.31004023\C,
 -1.65139508,0.81361083,-0.51828085\H,0.1796261,1.74379319,-1.12939193\
 C,-2.25841506,-0.3055188,0.05615045\H,-1.91980763,-2.23027007,0.980705
 33\C,2.6864379,0.89840396,-1.00207716\H,2.52840215,-0.98898868,0.09882
 342\H,-2.26378279,1.64161962,-0.86696849\H,-3.34065778,-0.36501375,0.1
 3179349\H,3.63018811,1.29022626,-0.62853429\H,2.34036941,1.28813701,-1
 .95827686\C,4.97848973,0.55643547,1.99135731\H,5.26261116,1.1440838,1.
 09315368\H,3.98188061,0.86381722,2.37132277\Cl,6.19117135,0.77250505,3
 .2515461\Cl,4.93570394,-1.17023307,1.5707465\C,5.72345452,-1.06570575,
 -1.56175068\H,4.64684987,-1.11896213,-1.29200086\H,6.33805064,-1.66483
 341,-0.85879456\Cl,6.26529518,0.62227113,-1.52125614\Cl,5.95488701,-1.
 65498286,-3.21172571\C,2.11095211,3.1829112,1.54536197\H,1.84272431,2.
 14251156,1.25672335\H,1.36136369,3.90381288,1.15292876\Cl,3.7168789,3.
 5853666,0.91277143\Cl,2.20354459,3.31444322,3.30898023\C,-2.25329239,0
 .80980178,3.4902691\H,-1.89062408,-0.23882353,3.52877454\H,-2.20650506
 ,1.28760241,4.49181714\Cl,-3.92287526,0.834413,2.8960734\Cl,-1.2674798
 8,1.72815186,2.33920486\C,-1.04369557,4.55243251,4.56942018\H,-0.37352
 903,5.42652007,4.68980874\H,-0.87969369,4.06624332,3.58425339\Cl,-2.72
 745696,5.05700415,4.71808271\Cl,-0.72195622,3.38236823,5.86808872\C,4.
 43422779,1.0766511,-4.44125243\H,3.88243627,0.26072755,-3.92689199\H,5
 .52994983,0.90888674,-4.37256143\Cl,4.0302404,2.63828931,-3.69752961\C
 l,3.93432365,1.16480198,-6.13442475\C,-5.42689738,1.96043284,-0.386451
 87\H,-6.32115161,1.38235742,-0.07839203\H,-4.64089563,1.92524798,0.397
 79633\Cl,-5.88994097,3.64244599,-0.68226444\Cl,-4.799307,1.29274452,-1
 .89996171\C,-1.59371318,0.98603967,-4.09317515\H,-1.92655972,1.2997962
 1,-5.10389419\H,-2.14572449,1.53343578,-3.29772778\Cl,0.14611397,1.303
 7894,-3.92506021\Cl,-1.83630049,-0.7544763,-3.89908524\C,-1.4165799,5.
 89603989,0.75521131\H,-1.05306346,6.12442552,-0.27045023\H,-2.29513531
 ,6.52106539,1.01778019\Cl,-0.10745163,6.19550545,1.91370652\Cl,-1.8484
 6161,4.18066819,0.88576306\C,1.10848416,0.33406117,4.94711907\H,0.7312
 4672,1.33587058,4.64942459\H,1.95570084,0.42362399,5.6563488\Cl,1.6294
 3795,-0.55549338,3.51042891\Cl,-0.20002262,-0.58533729,5.7076949\C,1.0
 6647268,-2.16975093,-3.02891886\H,0.19166304,-2.76545478,-3.35628757\H
 ,0.74585074,-1.16292205,-2.68064312\Cl,2.21314771,-2.01089841,-4.36537
 344\Cl,1.90018486,-3.02165514,-1.71524747\C,1.87184108,3.925678,-5.945
 69203\H,2.84209309,3.81556697,-6.47198687\H,1.77664493,3.1574383,-5.15
 133796\Cl,1.76998704,5.54542324,-5.22708865\Cl,0.53710457,3.77047459,-
 7.09003585\C,-1.51667216,4.63464628,-3.68117627\H,-0.5331415,4.2408408
 ,-4.01271739\H,-1.53822345,5.74212117,-3.7486527\Cl,-2.8075981,3.95452
 961,-4.68114468\Cl,-1.82250836,4.13534412,-2.00439977\C,2.1524339,5.97
 686681,-1.62439432\H,2.76895541,5.93595138,-2.54554987\H,2.79028352,5.
 94077692,-0.71778161\Cl,1.18277634,7.45490997,-1.62275408\Cl,1.0167510
 9,4.61414119,-1.61007194\C,-4.37720231,6.88421922,-1.68611888\H,-5.349
 50086,6.94213597,-2.21543151\H,-4.08097244,5.82555285,-1.5230026\Cl,-3
 .13947107,7.71703296,-2.63890568\Cl,-4.50099315,7.71641375,-0.13054896
 \\Version=ES64L-G16RevC.01\HF=0.0861133\S2=0.878405\S2-1=0.\S2A=1.1510
 01\RMSD=5.227e-09\RMSF=5.978e-03\Dipole=-0.0883423,0.0098596,0.1524795
 \PG=C01 [X(C23H38Cl30)]\\@
 The archive entry for this job was punched.


 IT PROBABLY IS NOT POSSIBLE FOR A SCIENTIST TO INTERROGATE NATURE 
 FROM A WHOLLY DISINTERESTED VIEWPOINT.
 EVEN IF HE HAS NO PARTICULAR AXE TO GRIND, HE IS LIKELY TO HAVE 
 A DISTINCTIVE WAY OF VIEWING NATURE.

                                                   -- JOHN LOSEE
 Job cpu time:       0 days  0 hours 19 minutes 33.3 seconds.
 Elapsed time:       0 days  0 hours  0 minutes 46.8 seconds.
 File lengths (MBytes):  RWF=    173 Int=      0 D2E=      0 Chk=     37 Scr=      1
 Normal termination of Gaussian 16 at Fri Jul 12 22:46:27 2024.
