 Entering Gaussian System, Link 0=g16
 Input=JOBS/5_A.gjf
 Output=JOBS/5_A.log
 Initial command:
 /data/app/gaussian/C01-avx2//g16/l1.exe "/tmp/Gau-1762663.inp" -scrdir="/tmp/"
 Entering Link 1 = /data/app/gaussian/C01-avx2//g16/l1.exe PID=   1762664.
  
 Copyright (c) 1988-2019, Gaussian, Inc.  All Rights Reserved.
  
 This is part of the Gaussian(R) 16 program.  It is based on
 the Gaussian(R) 09 system (copyright 2009, Gaussian, Inc.),
 the Gaussian(R) 03 system (copyright 2003, Gaussian, Inc.),
 the Gaussian(R) 98 system (copyright 1998, Gaussian, Inc.),
 the Gaussian(R) 94 system (copyright 1995, Gaussian, Inc.),
 the Gaussian 92(TM) system (copyright 1992, Gaussian, Inc.),
 the Gaussian 90(TM) system (copyright 1990, Gaussian, Inc.),
 the Gaussian 88(TM) system (copyright 1988, Gaussian, Inc.),
 the Gaussian 86(TM) system (copyright 1986, Carnegie Mellon
 University), and the Gaussian 82(TM) system (copyright 1983,
 Carnegie Mellon University). Gaussian is a federally registered
 trademark of Gaussian, Inc.
  
 This software contains proprietary and confidential information,
 including trade secrets, belonging to Gaussian, Inc.
  
 This software is provided under written license and may be
 used, copied, transmitted, or stored only in accord with that
 written license.
  
 The following legend is applicable only to US Government
 contracts under FAR:
  
                    RESTRICTED RIGHTS LEGEND
  
 Use, reproduction and disclosure by the US Government is
 subject to restrictions as set forth in subparagraphs (a)
 and (c) of the Commercial Computer Software - Restricted
 Rights clause in FAR 52.227-19.
  
 Gaussian, Inc.
 340 Quinnipiac St., Bldg. 40, Wallingford CT 06492
  
  
 ---------------------------------------------------------------
 Warning -- This program may not be used in any manner that
 competes with the business of Gaussian, Inc. or will provide
 assistance to any competitor of Gaussian, Inc.  The licensee
 of this program is prohibited from giving any competitor of
 Gaussian, Inc. access to this program.  By using this program,
 the user acknowledges that Gaussian, Inc. is engaged in the
 business of creating and licensing software in the field of
 computational chemistry and represents and warrants to the
 licensee that it is not a competitor of Gaussian, Inc. and that
 it will not use this program in any manner prohibited above.
 ---------------------------------------------------------------
  

 Cite this work as:
 Gaussian 16, Revision C.01,
 M. J. Frisch, G. W. Trucks, H. B. Schlegel, G. E. Scuseria, 
 M. A. Robb, J. R. Cheeseman, G. Scalmani, V. Barone, 
 G. A. Petersson, H. Nakatsuji, X. Li, M. Caricato, A. V. Marenich, 
 J. Bloino, B. G. Janesko, R. Gomperts, B. Mennucci, H. P. Hratchian, 
 J. V. Ortiz, A. F. Izmaylov, J. L. Sonnenberg, D. Williams-Young, 
 F. Ding, F. Lipparini, F. Egidi, J. Goings, B. Peng, A. Petrone, 
 T. Henderson, D. Ranasinghe, V. G. Zakrzewski, J. Gao, N. Rega, 
 G. Zheng, W. Liang, M. Hada, M. Ehara, K. Toyota, R. Fukuda, 
 J. Hasegawa, M. Ishida, T. Nakajima, Y. Honda, O. Kitao, H. Nakai, 
 T. Vreven, K. Throssell, J. A. Montgomery, Jr., J. E. Peralta, 
 F. Ogliaro, M. J. Bearpark, J. J. Heyd, E. N. Brothers, K. N. Kudin, 
 V. N. Staroverov, T. A. Keith, R. Kobayashi, J. Normand, 
 K. Raghavachari, A. P. Rendell, J. C. Burant, S. S. Iyengar, 
 J. Tomasi, M. Cossi, J. M. Millam, M. Klene, C. Adamo, R. Cammi, 
 J. W. Ochterski, R. L. Martin, K. Morokuma, O. Farkas, 
 J. B. Foresman, and D. J. Fox, Gaussian, Inc., Wallingford CT, 2019.
 
 ******************************************
 Gaussian 16:  ES64L-G16RevC.01  3-Jul-2019
                12-Jul-2024 
 ******************************************
 %chk=a.chk
 %nprocshared=28
 Will use up to   28 processors via shared memory.
 %mem=48gb
 ----------------------------------------------------------------------
 # scf=(xqc,maxcycle=64) force guess=read oniom(td/b3lyp/em=gd3bj/6-31g
 (d):pm6) nosymm
 ----------------------------------------------------------------------
 1/10=7,30=1,38=1,52=2/1,3;
 2/12=2,15=1,17=6,18=5,40=1/2;
 1/10=7,30=1,38=1,52=2,53=3172/20;
 3/5=2,25=1,41=3900000,71=1,116=-2/1,2,3;
 4/5=1,35=1/1;
 5/5=2,7=64,8=3,13=1,35=1,38=6/2,8;
 6/7=2,8=2,9=2,10=2,28=1/1;
 7/7=1,30=1,33=-1/1,2,3,16;
 1/10=7,30=1,52=2,53=2032/20;
 3/5=1,6=6,7=1,11=9,25=1,30=1,71=1,74=-5,116=-2,124=41/1,2,3,8;
 4/5=1/1;
 5/5=2,7=64,8=3,13=1,38=6/2,8;
 8/6=1,10=2/1;
 9/15=2,42=1,70=2/14;
 10/5=4,31=1/2;
 6/7=2,8=2,9=2,10=2,18=1/1;
 7/7=1,12=6,13=5,30=1,33=-1/1,2,3,16;
 1/10=7,30=1,52=2,53=1022/20;
 3/5=2,25=1,41=3900000,71=1,116=-2/1,2,3;
 4/5=1,35=1/1;
 5/5=2,7=64,8=3,13=1,35=1,38=6/2,8;
 6/7=2,8=2,9=2,10=2,28=1/1;
 7/7=1,30=1,33=-1/1,2,3,16;
 1/10=7,30=1,52=2,53=3015/20;
 7/9=1,29=1,44=-1,126=2/16;
 1/10=7,30=1,52=2/3;
 99//99;
 ONIOM: restoring gridpoint  3 on chk file.
 ----------
 Title Card
 ----------
 Symbolic Z-matrix:
 Charge =  0 Multiplicity = 1 for low   level calculation on real  system.
 Charge =  0 Multiplicity = 1 for high  level calculation on model system.
 Charge =  0 Multiplicity = 1 for low   level calculation on model system.
 c                     0.55181  -0.17549  -0.17919  h 
 c                    -0.08704  -1.29368   0.41765  h 
 c                    -0.27318   0.87697  -0.65475  h 
 c                    -1.45849  -1.35819   0.52525  h 
 h                     0.53496  -2.10776   0.78602  h 
 c                     1.97143  -0.14407  -0.31001  h 
 c                    -1.65043   0.81316  -0.5178   h 
 h                     0.18008   1.74448  -1.1284   h 
 c                    -2.25789  -0.305     0.05594  h 
 h                    -1.91971  -2.22993   0.98173  h 
 c                     2.68647   0.89781  -1.00212  h 
 h                     2.52815  -0.98968   0.09929  h 
 h                    -2.26367   1.64234  -0.86609  h 
 h                    -3.34048  -0.36463   0.13207  h 
 h                     3.62887   1.29154  -0.62858  h 
 h                     2.33958   1.28777  -1.95796  h 
 c                     4.97827   0.55644   1.9915   l 
 h                     5.26235   1.14422   1.09338  l 
 h                     3.98161   0.86366   2.37147  l 
 cl                    6.19088   0.77249   3.25177  l 
 cl                    4.93572  -1.17018   1.57069  l 
 c                     5.72377  -1.06586  -1.56169  l 
 h                     4.6471   -1.11866  -1.29215  l 
 h                     6.33797  -1.66537  -0.85872  l 
 cl                    6.26628   0.62189  -1.52086  l 
 cl                    5.95521  -1.65502  -3.21171  l 
 c                     2.11079   3.18299   1.54524  l 
 h                     1.84211   2.14268   1.25661  l 
 h                     1.36129   3.90418   1.15309  l 
 cl                    3.71663   3.585     0.91204  l 
 cl                    2.20402   3.31436   3.30884  l 
 c                    -2.2537    0.81007   3.48948  l 
 h                    -1.89042  -0.23836   3.5276   l 
 h                    -2.20612   1.28794   4.49096  l 
 cl                   -3.9238    0.8339    2.89691  l 
 cl                   -1.26924   1.72875   2.33763  l 
 c                    -1.04404   4.55285   4.57006  l 
 h                    -0.37398   5.42699   4.69073  l 
 h                    -0.87968   4.06668   3.58494  l 
 cl                   -2.72786   5.05736   4.71816  l 
 cl                   -0.72261   3.38266   5.86869  l 
 c                     4.43423   1.07728  -4.44155  l 
 h                     3.8821    0.26175  -3.92696  l 
 h                     5.52988   0.90909  -4.37279  l 
 cl                    4.03078   2.63925  -3.69824  l 
 cl                    3.93447   1.16509  -6.13478  l 
 c                    -5.42682   1.96095  -0.3866   l 
 h                    -6.32109   1.38344  -0.07753  l 
 h                    -4.64007   1.92549   0.39688  l 
 cl                   -5.88921   3.64316  -0.68234  l 
 cl                   -4.80089   1.29261  -1.90048  l 
 c                    -1.59355   0.98576  -4.09281  l 
 h                    -1.92613   1.29968  -5.10356  l 
 h                    -2.14584   1.53307  -3.29749  l 
 cl                    0.14621   1.30362  -3.92418  l 
 cl                   -1.83615  -0.75478  -3.89899  l 
 c                    -1.41604   5.89586   0.75556  l 
 h                    -1.05258   6.12411  -0.27016  l 
 h                    -2.29485   6.52059   1.01803  l 
 cl                   -0.10713   6.19588   1.91417  l 
 cl                   -1.84751   4.18044   0.88607  l 
 c                     1.10859   0.33388   4.94682  l 
 h                     0.73141   1.33554   4.64861  l 
 h                     1.95571   0.4238    5.65612  l 
 cl                    1.62978  -0.55633   3.51064  l 
 cl                   -0.20004  -0.58518   5.70758  l 
 c                     1.06652  -2.16981  -3.02886  l 
 h                     0.1915   -2.76522  -3.35623  l 
 h                     0.74614  -1.16307  -2.68014  l 
 cl                    2.21287  -2.01056  -4.36555  l 
 cl                    1.9005   -3.02227  -1.71571  l 
 c                     1.87179   3.92576  -5.94612  l 
 h                     2.84205   3.81566  -6.47246  l 
 h                     1.77665   3.1576   -5.15165  l 
 cl                    1.76982   5.54559  -5.22762  l 
 cl                    0.53699   3.77031  -7.0904   l 
 c                    -1.51715   4.63391  -3.68135  l 
 h                    -0.53374   4.23938  -4.01256  l 
 h                    -1.5379    5.74148  -3.74776  l 
 cl                   -2.80784   3.95575  -4.68277  l 
 cl                   -1.82404   4.13377  -2.00497  l 
 c                     2.15279   5.97653  -1.62435  l 
 h                     2.76934   5.93564  -2.54553  l 
 h                     2.79085   5.9405   -0.71784  l 
 cl                    1.18282   7.45438  -1.62258  l 
 cl                    1.01716   4.61363  -1.60996  l 
 c                    -4.37721   6.8839   -1.68613  l 
 h                    -5.34951   6.94179  -2.21547  l 
 h                    -4.08065   5.82524  -1.52367  l 
 cl                   -3.13967   7.71763  -2.63833  l 
 cl                   -4.50141   7.71503  -0.13004  l 
 

 GradGradGradGradGradGradGradGradGradGradGradGradGradGradGradGradGradGrad
 Berny optimization.
 Initialization pass.
 Trust Radius=3.00D-01 FncErr=1.00D-07 GrdErr=1.00D-07 EigMax=2.50D+02 EigMin=1.00D-04
 Number of steps in this run=      2 maximum allowed number of steps=      2.
 GradGradGradGradGradGradGradGradGradGradGradGradGradGradGradGradGradGrad

 Symmetry turned off by external request.
 Stoichiometry    C23H38Cl30
 Framework group  C1[X(C23H38Cl30)]
 Deg. of freedom   267
 Full point group                 C1      NOp   1
                          Input orientation:                          
 ---------------------------------------------------------------------
 Center     Atomic      Atomic             Coordinates (Angstroms)
 Number     Number       Type             X           Y           Z
 ---------------------------------------------------------------------
      1          6           0        0.551806   -0.175495   -0.179194
      2          6           0       -0.087036   -1.293680    0.417649
      3          6           0       -0.273183    0.876966   -0.654745
      4          6           0       -1.458491   -1.358188    0.525254
      5          1           0        0.534963   -2.107760    0.786019
      6          6           0        1.971428   -0.144071   -0.310011
      7          6           0       -1.650432    0.813162   -0.517796
      8          1           0        0.180077    1.744483   -1.128404
      9          6           0       -2.257886   -0.304995    0.055939
     10          1           0       -1.919713   -2.229927    0.981726
     11          6           0        2.686473    0.897809   -1.002124
     12          1           0        2.528150   -0.989681    0.099292
     13          1           0       -2.263671    1.642342   -0.866093
     14          1           0       -3.340484   -0.364627    0.132073
     15          1           0        3.628866    1.291539   -0.628580
     16          1           0        2.339581    1.287766   -1.957958
     17          6           0        4.978268    0.556437    1.991502
     18          1           0        5.262352    1.144220    1.093378
     19          1           0        3.981612    0.863659    2.371471
     20         17           0        6.190883    0.772489    3.251769
     21         17           0        4.935724   -1.170184    1.570693
     22          6           0        5.723769   -1.065860   -1.561690
     23          1           0        4.647102   -1.118661   -1.292146
     24          1           0        6.337967   -1.665375   -0.858724
     25         17           0        6.266279    0.621890   -1.520862
     26         17           0        5.955212   -1.655019   -3.211712
     27          6           0        2.110790    3.182992    1.545239
     28          1           0        1.842105    2.142680    1.256612
     29          1           0        1.361293    3.904180    1.153089
     30         17           0        3.716632    3.584999    0.912039
     31         17           0        2.204022    3.314364    3.308838
     32          6           0       -2.253696    0.810071    3.489478
     33          1           0       -1.890418   -0.238363    3.527605
     34          1           0       -2.206123    1.287935    4.490956
     35         17           0       -3.923799    0.833903    2.896915
     36         17           0       -1.269240    1.728749    2.337633
     37          6           0       -1.044036    4.552846    4.570057
     38          1           0       -0.373977    5.426988    4.690726
     39          1           0       -0.879685    4.066677    3.584940
     40         17           0       -2.727861    5.057359    4.718163
     41         17           0       -0.722611    3.382656    5.868686
     42          6           0        4.434228    1.077279   -4.441551
     43          1           0        3.882101    0.261749   -3.926956
     44          1           0        5.529880    0.909091   -4.372793
     45         17           0        4.030778    2.639250   -3.698239
     46         17           0        3.934467    1.165090   -6.134777
     47          6           0       -5.426824    1.960952   -0.386599
     48          1           0       -6.321088    1.383440   -0.077534
     49          1           0       -4.640072    1.925490    0.396879
     50         17           0       -5.889214    3.643162   -0.682343
     51         17           0       -4.800891    1.292611   -1.900478
     52          6           0       -1.593551    0.985763   -4.092806
     53          1           0       -1.926130    1.299684   -5.103564
     54          1           0       -2.145842    1.533072   -3.297490
     55         17           0        0.146214    1.303624   -3.924176
     56         17           0       -1.836154   -0.754776   -3.898990
     57          6           0       -1.416039    5.895859    0.755561
     58          1           0       -1.052580    6.124109   -0.270158
     59          1           0       -2.294854    6.520587    1.018031
     60         17           0       -0.107125    6.195884    1.914171
     61         17           0       -1.847508    4.180437    0.886074
     62          6           0        1.108591    0.333879    4.946817
     63          1           0        0.731406    1.335541    4.648605
     64          1           0        1.955711    0.423804    5.656124
     65         17           0        1.629783   -0.556328    3.510636
     66         17           0       -0.200035   -0.585185    5.707581
     67          6           0        1.066524   -2.169810   -3.028857
     68          1           0        0.191499   -2.765216   -3.356228
     69          1           0        0.746137   -1.163067   -2.680143
     70         17           0        2.212871   -2.010557   -4.365546
     71         17           0        1.900500   -3.022265   -1.715705
     72          6           0        1.871786    3.925763   -5.946120
     73          1           0        2.842054    3.815663   -6.472459
     74          1           0        1.776653    3.157598   -5.151652
     75         17           0        1.769820    5.545588   -5.227623
     76         17           0        0.536993    3.770310   -7.090399
     77          6           0       -1.517148    4.633912   -3.681349
     78          1           0       -0.533745    4.239383   -4.012557
     79          1           0       -1.537898    5.741480   -3.747760
     80         17           0       -2.807845    3.955749   -4.682766
     81         17           0       -1.824044    4.133768   -2.004968
     82          6           0        2.152785    5.976529   -1.624348
     83          1           0        2.769336    5.935635   -2.545529
     84          1           0        2.790850    5.940499   -0.717843
     85         17           0        1.182825    7.454377   -1.622578
     86         17           0        1.017160    4.613635   -1.609957
     87          6           0       -4.377211    6.883899   -1.686133
     88          1           0       -5.349505    6.941794   -2.215472
     89          1           0       -4.080650    5.825237   -1.523671
     90         17           0       -3.139670    7.717629   -2.638334
     91         17           0       -4.501405    7.715034   -0.130043
 ---------------------------------------------------------------------
 Rotational constants (GHZ):           0.0226148           0.0200571           0.0153430
 ONIOM: saving gridpoint 17
 ONIOM: restoring gridpoint  3 on chk file.
 ONIOM: generating point  3 -- low level on real system.
 Standard basis: VSTO-6G (5D, 7F)
   400 basis functions,  2580 primitive gaussians,   430 cartesian basis functions
   170 alpha electrons      170 beta electrons
       nuclear repulsion energy      5300.2094500652 Hartrees.
 Integral buffers will be    131072 words long.
 Regular integral format.
 Two-electron integral symmetry is turned off.
 Do NDO integrals.
 One-electron integrals computed using PRISM.
 NBasis=   400 RedAO= F EigKep=  0.00D+00  NBF=   400
 NBsUse=   400 1.00D-04 EigRej=  0.00D+00 NBFU=   400
 Initial guess from the checkpoint file:  "a.chk"
 B after Tr=    -0.000084   -0.000099   -0.000176
         Rot=    1.000000   -0.000006    0.000005   -0.000003 Ang=  -0.00 deg.
 Initial guess <Sx>= 0.0000 <Sy>= 0.0000 <Sz>= 0.0000 <S**2>=-0.0000 S=-0.0000
 Keep J ints in memory in canonical form, NReq=3161508.
 Overlap will be assumed to be unity.
 Requested convergence on RMS density matrix=1.00D-08 within  64 cycles.
 Requested convergence on MAX density matrix=1.00D-06.
 Requested convergence on             energy=1.00D-06.
 No special actions if energy rises.
 SCF Done:  E(UPM6) = -0.403896306684     A.U. after   12 cycles
            NFock= 11  Conv=0.94D-08     -V/T= 0.9994
 <Sx>= 0.0000 <Sy>= 0.0000 <Sz>= 0.0000 <S**2>=-0.0000 S=-0.0000
 <L.S>=  0.00000000000    
 Annihilation of the first spin contaminant:
 S**2 before annihilation    -0.0000,   after     0.0000
 QCSCF skips out because SCF is already converged.

 **********************************************************************

            Population analysis using the SCF Density.

 **********************************************************************

 Alpha  occ. eigenvalues --   -1.11183  -1.05598  -1.05303  -1.05249  -1.05165
 Alpha  occ. eigenvalues --   -1.05145  -1.05118  -1.04944  -1.04873  -1.04796
 Alpha  occ. eigenvalues --   -1.04750  -1.04680  -1.04480  -1.04461  -1.04331
 Alpha  occ. eigenvalues --   -1.04103  -1.01684  -0.98569  -0.98269  -0.98179
 Alpha  occ. eigenvalues --   -0.98125  -0.98093  -0.97956  -0.97926  -0.97830
 Alpha  occ. eigenvalues --   -0.97760  -0.97756  -0.97638  -0.97407  -0.97347
 Alpha  occ. eigenvalues --   -0.97238  -0.97206  -0.96991  -0.92231  -0.88749
 Alpha  occ. eigenvalues --   -0.88665  -0.88583  -0.88387  -0.88360  -0.88257
 Alpha  occ. eigenvalues --   -0.88201  -0.88110  -0.88096  -0.88006  -0.87887
 Alpha  occ. eigenvalues --   -0.87662  -0.87558  -0.87496  -0.87210  -0.82575
 Alpha  occ. eigenvalues --   -0.79166  -0.72870  -0.65400  -0.62697  -0.62360
 Alpha  occ. eigenvalues --   -0.62115  -0.61863  -0.61677  -0.61541  -0.61491
 Alpha  occ. eigenvalues --   -0.61311  -0.61258  -0.61146  -0.61055  -0.60907
 Alpha  occ. eigenvalues --   -0.60348  -0.60300  -0.60116  -0.60033  -0.59979
 Alpha  occ. eigenvalues --   -0.59755  -0.59601  -0.59517  -0.59440  -0.59343
 Alpha  occ. eigenvalues --   -0.59256  -0.59193  -0.59103  -0.58976  -0.58927
 Alpha  occ. eigenvalues --   -0.58734  -0.58590  -0.58521  -0.58486  -0.58322
 Alpha  occ. eigenvalues --   -0.58218  -0.58017  -0.57772  -0.57721  -0.57696
 Alpha  occ. eigenvalues --   -0.57651  -0.57580  -0.57511  -0.57496  -0.57380
 Alpha  occ. eigenvalues --   -0.57240  -0.57098  -0.57044  -0.56888  -0.56776
 Alpha  occ. eigenvalues --   -0.55164  -0.53376  -0.52174  -0.51027  -0.49641
 Alpha  occ. eigenvalues --   -0.46173  -0.45354  -0.45040  -0.44756  -0.44242
 Alpha  occ. eigenvalues --   -0.44212  -0.44074  -0.44007  -0.43927  -0.43820
 Alpha  occ. eigenvalues --   -0.43748  -0.43682  -0.43612  -0.43482  -0.43456
 Alpha  occ. eigenvalues --   -0.43413  -0.43398  -0.43379  -0.43319  -0.43279
 Alpha  occ. eigenvalues --   -0.43215  -0.43145  -0.43113  -0.43041  -0.42968
 Alpha  occ. eigenvalues --   -0.42882  -0.42866  -0.42785  -0.42754  -0.42625
 Alpha  occ. eigenvalues --   -0.42585  -0.42473  -0.42365  -0.42288  -0.42086
 Alpha  occ. eigenvalues --   -0.41987  -0.41893  -0.41866  -0.41775  -0.41771
 Alpha  occ. eigenvalues --   -0.41721  -0.41669  -0.41618  -0.41584  -0.41462
 Alpha  occ. eigenvalues --   -0.41332  -0.41281  -0.41268  -0.41224  -0.41214
 Alpha  occ. eigenvalues --   -0.41131  -0.41121  -0.41055  -0.41015  -0.40875
 Alpha  occ. eigenvalues --   -0.40859  -0.40757  -0.40600  -0.40574  -0.40497
 Alpha  occ. eigenvalues --   -0.40347  -0.40320  -0.39605  -0.36930  -0.32815
 Alpha virt. eigenvalues --   -0.03657  -0.01225  -0.00927  -0.00892  -0.00837
 Alpha virt. eigenvalues --   -0.00645  -0.00616  -0.00550  -0.00516  -0.00480
 Alpha virt. eigenvalues --   -0.00459  -0.00449  -0.00378  -0.00362  -0.00253
 Alpha virt. eigenvalues --   -0.00247  -0.00244  -0.00225  -0.00203  -0.00185
 Alpha virt. eigenvalues --   -0.00166  -0.00127  -0.00075  -0.00010   0.00062
 Alpha virt. eigenvalues --    0.00395   0.00400   0.00416   0.00461   0.00498
 Alpha virt. eigenvalues --    0.00619   0.00694   0.02652   0.08950   0.14222
 Alpha virt. eigenvalues --    0.14316   0.14487   0.14607   0.14699   0.14806
 Alpha virt. eigenvalues --    0.14866   0.14930   0.15002   0.15045   0.15089
 Alpha virt. eigenvalues --    0.15132   0.15161   0.15167   0.15280   0.15368
 Alpha virt. eigenvalues --    0.15438   0.15453   0.15528   0.15598   0.15623
 Alpha virt. eigenvalues --    0.15742   0.15770   0.15860   0.15934   0.15945
 Alpha virt. eigenvalues --    0.15984   0.15994   0.16095   0.16381   0.16402
 Alpha virt. eigenvalues --    0.16425   0.16722   0.17044   0.17259   0.17964
 Alpha virt. eigenvalues --    0.18600   0.19336   0.19863   0.20436   0.21144
 Alpha virt. eigenvalues --    0.21329   0.21617   0.21837   0.22181   0.22336
 Alpha virt. eigenvalues --    3.16323   3.16785   3.17344   3.17920   3.18124
 Alpha virt. eigenvalues --    3.18374   3.18636   3.18703   3.18952   3.19084
 Alpha virt. eigenvalues --    3.19106   3.19285   3.19317   3.19546   3.19630
 Alpha virt. eigenvalues --    3.19656   3.19694   3.19831   3.19907   3.19990
 Alpha virt. eigenvalues --    3.20024   3.20189   3.20270   3.20306   3.20443
 Alpha virt. eigenvalues --    3.20486   3.20547   3.20568   3.20628   3.20671
 Alpha virt. eigenvalues --    3.20726   3.20825   3.20885   3.20980   3.21009
 Alpha virt. eigenvalues --    3.21059   3.21126   3.21166   3.21208   3.21245
 Alpha virt. eigenvalues --    3.21427   3.21460   3.21572   3.21724   3.21857
 Alpha virt. eigenvalues --    3.21980   3.22065   3.22130   3.22188   3.22338
 Alpha virt. eigenvalues --    3.22435   3.22519   3.22526   3.22619   3.22742
 Alpha virt. eigenvalues --    3.22811   3.22960   3.23018   3.23161   3.23187
 Alpha virt. eigenvalues --    3.23208   3.23323   3.23383   3.23437   3.23491
 Alpha virt. eigenvalues --    3.23522   3.23589   3.23677   3.23756   3.23793
 Alpha virt. eigenvalues --    3.23850   3.23975   3.23990   3.24008   3.24108
 Alpha virt. eigenvalues --    3.24139   3.24147   3.24259   3.24304   3.24332
 Alpha virt. eigenvalues --    3.24394   3.24497   3.24501   3.24554   3.24654
 Alpha virt. eigenvalues --    3.24678   3.24739   3.24828   3.24867   3.24966
 Alpha virt. eigenvalues --    3.24979   3.25046   3.25078   3.25099   3.25126
 Alpha virt. eigenvalues --    3.25160   3.25313   3.25405   3.25476   3.25524
 Alpha virt. eigenvalues --    3.25565   3.25697   3.25755   3.25786   3.25868
 Alpha virt. eigenvalues --    3.25909   3.25927   3.26003   3.26130   3.26229
 Alpha virt. eigenvalues --    3.26326   3.26353   3.26429   3.26486   3.26788
 Alpha virt. eigenvalues --    3.26847   3.26907   3.27039   3.27048   3.27171
 Alpha virt. eigenvalues --    3.27271   3.27352   3.27403   3.27406   3.27488
 Alpha virt. eigenvalues --    3.27559   3.27655   3.27743   3.27768   3.27848
 Alpha virt. eigenvalues --    3.27890   3.27960   3.28163   3.28170   3.28229
 Alpha virt. eigenvalues --    3.28285   3.28401   3.28479   3.28574   3.28616
 Alpha virt. eigenvalues --    3.28661   3.28708   3.28742   3.28850   3.28965
 Alpha virt. eigenvalues --    3.29164   3.29293   3.29385   3.29726   3.29958
  Beta  occ. eigenvalues --   -1.11183  -1.05598  -1.05303  -1.05249  -1.05165
  Beta  occ. eigenvalues --   -1.05145  -1.05118  -1.04944  -1.04873  -1.04796
  Beta  occ. eigenvalues --   -1.04750  -1.04680  -1.04480  -1.04461  -1.04331
  Beta  occ. eigenvalues --   -1.04103  -1.01684  -0.98569  -0.98269  -0.98179
  Beta  occ. eigenvalues --   -0.98125  -0.98093  -0.97956  -0.97926  -0.97830
  Beta  occ. eigenvalues --   -0.97760  -0.97756  -0.97638  -0.97407  -0.97347
  Beta  occ. eigenvalues --   -0.97238  -0.97206  -0.96991  -0.92231  -0.88749
  Beta  occ. eigenvalues --   -0.88665  -0.88583  -0.88387  -0.88360  -0.88257
  Beta  occ. eigenvalues --   -0.88201  -0.88110  -0.88096  -0.88006  -0.87887
  Beta  occ. eigenvalues --   -0.87662  -0.87558  -0.87496  -0.87210  -0.82575
  Beta  occ. eigenvalues --   -0.79166  -0.72870  -0.65400  -0.62697  -0.62360
  Beta  occ. eigenvalues --   -0.62115  -0.61863  -0.61677  -0.61541  -0.61491
  Beta  occ. eigenvalues --   -0.61311  -0.61258  -0.61146  -0.61055  -0.60907
  Beta  occ. eigenvalues --   -0.60348  -0.60300  -0.60116  -0.60033  -0.59979
  Beta  occ. eigenvalues --   -0.59755  -0.59601  -0.59517  -0.59440  -0.59343
  Beta  occ. eigenvalues --   -0.59256  -0.59193  -0.59103  -0.58976  -0.58927
  Beta  occ. eigenvalues --   -0.58734  -0.58590  -0.58521  -0.58486  -0.58322
  Beta  occ. eigenvalues --   -0.58218  -0.58017  -0.57772  -0.57721  -0.57696
  Beta  occ. eigenvalues --   -0.57651  -0.57580  -0.57511  -0.57496  -0.57380
  Beta  occ. eigenvalues --   -0.57240  -0.57098  -0.57044  -0.56888  -0.56776
  Beta  occ. eigenvalues --   -0.55164  -0.53376  -0.52174  -0.51027  -0.49641
  Beta  occ. eigenvalues --   -0.46173  -0.45354  -0.45040  -0.44756  -0.44242
  Beta  occ. eigenvalues --   -0.44212  -0.44074  -0.44007  -0.43927  -0.43820
  Beta  occ. eigenvalues --   -0.43748  -0.43682  -0.43612  -0.43482  -0.43456
  Beta  occ. eigenvalues --   -0.43413  -0.43398  -0.43379  -0.43319  -0.43279
  Beta  occ. eigenvalues --   -0.43215  -0.43145  -0.43113  -0.43041  -0.42968
  Beta  occ. eigenvalues --   -0.42882  -0.42866  -0.42785  -0.42754  -0.42625
  Beta  occ. eigenvalues --   -0.42585  -0.42473  -0.42365  -0.42288  -0.42086
  Beta  occ. eigenvalues --   -0.41987  -0.41893  -0.41866  -0.41775  -0.41771
  Beta  occ. eigenvalues --   -0.41721  -0.41669  -0.41618  -0.41584  -0.41462
  Beta  occ. eigenvalues --   -0.41332  -0.41281  -0.41268  -0.41224  -0.41214
  Beta  occ. eigenvalues --   -0.41131  -0.41121  -0.41055  -0.41015  -0.40875
  Beta  occ. eigenvalues --   -0.40859  -0.40757  -0.40600  -0.40574  -0.40497
  Beta  occ. eigenvalues --   -0.40347  -0.40320  -0.39605  -0.36930  -0.32815
  Beta virt. eigenvalues --   -0.03657  -0.01225  -0.00927  -0.00892  -0.00837
  Beta virt. eigenvalues --   -0.00645  -0.00616  -0.00550  -0.00516  -0.00480
  Beta virt. eigenvalues --   -0.00459  -0.00449  -0.00378  -0.00362  -0.00253
  Beta virt. eigenvalues --   -0.00247  -0.00244  -0.00225  -0.00203  -0.00185
  Beta virt. eigenvalues --   -0.00166  -0.00127  -0.00075  -0.00010   0.00062
  Beta virt. eigenvalues --    0.00395   0.00400   0.00416   0.00461   0.00498
  Beta virt. eigenvalues --    0.00619   0.00694   0.02652   0.08950   0.14222
  Beta virt. eigenvalues --    0.14316   0.14487   0.14607   0.14699   0.14806
  Beta virt. eigenvalues --    0.14866   0.14930   0.15002   0.15045   0.15089
  Beta virt. eigenvalues --    0.15132   0.15161   0.15167   0.15280   0.15368
  Beta virt. eigenvalues --    0.15438   0.15453   0.15528   0.15598   0.15623
  Beta virt. eigenvalues --    0.15742   0.15770   0.15860   0.15934   0.15945
  Beta virt. eigenvalues --    0.15984   0.15994   0.16095   0.16381   0.16402
  Beta virt. eigenvalues --    0.16425   0.16722   0.17044   0.17259   0.17964
  Beta virt. eigenvalues --    0.18600   0.19336   0.19863   0.20436   0.21144
  Beta virt. eigenvalues --    0.21329   0.21617   0.21837   0.22181   0.22336
  Beta virt. eigenvalues --    3.16323   3.16785   3.17344   3.17920   3.18124
  Beta virt. eigenvalues --    3.18374   3.18636   3.18703   3.18952   3.19084
  Beta virt. eigenvalues --    3.19106   3.19285   3.19317   3.19546   3.19630
  Beta virt. eigenvalues --    3.19656   3.19694   3.19831   3.19907   3.19990
  Beta virt. eigenvalues --    3.20024   3.20189   3.20270   3.20306   3.20443
  Beta virt. eigenvalues --    3.20486   3.20547   3.20568   3.20628   3.20671
  Beta virt. eigenvalues --    3.20726   3.20825   3.20885   3.20980   3.21009
  Beta virt. eigenvalues --    3.21059   3.21126   3.21166   3.21208   3.21245
  Beta virt. eigenvalues --    3.21427   3.21460   3.21572   3.21724   3.21857
  Beta virt. eigenvalues --    3.21980   3.22065   3.22130   3.22188   3.22338
  Beta virt. eigenvalues --    3.22435   3.22519   3.22526   3.22619   3.22742
  Beta virt. eigenvalues --    3.22811   3.22960   3.23018   3.23161   3.23187
  Beta virt. eigenvalues --    3.23208   3.23323   3.23383   3.23437   3.23491
  Beta virt. eigenvalues --    3.23522   3.23589   3.23677   3.23756   3.23793
  Beta virt. eigenvalues --    3.23850   3.23975   3.23990   3.24008   3.24108
  Beta virt. eigenvalues --    3.24139   3.24147   3.24259   3.24304   3.24332
  Beta virt. eigenvalues --    3.24394   3.24497   3.24501   3.24554   3.24654
  Beta virt. eigenvalues --    3.24678   3.24739   3.24828   3.24867   3.24966
  Beta virt. eigenvalues --    3.24979   3.25046   3.25078   3.25099   3.25126
  Beta virt. eigenvalues --    3.25160   3.25313   3.25405   3.25476   3.25524
  Beta virt. eigenvalues --    3.25565   3.25697   3.25755   3.25786   3.25868
  Beta virt. eigenvalues --    3.25909   3.25927   3.26003   3.26130   3.26229
  Beta virt. eigenvalues --    3.26326   3.26353   3.26429   3.26486   3.26788
  Beta virt. eigenvalues --    3.26847   3.26907   3.27039   3.27048   3.27171
  Beta virt. eigenvalues --    3.27271   3.27352   3.27403   3.27406   3.27488
  Beta virt. eigenvalues --    3.27559   3.27655   3.27743   3.27768   3.27848
  Beta virt. eigenvalues --    3.27890   3.27960   3.28163   3.28170   3.28229
  Beta virt. eigenvalues --    3.28285   3.28401   3.28479   3.28574   3.28616
  Beta virt. eigenvalues --    3.28661   3.28708   3.28742   3.28850   3.28965
  Beta virt. eigenvalues --    3.29164   3.29293   3.29385   3.29726   3.29958
          Condensed to atoms (all electrons):
          Atomic-Atomic Spin Densities.
 Mulliken charges and spin densities:
               1          2
     1  C   -0.015041   0.000000
     2  C   -0.141712   0.000000
     3  C   -0.148889   0.000000
     4  C   -0.157189   0.000000
     5  H    0.153315   0.000000
     6  C   -0.128941   0.000000
     7  C   -0.152491   0.000000
     8  H    0.155139   0.000000
     9  C   -0.116678   0.000000
    10  H    0.149059   0.000000
    11  C   -0.366798   0.000000
    12  H    0.156418   0.000000
    13  H    0.151175   0.000000
    14  H    0.145546   0.000000
    15  H    0.156752   0.000000
    16  H    0.162813   0.000000
    17  C   -0.139424   0.000000
    18  H    0.187905   0.000000
    19  H    0.186339   0.000000
    20  Cl  -0.094702   0.000000
    21  Cl  -0.140585   0.000000
    22  C   -0.144862   0.000000
    23  H    0.192830   0.000000
    24  H    0.191729   0.000000
    25  Cl  -0.127605   0.000000
    26  Cl  -0.111246   0.000000
    27  C   -0.143234   0.000000
    28  H    0.198384   0.000000
    29  H    0.196848   0.000000
    30  Cl  -0.126299   0.000000
    31  Cl  -0.126663   0.000000
    32  C   -0.127725   0.000000
    33  H    0.192329   0.000000
    34  H    0.191919   0.000000
    35  Cl  -0.131198   0.000000
    36  Cl  -0.123573   0.000000
    37  C   -0.137171   0.000000
    38  H    0.184764   0.000000
    39  H    0.194553   0.000000
    40  Cl  -0.101194   0.000000
    41  Cl  -0.142655   0.000000
    42  C   -0.132974   0.000000
    43  H    0.194048   0.000000
    44  H    0.195141   0.000000
    45  Cl  -0.141275   0.000000
    46  Cl  -0.114860   0.000000
    47  C   -0.141858   0.000000
    48  H    0.182909   0.000000
    49  H    0.191713   0.000000
    50  Cl  -0.117408   0.000000
    51  Cl  -0.115008   0.000000
    52  C   -0.126407   0.000000
    53  H    0.190361   0.000000
    54  H    0.195676   0.000000
    55  Cl  -0.141948   0.000000
    56  Cl  -0.117480   0.000000
    57  C   -0.138603   0.000000
    58  H    0.199279   0.000000
    59  H    0.193624   0.000000
    60  Cl  -0.134877   0.000000
    61  Cl  -0.112920   0.000000
    62  C   -0.145178   0.000000
    63  H    0.191679   0.000000
    64  H    0.186269   0.000000
    65  Cl  -0.112454   0.000000
    66  Cl  -0.121043   0.000000
    67  C   -0.132758   0.000000
    68  H    0.183889   0.000000
    69  H    0.198686   0.000000
    70  Cl  -0.117007   0.000000
    71  Cl  -0.133598   0.000000
    72  C   -0.139116   0.000000
    73  H    0.191329   0.000000
    74  H    0.189829   0.000000
    75  Cl  -0.137029   0.000000
    76  Cl  -0.106317   0.000000
    77  C   -0.143352   0.000000
    78  H    0.193044   0.000000
    79  H    0.193984   0.000000
    80  Cl  -0.121231   0.000000
    81  Cl  -0.125342   0.000000
    82  C   -0.144877   0.000000
    83  H    0.188770   0.000000
    84  H    0.188147   0.000000
    85  Cl  -0.107654   0.000000
    86  Cl  -0.129069   0.000000
    87  C   -0.149035   0.000000
    88  H    0.186181   0.000000
    89  H    0.193234   0.000000
    90  Cl  -0.116970   0.000000
    91  Cl  -0.112088   0.000000
 Sum of Mulliken charges =  -0.00000   0.00000
 Mulliken charges and spin densities with hydrogens summed into heavy atoms:
               1          2
     1  C   -0.015041   0.000000
     2  C    0.011603   0.000000
     3  C    0.006250   0.000000
     4  C   -0.008130   0.000000
     6  C    0.027477   0.000000
     7  C   -0.001316   0.000000
     9  C    0.028868   0.000000
    11  C   -0.047233   0.000000
    17  C    0.234820   0.000000
    20  Cl  -0.094702   0.000000
    21  Cl  -0.140585   0.000000
    22  C    0.239697   0.000000
    25  Cl  -0.127605   0.000000
    26  Cl  -0.111246   0.000000
    27  C    0.251998   0.000000
    30  Cl  -0.126299   0.000000
    31  Cl  -0.126663   0.000000
    32  C    0.256524   0.000000
    35  Cl  -0.131198   0.000000
    36  Cl  -0.123573   0.000000
    37  C    0.242146   0.000000
    40  Cl  -0.101194   0.000000
    41  Cl  -0.142655   0.000000
    42  C    0.256215   0.000000
    45  Cl  -0.141275   0.000000
    46  Cl  -0.114860   0.000000
    47  C    0.232764   0.000000
    50  Cl  -0.117408   0.000000
    51  Cl  -0.115008   0.000000
    52  C    0.259631   0.000000
    55  Cl  -0.141948   0.000000
    56  Cl  -0.117480   0.000000
    57  C    0.254300   0.000000
    60  Cl  -0.134877   0.000000
    61  Cl  -0.112920   0.000000
    62  C    0.232770   0.000000
    65  Cl  -0.112454   0.000000
    66  Cl  -0.121043   0.000000
    67  C    0.249817   0.000000
    70  Cl  -0.117007   0.000000
    71  Cl  -0.133598   0.000000
    72  C    0.242042   0.000000
    75  Cl  -0.137029   0.000000
    76  Cl  -0.106317   0.000000
    77  C    0.243676   0.000000
    80  Cl  -0.121231   0.000000
    81  Cl  -0.125342   0.000000
    82  C    0.232041   0.000000
    85  Cl  -0.107654   0.000000
    86  Cl  -0.129069   0.000000
    87  C    0.230379   0.000000
    90  Cl  -0.116970   0.000000
    91  Cl  -0.112088   0.000000
 Charge=             -0.0000 electrons
 Dipole moment (field-independent basis, Debye):
    X=             -0.9108    Y=             -0.2255    Z=              0.4653  Tot=              1.0473
 N-N= 5.300209450065D+03 E-N=-9.745641491980D+03  KE=-6.384494292121D+02
 Calling FoFJK, ICntrl=      2127 FMM=F ISym2X=0 I1Cent= 0 IOpClX= 1 NMat=1 NMatS=1 NMatT=0.
 Cartesian Forces:  Max     0.066354585 RMS     0.008859020
 SvSCFP is copying densities from files   528 and   530 to   603.
 ONIOM: saving gridpoint  3
 ONIOM: restoring gridpoint 17
 ONIOM: restoring gridpoint  2 on chk file.
 ONIOM: generating point  2 -- high level on model system.
 Standard basis: 6-31G(d) (6D, 7F)
   136 basis functions,   256 primitive gaussians,   136 cartesian basis functions
    28 alpha electrons       28 beta electrons
       nuclear repulsion energy       319.0633123006 Hartrees.
 NAtoms=   91 NActive=   16 NUniq=   16 SFac= 1.00D+00 NAtFMM=   60 NAOKFM=F Big=F
 Integral buffers will be    131072 words long.
 Regular integral format.
 Two-electron integral symmetry is turned off.
 Nuclear repulsion after empirical dispersion term =      319.0356974675 Hartrees.
 One-electron integrals computed using PRISM.
 NBasis=   136 RedAO= T EigKep=  4.73D-04  NBF=   136
 NBsUse=   136 1.00D-06 EigRej= -1.00D+00 NBFU=   136
 Initial guess from the checkpoint file:  "a.chk"
 B after Tr=     0.000466   -0.000019    0.000166
         Rot=    1.000000   -0.000066   -0.000040    0.000047 Ang=  -0.01 deg.
 Initial guess <Sx>= 0.0000 <Sy>= 0.0000 <Sz>= 0.0000 <S**2>=-0.0000 S=-0.0000
 Requested convergence on RMS density matrix=1.00D-08 within  64 cycles.
 Requested convergence on MAX density matrix=1.00D-06.
 Requested convergence on             energy=1.00D-06.
 No special actions if energy rises.
 SCF Done:  E(UB3LYP) =  -309.636342365     A.U. after    9 cycles
            NFock=  9  Conv=0.48D-08     -V/T= 2.0105
 <Sx>= 0.0000 <Sy>= 0.0000 <Sz>= 0.0000 <S**2>=-0.0000 S=-0.0000
 <L.S>=  0.00000000000    
 Annihilation of the first spin contaminant:
 S**2 before annihilation    -0.0000,   after     0.0000
 QCSCF skips out because SCF is already converged.
 DoSCS=F DFT=T ScalE2(SS,OS)=  1.000000  1.000000
 ExpMin= 1.61D-01 ExpMax= 3.05D+03 ExpMxC= 4.57D+02 IAcc=3 IRadAn=         5 AccDes= 0.00D+00
 HarFok:  IExCor=  205 AccDes= 0.00D+00 IRadAn=         5 IDoV=-2 UseB2=F ITyADJ=14
 ICtDFT= 12500011 ScaDFX=  1.000000  1.000000  1.000000  1.000000
 Range of M.O.s used for correlation:     9   136
 NBasis=   136 NAE=    28 NBE=    28 NFC=     8 NFV=     0
 NROrb=    128 NOA=    20 NOB=    20 NVA=   108 NVB=   108
 Keep R1, R2, and R3 ints in memory in canonical form, NReq=183338682.
    12 initial guesses have been made.
 Convergence on wavefunction:    0.000001000000000
 Iteration     1 Dimension    12 NMult     0 NNew     12
 CISAX will form    12 AO SS matrices at one time.
 New state      2 was old state      3
 New state      3 was old state      8
 Iteration     2 Dimension    18 NMult    12 NNew      6
 New state      2 was old state      3
 New state      3 was old state      2
 Iteration     3 Dimension    24 NMult    18 NNew      6
 Iteration     4 Dimension    30 NMult    24 NNew      6
 Iteration     5 Dimension    36 NMult    30 NNew      6
 Iteration     6 Dimension    42 NMult    36 NNew      6
 Iteration     7 Dimension    48 NMult    42 NNew      6
 Iteration     8 Dimension    54 NMult    48 NNew      6
 Iteration     9 Dimension    58 NMult    54 NNew      4
 ***********************************************************************
 Excited states from <AA,BB:AA,BB> singles matrix:
 ***********************************************************************
 
 ExtSpn:  IState=     1 X2= 1.379 Y2= 0.379 X2-Y2-1= 4.44D-16
          S2Grnd= -0.000 Ra=  0.500 Rb=  0.500 T=  1.000 S2Ext=  2.000 S2=  2.000
 ExtSpn:  IState=     2 X2= 1.026 Y2= 0.026 X2-Y2-1=-8.88D-16
          S2Grnd= -0.000 Ra=  0.500 Rb=  0.500 T=  1.000 S2Ext=  2.000 S2=  2.000
 ExtSpn:  IState=     3 X2= 1.008 Y2= 0.008 X2-Y2-1= 2.22D-16
          S2Grnd= -0.000 Ra=  0.500 Rb=  0.500 T=  1.000 S2Ext=  2.000 S2=  2.000
 Ground to excited state transition densities written to RWF  633
 Ground to excited state transition electric dipole moments (Au):
       state          X           Y           Z        Dip. S.      Osc.
         1        -0.0000     -0.0000      0.0000      0.0000      0.0000
         2        -0.0000     -0.0000      0.0000      0.0000      0.0000
         3        -0.0000     -0.0000      0.0000      0.0000      0.0000
 Ground to excited state transition velocity dipole moments (Au):
       state          X           Y           Z        Dip. S.      Osc.
         1         0.0000     -0.0000      0.0000      0.0000      0.0000
         2         0.0000     -0.0000      0.0000      0.0000      0.0000
         3         0.0000     -0.0000     -0.0000      0.0000      0.0000
 Ground to excited state transition magnetic dipole moments (Au):
       state          X           Y           Z
         1        -0.0000      0.0000      0.0000
         2         0.0000      0.0000      0.0000
         3         0.0000      0.0000      0.0000
 Ground to excited state transition velocity quadrupole moments (Au):
       state          XX          YY          ZZ          XY          XZ          YZ
         1         0.0000      0.0000     -0.0000      0.0000     -0.0000      0.0000
         2         0.0000     -0.0000     -0.0000     -0.0000      0.0000      0.0000
         3         0.0000     -0.0000     -0.0000     -0.0000     -0.0000      0.0000
 <0|del|b> * <b|rxdel|0> + <0|del|b> * <b|delr+rdel|0>
 Rotatory Strengths (R) in cgs (10**-40 erg-esu-cm/Gauss)
       state          XX          YY          ZZ    R(velocity)    E-M Angle
         1        -0.0000      0.0000     -0.0000      0.0000       90.00
         2        -0.0000      0.0000     -0.0000      0.0000       90.00
         3        -0.0000      0.0000      0.0000      0.0000       90.00
 1/2[<0|r|b>*<b|rxdel|0> + (<0|rxdel|b>*<b|r|0>)*]
 Rotatory Strengths (R) in cgs (10**-40 erg-esu-cm/Gauss)
       state          XX          YY          ZZ     R(length)
         1        -0.0000      0.0000     -0.0000     -0.0000
         2         0.0000      0.0000     -0.0000      0.0000
         3         0.0000      0.0000     -0.0000      0.0000
  1/2[<0|del|b>*<b|r|0> + (<0|r|b>*<b|del|0>)*] (Au)
       state          X           Y           Z        Dip. S.   Osc.(frdel)
         1        -0.0000      0.0000      0.0000     -0.0000     -0.0000
         2        -0.0000      0.0000      0.0000     -0.0000     -0.0000
         3        -0.0000      0.0000     -0.0000      0.0000      0.0000

 Excitation energies and oscillator strengths:
 
 Excited state symmetry could not be determined.
 Excited State   1:  3.000-?Sym    0.8583 eV 1444.46 nm  f=0.0000  <S**2>=2.000
     26A -> 29A       -0.14556
     26A -> 31A       -0.12834
     28A -> 29A        0.78499
     28A -> 31A        0.12763
     26B -> 29B        0.14556
     26B -> 31B        0.12834
     28B -> 29B       -0.78499
     28B -> 31B       -0.12763
     28A <- 29A        0.39081
     28B <- 29B       -0.39081
 This state for optimization and/or second-order correction.
 Total Energy, E(TD-HF/TD-DFT) =  -309.604798814    
 Copying the excited state density for this state as the 1-particle RhoCI density.
 
 Excited state symmetry could not be determined.
 Excited State   2:  3.000-?Sym    3.7336 eV  332.08 nm  f=0.0000  <S**2>=2.000
     26A -> 29A       -0.45601
     27A -> 29A        0.29708
     27A -> 30A       -0.27337
     28A -> 31A        0.31843
     26B -> 29B        0.45601
     27B -> 29B       -0.29708
     27B -> 30B        0.27337
     28B -> 31B       -0.31843
 
 Excited state symmetry could not be determined.
 Excited State   3:  3.000-?Sym    3.8705 eV  320.33 nm  f=0.0000  <S**2>=2.000
     26A -> 29A       -0.23639
     27A -> 29A       -0.54326
     27A -> 30A       -0.11237
     28A -> 30A       -0.31472
     28A -> 31A        0.15051
     26B -> 29B        0.23639
     27B -> 29B        0.54326
     27B -> 30B        0.11237
     28B -> 30B        0.31472
     28B -> 31B       -0.15051
 SavETr:  write IOETrn=   770 NScale= 10 NData=  16 NLR=1 NState=    3 LETran=      64.
          IDoAtm=11111111111111110000000000000000000000000000000000
          IDoAtm=00000000000000000000000000000000000000000
          Differentiating once with respect to electric field.
                with respect to dipole field.
          Differentiating once with respect to nuclear coordinates.
 Keep R1 and R2 ints in memory in canonical form, NReq=114009024.
          There are     1 degrees of freedom in the 1st order CPHF.  IDoFFX=0 NUNeed=     1.
 LinEq1:  Iter=  0 NonCon=     1 RMS=2.38D-03 Max=4.73D-02 NDo=     1
 AX will form     1 AO Fock derivatives at one time.
 LinEq1:  Iter=  1 NonCon=     1 RMS=2.98D-03 Max=1.30D-01 NDo=     1
 LinEq1:  Iter=  2 NonCon=     1 RMS=1.16D-03 Max=1.47D-02 NDo=     1
 LinEq1:  Iter=  3 NonCon=     1 RMS=5.84D-04 Max=1.19D-02 NDo=     1
 LinEq1:  Iter=  4 NonCon=     1 RMS=3.35D-04 Max=9.23D-03 NDo=     1
 LinEq1:  Iter=  5 NonCon=     1 RMS=2.17D-04 Max=4.53D-03 NDo=     1
 LinEq1:  Iter=  6 NonCon=     1 RMS=9.91D-05 Max=1.50D-03 NDo=     1
 LinEq1:  Iter=  7 NonCon=     1 RMS=4.74D-05 Max=7.29D-04 NDo=     1
 LinEq1:  Iter=  8 NonCon=     1 RMS=2.30D-05 Max=3.80D-04 NDo=     1
 LinEq1:  Iter=  9 NonCon=     1 RMS=1.64D-05 Max=3.59D-04 NDo=     1
 LinEq1:  Iter= 10 NonCon=     1 RMS=9.57D-06 Max=1.74D-04 NDo=     1
 LinEq1:  Iter= 11 NonCon=     1 RMS=5.16D-06 Max=6.34D-05 NDo=     1
 LinEq1:  Iter= 12 NonCon=     1 RMS=1.55D-06 Max=1.90D-05 NDo=     1
 LinEq1:  Iter= 13 NonCon=     1 RMS=4.36D-07 Max=4.94D-06 NDo=     1
 LinEq1:  Iter= 14 NonCon=     1 RMS=9.20D-08 Max=1.42D-06 NDo=     1
 LinEq1:  Iter= 15 NonCon=     1 RMS=6.74D-08 Max=1.19D-06 NDo=     1
 LinEq1:  Iter= 16 NonCon=     1 RMS=2.01D-08 Max=2.46D-07 NDo=     1
 LinEq1:  Iter= 17 NonCon=     1 RMS=6.86D-09 Max=1.51D-07 NDo=     1
 LinEq1:  Iter= 18 NonCon=     1 RMS=3.61D-09 Max=5.01D-08 NDo=     1
 LinEq1:  Iter= 19 NonCon=     1 RMS=1.03D-09 Max=1.42D-08 NDo=     1
 LinEq1:  Iter= 20 NonCon=     1 RMS=1.95D-10 Max=1.89D-09 NDo=     1
 LinEq1:  Iter= 21 NonCon=     0 RMS=3.74D-11 Max=2.92D-10 NDo=     1
 Linear equations converged to 1.000D-10 1.000D-09 after    21 iterations.
 End of Minotr F.D. properties file   721 does not exist.
 End of Minotr F.D. properties file   722 does not exist.
 End of Minotr F.D. properties file   788 does not exist.

 **********************************************************************

            Population analysis using the SCF Density.

 **********************************************************************

 Alpha  occ. eigenvalues --  -10.20188 -10.19623 -10.19173 -10.19047 -10.18939
 Alpha  occ. eigenvalues --  -10.18875 -10.18860 -10.18750  -0.85510  -0.78127
 Alpha  occ. eigenvalues --   -0.74541  -0.70757  -0.62591  -0.59982  -0.55858
 Alpha  occ. eigenvalues --   -0.50835  -0.46721  -0.45082  -0.43085  -0.41915
 Alpha  occ. eigenvalues --   -0.40064  -0.38948  -0.36608  -0.34990  -0.33469
 Alpha  occ. eigenvalues --   -0.28052  -0.25153  -0.19754
 Alpha virt. eigenvalues --   -0.05897   0.00401   0.04265   0.09746   0.12130
 Alpha virt. eigenvalues --    0.13289   0.16031   0.16238   0.17322   0.18390
 Alpha virt. eigenvalues --    0.19903   0.21589   0.26695   0.28206   0.30688
 Alpha virt. eigenvalues --    0.33597   0.36455   0.37654   0.46157   0.52006
 Alpha virt. eigenvalues --    0.52786   0.54277   0.54971   0.56565   0.57399
 Alpha virt. eigenvalues --    0.58844   0.59117   0.59670   0.61252   0.62064
 Alpha virt. eigenvalues --    0.62280   0.63576   0.64999   0.65994   0.68871
 Alpha virt. eigenvalues --    0.71989   0.77280   0.82674   0.83635   0.83953
 Alpha virt. eigenvalues --    0.85020   0.85508   0.88897   0.90680   0.92763
 Alpha virt. eigenvalues --    0.93649   0.94108   0.95799   0.99261   1.01528
 Alpha virt. eigenvalues --    1.04770   1.08730   1.14638   1.16671   1.18307
 Alpha virt. eigenvalues --    1.25941   1.29195   1.33574   1.39324   1.44091
 Alpha virt. eigenvalues --    1.44844   1.45658   1.48477   1.49564   1.51316
 Alpha virt. eigenvalues --    1.64201   1.72131   1.77646   1.80108   1.85817
 Alpha virt. eigenvalues --    1.88504   1.89902   1.91745   1.94930   1.97197
 Alpha virt. eigenvalues --    1.98474   2.04998   2.10963   2.11310   2.14609
 Alpha virt. eigenvalues --    2.14955   2.17894   2.22451   2.26727   2.32294
 Alpha virt. eigenvalues --    2.32948   2.35636   2.47817   2.51091   2.57072
 Alpha virt. eigenvalues --    2.59599   2.62440   2.65934   2.73956   2.75525
 Alpha virt. eigenvalues --    2.76947   2.86068   2.91853   3.13786   3.41584
 Alpha virt. eigenvalues --    4.07317   4.09575   4.12240   4.13915   4.25069
 Alpha virt. eigenvalues --    4.32814   4.42440   4.71085
  Beta  occ. eigenvalues --  -10.20188 -10.19623 -10.19173 -10.19047 -10.18939
  Beta  occ. eigenvalues --  -10.18875 -10.18860 -10.18750  -0.85510  -0.78127
  Beta  occ. eigenvalues --   -0.74541  -0.70757  -0.62591  -0.59982  -0.55858
  Beta  occ. eigenvalues --   -0.50835  -0.46721  -0.45082  -0.43085  -0.41915
  Beta  occ. eigenvalues --   -0.40064  -0.38948  -0.36608  -0.34990  -0.33469
  Beta  occ. eigenvalues --   -0.28052  -0.25153  -0.19754
  Beta virt. eigenvalues --   -0.05897   0.00401   0.04265   0.09746   0.12130
  Beta virt. eigenvalues --    0.13289   0.16031   0.16238   0.17322   0.18390
  Beta virt. eigenvalues --    0.19903   0.21589   0.26695   0.28206   0.30688
  Beta virt. eigenvalues --    0.33597   0.36455   0.37654   0.46157   0.52006
  Beta virt. eigenvalues --    0.52786   0.54277   0.54971   0.56565   0.57399
  Beta virt. eigenvalues --    0.58844   0.59117   0.59670   0.61252   0.62064
  Beta virt. eigenvalues --    0.62280   0.63576   0.64999   0.65994   0.68871
  Beta virt. eigenvalues --    0.71989   0.77280   0.82674   0.83635   0.83953
  Beta virt. eigenvalues --    0.85020   0.85508   0.88897   0.90680   0.92763
  Beta virt. eigenvalues --    0.93649   0.94108   0.95799   0.99261   1.01528
  Beta virt. eigenvalues --    1.04770   1.08730   1.14638   1.16671   1.18307
  Beta virt. eigenvalues --    1.25941   1.29195   1.33574   1.39324   1.44091
  Beta virt. eigenvalues --    1.44844   1.45658   1.48477   1.49564   1.51316
  Beta virt. eigenvalues --    1.64201   1.72131   1.77646   1.80108   1.85817
  Beta virt. eigenvalues --    1.88504   1.89902   1.91745   1.94930   1.97197
  Beta virt. eigenvalues --    1.98474   2.04998   2.10963   2.11310   2.14609
  Beta virt. eigenvalues --    2.14955   2.17894   2.22451   2.26727   2.32294
  Beta virt. eigenvalues --    2.32948   2.35636   2.47817   2.51091   2.57072
  Beta virt. eigenvalues --    2.59599   2.62440   2.65934   2.73956   2.75525
  Beta virt. eigenvalues --    2.76947   2.86068   2.91853   3.13786   3.41584
  Beta virt. eigenvalues --    4.07317   4.09575   4.12240   4.13915   4.25069
  Beta virt. eigenvalues --    4.32814   4.42440   4.71085
          Condensed to atoms (all electrons):
          Atomic-Atomic Spin Densities.
 Mulliken charges and spin densities:
               1          2
     1  C    0.186551   0.000000
     2  C   -0.187395  -0.000000
     3  C   -0.175245  -0.000000
     4  C   -0.127700   0.000000
     5  H    0.127191  -0.000000
     6  C   -0.162440  -0.000000
     7  C   -0.127312  -0.000000
     8  H    0.129407  -0.000000
     9  C   -0.130990   0.000000
    10  H    0.129964  -0.000000
    11  C   -0.369173   0.000000
    12  H    0.138905  -0.000000
    13  H    0.129947  -0.000000
    14  H    0.130602  -0.000000
    15  H    0.152259  -0.000000
    16  H    0.155428  -0.000000
    17  C    0.000000   0.000000
    18  H    0.000000   0.000000
    19  H    0.000000   0.000000
    20  Cl   0.000000   0.000000
    21  Cl   0.000000   0.000000
    22  C    0.000000   0.000000
    23  H    0.000000   0.000000
    24  H    0.000000   0.000000
    25  Cl   0.000000   0.000000
    26  Cl   0.000000   0.000000
    27  C    0.000000   0.000000
    28  H    0.000000   0.000000
    29  H    0.000000   0.000000
    30  Cl   0.000000   0.000000
    31  Cl   0.000000   0.000000
    32  C    0.000000   0.000000
    33  H    0.000000   0.000000
    34  H    0.000000   0.000000
    35  Cl   0.000000   0.000000
    36  Cl   0.000000   0.000000
    37  C    0.000000   0.000000
    38  H    0.000000   0.000000
    39  H    0.000000   0.000000
    40  Cl   0.000000   0.000000
    41  Cl   0.000000   0.000000
    42  C    0.000000   0.000000
    43  H    0.000000   0.000000
    44  H    0.000000   0.000000
    45  Cl   0.000000   0.000000
    46  Cl   0.000000   0.000000
    47  C    0.000000   0.000000
    48  H    0.000000   0.000000
    49  H    0.000000   0.000000
    50  Cl   0.000000   0.000000
    51  Cl   0.000000   0.000000
    52  C    0.000000   0.000000
    53  H    0.000000   0.000000
    54  H    0.000000   0.000000
    55  Cl   0.000000   0.000000
    56  Cl   0.000000   0.000000
    57  C    0.000000   0.000000
    58  H    0.000000   0.000000
    59  H    0.000000   0.000000
    60  Cl   0.000000   0.000000
    61  Cl   0.000000   0.000000
    62  C    0.000000   0.000000
    63  H    0.000000   0.000000
    64  H    0.000000   0.000000
    65  Cl   0.000000   0.000000
    66  Cl   0.000000   0.000000
    67  C    0.000000   0.000000
    68  H    0.000000   0.000000
    69  H    0.000000   0.000000
    70  Cl   0.000000   0.000000
    71  Cl   0.000000   0.000000
    72  C    0.000000   0.000000
    73  H    0.000000   0.000000
    74  H    0.000000   0.000000
    75  Cl   0.000000   0.000000
    76  Cl   0.000000   0.000000
    77  C    0.000000   0.000000
    78  H    0.000000   0.000000
    79  H    0.000000   0.000000
    80  Cl   0.000000   0.000000
    81  Cl   0.000000   0.000000
    82  C    0.000000   0.000000
    83  H    0.000000   0.000000
    84  H    0.000000   0.000000
    85  Cl   0.000000   0.000000
    86  Cl   0.000000   0.000000
    87  C    0.000000   0.000000
    88  H    0.000000   0.000000
    89  H    0.000000   0.000000
    90  Cl   0.000000   0.000000
    91  Cl   0.000000   0.000000
 Sum of Mulliken charges =  -0.00000  -0.00000
 Mulliken charges and spin densities with hydrogens summed into heavy atoms:
               1          2
     1  C    0.186551   0.000000
     2  C   -0.060204  -0.000000
     3  C   -0.045838  -0.000000
     4  C    0.002265  -0.000000
     6  C   -0.023535  -0.000000
     7  C    0.002635  -0.000000
     9  C   -0.000387   0.000000
    11  C   -0.061487   0.000000
    17  C    0.000000   0.000000
    20  Cl   0.000000   0.000000
    21  Cl   0.000000   0.000000
    22  C    0.000000   0.000000
    25  Cl   0.000000   0.000000
    26  Cl   0.000000   0.000000
    27  C    0.000000   0.000000
    30  Cl   0.000000   0.000000
    31  Cl   0.000000   0.000000
    32  C    0.000000   0.000000
    35  Cl   0.000000   0.000000
    36  Cl   0.000000   0.000000
    37  C    0.000000   0.000000
    40  Cl   0.000000   0.000000
    41  Cl   0.000000   0.000000
    42  C    0.000000   0.000000
    45  Cl   0.000000   0.000000
    46  Cl   0.000000   0.000000
    47  C    0.000000   0.000000
    50  Cl   0.000000   0.000000
    51  Cl   0.000000   0.000000
    52  C    0.000000   0.000000
    55  Cl   0.000000   0.000000
    56  Cl   0.000000   0.000000
    57  C    0.000000   0.000000
    60  Cl   0.000000   0.000000
    61  Cl   0.000000   0.000000
    62  C    0.000000   0.000000
    65  Cl   0.000000   0.000000
    66  Cl   0.000000   0.000000
    67  C    0.000000   0.000000
    70  Cl   0.000000   0.000000
    71  Cl   0.000000   0.000000
    72  C    0.000000   0.000000
    75  Cl   0.000000   0.000000
    76  Cl   0.000000   0.000000
    77  C    0.000000   0.000000
    80  Cl   0.000000   0.000000
    81  Cl   0.000000   0.000000
    82  C    0.000000   0.000000
    85  Cl   0.000000   0.000000
    86  Cl   0.000000   0.000000
    87  C    0.000000   0.000000
    90  Cl   0.000000   0.000000
    91  Cl   0.000000   0.000000
 Electronic spatial extent (au):  <R**2>=            995.7666
 Charge=             -0.0000 electrons
 Dipole moment (field-independent basis, Debye):
    X=             -0.2703    Y=             -0.1306    Z=             -0.0057  Tot=              0.3002
 Quadrupole moment (field-independent basis, Debye-Ang):
   XX=            -43.0357   YY=            -44.3231   ZZ=            -48.7532
   XY=              0.0222   XZ=              0.0692   YZ=             -3.6705
 Traceless Quadrupole moment (field-independent basis, Debye-Ang):
   XX=              2.3350   YY=              1.0476   ZZ=             -3.3825
   XY=              0.0222   XZ=              0.0692   YZ=             -3.6705
 Octapole moment (field-independent basis, Debye-Ang**2):
  XXX=             -4.8907  YYY=              6.7628  ZZZ=             30.5222  XYY=              0.5612
  XXY=              4.9602  XXZ=             13.0868  XZZ=              2.1220  YZZ=              5.8288
  YYZ=             11.2257  XYZ=              0.2602
 Hexadecapole moment (field-independent basis, Debye-Ang**3):
 XXXX=           -854.3622 YYYY=           -305.1081 ZZZZ=           -155.5617 XXXY=            -49.8890
 XXXZ=             74.3640 YYYX=            -65.2765 YYYZ=             58.6400 ZZZX=             64.8541
 ZZZY=             67.4029 XXYY=           -189.0030 XXZZ=           -186.4936 YYZZ=            -73.7896
 XXYZ=             10.7304 YYXZ=             19.5399 ZZXY=            -17.4764
 N-N= 3.190356974675D+02 E-N=-1.354314397191D+03  KE= 3.064263452981D+02
                          Isotropic Fermi Contact Couplings
        Atom                 a.u.       MegaHertz       Gauss      10(-4) cm-1
     1  C(13)              0.00000       0.00000       0.00000       0.00000
     2  C(13)              0.00000       0.00000       0.00000       0.00000
     3  C(13)             -0.00000      -0.00000      -0.00000      -0.00000
     4  C(13)              0.00000       0.00000       0.00000       0.00000
     5  H(1)              -0.00000      -0.00000      -0.00000      -0.00000
     6  C(13)             -0.00000      -0.00000      -0.00000      -0.00000
     7  C(13)             -0.00000      -0.00000      -0.00000      -0.00000
     8  H(1)              -0.00000      -0.00000      -0.00000      -0.00000
     9  C(13)             -0.00000      -0.00000      -0.00000      -0.00000
    10  H(1)              -0.00000      -0.00000      -0.00000      -0.00000
    11  C(13)             -0.00000      -0.00000      -0.00000      -0.00000
    12  H(1)              -0.00000      -0.00000      -0.00000      -0.00000
    13  H(1)              -0.00000      -0.00000      -0.00000      -0.00000
    14  H(1)              -0.00000      -0.00000      -0.00000      -0.00000
    15  H(1)               0.00000       0.00000       0.00000       0.00000
    16  H(1)               0.00000       0.00000       0.00000       0.00000
 --------------------------------------------------------
       Center         ----  Spin Dipole Couplings  ----
                      3XX-RR        3YY-RR        3ZZ-RR
 --------------------------------------------------------
     1   Atom        0.000000      0.000000      0.000000
     2   Atom        0.000000      0.000000      0.000000
     3   Atom        0.000000      0.000000      0.000000
     4   Atom        0.000000      0.000000      0.000000
     5   Atom        0.000000      0.000000      0.000000
     6   Atom        0.000000      0.000000      0.000000
     7   Atom        0.000000      0.000000      0.000000
     8   Atom        0.000000      0.000000      0.000000
     9   Atom        0.000000      0.000000      0.000000
    10   Atom        0.000000      0.000000      0.000000
    11   Atom        0.000000      0.000000      0.000000
    12   Atom        0.000000      0.000000      0.000000
    13   Atom        0.000000      0.000000      0.000000
    14   Atom        0.000000      0.000000      0.000000
    15   Atom        0.000000      0.000000      0.000000
    16   Atom        0.000000      0.000000      0.000000
 --------------------------------------------------------
                        XY            XZ            YZ
 --------------------------------------------------------
     1   Atom        0.000000      0.000000      0.000000
     2   Atom        0.000000      0.000000      0.000000
     3   Atom        0.000000      0.000000      0.000000
     4   Atom        0.000000      0.000000      0.000000
     5   Atom        0.000000      0.000000      0.000000
     6   Atom        0.000000      0.000000      0.000000
     7   Atom        0.000000      0.000000      0.000000
     8   Atom        0.000000      0.000000      0.000000
     9   Atom        0.000000      0.000000      0.000000
    10   Atom        0.000000      0.000000      0.000000
    11   Atom        0.000000      0.000000      0.000000
    12   Atom        0.000000      0.000000      0.000000
    13   Atom        0.000000      0.000000      0.000000
    14   Atom        0.000000      0.000000      0.000000
    15   Atom        0.000000      0.000000      0.000000
    16   Atom        0.000000      0.000000      0.000000
 --------------------------------------------------------


 ---------------------------------------------------------------------------------
              Anisotropic Spin Dipole Couplings in Principal Axis System
 ---------------------------------------------------------------------------------

       Atom             a.u.   MegaHertz   Gauss  10(-4) cm-1        Axes

              Baa     0.0000     0.000     0.000     0.000  1.0000  0.0000  0.0000
     1 C(13)  Bbb     0.0000     0.000     0.000     0.000 -0.0000  1.0000  0.0000
              Bcc     0.0000     0.000     0.000     0.000  0.0000  0.0000  1.0000
 
              Baa     0.0000     0.000     0.000     0.000  1.0000  0.0000  0.0000
     2 C(13)  Bbb     0.0000     0.000     0.000     0.000 -0.0000  1.0000  0.0000
              Bcc     0.0000     0.000     0.000     0.000  0.0000  0.0000  1.0000
 
              Baa     0.0000     0.000     0.000     0.000  1.0000  0.0000  0.0000
     3 C(13)  Bbb     0.0000     0.000     0.000     0.000 -0.0000  1.0000  0.0000
              Bcc     0.0000     0.000     0.000     0.000  0.0000  0.0000  1.0000
 
              Baa     0.0000     0.000     0.000     0.000  1.0000  0.0000  0.0000
     4 C(13)  Bbb     0.0000     0.000     0.000     0.000 -0.0000  1.0000  0.0000
              Bcc     0.0000     0.000     0.000     0.000  0.0000  0.0000  1.0000
 
              Baa     0.0000     0.000     0.000     0.000  1.0000  0.0000  0.0000
     5 H(1)   Bbb     0.0000     0.000     0.000     0.000 -0.0000  1.0000  0.0000
              Bcc     0.0000     0.000     0.000     0.000  0.0000  0.0000  1.0000
 
              Baa     0.0000     0.000     0.000     0.000  1.0000  0.0000  0.0000
     6 C(13)  Bbb     0.0000     0.000     0.000     0.000 -0.0000  1.0000  0.0000
              Bcc     0.0000     0.000     0.000     0.000  0.0000  0.0000  1.0000
 
              Baa     0.0000     0.000     0.000     0.000  1.0000  0.0000  0.0000
     7 C(13)  Bbb     0.0000     0.000     0.000     0.000 -0.0000  1.0000  0.0000
              Bcc     0.0000     0.000     0.000     0.000  0.0000  0.0000  1.0000
 
              Baa     0.0000     0.000     0.000     0.000  1.0000  0.0000  0.0000
     8 H(1)   Bbb     0.0000     0.000     0.000     0.000 -0.0000  1.0000  0.0000
              Bcc     0.0000     0.000     0.000     0.000  0.0000  0.0000  1.0000
 
              Baa     0.0000     0.000     0.000     0.000  1.0000  0.0000  0.0000
     9 C(13)  Bbb     0.0000     0.000     0.000     0.000 -0.0000  1.0000  0.0000
              Bcc     0.0000     0.000     0.000     0.000  0.0000  0.0000  1.0000
 
              Baa     0.0000     0.000     0.000     0.000  1.0000  0.0000  0.0000
    10 H(1)   Bbb     0.0000     0.000     0.000     0.000 -0.0000  1.0000  0.0000
              Bcc     0.0000     0.000     0.000     0.000  0.0000  0.0000  1.0000
 
              Baa     0.0000     0.000     0.000     0.000  1.0000  0.0000  0.0000
    11 C(13)  Bbb     0.0000     0.000     0.000     0.000 -0.0000  1.0000  0.0000
              Bcc     0.0000     0.000     0.000     0.000  0.0000  0.0000  1.0000
 
              Baa     0.0000     0.000     0.000     0.000  1.0000  0.0000  0.0000
    12 H(1)   Bbb     0.0000     0.000     0.000     0.000 -0.0000  1.0000  0.0000
              Bcc     0.0000     0.000     0.000     0.000  0.0000  0.0000  1.0000
 
              Baa     0.0000     0.000     0.000     0.000  1.0000  0.0000  0.0000
    13 H(1)   Bbb     0.0000     0.000     0.000     0.000 -0.0000  1.0000  0.0000
              Bcc     0.0000     0.000     0.000     0.000  0.0000  0.0000  1.0000
 
              Baa     0.0000     0.000     0.000     0.000  1.0000  0.0000  0.0000
    14 H(1)   Bbb     0.0000     0.000     0.000     0.000 -0.0000  1.0000  0.0000
              Bcc     0.0000     0.000     0.000     0.000  0.0000  0.0000  1.0000
 
              Baa     0.0000     0.000     0.000     0.000  1.0000  0.0000  0.0000
    15 H(1)   Bbb     0.0000     0.000     0.000     0.000 -0.0000  1.0000  0.0000
              Bcc     0.0000     0.000     0.000     0.000  0.0000  0.0000  1.0000
 
              Baa     0.0000     0.000     0.000     0.000  1.0000  0.0000  0.0000
    16 H(1)   Bbb     0.0000     0.000     0.000     0.000 -0.0000  1.0000  0.0000
              Bcc     0.0000     0.000     0.000     0.000  0.0000  0.0000  1.0000
 

 ---------------------------------------------------------------------------------

 Calling FoFJK, ICntrl=  10005127 FMM=F ISym2X=0 I1Cent= 0 IOpClX= 1 NMat=1 NMatS=1 NMatT=0.
 Cartesian Forces:  Max     0.079933819 RMS     0.010585775
 SvSCFP is copying densities from files   528 and   530 to   603.
 ONIOM: saving gridpoint  2
 ONIOM: restoring gridpoint 17
 ONIOM: restoring gridpoint  1 on chk file.
 ONIOM: generating point  1 -- low level on model system.
 Standard basis: VSTO-6G (5D, 7F)
    40 basis functions,   240 primitive gaussians,    40 cartesian basis functions
    20 alpha electrons       20 beta electrons
       nuclear repulsion energy       184.5116989771 Hartrees.
 Integral buffers will be    131072 words long.
 Regular integral format.
 Two-electron integral symmetry is turned off.
 Do NDO integrals.
 One-electron integrals computed using PRISM.
 NBasis=    40 RedAO= F EigKep=  0.00D+00  NBF=    40
 NBsUse=    40 1.00D-04 EigRej=  0.00D+00 NBFU=    40
 Initial guess from the checkpoint file:  "a.chk"
 B after Tr=     0.000466   -0.000019    0.000166
         Rot=    1.000000   -0.000066   -0.000040    0.000047 Ang=  -0.01 deg.
 Initial guess <Sx>= 0.0000 <Sy>= 0.0000 <Sz>= 0.0000 <S**2>= 0.8784 S= 0.5623
 Keep J ints in memory in canonical form, NReq=867663.
 Overlap will be assumed to be unity.
 Requested convergence on RMS density matrix=1.00D-08 within  64 cycles.
 Requested convergence on MAX density matrix=1.00D-06.
 Requested convergence on             energy=1.00D-06.
 No special actions if energy rises.
 SCF Done:  E(UPM6) =  0.861419719858E-01 A.U. after   16 cycles
            NFock= 15  Conv=0.65D-08     -V/T= 1.0014
 <Sx>= 0.0000 <Sy>= 0.0000 <Sz>= 0.0000 <S**2>= 0.8762 S= 0.5612
 <L.S>=  0.00000000000    
 Annihilation of the first spin contaminant:
 S**2 before annihilation     0.8762,   after     1.1421
 QCSCF skips out because SCF is already converged.

 **********************************************************************

            Population analysis using the SCF Density.

 **********************************************************************

 Alpha  occ. eigenvalues --   -1.09764  -1.00163  -0.95863  -0.90527  -0.81193
 Alpha  occ. eigenvalues --   -0.77834  -0.71380  -0.63766  -0.58673  -0.56634
 Alpha  occ. eigenvalues --   -0.54031  -0.52319  -0.50775  -0.49748  -0.48183
 Alpha  occ. eigenvalues --   -0.44844  -0.43192  -0.39585  -0.36800  -0.32075
 Alpha virt. eigenvalues --    0.00639   0.01821   0.04432   0.10007   0.15560
 Alpha virt. eigenvalues --    0.15670   0.17684   0.18312   0.18548   0.19251
 Alpha virt. eigenvalues --    0.19823   0.20421   0.21139   0.21558   0.22345
 Alpha virt. eigenvalues --    0.22665   0.22831   0.22952   0.23405   0.23461
  Beta  occ. eigenvalues --   -1.09703  -1.00085  -0.95815  -0.90664  -0.81231
  Beta  occ. eigenvalues --   -0.77840  -0.71474  -0.63589  -0.58584  -0.56699
  Beta  occ. eigenvalues --   -0.54170  -0.52277  -0.50785  -0.49543  -0.48034
  Beta  occ. eigenvalues --   -0.44722  -0.43198  -0.38743  -0.36163  -0.34115
  Beta virt. eigenvalues --   -0.01184   0.02414   0.05207   0.10535   0.15501
  Beta virt. eigenvalues --    0.15835   0.17661   0.18386   0.18619   0.19257
  Beta virt. eigenvalues --    0.19880   0.20611   0.21088   0.21500   0.22286
  Beta virt. eigenvalues --    0.22405   0.22735   0.23018   0.23399   0.23523
          Condensed to atoms (all electrons):
          Atomic-Atomic Spin Densities.
 Mulliken charges and spin densities:
               1          2
     1  C    0.030087  -0.395686
     2  C   -0.171948   0.382948
     3  C   -0.157968   0.393925
     4  C   -0.135808  -0.323090
     5  H    0.147542  -0.013423
     6  C   -0.150591   0.708548
     7  C   -0.141664  -0.324738
     8  H    0.150944  -0.013520
     9  C   -0.146346   0.385593
    10  H    0.144426   0.011279
    11  C   -0.309385  -0.847380
    12  H    0.149361  -0.033976
    13  H    0.144684   0.011375
    14  H    0.144998  -0.013272
    15  H    0.150105   0.034900
    16  H    0.151561   0.036517
    17  C    0.000000   0.000000
    18  H    0.000000   0.000000
    19  H    0.000000   0.000000
    20  Cl   0.000000   0.000000
    21  Cl   0.000000   0.000000
    22  C    0.000000   0.000000
    23  H    0.000000   0.000000
    24  H    0.000000   0.000000
    25  Cl   0.000000   0.000000
    26  Cl   0.000000   0.000000
    27  C    0.000000   0.000000
    28  H    0.000000   0.000000
    29  H    0.000000   0.000000
    30  Cl   0.000000   0.000000
    31  Cl   0.000000   0.000000
    32  C    0.000000   0.000000
    33  H    0.000000   0.000000
    34  H    0.000000   0.000000
    35  Cl   0.000000   0.000000
    36  Cl   0.000000   0.000000
    37  C    0.000000   0.000000
    38  H    0.000000   0.000000
    39  H    0.000000   0.000000
    40  Cl   0.000000   0.000000
    41  Cl   0.000000   0.000000
    42  C    0.000000   0.000000
    43  H    0.000000   0.000000
    44  H    0.000000   0.000000
    45  Cl   0.000000   0.000000
    46  Cl   0.000000   0.000000
    47  C    0.000000   0.000000
    48  H    0.000000   0.000000
    49  H    0.000000   0.000000
    50  Cl   0.000000   0.000000
    51  Cl   0.000000   0.000000
    52  C    0.000000   0.000000
    53  H    0.000000   0.000000
    54  H    0.000000   0.000000
    55  Cl   0.000000   0.000000
    56  Cl   0.000000   0.000000
    57  C    0.000000   0.000000
    58  H    0.000000   0.000000
    59  H    0.000000   0.000000
    60  Cl   0.000000   0.000000
    61  Cl   0.000000   0.000000
    62  C    0.000000   0.000000
    63  H    0.000000   0.000000
    64  H    0.000000   0.000000
    65  Cl   0.000000   0.000000
    66  Cl   0.000000   0.000000
    67  C    0.000000   0.000000
    68  H    0.000000   0.000000
    69  H    0.000000   0.000000
    70  Cl   0.000000   0.000000
    71  Cl   0.000000   0.000000
    72  C    0.000000   0.000000
    73  H    0.000000   0.000000
    74  H    0.000000   0.000000
    75  Cl   0.000000   0.000000
    76  Cl   0.000000   0.000000
    77  C    0.000000   0.000000
    78  H    0.000000   0.000000
    79  H    0.000000   0.000000
    80  Cl   0.000000   0.000000
    81  Cl   0.000000   0.000000
    82  C    0.000000   0.000000
    83  H    0.000000   0.000000
    84  H    0.000000   0.000000
    85  Cl   0.000000   0.000000
    86  Cl   0.000000   0.000000
    87  C    0.000000   0.000000
    88  H    0.000000   0.000000
    89  H    0.000000   0.000000
    90  Cl   0.000000   0.000000
    91  Cl   0.000000   0.000000
 Sum of Mulliken charges =  -0.00000   0.00000
 Mulliken charges and spin densities with hydrogens summed into heavy atoms:
               1          2
     1  C    0.030087  -0.395686
     2  C   -0.024406   0.369524
     3  C   -0.007023   0.380405
     4  C    0.008618  -0.311811
     6  C   -0.001229   0.674572
     7  C    0.003019  -0.313363
     9  C   -0.001348   0.372321
    11  C   -0.007718  -0.775962
    17  C    0.000000   0.000000
    20  Cl   0.000000   0.000000
    21  Cl   0.000000   0.000000
    22  C    0.000000   0.000000
    25  Cl   0.000000   0.000000
    26  Cl   0.000000   0.000000
    27  C    0.000000   0.000000
    30  Cl   0.000000   0.000000
    31  Cl   0.000000   0.000000
    32  C    0.000000   0.000000
    35  Cl   0.000000   0.000000
    36  Cl   0.000000   0.000000
    37  C    0.000000   0.000000
    40  Cl   0.000000   0.000000
    41  Cl   0.000000   0.000000
    42  C    0.000000   0.000000
    45  Cl   0.000000   0.000000
    46  Cl   0.000000   0.000000
    47  C    0.000000   0.000000
    50  Cl   0.000000   0.000000
    51  Cl   0.000000   0.000000
    52  C    0.000000   0.000000
    55  Cl   0.000000   0.000000
    56  Cl   0.000000   0.000000
    57  C    0.000000   0.000000
    60  Cl   0.000000   0.000000
    61  Cl   0.000000   0.000000
    62  C    0.000000   0.000000
    65  Cl   0.000000   0.000000
    66  Cl   0.000000   0.000000
    67  C    0.000000   0.000000
    70  Cl   0.000000   0.000000
    71  Cl   0.000000   0.000000
    72  C    0.000000   0.000000
    75  Cl   0.000000   0.000000
    76  Cl   0.000000   0.000000
    77  C    0.000000   0.000000
    80  Cl   0.000000   0.000000
    81  Cl   0.000000   0.000000
    82  C    0.000000   0.000000
    85  Cl   0.000000   0.000000
    86  Cl   0.000000   0.000000
    87  C    0.000000   0.000000
    90  Cl   0.000000   0.000000
    91  Cl   0.000000   0.000000
 Charge=             -0.0000 electrons
 Dipole moment (field-independent basis, Debye):
    X=              0.0351    Y=             -0.0496    Z=             -0.1235  Tot=              0.1376
 N-N= 1.845116989771D+02 E-N=-2.804794674312D+02  KE=-6.322379399405D+01
 Calling FoFJK, ICntrl=      2127 FMM=F ISym2X=0 I1Cent= 0 IOpClX= 1 NMat=1 NMatS=1 NMatT=0.
 Cartesian Forces:  Max     0.033038175 RMS     0.004544991
 SvSCFP is copying densities from files   528 and   530 to   603.
 ONIOM: saving gridpoint  1
 ONIOM: restoring gridpoint  3
 ONIOM: calculating energy.
 ONIOM: gridpoint  1 method:  low   system:  model energy:     0.086141971986
 ONIOM: gridpoint  2 method:  high  system:  model energy:  -309.604798813697
 ONIOM: gridpoint  3 method:  low   system:  real  energy:    -0.403896306684
 ONIOM: extrapolated energy =    -310.094837092367
 ONIOM: calculating first derivatives.
 ONIOM: calculating electric field derivatives.
 ONIOM: Integrating ONIOM file  4 number   619
 ONIOM: Dipole        =-8.87247302D-02 1.05652082D-02 1.53168551D-01
 ONIOM: Dipole moment (Debye):
    X=    -0.2255    Y=     0.0269    Z=     0.3893  Tot=     0.4507
 ONIOM: Integrating ONIOM file  5 number   695
 Anisotropic Hyperfine tensors: 
                 1             2             3             4             5 
      1   0.000000D+00  0.000000D+00  0.000000D+00  0.000000D+00  0.000000D+00
      2   0.000000D+00  0.000000D+00  0.000000D+00  0.000000D+00  0.000000D+00
      3   0.000000D+00  0.000000D+00  0.000000D+00  0.000000D+00  0.000000D+00
      4   0.000000D+00  0.000000D+00  0.000000D+00  0.000000D+00  0.000000D+00
      5   0.000000D+00  0.000000D+00  0.000000D+00  0.000000D+00  0.000000D+00
      6   0.000000D+00  0.000000D+00  0.000000D+00  0.000000D+00  0.000000D+00
                 6             7             8             9            10 
      1   0.000000D+00  0.000000D+00  0.000000D+00  0.000000D+00  0.000000D+00
      2   0.000000D+00  0.000000D+00  0.000000D+00  0.000000D+00  0.000000D+00
      3   0.000000D+00  0.000000D+00  0.000000D+00  0.000000D+00  0.000000D+00
      4   0.000000D+00  0.000000D+00  0.000000D+00  0.000000D+00  0.000000D+00
      5   0.000000D+00  0.000000D+00  0.000000D+00  0.000000D+00  0.000000D+00
      6   0.000000D+00  0.000000D+00  0.000000D+00  0.000000D+00  0.000000D+00
                11            12            13            14            15 
      1   0.000000D+00  0.000000D+00  0.000000D+00  0.000000D+00  0.000000D+00
      2   0.000000D+00  0.000000D+00  0.000000D+00  0.000000D+00  0.000000D+00
      3   0.000000D+00  0.000000D+00  0.000000D+00  0.000000D+00  0.000000D+00
      4   0.000000D+00  0.000000D+00  0.000000D+00  0.000000D+00  0.000000D+00
      5   0.000000D+00  0.000000D+00  0.000000D+00  0.000000D+00  0.000000D+00
      6   0.000000D+00  0.000000D+00  0.000000D+00  0.000000D+00  0.000000D+00
                16            17            18            19            20 
      1   0.000000D+00  0.000000D+00  0.000000D+00  0.000000D+00  0.000000D+00
      2   0.000000D+00  0.000000D+00  0.000000D+00  0.000000D+00  0.000000D+00
      3   0.000000D+00  0.000000D+00  0.000000D+00  0.000000D+00  0.000000D+00
      4   0.000000D+00  0.000000D+00  0.000000D+00  0.000000D+00  0.000000D+00
      5   0.000000D+00  0.000000D+00  0.000000D+00  0.000000D+00  0.000000D+00
      6   0.000000D+00  0.000000D+00  0.000000D+00  0.000000D+00  0.000000D+00
                21            22            23            24            25 
      1   0.000000D+00  0.000000D+00  0.000000D+00  0.000000D+00  0.000000D+00
      2   0.000000D+00  0.000000D+00  0.000000D+00  0.000000D+00  0.000000D+00
      3   0.000000D+00  0.000000D+00  0.000000D+00  0.000000D+00  0.000000D+00
      4   0.000000D+00  0.000000D+00  0.000000D+00  0.000000D+00  0.000000D+00
      5   0.000000D+00  0.000000D+00  0.000000D+00  0.000000D+00  0.000000D+00
      6   0.000000D+00  0.000000D+00  0.000000D+00  0.000000D+00  0.000000D+00
                26            27            28            29            30 
      1   0.000000D+00  0.000000D+00  0.000000D+00  0.000000D+00  0.000000D+00
      2   0.000000D+00  0.000000D+00  0.000000D+00  0.000000D+00  0.000000D+00
      3   0.000000D+00  0.000000D+00  0.000000D+00  0.000000D+00  0.000000D+00
      4   0.000000D+00  0.000000D+00  0.000000D+00  0.000000D+00  0.000000D+00
      5   0.000000D+00  0.000000D+00  0.000000D+00  0.000000D+00  0.000000D+00
      6   0.000000D+00  0.000000D+00  0.000000D+00  0.000000D+00  0.000000D+00
                31            32            33            34            35 
[...]
   X21        9.32717   0.00002   0.00000   0.00030   0.00029   9.32745
   Y21       -2.21133   0.00001   0.00000  -0.00049   0.00000  -2.21132
   Z21        2.96818  -0.00002   0.00000  -0.00158  -0.00051   2.96767
   X22       10.81636   0.00008   0.00000   0.00104   0.00096  10.81732
   Y22       -2.01418  -0.00001   0.00000  -0.00057  -0.00034  -2.01453
   Z22       -2.95117   0.00000   0.00000  -0.00100   0.00005  -2.95112
   X23        8.78175   0.00009   0.00000   0.00096   0.00088   8.78263
   Y23       -2.11396   0.00005   0.00000   0.00067   0.00090  -2.11306
   Z23       -2.44180  -0.00002   0.00000  -0.00123  -0.00016  -2.44197
   X24       11.97702  -0.00007   0.00000  -0.00052  -0.00057  11.97645
   Y24       -3.14710  -0.00013   0.00000  -0.00195  -0.00164  -3.14874
   Z24       -1.62275   0.00000   0.00000  -0.00083   0.00025  -1.62250
   X25       11.84155   0.00025   0.00000   0.00346   0.00334  11.84489
   Y25        1.17520  -0.00008   0.00000  -0.00140  -0.00116   1.17404
   Z25       -2.87401   0.00013   0.00000   0.00054   0.00142  -2.87260
   X26       11.25372   0.00008   0.00000   0.00115   0.00104  11.25476
   Y26       -3.12753   0.00004   0.00000   0.00047   0.00055  -3.12699
   Z26       -6.06926  -0.00002   0.00000  -0.00147  -0.00038  -6.06964
   X27        3.98882  -0.00005   0.00000  -0.00077  -0.00088   3.98794
   Y27        6.01498   0.00001   0.00000  -0.00015   0.00029   6.01527
   Z27        2.92008   0.00002   0.00000  -0.00108  -0.00035   2.91973
   X28        3.48107  -0.00031   0.00000  -0.00321  -0.00329   3.47778
   Y28        4.04908   0.00009   0.00000   0.00070   0.00111   4.05019
   Z28        2.37465  -0.00013   0.00000  -0.00195  -0.00111   2.37354
   X29        2.57247  -0.00003   0.00000  -0.00035  -0.00047   2.57200
   Y29        7.37783   0.00003   0.00000   0.00083   0.00121   7.37904
   Z29        2.17902  -0.00001   0.00000   0.00001   0.00069   2.17972
   X30        7.02342  -0.00005   0.00000  -0.00098  -0.00110   7.02231
   Y30        6.77467   0.00001   0.00000  -0.00095  -0.00054   6.77413
   Z30        1.72350  -0.00011   0.00000  -0.00246  -0.00180   1.72170
   X31        4.16500   0.00015   0.00000   0.00180   0.00173   4.16673
   Y31        6.26324  -0.00006   0.00000  -0.00179  -0.00119   6.26205
   Z31        6.25280   0.00002   0.00000  -0.00102  -0.00030   6.25250
   X32       -4.25887  -0.00010   0.00000  -0.00121  -0.00122  -4.26008
   Y32        1.53081   0.00002   0.00000  -0.00001   0.00051   1.53132
   Z32        6.59416  -0.00016   0.00000  -0.00330  -0.00226   6.59190
   X33       -3.57237  -0.00004   0.00000  -0.00022  -0.00020  -3.57257
   Y33       -0.45044   0.00004   0.00000   0.00029   0.00082  -0.44962
   Z33        6.66621  -0.00039   0.00000  -0.00476  -0.00362   6.66258
   X34       -4.16897   0.00007   0.00000   0.00086   0.00087  -4.16810
   Y34        2.43384   0.00020   0.00000   0.00115   0.00176   2.43560
   Z34        8.48668  -0.00027   0.00000  -0.00388  -0.00288   8.48379
   X35       -7.41491  -0.00018   0.00000  -0.00260  -0.00263  -7.41753
   Y35        1.57585  -0.00016   0.00000  -0.00234  -0.00191   1.57394
   Z35        5.47438   0.00021   0.00000   0.00083   0.00192   5.47629
   X36       -2.39852  -0.00033   0.00000  -0.00431  -0.00436  -2.40288
   Y36        3.26686   0.00007   0.00000   0.00066   0.00110   3.26796
   Z36        4.41749  -0.00019   0.00000  -0.00504  -0.00410   4.41339
   X37       -1.97294  -0.00011   0.00000  -0.00131  -0.00138  -1.97432
   Y37        8.60363   0.00011   0.00000   0.00081   0.00146   8.60509
   Z37        8.63616   0.00018   0.00000   0.00172   0.00239   8.63855
   X38       -0.70671  -0.00015   0.00000  -0.00189  -0.00197  -0.70868
   Y38       10.25552   0.00013   0.00000   0.00109   0.00176  10.25728
   Z38        8.86419   0.00026   0.00000   0.00335   0.00393   8.86812
   X39       -1.66236   0.00001   0.00000   0.00016   0.00008  -1.66228
   Y39        7.68491   0.00015   0.00000   0.00178   0.00234   7.68725
   Z39        6.77455   0.00019   0.00000   0.00159   0.00231   6.77686
   X40       -5.15491  -0.00013   0.00000  -0.00168  -0.00175  -5.15666
   Y40        9.55702   0.00008   0.00000   0.00007   0.00069   9.55771
   Z40        8.91604   0.00005   0.00000  -0.00015   0.00051   8.91655
   X41       -1.36554  -0.00019   0.00000  -0.00260  -0.00261  -1.36814
   Y41        6.39229  -0.00001   0.00000  -0.00103  -0.00026   6.39203
   Z41       11.09021   0.00010   0.00000   0.00038   0.00116  11.09136
   X42        8.37948  -0.00005   0.00000  -0.00027  -0.00047   8.37901
   Y42        2.03576   0.00018   0.00000   0.00231   0.00224   2.03801
   Z42       -8.39332  -0.00004   0.00000  -0.00155  -0.00068  -8.39400
   X43        7.33611  -0.00008   0.00000  -0.00115  -0.00131   7.33480
   Y43        0.49463   0.00020   0.00000   0.00300   0.00297   0.49760
   Z43       -7.42087  -0.00005   0.00000  -0.00131  -0.00035  -7.42122
   X44       10.44996  -0.00008   0.00000  -0.00056  -0.00074  10.44921
   Y44        1.71793   0.00010   0.00000   0.00125   0.00121   1.71914
   Z44       -8.26338  -0.00006   0.00000  -0.00112  -0.00025  -8.26363
   X45        7.61707   0.00013   0.00000   0.00176   0.00155   7.61862
   Y45        4.98746   0.00025   0.00000   0.00329   0.00328   4.99074
   Z45       -6.98866  -0.00010   0.00000  -0.00250  -0.00176  -6.99042
   X46        7.43506   0.00007   0.00000   0.00104   0.00081   7.43588
   Y46        2.20170   0.00012   0.00000   0.00198   0.00175   2.20345
   Z46      -11.59305  -0.00006   0.00000  -0.00198  -0.00111 -11.59416
   X47      -10.25521  -0.00005   0.00000   0.00043   0.00032 -10.25490
   Y47        3.70566   0.00017   0.00000   0.00215   0.00225   3.70791
   Z47       -0.73057  -0.00001   0.00000  -0.00127  -0.00025  -0.73082
   X48      -11.94513   0.00002   0.00000   0.00056   0.00046 -11.94467
   Y48        2.61432   0.00025   0.00000   0.00390   0.00401   2.61833
   Z48       -0.14652   0.00033   0.00000   0.00301   0.00409  -0.14243
   X49       -8.76847   0.00026   0.00000   0.00351   0.00341  -8.76506
   Y49        3.63865   0.00009   0.00000   0.00130   0.00149   3.64014
   Z49        0.74999  -0.00038   0.00000  -0.00461  -0.00361   0.74638
   X50      -11.12900   0.00035   0.00000   0.00433   0.00417 -11.12483
   Y50        6.88458   0.00027   0.00000   0.00320   0.00326   6.88784
   Z50       -1.28944  -0.00005   0.00000  -0.00170  -0.00083  -1.29027
   X51       -9.07237  -0.00029   0.00000  -0.00429  -0.00442  -9.07679
   Y51        2.44268   0.00002   0.00000  -0.00011  -0.00015   2.44254
   Z51       -3.59138  -0.00000   0.00000  -0.00211  -0.00105  -3.59243
   X52       -3.01138   0.00005   0.00000   0.00063   0.00045  -3.01093
   Y52        1.86282  -0.00006   0.00000  -0.00038  -0.00054   1.86228
   Z52       -7.73428   0.00009   0.00000   0.00032   0.00133  -7.73295
   X53       -3.63986   0.00008   0.00000   0.00135   0.00114  -3.63871
   Y53        2.45605   0.00004   0.00000   0.00047   0.00021   2.45625
   Z53       -9.64434   0.00010   0.00000   0.00041   0.00140  -9.64293
   X54       -4.05505  -0.00006   0.00000  -0.00053  -0.00071  -4.05576
   Y54        2.89709  -0.00009   0.00000  -0.00114  -0.00124   2.89584
   Z54       -6.23135   0.00003   0.00000   0.00003   0.00101  -6.23035
   X55        0.27630   0.00002   0.00000   0.00038   0.00020   0.27650
   Y55        2.46349   0.00001   0.00000   0.00023   0.00011   2.46360
   Z55       -7.41562   0.00027   0.00000   0.00225   0.00320  -7.41242
   X56       -3.46983   0.00005   0.00000   0.00092   0.00078  -3.46905
   Y56       -1.42632  -0.00007   0.00000  -0.00061  -0.00076  -1.42708
   Z56       -7.36802   0.00006   0.00000  -0.00106   0.00012  -7.36790
   X57       -2.67593   0.00021   0.00000   0.00243   0.00225  -2.67367
   Y57       11.14156  -0.00003   0.00000  -0.00062  -0.00034  11.14122
   Z57        1.42780   0.00004   0.00000  -0.00019   0.00037   1.42817
   X58       -1.98909   0.00011   0.00000   0.00215   0.00194  -1.98714
   Y58       11.57289  -0.00014   0.00000  -0.00075  -0.00056  11.57233
   Z58       -0.51052  -0.00003   0.00000  -0.00030   0.00023  -0.51030
   X59       -4.33664   0.00018   0.00000   0.00219   0.00200  -4.33464
   Y59       12.32212  -0.00008   0.00000  -0.00118  -0.00089  12.32123
   Z59        1.92380   0.00009   0.00000   0.00019   0.00071   1.92451
   X60       -0.20244   0.00006   0.00000   0.00109   0.00093  -0.20151
   Y60       11.70852   0.00014   0.00000   0.00038   0.00080  11.70932
   Z60        3.61726   0.00019   0.00000   0.00124   0.00174   3.61900
   X61       -3.49128   0.00015   0.00000   0.00255   0.00241  -3.48887
   Y61        7.89988   0.00000   0.00000  -0.00076  -0.00047   7.89941
   Z61        1.67444  -0.00021   0.00000  -0.00285  -0.00212   1.67232
   X62        2.09493  -0.00001   0.00000  -0.00005  -0.00002   2.09492
   Y62        0.63094  -0.00003   0.00000  -0.00111  -0.00038   0.63056
   Z62        9.34813  -0.00010   0.00000  -0.00249  -0.00147   9.34666
   X63        1.38216   0.00007   0.00000   0.00062   0.00063   1.38279
   Y63        2.52381  -0.00006   0.00000  -0.00133  -0.00064   2.52317
   Z63        8.78459  -0.00027   0.00000  -0.00405  -0.00312   8.78147
   X64        3.69576  -0.00004   0.00000  -0.00058  -0.00053   3.69522
   Y64        0.80087   0.00005   0.00000  -0.00015   0.00066   0.80153
   Z64       10.68853  -0.00009   0.00000  -0.00193  -0.00094  10.68758
   X65        3.07984   0.00005   0.00000   0.00072   0.00074   3.08058
   Y65       -1.05131  -0.00014   0.00000  -0.00282  -0.00222  -1.05353
   Z65        6.63414   0.00002   0.00000  -0.00119  -0.00010   6.63404
   X66       -0.37801  -0.00005   0.00000  -0.00074  -0.00066  -0.37868
   Y66       -1.10584   0.00006   0.00000  -0.00008   0.00069  -1.10515
   Z66       10.78576  -0.00004   0.00000  -0.00230  -0.00117  10.78460
   X67        2.01544   0.00004   0.00000   0.00064   0.00055   2.01599
   Y67       -4.10035  -0.00010   0.00000  -0.00058  -0.00059  -4.10093
   Z67       -5.72371   0.00004   0.00000  -0.00097   0.00028  -5.72343
   X68        0.36188  -0.00001   0.00000  -0.00006  -0.00015   0.36173
   Y68       -5.22550   0.00002   0.00000   0.00060   0.00054  -5.22496
   Z68       -6.34235  -0.00014   0.00000  -0.00155  -0.00023  -6.34258
   X69        1.41000   0.00029   0.00000   0.00255   0.00244   1.41244
   Y69       -2.19788  -0.00011   0.00000  -0.00108  -0.00107  -2.19894
   Z69       -5.06474   0.00024   0.00000   0.00181   0.00297  -5.06177
   X70        4.18172  -0.00021   0.00000  -0.00193  -0.00205   4.17967
   Y70       -3.79940   0.00020   0.00000   0.00230   0.00219  -3.79721
   Z70       -8.24969  -0.00013   0.00000  -0.00287  -0.00166  -8.25135
   X71        3.59143   0.00005   0.00000   0.00135   0.00131   3.59273
   Y71       -5.71125  -0.00003   0.00000  -0.00151  -0.00138  -5.71263
   Z71       -3.24221   0.00006   0.00000  -0.00204  -0.00073  -3.24294
   X72        3.53716  -0.00000   0.00000  -0.00000  -0.00029   3.53688
   Y72        7.41862   0.00002   0.00000   0.00050   0.00024   7.41885
   Z72      -11.23654  -0.00017   0.00000  -0.00254  -0.00187 -11.23841
   X73        5.37070   0.00006   0.00000   0.00033   0.00004   5.37074
   Y73        7.21056   0.00000   0.00000   0.00047   0.00018   7.21074
   Z73      -12.23118  -0.00016   0.00000  -0.00223  -0.00158 -12.23275
   X74        3.35739  -0.00004   0.00000  -0.00019  -0.00044   3.35694
   Y74        5.96700   0.00006   0.00000   0.00084   0.00065   5.96765
   Z74       -9.73521  -0.00010   0.00000  -0.00215  -0.00141  -9.73662
   X75        3.34448  -0.00013   0.00000  -0.00111  -0.00142   3.34306
   Y75       10.47964   0.00002   0.00000   0.00041   0.00022  10.47986
   Z75       -9.87878  -0.00008   0.00000  -0.00227  -0.00175  -9.88053
   X76        1.01477  -0.00008   0.00000  -0.00016  -0.00047   1.01430
   Y76        7.12485  -0.00007   0.00000  -0.00029  -0.00068   7.12417
   Z76      -13.39891  -0.00011   0.00000  -0.00240  -0.00169 -13.40060
   X77       -2.86699   0.00016   0.00000   0.00141   0.00116  -2.86583
   Y77        8.75682  -0.00016   0.00000  -0.00195  -0.00208   8.75475
   Z77       -6.95674  -0.00005   0.00000  -0.00089  -0.00022  -6.95696
   X78       -1.00863   0.00020   0.00000   0.00123   0.00098  -1.00765
   Y78        8.01127  -0.00006   0.00000  -0.00229  -0.00242   8.00885
   Z78       -7.58263  -0.00024   0.00000  -0.00205  -0.00136  -7.58399
   X79       -2.90621   0.00038   0.00000   0.00403   0.00376  -2.90245
   Y79       10.84982  -0.00015   0.00000  -0.00182  -0.00195  10.84788
   Z79       -7.08224   0.00012   0.00000   0.00117   0.00175  -7.08049
   X80       -5.30606  -0.00019   0.00000  -0.00152  -0.00178  -5.30783
   Y80        7.47528   0.00003   0.00000   0.00144   0.00119   7.47647
   Z80       -8.84915   0.00039   0.00000   0.00104   0.00181  -8.84733
   X81       -3.44694  -0.00064   0.00000  -0.00519  -0.00539  -3.45234
   Y81        7.81169  -0.00037   0.00000  -0.00441  -0.00438   7.80731
   Z81       -3.78884  -0.00021   0.00000  -0.00292  -0.00218  -3.79102
   X82        4.06817  -0.00005   0.00000  -0.00033  -0.00056   4.06761
   Y82       11.29400  -0.00006   0.00000  -0.00200  -0.00185  11.29215
   Z82       -3.06957  -0.00006   0.00000  -0.00100  -0.00053  -3.07011
   X83        5.23329  -0.00018   0.00000  -0.00103  -0.00128   5.23201
   Y83       11.21673  -0.00023   0.00000  -0.00261  -0.00254  11.21418
   Z83       -4.81035  -0.00019   0.00000  -0.00154  -0.00108  -4.81143
   X84        5.27394  -0.00026   0.00000  -0.00164  -0.00185   5.27209
   Y84       11.22592  -0.00034   0.00000  -0.00393  -0.00369  11.22223
   Z84       -1.35653   0.00010   0.00000  -0.00016   0.00030  -1.35622
   X85        2.23521   0.00024   0.00000   0.00252   0.00225   2.23747
   Y85       14.08673   0.00013   0.00000   0.00008   0.00020  14.08693
   Z85       -3.06623   0.00005   0.00000   0.00009   0.00045  -3.06578
   X86        1.92215   0.00020   0.00000   0.00109   0.00089   1.92304
   Y86        8.71851  -0.00031   0.00000  -0.00310  -0.00298   8.71553
   Z86       -3.04238  -0.00000   0.00000  -0.00126  -0.00064  -3.04301
   X87       -8.27173   0.00001   0.00000   0.00027   0.00001  -8.27171
   Y87       13.00868  -0.00009   0.00000  -0.00162  -0.00163  13.00706
   Z87       -3.18633  -0.00000   0.00000  -0.00067  -0.00014  -3.18647
   X88      -10.10910   0.00001   0.00000   0.00032   0.00005 -10.10905
   Y88       13.11809  -0.00014   0.00000  -0.00152  -0.00159  13.11650
   Z88       -4.18663  -0.00001   0.00000  -0.00070  -0.00015  -4.18679
   X89       -7.71131   0.00007   0.00000   0.00120   0.00097  -7.71034
   Y89       11.00810  -0.00008   0.00000  -0.00165  -0.00163  11.00647
   Z89       -2.87932  -0.00023   0.00000  -0.00337  -0.00274  -2.88206
   X90       -5.93312  -0.00000   0.00000   0.00018  -0.00011  -5.93323
   Y90       14.58421   0.00009   0.00000   0.00150   0.00144  14.58564
   Z90       -4.98573   0.00018   0.00000   0.00191   0.00234  -4.98339
   X91       -8.50642  -0.00013   0.00000  -0.00125  -0.00148  -8.50791
   Y91       14.57930  -0.00048   0.00000  -0.00631  -0.00617  14.57313
   Z91       -0.24575   0.00017   0.00000   0.00165   0.00211  -0.24363
         Item               Value     Threshold  Converged?
 Maximum Force            0.046264     0.000450     NO 
 RMS     Force            0.005975     0.000300     NO 
 Maximum Displacement     0.148365     0.001800     NO 
 RMS     Displacement     0.018169     0.001200     NO 
 Predicted change in Energy=-1.130317D-02
 GradGradGradGradGradGradGradGradGradGradGradGradGradGradGradGradGradGrad

 Unable to Open any file for archive entry.
 1\1\GINC-X10P1N23\Force\ONIOM(B3LYP TD-FC/6-31G(d):PM6)\Mixed\C23H38Cl
 30\MAYUMIAO\12-Jul-2024\0\\# scf=(xqc,maxcycle=64) force guess=read on
 iom(td/b3lyp/em=gd3bj/6-31g(d):pm6) nosymm\\Title Card\\0,1\C,0.551806
 4,-0.17549458,-0.17919406\C,-0.08703645,-1.29368036,0.41764862\C,-0.27
 3183,0.87696575,-0.65474533\C,-1.45849086,-1.35818813,0.52525365\H,0.5
 3496315,-2.10776029,0.78601899\C,1.97142838,-0.14407127,-0.31001146\C,
 -1.65043188,0.81316169,-0.51779592\H,0.18007724,1.74448265,-1.12840363
 \C,-2.25788561,-0.304995,0.05593913\H,-1.91971316,-2.22992695,0.981725
 79\C,2.68647338,0.89780884,-1.00212396\H,2.5281503,-0.98968085,0.09929
 163\H,-2.26367143,1.64234236,-0.86609345\H,-3.34048395,-0.36462734,0.1
 3207271\H,3.62886564,1.29153851,-0.62858014\H,2.33958097,1.28776646,-1
 .95795758\C,4.97826833,0.55643692,1.99150238\H,5.26235211,1.14421981,1
 .09337807\H,3.98161167,0.86365873,2.37147136\Cl,6.19088334,0.77248946,
 3.25176891\Cl,4.93572352,-1.17018421,1.57069261\C,5.72376916,-1.065860
 33,-1.56168967\H,4.64710202,-1.1186606,-1.29214627\H,6.33796725,-1.665
 37479,-0.85872374\Cl,6.26627886,0.62189045,-1.52086187\Cl,5.95521182,-
 1.65501921,-3.21171156\C,2.11079019,3.18299162,1.54523863\H,1.84210517
 ,2.1426805,1.2566117\H,1.361293,3.90417952,1.1530894\Cl,3.7166317,3.58
 499933,0.9120385\Cl,2.20402202,3.31436352,3.30883824\C,-2.25369635,0.8
 1007107,3.48947783\H,-1.89041834,-0.23836319,3.52760477\H,-2.2061233,1
 .28793516,4.49095552\Cl,-3.92379909,0.83390317,2.89691466\Cl,-1.269239
 66,1.72874908,2.33763296\C,-1.04403559,4.55284627,4.57005749\H,-0.3739
 7733,5.42698839,4.69072586\H,-0.87968496,4.06667662,3.58493988\Cl,-2.7
 2786059,5.05735862,4.71816329\Cl,-0.72261105,3.3826557,5.8686855\C,4.4
 3422846,1.0772786,-4.44155105\H,3.8821013,0.26174898,-3.92695581\H,5.5
 2988006,0.90909055,-4.37279314\Cl,4.03077822,2.63924972,-3.69823866\Cl
 ,3.93446673,1.16508956,-6.13477661\C,-5.42682423,1.96095232,-0.3865989
 5\H,-6.32108827,1.38343984,-0.07753364\H,-4.64007186,1.92549048,0.3968
 7869\Cl,-5.88921405,3.64316181,-0.68234253\Cl,-4.80089098,1.2926114,-1
 .90047832\C,-1.59355149,0.98576294,-4.09280633\H,-1.92613018,1.2996841
 4,-5.10356365\H,-2.14584165,1.5330722,-3.29749043\Cl,0.14621404,1.3036
 2351,-3.92417646\Cl,-1.83615375,-0.75477577,-3.89899014\C,-1.41603911,
 5.89585881,0.75556103\H,-1.05258026,6.1241092,-0.27015769\H,-2.2948536
 1,6.52058743,1.01803115\Cl,-0.10712517,6.19588384,1.91417128\Cl,-1.847
 50841,4.18043726,0.88607435\C,1.10859128,0.33387876,4.94681738\H,0.731
 4059,1.33554061,4.64860507\H,1.95571122,0.42380376,5.6561241\Cl,1.6297
 8289,-0.556328,3.51063626\Cl,-0.20003513,-0.58518497,5.70758103\C,1.06
 652401,-2.16981029,-3.02885672\H,0.19149872,-2.76521578,-3.35622812\H,
 0.74613727,-1.16306706,-2.68014333\Cl,2.2128712,-2.01055711,-4.3655460
 4\Cl,1.90050048,-3.02226509,-1.71570506\C,1.87178588,3.92576292,-5.946
 12006\H,2.84205425,3.81566278,-6.47245919\H,1.77665271,3.15759794,-5.1
 5165243\Cl,1.76982018,5.54558846,-5.2276234\Cl,0.53699331,3.77031032,-
 7.09039902\C,-1.51714796,4.63391151,-3.6813494\H,-0.53374463,4.2393826
 5,-4.0125572\H,-1.53789762,5.74147994,-3.7477596\Cl,-2.80784474,3.9557
 4934,-4.68276597\Cl,-1.82404369,4.13376843,-2.0049682\C,2.15278517,5.9
 7652912,-1.62434834\H,2.76933626,5.93563544,-2.54552853\H,2.7908503,5.
 94049932,-0.71784284\Cl,1.18282455,7.4543765,-1.62257826\Cl,1.01715991
 ,4.61363484,-1.60995733\C,-4.37721074,6.88389926,-1.68613321\H,-5.3495
 0527,6.94179398,-2.21547162\H,-4.08065031,5.82523726,-1.52367122\Cl,-3
 .13967008,7.71762899,-2.63833422\Cl,-4.50140523,7.7150341,-0.13004296\
 \Version=ES64L-G16RevC.01\HF=0.086142\S2=0.876165\S2-1=0.\S2A=1.142093
 \RMSD=6.503e-09\RMSF=5.975e-03\Dipole=-0.0887247,0.0105652,0.1531686\P
 G=C01 [X(C23H38Cl30)]\\@
 The archive entry for this job was punched.


 GROWING OLD ISN'T SO BAD -- WHEN YOU CONSIDER THE ALTERNATIVE.

                     -- MAURICE CHEVALIER
 Job cpu time:       0 days  0 hours 18 minutes 54.6 seconds.
 Elapsed time:       0 days  0 hours  0 minutes 45.3 seconds.
 File lengths (MBytes):  RWF=    173 Int=      0 D2E=      0 Chk=     37 Scr=      1
 Normal termination of Gaussian 16 at Fri Jul 12 22:47:27 2024.
