 Entering Gaussian System, Link 0=g16
 Input=JOBS/5_B.gjf
 Output=JOBS/5_B.log
 Initial command:
 /data/app/gaussian/C01-avx2//g16/l1.exe "/tmp/Gau-1761472.inp" -scrdir="/tmp/"
 Entering Link 1 = /data/app/gaussian/C01-avx2//g16/l1.exe PID=   1761473.
  
 Copyright (c) 1988-2019, Gaussian, Inc.  All Rights Reserved.
  
 This is part of the Gaussian(R) 16 program.  It is based on
 the Gaussian(R) 09 system (copyright 2009, Gaussian, Inc.),
 the Gaussian(R) 03 system (copyright 2003, Gaussian, Inc.),
 the Gaussian(R) 98 system (copyright 1998, Gaussian, Inc.),
 the Gaussian(R) 94 system (copyright 1995, Gaussian, Inc.),
 the Gaussian 92(TM) system (copyright 1992, Gaussian, Inc.),
 the Gaussian 90(TM) system (copyright 1990, Gaussian, Inc.),
 the Gaussian 88(TM) system (copyright 1988, Gaussian, Inc.),
 the Gaussian 86(TM) system (copyright 1986, Carnegie Mellon
 University), and the Gaussian 82(TM) system (copyright 1983,
 Carnegie Mellon University). Gaussian is a federally registered
 trademark of Gaussian, Inc.
  
 This software contains proprietary and confidential information,
 including trade secrets, belonging to Gaussian, Inc.
  
 This software is provided under written license and may be
 used, copied, transmitted, or stored only in accord with that
 written license.
  
 The following legend is applicable only to US Government
 contracts under FAR:
  
                    RESTRICTED RIGHTS LEGEND
  
 Use, reproduction and disclosure by the US Government is
 subject to restrictions as set forth in subparagraphs (a)
 and (c) of the Commercial Computer Software - Restricted
 Rights clause in FAR 52.227-19.
  
 Gaussian, Inc.
 340 Quinnipiac St., Bldg. 40, Wallingford CT 06492
  
  
 ---------------------------------------------------------------
 Warning -- This program may not be used in any manner that
 competes with the business of Gaussian, Inc. or will provide
 assistance to any competitor of Gaussian, Inc.  The licensee
 of this program is prohibited from giving any competitor of
 Gaussian, Inc. access to this program.  By using this program,
 the user acknowledges that Gaussian, Inc. is engaged in the
 business of creating and licensing software in the field of
 computational chemistry and represents and warrants to the
 licensee that it is not a competitor of Gaussian, Inc. and that
 it will not use this program in any manner prohibited above.
 ---------------------------------------------------------------
  

 Cite this work as:
 Gaussian 16, Revision C.01,
 M. J. Frisch, G. W. Trucks, H. B. Schlegel, G. E. Scuseria, 
 M. A. Robb, J. R. Cheeseman, G. Scalmani, V. Barone, 
 G. A. Petersson, H. Nakatsuji, X. Li, M. Caricato, A. V. Marenich, 
 J. Bloino, B. G. Janesko, R. Gomperts, B. Mennucci, H. P. Hratchian, 
 J. V. Ortiz, A. F. Izmaylov, J. L. Sonnenberg, D. Williams-Young, 
 F. Ding, F. Lipparini, F. Egidi, J. Goings, B. Peng, A. Petrone, 
 T. Henderson, D. Ranasinghe, V. G. Zakrzewski, J. Gao, N. Rega, 
 G. Zheng, W. Liang, M. Hada, M. Ehara, K. Toyota, R. Fukuda, 
 J. Hasegawa, M. Ishida, T. Nakajima, Y. Honda, O. Kitao, H. Nakai, 
 T. Vreven, K. Throssell, J. A. Montgomery, Jr., J. E. Peralta, 
 F. Ogliaro, M. J. Bearpark, J. J. Heyd, E. N. Brothers, K. N. Kudin, 
 V. N. Staroverov, T. A. Keith, R. Kobayashi, J. Normand, 
 K. Raghavachari, A. P. Rendell, J. C. Burant, S. S. Iyengar, 
 J. Tomasi, M. Cossi, J. M. Millam, M. Klene, C. Adamo, R. Cammi, 
 J. W. Ochterski, R. L. Martin, K. Morokuma, O. Farkas, 
 J. B. Foresman, and D. J. Fox, Gaussian, Inc., Wallingford CT, 2019.
 
 ******************************************
 Gaussian 16:  ES64L-G16RevC.01  3-Jul-2019
                12-Jul-2024 
 ******************************************
 %chk=b.chk
 %nprocshared=28
 Will use up to   28 processors via shared memory.
 %mem=48gb
 ----------------------------------------------------------------------
 # scf=(xqc,maxcycle=64) force guess=read oniom(b3lyp/em=gd3bj/6-31g(d)
 :pm6) nosymm
 ----------------------------------------------------------------------
 1/10=7,30=1,38=1,52=2/1,3;
 2/12=2,15=1,17=6,18=5,40=1/2;
 1/10=7,30=1,38=1,52=2,53=3172/20;
 3/5=2,25=1,41=3900000,71=1,116=-2/1,2,3;
 4/5=1,35=1/1;
 5/5=2,7=64,8=3,13=1,35=1,38=6/2,8;
 6/7=2,8=2,9=2,10=2,28=1/1;
 7/7=1,30=1,33=-1/1,2,3,16;
 1/10=7,30=1,52=2,53=2032/20;
 3/5=1,6=6,7=1,11=2,25=1,30=1,71=1,74=-5,116=-2,124=41/1,2,3;
 4/5=1/1;
 5/5=2,7=64,8=3,13=1,38=6/2,8;
 6/7=2,8=2,9=2,10=2,28=1/1;
 7/7=1,30=1,33=-1/1,2,3,16;
 1/10=7,30=1,52=2,53=1022/20;
 3/5=2,25=1,41=3900000,71=1,116=-2/1,2,3;
 4/5=1,35=1/1;
 5/5=2,7=64,8=3,13=1,35=1,38=6/2,8;
 6/7=2,8=2,9=2,10=2,28=1/1;
 7/7=1,30=1,33=-1/1,2,3,16;
 1/10=7,30=1,52=2,53=3015/20;
 7/9=1,29=1,44=-1,126=2/16;
 1/10=7,30=1,52=2/3;
 99//99;
 ONIOM: restoring gridpoint  3 on chk file.
 ----------
 Title Card
 ----------
 Symbolic Z-matrix:
 Charge =  0 Multiplicity = 1 for low   level calculation on real  system.
 Charge =  0 Multiplicity = 3 for high  level calculation on model system.
 Charge =  0 Multiplicity = 3 for low   level calculation on model system.
 c                     0.55181  -0.17549  -0.17919  h 
 c                    -0.08704  -1.29368   0.41765  h 
 c                    -0.27318   0.87697  -0.65475  h 
 c                    -1.45849  -1.35819   0.52525  h 
 h                     0.53496  -2.10776   0.78602  h 
 c                     1.97143  -0.14407  -0.31001  h 
 c                    -1.65043   0.81316  -0.5178   h 
 h                     0.18008   1.74448  -1.1284   h 
 c                    -2.25789  -0.305     0.05594  h 
 h                    -1.91971  -2.22993   0.98173  h 
 c                     2.68647   0.89781  -1.00212  h 
 h                     2.52815  -0.98968   0.09929  h 
 h                    -2.26367   1.64234  -0.86609  h 
 h                    -3.34048  -0.36463   0.13207  h 
 h                     3.62887   1.29154  -0.62858  h 
 h                     2.33958   1.28777  -1.95796  h 
 c                     4.97827   0.55644   1.9915   l 
 h                     5.26235   1.14422   1.09338  l 
 h                     3.98161   0.86366   2.37147  l 
 cl                    6.19088   0.77249   3.25177  l 
 cl                    4.93572  -1.17018   1.57069  l 
 c                     5.72377  -1.06586  -1.56169  l 
 h                     4.6471   -1.11866  -1.29215  l 
 h                     6.33797  -1.66537  -0.85872  l 
 cl                    6.26628   0.62189  -1.52086  l 
 cl                    5.95521  -1.65502  -3.21171  l 
 c                     2.11079   3.18299   1.54524  l 
 h                     1.84211   2.14268   1.25661  l 
 h                     1.36129   3.90418   1.15309  l 
 cl                    3.71663   3.585     0.91204  l 
 cl                    2.20402   3.31436   3.30884  l 
 c                    -2.2537    0.81007   3.48948  l 
 h                    -1.89042  -0.23836   3.5276   l 
 h                    -2.20612   1.28794   4.49096  l 
 cl                   -3.9238    0.8339    2.89691  l 
 cl                   -1.26924   1.72875   2.33763  l 
 c                    -1.04404   4.55285   4.57006  l 
 h                    -0.37398   5.42699   4.69073  l 
 h                    -0.87968   4.06668   3.58494  l 
 cl                   -2.72786   5.05736   4.71816  l 
 cl                   -0.72261   3.38266   5.86869  l 
 c                     4.43423   1.07728  -4.44155  l 
 h                     3.8821    0.26175  -3.92696  l 
 h                     5.52988   0.90909  -4.37279  l 
 cl                    4.03078   2.63925  -3.69824  l 
 cl                    3.93447   1.16509  -6.13478  l 
 c                    -5.42682   1.96095  -0.3866   l 
 h                    -6.32109   1.38344  -0.07753  l 
 h                    -4.64007   1.92549   0.39688  l 
 cl                   -5.88921   3.64316  -0.68234  l 
 cl                   -4.80089   1.29261  -1.90048  l 
 c                    -1.59355   0.98576  -4.09281  l 
 h                    -1.92613   1.29968  -5.10356  l 
 h                    -2.14584   1.53307  -3.29749  l 
 cl                    0.14621   1.30362  -3.92418  l 
 cl                   -1.83615  -0.75478  -3.89899  l 
 c                    -1.41604   5.89586   0.75556  l 
 h                    -1.05258   6.12411  -0.27016  l 
 h                    -2.29485   6.52059   1.01803  l 
 cl                   -0.10713   6.19588   1.91417  l 
 cl                   -1.84751   4.18044   0.88607  l 
 c                     1.10859   0.33388   4.94682  l 
 h                     0.73141   1.33554   4.64861  l 
 h                     1.95571   0.4238    5.65612  l 
 cl                    1.62978  -0.55633   3.51064  l 
 cl                   -0.20004  -0.58518   5.70758  l 
 c                     1.06652  -2.16981  -3.02886  l 
 h                     0.1915   -2.76522  -3.35623  l 
 h                     0.74614  -1.16307  -2.68014  l 
 cl                    2.21287  -2.01056  -4.36555  l 
 cl                    1.9005   -3.02227  -1.71571  l 
 c                     1.87179   3.92576  -5.94612  l 
 h                     2.84205   3.81566  -6.47246  l 
 h                     1.77665   3.1576   -5.15165  l 
 cl                    1.76982   5.54559  -5.22762  l 
 cl                    0.53699   3.77031  -7.0904   l 
 c                    -1.51715   4.63391  -3.68135  l 
 h                    -0.53374   4.23938  -4.01256  l 
 h                    -1.5379    5.74148  -3.74776  l 
 cl                   -2.80784   3.95575  -4.68277  l 
 cl                   -1.82404   4.13377  -2.00497  l 
 c                     2.15279   5.97653  -1.62435  l 
 h                     2.76934   5.93564  -2.54553  l 
 h                     2.79085   5.9405   -0.71784  l 
 cl                    1.18282   7.45438  -1.62258  l 
 cl                    1.01716   4.61363  -1.60996  l 
 c                    -4.37721   6.8839   -1.68613  l 
 h                    -5.34951   6.94179  -2.21547  l 
 h                    -4.08065   5.82524  -1.52367  l 
 cl                   -3.13967   7.71763  -2.63833  l 
 cl                   -4.50141   7.71503  -0.13004  l 
 

 GradGradGradGradGradGradGradGradGradGradGradGradGradGradGradGradGradGrad
 Berny optimization.
 Initialization pass.
 Trust Radius=3.00D-01 FncErr=1.00D-07 GrdErr=1.00D-07 EigMax=2.50D+02 EigMin=1.00D-04
 Number of steps in this run=      2 maximum allowed number of steps=      2.
 GradGradGradGradGradGradGradGradGradGradGradGradGradGradGradGradGradGrad

 Symmetry turned off by external request.
 Stoichiometry    C23H38Cl30
 Framework group  C1[X(C23H38Cl30)]
 Deg. of freedom   267
 Full point group                 C1      NOp   1
                          Input orientation:                          
 ---------------------------------------------------------------------
 Center     Atomic      Atomic             Coordinates (Angstroms)
 Number     Number       Type             X           Y           Z
 ---------------------------------------------------------------------
      1          6           0        0.551806   -0.175495   -0.179194
      2          6           0       -0.087036   -1.293680    0.417649
      3          6           0       -0.273183    0.876966   -0.654745
      4          6           0       -1.458491   -1.358188    0.525254
      5          1           0        0.534963   -2.107760    0.786019
      6          6           0        1.971428   -0.144071   -0.310011
      7          6           0       -1.650432    0.813162   -0.517796
      8          1           0        0.180077    1.744483   -1.128404
      9          6           0       -2.257886   -0.304995    0.055939
     10          1           0       -1.919713   -2.229927    0.981726
     11          6           0        2.686473    0.897809   -1.002124
     12          1           0        2.528150   -0.989681    0.099292
     13          1           0       -2.263671    1.642342   -0.866093
     14          1           0       -3.340484   -0.364627    0.132073
     15          1           0        3.628866    1.291539   -0.628580
     16          1           0        2.339581    1.287766   -1.957958
     17          6           0        4.978268    0.556437    1.991502
     18          1           0        5.262352    1.144220    1.093378
     19          1           0        3.981612    0.863659    2.371471
     20         17           0        6.190883    0.772489    3.251769
     21         17           0        4.935724   -1.170184    1.570693
     22          6           0        5.723769   -1.065860   -1.561690
     23          1           0        4.647102   -1.118661   -1.292146
     24          1           0        6.337967   -1.665375   -0.858724
     25         17           0        6.266279    0.621890   -1.520862
     26         17           0        5.955212   -1.655019   -3.211712
     27          6           0        2.110790    3.182992    1.545239
     28          1           0        1.842105    2.142680    1.256612
     29          1           0        1.361293    3.904180    1.153089
     30         17           0        3.716632    3.584999    0.912039
     31         17           0        2.204022    3.314364    3.308838
     32          6           0       -2.253696    0.810071    3.489478
     33          1           0       -1.890418   -0.238363    3.527605
     34          1           0       -2.206123    1.287935    4.490956
     35         17           0       -3.923799    0.833903    2.896915
     36         17           0       -1.269240    1.728749    2.337633
     37          6           0       -1.044036    4.552846    4.570057
     38          1           0       -0.373977    5.426988    4.690726
     39          1           0       -0.879685    4.066677    3.584940
     40         17           0       -2.727861    5.057359    4.718163
     41         17           0       -0.722611    3.382656    5.868686
     42          6           0        4.434228    1.077279   -4.441551
     43          1           0        3.882101    0.261749   -3.926956
     44          1           0        5.529880    0.909091   -4.372793
     45         17           0        4.030778    2.639250   -3.698239
     46         17           0        3.934467    1.165090   -6.134777
     47          6           0       -5.426824    1.960952   -0.386599
     48          1           0       -6.321088    1.383440   -0.077534
     49          1           0       -4.640072    1.925490    0.396879
     50         17           0       -5.889214    3.643162   -0.682343
     51         17           0       -4.800891    1.292611   -1.900478
     52          6           0       -1.593551    0.985763   -4.092806
     53          1           0       -1.926130    1.299684   -5.103564
     54          1           0       -2.145842    1.533072   -3.297490
     55         17           0        0.146214    1.303624   -3.924176
     56         17           0       -1.836154   -0.754776   -3.898990
     57          6           0       -1.416039    5.895859    0.755561
     58          1           0       -1.052580    6.124109   -0.270158
     59          1           0       -2.294854    6.520587    1.018031
     60         17           0       -0.107125    6.195884    1.914171
     61         17           0       -1.847508    4.180437    0.886074
     62          6           0        1.108591    0.333879    4.946817
     63          1           0        0.731406    1.335541    4.648605
     64          1           0        1.955711    0.423804    5.656124
     65         17           0        1.629783   -0.556328    3.510636
     66         17           0       -0.200035   -0.585185    5.707581
     67          6           0        1.066524   -2.169810   -3.028857
     68          1           0        0.191499   -2.765216   -3.356228
     69          1           0        0.746137   -1.163067   -2.680143
     70         17           0        2.212871   -2.010557   -4.365546
     71         17           0        1.900500   -3.022265   -1.715705
     72          6           0        1.871786    3.925763   -5.946120
     73          1           0        2.842054    3.815663   -6.472459
     74          1           0        1.776653    3.157598   -5.151652
     75         17           0        1.769820    5.545588   -5.227623
     76         17           0        0.536993    3.770310   -7.090399
     77          6           0       -1.517148    4.633912   -3.681349
     78          1           0       -0.533745    4.239383   -4.012557
     79          1           0       -1.537898    5.741480   -3.747760
     80         17           0       -2.807845    3.955749   -4.682766
     81         17           0       -1.824044    4.133768   -2.004968
     82          6           0        2.152785    5.976529   -1.624348
     83          1           0        2.769336    5.935635   -2.545529
     84          1           0        2.790850    5.940499   -0.717843
     85         17           0        1.182825    7.454377   -1.622578
     86         17           0        1.017160    4.613635   -1.609957
     87          6           0       -4.377211    6.883899   -1.686133
     88          1           0       -5.349505    6.941794   -2.215472
     89          1           0       -4.080650    5.825237   -1.523671
     90         17           0       -3.139670    7.717629   -2.638334
     91         17           0       -4.501405    7.715034   -0.130043
 ---------------------------------------------------------------------
 Rotational constants (GHZ):           0.0226148           0.0200571           0.0153430
 ONIOM: saving gridpoint 17
 ONIOM: restoring gridpoint  3 on chk file.
 ONIOM: generating point  3 -- low level on real system.
 Standard basis: VSTO-6G (5D, 7F)
   400 basis functions,  2580 primitive gaussians,   430 cartesian basis functions
   170 alpha electrons      170 beta electrons
       nuclear repulsion energy      5300.2094500652 Hartrees.
 Integral buffers will be    131072 words long.
 Regular integral format.
 Two-electron integral symmetry is turned off.
 Do NDO integrals.
 One-electron integrals computed using PRISM.
 NBasis=   400 RedAO= F EigKep=  0.00D+00  NBF=   400
 NBsUse=   400 1.00D-04 EigRej=  0.00D+00 NBFU=   400
 Initial guess from the checkpoint file:  "b.chk"
 B after Tr=    -0.000084   -0.000099   -0.000176
         Rot=    1.000000   -0.000006    0.000005   -0.000003 Ang=  -0.00 deg.
 Initial guess <Sx>= 0.0000 <Sy>= 0.0000 <Sz>= 0.0000 <S**2>=-0.0000 S=-0.0000
 Keep J ints in memory in canonical form, NReq=3161508.
 Overlap will be assumed to be unity.
 Requested convergence on RMS density matrix=1.00D-08 within  64 cycles.
 Requested convergence on MAX density matrix=1.00D-06.
 Requested convergence on             energy=1.00D-06.
 No special actions if energy rises.
 SCF Done:  E(UPM6) = -0.403896306684     A.U. after   12 cycles
            NFock= 11  Conv=0.94D-08     -V/T= 0.9994
 <Sx>= 0.0000 <Sy>= 0.0000 <Sz>= 0.0000 <S**2>=-0.0000 S=-0.0000
 <L.S>=  0.00000000000    
 Annihilation of the first spin contaminant:
 S**2 before annihilation    -0.0000,   after     0.0000
 QCSCF skips out because SCF is already converged.

 **********************************************************************

            Population analysis using the SCF Density.

 **********************************************************************

 Alpha  occ. eigenvalues --   -1.11183  -1.05598  -1.05303  -1.05249  -1.05165
 Alpha  occ. eigenvalues --   -1.05145  -1.05118  -1.04944  -1.04873  -1.04796
 Alpha  occ. eigenvalues --   -1.04750  -1.04680  -1.04480  -1.04461  -1.04331
 Alpha  occ. eigenvalues --   -1.04103  -1.01684  -0.98569  -0.98269  -0.98179
 Alpha  occ. eigenvalues --   -0.98125  -0.98093  -0.97956  -0.97926  -0.97830
 Alpha  occ. eigenvalues --   -0.97760  -0.97756  -0.97638  -0.97407  -0.97347
 Alpha  occ. eigenvalues --   -0.97238  -0.97206  -0.96991  -0.92231  -0.88749
 Alpha  occ. eigenvalues --   -0.88665  -0.88583  -0.88387  -0.88360  -0.88257
 Alpha  occ. eigenvalues --   -0.88201  -0.88110  -0.88096  -0.88006  -0.87887
 Alpha  occ. eigenvalues --   -0.87662  -0.87558  -0.87496  -0.87210  -0.82575
 Alpha  occ. eigenvalues --   -0.79166  -0.72870  -0.65400  -0.62697  -0.62360
 Alpha  occ. eigenvalues --   -0.62115  -0.61863  -0.61677  -0.61541  -0.61491
 Alpha  occ. eigenvalues --   -0.61311  -0.61258  -0.61146  -0.61055  -0.60907
 Alpha  occ. eigenvalues --   -0.60348  -0.60300  -0.60116  -0.60033  -0.59979
 Alpha  occ. eigenvalues --   -0.59755  -0.59601  -0.59517  -0.59440  -0.59343
 Alpha  occ. eigenvalues --   -0.59256  -0.59193  -0.59103  -0.58976  -0.58927
 Alpha  occ. eigenvalues --   -0.58734  -0.58590  -0.58521  -0.58486  -0.58322
 Alpha  occ. eigenvalues --   -0.58218  -0.58017  -0.57772  -0.57721  -0.57696
 Alpha  occ. eigenvalues --   -0.57651  -0.57580  -0.57511  -0.57496  -0.57380
 Alpha  occ. eigenvalues --   -0.57240  -0.57098  -0.57044  -0.56888  -0.56776
 Alpha  occ. eigenvalues --   -0.55164  -0.53376  -0.52174  -0.51027  -0.49641
 Alpha  occ. eigenvalues --   -0.46173  -0.45354  -0.45040  -0.44756  -0.44242
 Alpha  occ. eigenvalues --   -0.44212  -0.44074  -0.44007  -0.43927  -0.43820
 Alpha  occ. eigenvalues --   -0.43748  -0.43682  -0.43612  -0.43482  -0.43456
 Alpha  occ. eigenvalues --   -0.43413  -0.43398  -0.43379  -0.43319  -0.43279
 Alpha  occ. eigenvalues --   -0.43215  -0.43145  -0.43113  -0.43041  -0.42968
 Alpha  occ. eigenvalues --   -0.42882  -0.42866  -0.42785  -0.42754  -0.42625
 Alpha  occ. eigenvalues --   -0.42585  -0.42473  -0.42365  -0.42288  -0.42086
 Alpha  occ. eigenvalues --   -0.41987  -0.41893  -0.41866  -0.41775  -0.41771
 Alpha  occ. eigenvalues --   -0.41721  -0.41669  -0.41618  -0.41584  -0.41462
 Alpha  occ. eigenvalues --   -0.41332  -0.41281  -0.41268  -0.41224  -0.41214
 Alpha  occ. eigenvalues --   -0.41131  -0.41121  -0.41055  -0.41015  -0.40875
 Alpha  occ. eigenvalues --   -0.40859  -0.40757  -0.40600  -0.40574  -0.40497
 Alpha  occ. eigenvalues --   -0.40347  -0.40320  -0.39605  -0.36930  -0.32815
 Alpha virt. eigenvalues --   -0.03657  -0.01225  -0.00927  -0.00892  -0.00837
 Alpha virt. eigenvalues --   -0.00645  -0.00616  -0.00550  -0.00516  -0.00480
 Alpha virt. eigenvalues --   -0.00459  -0.00449  -0.00378  -0.00362  -0.00253
 Alpha virt. eigenvalues --   -0.00247  -0.00244  -0.00225  -0.00203  -0.00185
 Alpha virt. eigenvalues --   -0.00166  -0.00127  -0.00075  -0.00010   0.00062
 Alpha virt. eigenvalues --    0.00395   0.00400   0.00416   0.00461   0.00498
 Alpha virt. eigenvalues --    0.00619   0.00694   0.02652   0.08950   0.14222
 Alpha virt. eigenvalues --    0.14316   0.14487   0.14607   0.14699   0.14806
 Alpha virt. eigenvalues --    0.14866   0.14930   0.15002   0.15045   0.15089
 Alpha virt. eigenvalues --    0.15132   0.15161   0.15167   0.15280   0.15368
 Alpha virt. eigenvalues --    0.15438   0.15453   0.15528   0.15598   0.15623
 Alpha virt. eigenvalues --    0.15742   0.15770   0.15860   0.15934   0.15945
 Alpha virt. eigenvalues --    0.15984   0.15994   0.16095   0.16381   0.16402
 Alpha virt. eigenvalues --    0.16425   0.16722   0.17044   0.17259   0.17964
 Alpha virt. eigenvalues --    0.18600   0.19336   0.19863   0.20436   0.21144
 Alpha virt. eigenvalues --    0.21329   0.21617   0.21837   0.22181   0.22336
 Alpha virt. eigenvalues --    3.16323   3.16785   3.17344   3.17920   3.18124
 Alpha virt. eigenvalues --    3.18374   3.18636   3.18703   3.18952   3.19084
 Alpha virt. eigenvalues --    3.19106   3.19285   3.19317   3.19546   3.19630
 Alpha virt. eigenvalues --    3.19656   3.19694   3.19831   3.19907   3.19990
 Alpha virt. eigenvalues --    3.20024   3.20189   3.20270   3.20306   3.20443
 Alpha virt. eigenvalues --    3.20486   3.20547   3.20568   3.20628   3.20671
 Alpha virt. eigenvalues --    3.20726   3.20825   3.20885   3.20980   3.21009
 Alpha virt. eigenvalues --    3.21059   3.21126   3.21166   3.21208   3.21245
 Alpha virt. eigenvalues --    3.21427   3.21460   3.21572   3.21724   3.21857
 Alpha virt. eigenvalues --    3.21980   3.22065   3.22130   3.22188   3.22338
 Alpha virt. eigenvalues --    3.22435   3.22519   3.22526   3.22619   3.22742
 Alpha virt. eigenvalues --    3.22811   3.22960   3.23018   3.23161   3.23187
 Alpha virt. eigenvalues --    3.23208   3.23323   3.23383   3.23437   3.23491
 Alpha virt. eigenvalues --    3.23522   3.23589   3.23677   3.23756   3.23793
 Alpha virt. eigenvalues --    3.23850   3.23975   3.23990   3.24008   3.24108
 Alpha virt. eigenvalues --    3.24139   3.24147   3.24259   3.24304   3.24332
 Alpha virt. eigenvalues --    3.24394   3.24497   3.24501   3.24554   3.24654
 Alpha virt. eigenvalues --    3.24678   3.24739   3.24828   3.24867   3.24966
 Alpha virt. eigenvalues --    3.24979   3.25046   3.25078   3.25099   3.25126
 Alpha virt. eigenvalues --    3.25160   3.25313   3.25405   3.25476   3.25524
 Alpha virt. eigenvalues --    3.25565   3.25697   3.25755   3.25786   3.25868
 Alpha virt. eigenvalues --    3.25909   3.25927   3.26003   3.26130   3.26229
 Alpha virt. eigenvalues --    3.26326   3.26353   3.26429   3.26486   3.26788
 Alpha virt. eigenvalues --    3.26847   3.26907   3.27039   3.27048   3.27171
 Alpha virt. eigenvalues --    3.27271   3.27352   3.27403   3.27406   3.27488
 Alpha virt. eigenvalues --    3.27559   3.27655   3.27743   3.27768   3.27848
 Alpha virt. eigenvalues --    3.27890   3.27960   3.28163   3.28170   3.28229
 Alpha virt. eigenvalues --    3.28285   3.28401   3.28479   3.28574   3.28616
 Alpha virt. eigenvalues --    3.28661   3.28708   3.28742   3.28850   3.28965
 Alpha virt. eigenvalues --    3.29164   3.29293   3.29385   3.29726   3.29958
  Beta  occ. eigenvalues --   -1.11183  -1.05598  -1.05303  -1.05249  -1.05165
  Beta  occ. eigenvalues --   -1.05145  -1.05118  -1.04944  -1.04873  -1.04796
  Beta  occ. eigenvalues --   -1.04750  -1.04680  -1.04480  -1.04461  -1.04331
  Beta  occ. eigenvalues --   -1.04103  -1.01684  -0.98569  -0.98269  -0.98179
  Beta  occ. eigenvalues --   -0.98125  -0.98093  -0.97956  -0.97926  -0.97830
  Beta  occ. eigenvalues --   -0.97760  -0.97756  -0.97638  -0.97407  -0.97347
  Beta  occ. eigenvalues --   -0.97238  -0.97206  -0.96991  -0.92231  -0.88749
  Beta  occ. eigenvalues --   -0.88665  -0.88583  -0.88387  -0.88360  -0.88257
  Beta  occ. eigenvalues --   -0.88201  -0.88110  -0.88096  -0.88006  -0.87887
  Beta  occ. eigenvalues --   -0.87662  -0.87558  -0.87496  -0.87210  -0.82575
  Beta  occ. eigenvalues --   -0.79166  -0.72870  -0.65400  -0.62697  -0.62360
  Beta  occ. eigenvalues --   -0.62115  -0.61863  -0.61677  -0.61541  -0.61491
  Beta  occ. eigenvalues --   -0.61311  -0.61258  -0.61146  -0.61055  -0.60907
  Beta  occ. eigenvalues --   -0.60348  -0.60300  -0.60116  -0.60033  -0.59979
  Beta  occ. eigenvalues --   -0.59755  -0.59601  -0.59517  -0.59440  -0.59343
  Beta  occ. eigenvalues --   -0.59256  -0.59193  -0.59103  -0.58976  -0.58927
  Beta  occ. eigenvalues --   -0.58734  -0.58590  -0.58521  -0.58486  -0.58322
  Beta  occ. eigenvalues --   -0.58218  -0.58017  -0.57772  -0.57721  -0.57696
  Beta  occ. eigenvalues --   -0.57651  -0.57580  -0.57511  -0.57496  -0.57380
  Beta  occ. eigenvalues --   -0.57240  -0.57098  -0.57044  -0.56888  -0.56776
  Beta  occ. eigenvalues --   -0.55164  -0.53376  -0.52174  -0.51027  -0.49641
  Beta  occ. eigenvalues --   -0.46173  -0.45354  -0.45040  -0.44756  -0.44242
  Beta  occ. eigenvalues --   -0.44212  -0.44074  -0.44007  -0.43927  -0.43820
  Beta  occ. eigenvalues --   -0.43748  -0.43682  -0.43612  -0.43482  -0.43456
  Beta  occ. eigenvalues --   -0.43413  -0.43398  -0.43379  -0.43319  -0.43279
  Beta  occ. eigenvalues --   -0.43215  -0.43145  -0.43113  -0.43041  -0.42968
  Beta  occ. eigenvalues --   -0.42882  -0.42866  -0.42785  -0.42754  -0.42625
  Beta  occ. eigenvalues --   -0.42585  -0.42473  -0.42365  -0.42288  -0.42086
  Beta  occ. eigenvalues --   -0.41987  -0.41893  -0.41866  -0.41775  -0.41771
  Beta  occ. eigenvalues --   -0.41721  -0.41669  -0.41618  -0.41584  -0.41462
  Beta  occ. eigenvalues --   -0.41332  -0.41281  -0.41268  -0.41224  -0.41214
  Beta  occ. eigenvalues --   -0.41131  -0.41121  -0.41055  -0.41015  -0.40875
  Beta  occ. eigenvalues --   -0.40859  -0.40757  -0.40600  -0.40574  -0.40497
  Beta  occ. eigenvalues --   -0.40347  -0.40320  -0.39605  -0.36930  -0.32815
  Beta virt. eigenvalues --   -0.03657  -0.01225  -0.00927  -0.00892  -0.00837
  Beta virt. eigenvalues --   -0.00645  -0.00616  -0.00550  -0.00516  -0.00480
  Beta virt. eigenvalues --   -0.00459  -0.00449  -0.00378  -0.00362  -0.00253
  Beta virt. eigenvalues --   -0.00247  -0.00244  -0.00225  -0.00203  -0.00185
  Beta virt. eigenvalues --   -0.00166  -0.00127  -0.00075  -0.00010   0.00062
  Beta virt. eigenvalues --    0.00395   0.00400   0.00416   0.00461   0.00498
  Beta virt. eigenvalues --    0.00619   0.00694   0.02652   0.08950   0.14222
  Beta virt. eigenvalues --    0.14316   0.14487   0.14607   0.14699   0.14806
  Beta virt. eigenvalues --    0.14866   0.14930   0.15002   0.15045   0.15089
  Beta virt. eigenvalues --    0.15132   0.15161   0.15167   0.15280   0.15368
  Beta virt. eigenvalues --    0.15438   0.15453   0.15528   0.15598   0.15623
  Beta virt. eigenvalues --    0.15742   0.15770   0.15860   0.15934   0.15945
  Beta virt. eigenvalues --    0.15984   0.15994   0.16095   0.16381   0.16402
  Beta virt. eigenvalues --    0.16425   0.16722   0.17044   0.17259   0.17964
  Beta virt. eigenvalues --    0.18600   0.19336   0.19863   0.20436   0.21144
  Beta virt. eigenvalues --    0.21329   0.21617   0.21837   0.22181   0.22336
  Beta virt. eigenvalues --    3.16323   3.16785   3.17344   3.17920   3.18124
  Beta virt. eigenvalues --    3.18374   3.18636   3.18703   3.18952   3.19084
  Beta virt. eigenvalues --    3.19106   3.19285   3.19317   3.19546   3.19630
  Beta virt. eigenvalues --    3.19656   3.19694   3.19831   3.19907   3.19990
  Beta virt. eigenvalues --    3.20024   3.20189   3.20270   3.20306   3.20443
  Beta virt. eigenvalues --    3.20486   3.20547   3.20568   3.20628   3.20671
  Beta virt. eigenvalues --    3.20726   3.20825   3.20885   3.20980   3.21009
  Beta virt. eigenvalues --    3.21059   3.21126   3.21166   3.21208   3.21245
  Beta virt. eigenvalues --    3.21427   3.21460   3.21572   3.21724   3.21857
  Beta virt. eigenvalues --    3.21980   3.22065   3.22130   3.22188   3.22338
  Beta virt. eigenvalues --    3.22435   3.22519   3.22526   3.22619   3.22742
  Beta virt. eigenvalues --    3.22811   3.22960   3.23018   3.23161   3.23187
  Beta virt. eigenvalues --    3.23208   3.23323   3.23383   3.23437   3.23491
  Beta virt. eigenvalues --    3.23522   3.23589   3.23677   3.23756   3.23793
  Beta virt. eigenvalues --    3.23850   3.23975   3.23990   3.24008   3.24108
  Beta virt. eigenvalues --    3.24139   3.24147   3.24259   3.24304   3.24332
  Beta virt. eigenvalues --    3.24394   3.24497   3.24501   3.24554   3.24654
  Beta virt. eigenvalues --    3.24678   3.24739   3.24828   3.24867   3.24966
  Beta virt. eigenvalues --    3.24979   3.25046   3.25078   3.25099   3.25126
  Beta virt. eigenvalues --    3.25160   3.25313   3.25405   3.25476   3.25524
  Beta virt. eigenvalues --    3.25565   3.25697   3.25755   3.25786   3.25868
  Beta virt. eigenvalues --    3.25909   3.25927   3.26003   3.26130   3.26229
  Beta virt. eigenvalues --    3.26326   3.26353   3.26429   3.26486   3.26788
  Beta virt. eigenvalues --    3.26847   3.26907   3.27039   3.27048   3.27171
  Beta virt. eigenvalues --    3.27271   3.27352   3.27403   3.27406   3.27488
  Beta virt. eigenvalues --    3.27559   3.27655   3.27743   3.27768   3.27848
  Beta virt. eigenvalues --    3.27890   3.27960   3.28163   3.28170   3.28229
  Beta virt. eigenvalues --    3.28285   3.28401   3.28479   3.28574   3.28616
  Beta virt. eigenvalues --    3.28661   3.28708   3.28742   3.28850   3.28965
  Beta virt. eigenvalues --    3.29164   3.29293   3.29385   3.29726   3.29958
          Condensed to atoms (all electrons):
          Atomic-Atomic Spin Densities.
 Mulliken charges and spin densities:
               1          2
     1  C   -0.015041   0.000000
     2  C   -0.141712   0.000000
     3  C   -0.148889   0.000000
     4  C   -0.157189   0.000000
     5  H    0.153315   0.000000
     6  C   -0.128941   0.000000
     7  C   -0.152491   0.000000
     8  H    0.155139   0.000000
     9  C   -0.116678   0.000000
    10  H    0.149059   0.000000
    11  C   -0.366798   0.000000
    12  H    0.156418   0.000000
    13  H    0.151175   0.000000
    14  H    0.145546   0.000000
    15  H    0.156752   0.000000
    16  H    0.162813   0.000000
    17  C   -0.139424   0.000000
    18  H    0.187905   0.000000
    19  H    0.186339   0.000000
    20  Cl  -0.094702   0.000000
    21  Cl  -0.140585   0.000000
    22  C   -0.144862   0.000000
    23  H    0.192830   0.000000
    24  H    0.191729   0.000000
    25  Cl  -0.127605   0.000000
    26  Cl  -0.111246   0.000000
    27  C   -0.143234   0.000000
    28  H    0.198384   0.000000
    29  H    0.196848   0.000000
    30  Cl  -0.126299   0.000000
    31  Cl  -0.126663   0.000000
    32  C   -0.127725   0.000000
    33  H    0.192329   0.000000
    34  H    0.191919   0.000000
    35  Cl  -0.131198   0.000000
    36  Cl  -0.123573   0.000000
    37  C   -0.137171   0.000000
    38  H    0.184764   0.000000
    39  H    0.194553   0.000000
    40  Cl  -0.101194   0.000000
    41  Cl  -0.142655   0.000000
    42  C   -0.132974   0.000000
    43  H    0.194048   0.000000
    44  H    0.195141   0.000000
    45  Cl  -0.141275   0.000000
    46  Cl  -0.114860   0.000000
    47  C   -0.141858   0.000000
    48  H    0.182909   0.000000
    49  H    0.191713   0.000000
    50  Cl  -0.117408   0.000000
    51  Cl  -0.115008   0.000000
    52  C   -0.126407   0.000000
    53  H    0.190361   0.000000
    54  H    0.195676   0.000000
    55  Cl  -0.141948   0.000000
    56  Cl  -0.117480   0.000000
    57  C   -0.138603   0.000000
    58  H    0.199279   0.000000
    59  H    0.193624   0.000000
    60  Cl  -0.134877   0.000000
    61  Cl  -0.112920   0.000000
    62  C   -0.145178   0.000000
    63  H    0.191679   0.000000
    64  H    0.186269   0.000000
    65  Cl  -0.112454   0.000000
    66  Cl  -0.121043   0.000000
    67  C   -0.132758   0.000000
    68  H    0.183889   0.000000
    69  H    0.198686   0.000000
    70  Cl  -0.117007   0.000000
    71  Cl  -0.133598   0.000000
    72  C   -0.139116   0.000000
    73  H    0.191329   0.000000
    74  H    0.189829   0.000000
    75  Cl  -0.137029   0.000000
    76  Cl  -0.106317   0.000000
    77  C   -0.143352   0.000000
    78  H    0.193044   0.000000
    79  H    0.193984   0.000000
    80  Cl  -0.121231   0.000000
    81  Cl  -0.125342   0.000000
    82  C   -0.144877   0.000000
    83  H    0.188770   0.000000
    84  H    0.188147   0.000000
    85  Cl  -0.107654   0.000000
    86  Cl  -0.129069   0.000000
    87  C   -0.149035   0.000000
    88  H    0.186181   0.000000
    89  H    0.193234   0.000000
    90  Cl  -0.116970   0.000000
    91  Cl  -0.112088   0.000000
 Sum of Mulliken charges =  -0.00000   0.00000
 Mulliken charges and spin densities with hydrogens summed into heavy atoms:
               1          2
     1  C   -0.015041   0.000000
     2  C    0.011603   0.000000
     3  C    0.006250   0.000000
     4  C   -0.008130   0.000000
     6  C    0.027477   0.000000
     7  C   -0.001316   0.000000
     9  C    0.028868   0.000000
    11  C   -0.047233   0.000000
    17  C    0.234820   0.000000
    20  Cl  -0.094702   0.000000
    21  Cl  -0.140585   0.000000
    22  C    0.239697   0.000000
    25  Cl  -0.127605   0.000000
    26  Cl  -0.111246   0.000000
    27  C    0.251998   0.000000
    30  Cl  -0.126299   0.000000
    31  Cl  -0.126663   0.000000
    32  C    0.256524   0.000000
    35  Cl  -0.131198   0.000000
    36  Cl  -0.123573   0.000000
    37  C    0.242146   0.000000
    40  Cl  -0.101194   0.000000
    41  Cl  -0.142655   0.000000
    42  C    0.256215   0.000000
    45  Cl  -0.141275   0.000000
    46  Cl  -0.114860   0.000000
    47  C    0.232764   0.000000
    50  Cl  -0.117408   0.000000
    51  Cl  -0.115008   0.000000
    52  C    0.259631   0.000000
    55  Cl  -0.141948   0.000000
    56  Cl  -0.117480   0.000000
    57  C    0.254300   0.000000
    60  Cl  -0.134877   0.000000
    61  Cl  -0.112920   0.000000
    62  C    0.232770   0.000000
    65  Cl  -0.112454   0.000000
    66  Cl  -0.121043   0.000000
    67  C    0.249817   0.000000
    70  Cl  -0.117007   0.000000
    71  Cl  -0.133598   0.000000
    72  C    0.242042   0.000000
    75  Cl  -0.137029   0.000000
    76  Cl  -0.106317   0.000000
    77  C    0.243676   0.000000
    80  Cl  -0.121231   0.000000
    81  Cl  -0.125342   0.000000
    82  C    0.232041   0.000000
    85  Cl  -0.107654   0.000000
    86  Cl  -0.129069   0.000000
    87  C    0.230379   0.000000
    90  Cl  -0.116970   0.000000
    91  Cl  -0.112088   0.000000
 Charge=             -0.0000 electrons
 Dipole moment (field-independent basis, Debye):
    X=             -0.9108    Y=             -0.2255    Z=              0.4653  Tot=              1.0473
 N-N= 5.300209450065D+03 E-N=-9.745641491980D+03  KE=-6.384494292121D+02
 Calling FoFJK, ICntrl=      2127 FMM=F ISym2X=0 I1Cent= 0 IOpClX= 1 NMat=1 NMatS=1 NMatT=0.
 Cartesian Forces:  Max     0.066354585 RMS     0.008859020
 SvSCFP is copying densities from files   528 and   530 to   603.
 ONIOM: saving gridpoint  3
 ONIOM: restoring gridpoint 17
 ONIOM: restoring gridpoint  2 on chk file.
 ONIOM: generating point  2 -- high level on model system.
 Standard basis: 6-31G(d) (6D, 7F)
   136 basis functions,   256 primitive gaussians,   136 cartesian basis functions
    29 alpha electrons       27 beta electrons
       nuclear repulsion energy       319.0633123006 Hartrees.
 NAtoms=   91 NActive=   16 NUniq=   16 SFac= 1.00D+00 NAtFMM=   60 NAOKFM=F Big=F
 Integral buffers will be    131072 words long.
 Raffenetti 2 integral format.
 Two-electron integral symmetry is turned off.
 Nuclear repulsion after empirical dispersion term =      319.0356974675 Hartrees.
 One-electron integrals computed using PRISM.
 NBasis=   136 RedAO= T EigKep=  4.73D-04  NBF=   136
 NBsUse=   136 1.00D-06 EigRej= -1.00D+00 NBFU=   136
 Initial guess from the checkpoint file:  "b.chk"
 B after Tr=     0.000466   -0.000019    0.000166
         Rot=    1.000000   -0.000066   -0.000040    0.000047 Ang=  -0.01 deg.
 Initial guess <Sx>= 0.0000 <Sy>= 0.0000 <Sz>= 1.0000 <S**2>= 2.0293 S= 1.0097
 Requested convergence on RMS density matrix=1.00D-08 within  64 cycles.
 Requested convergence on MAX density matrix=1.00D-06.
 Requested convergence on             energy=1.00D-06.
 No special actions if energy rises.
 SCF Done:  E(UB3LYP) =  -309.579039520     A.U. after   11 cycles
            NFock= 11  Conv=0.61D-08     -V/T= 2.0097
 <Sx>= 0.0000 <Sy>= 0.0000 <Sz>= 1.0000 <S**2>= 2.0293 S= 1.0097
 <L.S>=  0.00000000000    
 Annihilation of the first spin contaminant:
 S**2 before annihilation     2.0293,   after     2.0004
 QCSCF skips out because SCF is already converged.

 **********************************************************************

            Population analysis using the SCF Density.

 **********************************************************************

 Alpha  occ. eigenvalues --  -10.19799 -10.19710 -10.19509 -10.18876 -10.18754
 Alpha  occ. eigenvalues --  -10.18696 -10.18600 -10.18558  -0.85664  -0.79029
 Alpha  occ. eigenvalues --   -0.74494  -0.72148  -0.63248  -0.60011  -0.56285
 Alpha  occ. eigenvalues --   -0.51000  -0.46931  -0.45215  -0.43607  -0.41804
 Alpha  occ. eigenvalues --   -0.40777  -0.39657  -0.37070  -0.34979  -0.33478
 Alpha  occ. eigenvalues --   -0.29813  -0.25552  -0.23531  -0.13984
 Alpha virt. eigenvalues --    0.00231   0.02731   0.09772   0.11793   0.12695
 Alpha virt. eigenvalues --    0.15903   0.16059   0.16845   0.18170   0.19721
 Alpha virt. eigenvalues --    0.21111   0.26261   0.27861   0.30819   0.33546
 Alpha virt. eigenvalues --    0.36014   0.37330   0.45987   0.51367   0.52446
 Alpha virt. eigenvalues --    0.53697   0.54790   0.55318   0.57139   0.58053
 Alpha virt. eigenvalues --    0.58584   0.59656   0.60157   0.62003   0.62059
 Alpha virt. eigenvalues --    0.63284   0.64393   0.65106   0.68164   0.71592
 Alpha virt. eigenvalues --    0.77168   0.82446   0.83647   0.83922   0.84565
 Alpha virt. eigenvalues --    0.85505   0.88629   0.90593   0.92211   0.93266
 Alpha virt. eigenvalues --    0.93541   0.95499   0.98840   1.01516   1.04094
 Alpha virt. eigenvalues --    1.08535   1.14362   1.16596   1.18188   1.25817
 Alpha virt. eigenvalues --    1.28729   1.33002   1.38722   1.44029   1.44550
 Alpha virt. eigenvalues --    1.45613   1.48263   1.49291   1.51297   1.61683
 Alpha virt. eigenvalues --    1.70185   1.76778   1.80065   1.84624   1.87453
 Alpha virt. eigenvalues --    1.89329   1.91353   1.93916   1.96830   1.98057
 Alpha virt. eigenvalues --    2.04686   2.08755   2.10448   2.14293   2.14858
 Alpha virt. eigenvalues --    2.17805   2.21903   2.26302   2.31943   2.32326
 Alpha virt. eigenvalues --    2.34717   2.46943   2.50362   2.56503   2.59564
 Alpha virt. eigenvalues --    2.61866   2.65765   2.73902   2.75611   2.76947
 Alpha virt. eigenvalues --    2.86014   2.91696   3.13727   3.41708   4.06488
 Alpha virt. eigenvalues --    4.09419   4.12344   4.13154   4.24205   4.32886
 Alpha virt. eigenvalues --    4.42187   4.71061
  Beta  occ. eigenvalues --  -10.19597 -10.18946 -10.18791 -10.18725 -10.18447
  Beta  occ. eigenvalues --  -10.18426 -10.18402 -10.18317  -0.85060  -0.77216
  Beta  occ. eigenvalues --   -0.74122  -0.69807  -0.61529  -0.59629  -0.55106
  Beta  occ. eigenvalues --   -0.50407  -0.46274  -0.44746  -0.42803  -0.41662
  Beta  occ. eigenvalues --   -0.39713  -0.38411  -0.35798  -0.34528  -0.33242
  Beta  occ. eigenvalues --   -0.26159  -0.24531
  Beta virt. eigenvalues --   -0.11488  -0.02259   0.01151   0.06097   0.10034
  Beta virt. eigenvalues --    0.12506   0.13755   0.16376   0.16507   0.18082
  Beta virt. eigenvalues --    0.18719   0.20327   0.21982   0.27168   0.28793
  Beta virt. eigenvalues --    0.30896   0.33920   0.36829   0.37962   0.46415
  Beta virt. eigenvalues --    0.52746   0.53123   0.54738   0.55321   0.57676
  Beta virt. eigenvalues --    0.58235   0.59381   0.59669   0.60099   0.61970
  Beta virt. eigenvalues --    0.62489   0.63795   0.64106   0.65817   0.67031
  Beta virt. eigenvalues --    0.69832   0.72934   0.77649   0.83047   0.83964
  Beta virt. eigenvalues --    0.84216   0.85437   0.85749   0.89380   0.90996
  Beta virt. eigenvalues --    0.93159   0.93968   0.94799   0.96063   0.99861
  Beta virt. eigenvalues --    1.01894   1.05394   1.09174   1.15016   1.17000
  Beta virt. eigenvalues --    1.18669   1.26459   1.29826   1.34424   1.40031
  Beta virt. eigenvalues --    1.44571   1.45356   1.45973   1.49019   1.50305
  Beta virt. eigenvalues --    1.51743   1.66169   1.73646   1.78523   1.80492
  Beta virt. eigenvalues --    1.86804   1.89224   1.90827   1.92607   1.95914
  Beta virt. eigenvalues --    1.97596   1.99444   2.05494   2.12048   2.12996
  Beta virt. eigenvalues --    2.15134   2.15421   2.18502   2.23169   2.27462
  Beta virt. eigenvalues --    2.32801   2.34113   2.36807   2.48788   2.52003
  Beta virt. eigenvalues --    2.57675   2.60014   2.63345   2.66563   2.74364
  Beta virt. eigenvalues --    2.75834   2.77307   2.86410   2.92330   3.14130
  Beta virt. eigenvalues --    3.41917   4.08087   4.10151   4.12603   4.14730
  Beta virt. eigenvalues --    4.26280   4.33154   4.43105   4.71544
          Condensed to atoms (all electrons):
          Atomic-Atomic Spin Densities.
 Mulliken charges and spin densities:
               1          2
     1  C    0.192409  -0.102819
     2  C   -0.182192   0.238037
     3  C   -0.185459   0.280203
     4  C   -0.129619  -0.128470
     5  H    0.125581  -0.010622
     6  C   -0.177178   0.615470
     7  C   -0.126385  -0.145406
     8  H    0.126022  -0.010881
     9  C   -0.134037   0.321468
    10  H    0.128713   0.004817
    11  C   -0.342015   1.021078
    12  H    0.136205  -0.008595
    13  H    0.128698   0.005508
    14  H    0.128827  -0.015549
    15  H    0.154025  -0.035695
    16  H    0.156405  -0.028543
    17  C    0.000000   0.000000
    18  H    0.000000   0.000000
    19  H    0.000000   0.000000
    20  Cl   0.000000   0.000000
    21  Cl   0.000000   0.000000
    22  C    0.000000   0.000000
    23  H    0.000000   0.000000
    24  H    0.000000   0.000000
    25  Cl   0.000000   0.000000
    26  Cl   0.000000   0.000000
    27  C    0.000000   0.000000
    28  H    0.000000   0.000000
    29  H    0.000000   0.000000
    30  Cl   0.000000   0.000000
    31  Cl   0.000000   0.000000
    32  C    0.000000   0.000000
    33  H    0.000000   0.000000
    34  H    0.000000   0.000000
    35  Cl   0.000000   0.000000
    36  Cl   0.000000   0.000000
    37  C    0.000000   0.000000
    38  H    0.000000   0.000000
    39  H    0.000000   0.000000
    40  Cl   0.000000   0.000000
    41  Cl   0.000000   0.000000
    42  C    0.000000   0.000000
    43  H    0.000000   0.000000
    44  H    0.000000   0.000000
    45  Cl   0.000000   0.000000
    46  Cl   0.000000   0.000000
    47  C    0.000000   0.000000
    48  H    0.000000   0.000000
    49  H    0.000000   0.000000
    50  Cl   0.000000   0.000000
    51  Cl   0.000000   0.000000
    52  C    0.000000   0.000000
    53  H    0.000000   0.000000
    54  H    0.000000   0.000000
    55  Cl   0.000000   0.000000
    56  Cl   0.000000   0.000000
    57  C    0.000000   0.000000
    58  H    0.000000   0.000000
    59  H    0.000000   0.000000
    60  Cl   0.000000   0.000000
    61  Cl   0.000000   0.000000
    62  C    0.000000   0.000000
    63  H    0.000000   0.000000
    64  H    0.000000   0.000000
    65  Cl   0.000000   0.000000
    66  Cl   0.000000   0.000000
    67  C    0.000000   0.000000
    68  H    0.000000   0.000000
    69  H    0.000000   0.000000
    70  Cl   0.000000   0.000000
    71  Cl   0.000000   0.000000
    72  C    0.000000   0.000000
    73  H    0.000000   0.000000
    74  H    0.000000   0.000000
    75  Cl   0.000000   0.000000
    76  Cl   0.000000   0.000000
    77  C    0.000000   0.000000
    78  H    0.000000   0.000000
    79  H    0.000000   0.000000
    80  Cl   0.000000   0.000000
    81  Cl   0.000000   0.000000
    82  C    0.000000   0.000000
    83  H    0.000000   0.000000
    84  H    0.000000   0.000000
    85  Cl   0.000000   0.000000
    86  Cl   0.000000   0.000000
    87  C    0.000000   0.000000
    88  H    0.000000   0.000000
    89  H    0.000000   0.000000
    90  Cl   0.000000   0.000000
    91  Cl   0.000000   0.000000
 Sum of Mulliken charges =  -0.00000   2.00000
 Mulliken charges and spin densities with hydrogens summed into heavy atoms:
               1          2
     1  C    0.192409  -0.102819
     2  C   -0.056611   0.227415
     3  C   -0.059437   0.269322
     4  C   -0.000906  -0.123654
     6  C   -0.040973   0.606875
     7  C    0.002313  -0.139898
     9  C   -0.005210   0.305919
    11  C   -0.031585   0.956840
    17  C    0.000000   0.000000
    20  Cl   0.000000   0.000000
    21  Cl   0.000000   0.000000
    22  C    0.000000   0.000000
    25  Cl   0.000000   0.000000
    26  Cl   0.000000   0.000000
    27  C    0.000000   0.000000
    30  Cl   0.000000   0.000000
    31  Cl   0.000000   0.000000
    32  C    0.000000   0.000000
    35  Cl   0.000000   0.000000
    36  Cl   0.000000   0.000000
    37  C    0.000000   0.000000
    40  Cl   0.000000   0.000000
    41  Cl   0.000000   0.000000
    42  C    0.000000   0.000000
    45  Cl   0.000000   0.000000
    46  Cl   0.000000   0.000000
    47  C    0.000000   0.000000
    50  Cl   0.000000   0.000000
    51  Cl   0.000000   0.000000
    52  C    0.000000   0.000000
    55  Cl   0.000000   0.000000
    56  Cl   0.000000   0.000000
    57  C    0.000000   0.000000
    60  Cl   0.000000   0.000000
    61  Cl   0.000000   0.000000
    62  C    0.000000   0.000000
    65  Cl   0.000000   0.000000
    66  Cl   0.000000   0.000000
    67  C    0.000000   0.000000
    70  Cl   0.000000   0.000000
    71  Cl   0.000000   0.000000
    72  C    0.000000   0.000000
    75  Cl   0.000000   0.000000
    76  Cl   0.000000   0.000000
    77  C    0.000000   0.000000
    80  Cl   0.000000   0.000000
    81  Cl   0.000000   0.000000
    82  C    0.000000   0.000000
    85  Cl   0.000000   0.000000
    86  Cl   0.000000   0.000000
    87  C    0.000000   0.000000
    90  Cl   0.000000   0.000000
    91  Cl   0.000000   0.000000
 Electronic spatial extent (au):  <R**2>=            995.6480
 Charge=             -0.0000 electrons
 Dipole moment (field-independent basis, Debye):
    X=              0.0780    Y=             -0.0331    Z=             -0.0524  Tot=              0.0996
 Quadrupole moment (field-independent basis, Debye-Ang):
   XX=            -42.2647   YY=            -44.8215   ZZ=            -48.8662
   XY=              0.0426   XZ=             -0.1046   YZ=             -3.4680
 Traceless Quadrupole moment (field-independent basis, Debye-Ang):
   XX=              3.0528   YY=              0.4959   ZZ=             -3.5487
   XY=              0.0426   XZ=             -0.1046   YZ=             -3.4680
 Octapole moment (field-independent basis, Debye-Ang**2):
  XXX=             -0.6710  YYY=              7.0073  ZZZ=             31.0406  XYY=             -0.1973
  XXY=              4.3492  XXZ=             12.6335  XZZ=              2.2210  YZZ=              5.4665
  YYZ=             11.4147  XYZ=              0.6142
 Hexadecapole moment (field-independent basis, Debye-Ang**3):
 XXXX=           -843.1226 YYYY=           -307.6547 ZZZZ=           -157.7468 XXXY=            -52.8608
 XXXZ=             72.2476 YYYX=            -66.0827 YYYZ=             58.5603 ZZZX=             66.0724
 ZZZY=             68.5550 XXYY=           -192.3875 XXZZ=           -186.6432 YYZZ=            -74.0083
 XXYZ=             12.3417 YYXZ=             20.1895 ZZXY=            -18.5003
 N-N= 3.190356974675D+02 E-N=-1.354463814469D+03  KE= 3.066164739315D+02
                          Isotropic Fermi Contact Couplings
        Atom                 a.u.       MegaHertz       Gauss      10(-4) cm-1
     1  C(13)             -0.00504      -2.83377      -1.01116      -0.94524
     2  C(13)              0.02476      13.91544       4.96538       4.64169
     3  C(13)              0.03109      17.47657       6.23608       5.82956
     4  C(13)             -0.01958     -11.00800      -3.92793      -3.67188
     5  H(1)              -0.00370      -8.26047      -2.94754      -2.75540
     6  C(13)              0.04598      25.84265       9.22130       8.62018
     7  C(13)             -0.02173     -12.21530      -4.35872      -4.07459
     8  H(1)              -0.00409      -9.13262      -3.25875      -3.04631
     9  C(13)              0.03504      19.69726       7.02847       6.57030
    10  H(1)               0.00152       3.39058       1.20984       1.13098
    11  C(13)              0.08702      48.91323      17.45346      16.31570
    12  H(1)               0.00280       6.24996       2.23014       2.08476
    13  H(1)               0.00174       3.89842       1.39105       1.30037
    14  H(1)              -0.00482     -10.76966      -3.84288      -3.59237
    15  H(1)              -0.00761     -17.00875      -6.06915      -5.67351
    16  H(1)              -0.00601     -13.42907      -4.79183      -4.47946
 --------------------------------------------------------
       Center         ----  Spin Dipole Couplings  ----
                      3XX-RR        3YY-RR        3ZZ-RR
 --------------------------------------------------------
     1   Atom        0.072730     -0.005563     -0.067167
     2   Atom       -0.118354     -0.047495      0.165849
     3   Atom       -0.123957     -0.049873      0.173830
     4   Atom        0.055709      0.015501     -0.071210
     5   Atom       -0.005312      0.008701     -0.003390
     6   Atom       -0.345854     -0.112600      0.458454
     7   Atom        0.063595      0.020870     -0.084465
     8   Atom        0.004154      0.004084     -0.008238
     9   Atom       -0.148655     -0.077533      0.226188
    10   Atom        0.005213     -0.000981     -0.004231
    11   Atom       -0.089623      0.272630     -0.183007
    12   Atom       -0.026310      0.032532     -0.006222
    13   Atom        0.006456     -0.001999     -0.004457
    14   Atom        0.024375     -0.018449     -0.005926
    15   Atom        0.057253     -0.015732     -0.041521
    16   Atom       -0.041013     -0.019779      0.060793
 --------------------------------------------------------
                        XY            XZ            YZ
 --------------------------------------------------------
     1   Atom        0.037104      0.041907     -0.027337
     2   Atom        0.010245      0.007952      0.138599
     3   Atom        0.018350      0.027162      0.159504
     4   Atom       -0.006525     -0.008807     -0.057972
     5   Atom       -0.006912      0.003496     -0.008507
     6   Atom        0.073182      0.106069      0.436249
     7   Atom        0.001126     -0.012282     -0.063577
     8   Atom        0.004075     -0.001502     -0.010351
     9   Atom        0.009118      0.014356      0.185338
    10   Atom       -0.001308     -0.000082     -0.001732
    11   Atom       -0.590478     -0.399587      0.527327
    12   Atom       -0.033769      0.018929     -0.020507
    13   Atom        0.002566     -0.001978     -0.002054
    14   Atom        0.003278     -0.002718      0.007414
    15   Atom        0.031456      0.026355      0.039413
    16   Atom       -0.036680      0.020426     -0.030137
 --------------------------------------------------------


 ---------------------------------------------------------------------------------
              Anisotropic Spin Dipole Couplings in Principal Axis System
 ---------------------------------------------------------------------------------

       Atom             a.u.   MegaHertz   Gauss  10(-4) cm-1        Axes

              Baa    -0.0943   -12.661    -4.518    -4.223 -0.3050  0.3944  0.8669
     1 C(13)  Bbb     0.0011     0.152     0.054     0.051 -0.1816  0.8694 -0.4594
              Bcc     0.0932    12.509     4.463     4.173  0.9349  0.2976  0.1936
 
              Baa    -0.1231   -16.519    -5.895    -5.510  0.7924 -0.5583  0.2460
     2 C(13)  Bbb    -0.1114   -14.943    -5.332    -4.984  0.6092  0.7022 -0.3686
              Bcc     0.2345    31.462    11.226    10.495  0.0330  0.4419  0.8965
 
              Baa    -0.1346   -18.062    -6.445    -6.025 -0.4266  0.8182 -0.3855
     3 C(13)  Bbb    -0.1250   -16.768    -5.983    -5.593  0.9005  0.3443 -0.2657
              Bcc     0.2596    34.830    12.428    11.618  0.0846  0.4605  0.8836
 
              Baa    -0.1010   -13.552    -4.836    -4.520  0.0687  0.4476  0.8916
     4 C(13)  Bbb     0.0442     5.937     2.119     1.980  0.1522  0.8785 -0.4527
              Bcc     0.0567     7.615     2.717     2.540  0.9860 -0.1669  0.0077
 
              Baa    -0.0081    -4.347    -1.551    -1.450  0.9273  0.3740 -0.0127
     5 H(1)   Bbb    -0.0078    -4.146    -1.480    -1.383 -0.1502  0.4032  0.9027
              Bcc     0.0159     8.493     3.031     2.833 -0.3427  0.8352 -0.4301
 
              Baa    -0.3702   -49.677   -17.726   -16.570  0.8377 -0.5201  0.1666
     6 C(13)  Bbb    -0.3397   -45.579   -16.264   -15.204  0.5327  0.7108 -0.4593
              Bcc     0.7099    95.256    33.990    31.774  0.1205  0.4735  0.8725
 
              Baa    -0.1150   -15.431    -5.506    -5.147  0.0595  0.4227  0.9043
     7 C(13)  Bbb     0.0483     6.484     2.314     2.163 -0.3640  0.8527 -0.3746
              Bcc     0.0667     8.947     3.192     2.984  0.9295  0.3069 -0.2046
 
              Baa    -0.0142    -7.551    -2.694    -2.519 -0.0403  0.5000  0.8651
     8 H(1)   Bbb     0.0019     1.018     0.363     0.339  0.8823 -0.3885  0.2657
              Bcc     0.0122     6.533     2.331     2.179  0.4689  0.7740 -0.4255
 
              Baa    -0.1655   -22.215    -7.927    -7.410 -0.1277  0.8983 -0.4203
     9 C(13)  Bbb    -0.1490   -19.994    -7.134    -6.669  0.9911  0.1000 -0.0873
              Bcc     0.3145    42.210    15.061    14.080  0.0364  0.4278  0.9032
 
              Baa    -0.0050    -2.677    -0.955    -0.893  0.0597  0.4100  0.9101
    10 H(1)   Bbb    -0.0005    -0.250    -0.089    -0.083  0.1986  0.8887 -0.4133
              Bcc     0.0055     2.926     1.044     0.976  0.9783 -0.2055  0.0284
 
              Baa    -0.5387   -72.285   -25.793   -24.112  0.6327 -0.0421  0.7732
    11 C(13)  Bbb    -0.5223   -70.089   -25.009   -23.379  0.5676  0.7044 -0.4262
              Bcc     1.0610   142.374    50.803    47.491 -0.5267  0.7086  0.4696
 
              Baa    -0.0442   -23.579    -8.413    -7.865  0.9048  0.3245 -0.2758
    12 H(1)   Bbb    -0.0146    -7.808    -2.786    -2.605  0.1045  0.4585  0.8825
              Bcc     0.0588    31.387    11.200    10.470 -0.4128  0.8273 -0.3810
 
              Baa    -0.0056    -3.011    -1.074    -1.004  0.0456  0.4661  0.8836
    13 H(1)   Bbb    -0.0020    -1.087    -0.388    -0.363 -0.3509  0.8356 -0.4227
              Bcc     0.0077     4.098     1.462     1.367  0.9353  0.2908 -0.2016
 
              Baa    -0.0223   -11.875    -4.237    -3.961 -0.0881  0.9014 -0.4239
    14 H(1)   Bbb    -0.0025    -1.347    -0.481    -0.449  0.0390  0.4283  0.9028
              Bcc     0.0248    13.222     4.718     4.410  0.9954  0.0630 -0.0729
 
              Baa    -0.0702   -37.441   -13.360   -12.489 -0.0268 -0.5760  0.8170
    15 H(1)   Bbb    -0.0115    -6.128    -2.187    -2.044 -0.5107  0.7105  0.4841
              Bcc     0.0817    43.569    15.547    14.533  0.8593  0.4043  0.3132
 
              Baa    -0.0686   -36.607   -13.062   -12.211  0.7947  0.6068  0.0159
    16 H(1)   Bbb    -0.0107    -5.706    -2.036    -1.903 -0.5467  0.7042  0.4531
              Bcc     0.0793    42.313    15.098    14.114  0.2637 -0.3687  0.8913
 

 ---------------------------------------------------------------------------------

 Calling FoFJK, ICntrl=      2127 FMM=F ISym2X=0 I1Cent= 0 IOpClX= 1 NMat=1 NMatS=1 NMatT=0.
 Cartesian Forces:  Max     0.031121483 RMS     0.003462648
 SvSCFP is copying densities from files   528 and   530 to   603.
 ONIOM: saving gridpoint  2
 ONIOM: restoring gridpoint 17
 ONIOM: restoring gridpoint  1 on chk file.
 ONIOM: generating point  1 -- low level on model system.
 Standard basis: VSTO-6G (5D, 7F)
    40 basis functions,   240 primitive gaussians,    40 cartesian basis functions
    21 alpha electrons       19 beta electrons
       nuclear repulsion energy       184.5116989771 Hartrees.
 Integral buffers will be    131072 words long.
 Regular integral format.
 Two-electron integral symmetry is turned off.
 Do NDO integrals.
 One-electron integrals computed using PRISM.
 NBasis=    40 RedAO= F EigKep=  0.00D+00  NBF=    40
 NBsUse=    40 1.00D-04 EigRej=  0.00D+00 NBFU=    40
 Initial guess from the checkpoint file:  "b.chk"
 B after Tr=     0.000466   -0.000019    0.000166
         Rot=    1.000000   -0.000066   -0.000040    0.000047 Ang=  -0.01 deg.
 Initial guess <Sx>= 0.0000 <Sy>= 0.0000 <Sz>= 1.0000 <S**2>= 2.3262 S= 1.1051
 Keep J ints in memory in canonical form, NReq=867663.
 Overlap will be assumed to be unity.
 Requested convergence on RMS density matrix=1.00D-08 within  64 cycles.
 Requested convergence on MAX density matrix=1.00D-06.
 Requested convergence on             energy=1.00D-06.
 No special actions if energy rises.
 SCF Done:  E(UPM6) =  0.111504768470     A.U. after   15 cycles
            NFock= 14  Conv=0.36D-08     -V/T= 1.0018
 <Sx>= 0.0000 <Sy>= 0.0000 <Sz>= 1.0000 <S**2>= 2.3248 S= 1.1046
 <L.S>=  0.00000000000    
 Annihilation of the first spin contaminant:
 S**2 before annihilation     2.3248,   after     2.0543
 QCSCF skips out because SCF is already converged.

 **********************************************************************

            Population analysis using the SCF Density.

 **********************************************************************

 Alpha  occ. eigenvalues --   -1.09821  -1.00350  -0.95916  -0.90971  -0.81593
 Alpha  occ. eigenvalues --   -0.77958  -0.71754  -0.63950  -0.58929  -0.56849
 Alpha  occ. eigenvalues --   -0.54576  -0.52384  -0.51334  -0.50331  -0.48606
 Alpha  occ. eigenvalues --   -0.45095  -0.43319  -0.40889  -0.37172  -0.35897
 Alpha  occ. eigenvalues --   -0.29957
 Alpha virt. eigenvalues --    0.01880   0.02560   0.09675   0.15186   0.15629
 Alpha virt. eigenvalues --    0.17165   0.18202   0.18344   0.18951   0.19641
 Alpha virt. eigenvalues --    0.20338   0.20887   0.21470   0.22046   0.22274
 Alpha virt. eigenvalues --    0.22485   0.22807   0.23152   0.23400
  Beta  occ. eigenvalues --   -1.09692  -0.99683  -0.95810  -0.89911  -0.80896
  Beta  occ. eigenvalues --   -0.77730  -0.71056  -0.63352  -0.58288  -0.56474
  Beta  occ. eigenvalues --   -0.53615  -0.52258  -0.50100  -0.48891  -0.47636
  Beta  occ. eigenvalues --   -0.44565  -0.43086  -0.36820  -0.36279
  Beta virt. eigenvalues --   -0.03396   0.02214   0.02707   0.07034   0.10845
  Beta virt. eigenvalues --    0.15661   0.15973   0.17892   0.18460   0.18878
  Beta virt. eigenvalues --    0.19454   0.20187   0.20681   0.21346   0.21789
  Beta virt. eigenvalues --    0.22353   0.22880   0.22961   0.23220   0.23508
  Beta virt. eigenvalues --    0.23783
          Condensed to atoms (all electrons):
          Atomic-Atomic Spin Densities.
 Mulliken charges and spin densities:
               1          2
     1  C    0.042020  -0.377470
     2  C   -0.173596   0.444216
     3  C   -0.160194   0.461816
     4  C   -0.134974  -0.364015
     5  H    0.148177  -0.015570
     6  C   -0.171972   0.789119
     7  C   -0.140913  -0.367476
     8  H    0.150950  -0.016257
     9  C   -0.146466   0.451318
    10  H    0.144561   0.012669
    11  C   -0.304489   1.039301
    12  H    0.152760  -0.010850
    13  H    0.144776   0.012857
    14  H    0.145185  -0.015526
    15  H    0.151510  -0.022966
    16  H    0.152665  -0.021165
    17  C    0.000000   0.000000
    18  H    0.000000   0.000000
    19  H    0.000000   0.000000
    20  Cl   0.000000   0.000000
    21  Cl   0.000000   0.000000
    22  C    0.000000   0.000000
    23  H    0.000000   0.000000
    24  H    0.000000   0.000000
    25  Cl   0.000000   0.000000
    26  Cl   0.000000   0.000000
    27  C    0.000000   0.000000
    28  H    0.000000   0.000000
    29  H    0.000000   0.000000
    30  Cl   0.000000   0.000000
    31  Cl   0.000000   0.000000
    32  C    0.000000   0.000000
    33  H    0.000000   0.000000
    34  H    0.000000   0.000000
    35  Cl   0.000000   0.000000
    36  Cl   0.000000   0.000000
    37  C    0.000000   0.000000
    38  H    0.000000   0.000000
    39  H    0.000000   0.000000
    40  Cl   0.000000   0.000000
    41  Cl   0.000000   0.000000
    42  C    0.000000   0.000000
    43  H    0.000000   0.000000
    44  H    0.000000   0.000000
    45  Cl   0.000000   0.000000
    46  Cl   0.000000   0.000000
    47  C    0.000000   0.000000
    48  H    0.000000   0.000000
    49  H    0.000000   0.000000
    50  Cl   0.000000   0.000000
    51  Cl   0.000000   0.000000
    52  C    0.000000   0.000000
    53  H    0.000000   0.000000
    54  H    0.000000   0.000000
    55  Cl   0.000000   0.000000
    56  Cl   0.000000   0.000000
    57  C    0.000000   0.000000
    58  H    0.000000   0.000000
    59  H    0.000000   0.000000
    60  Cl   0.000000   0.000000
    61  Cl   0.000000   0.000000
    62  C    0.000000   0.000000
    63  H    0.000000   0.000000
    64  H    0.000000   0.000000
    65  Cl   0.000000   0.000000
    66  Cl   0.000000   0.000000
    67  C    0.000000   0.000000
    68  H    0.000000   0.000000
    69  H    0.000000   0.000000
    70  Cl   0.000000   0.000000
    71  Cl   0.000000   0.000000
    72  C    0.000000   0.000000
    73  H    0.000000   0.000000
    74  H    0.000000   0.000000
    75  Cl   0.000000   0.000000
    76  Cl   0.000000   0.000000
    77  C    0.000000   0.000000
    78  H    0.000000   0.000000
    79  H    0.000000   0.000000
    80  Cl   0.000000   0.000000
    81  Cl   0.000000   0.000000
    82  C    0.000000   0.000000
    83  H    0.000000   0.000000
    84  H    0.000000   0.000000
    85  Cl   0.000000   0.000000
    86  Cl   0.000000   0.000000
    87  C    0.000000   0.000000
    88  H    0.000000   0.000000
    89  H    0.000000   0.000000
    90  Cl   0.000000   0.000000
    91  Cl   0.000000   0.000000
 Sum of Mulliken charges =   0.00000   2.00000
 Mulliken charges and spin densities with hydrogens summed into heavy atoms:
               1          2
     1  C    0.042020  -0.377470
     2  C   -0.025419   0.428646
     3  C   -0.009244   0.445559
     4  C    0.009587  -0.351346
     6  C   -0.019212   0.778269
     7  C    0.003863  -0.354619
     9  C   -0.001281   0.435791
    11  C   -0.000315   0.995170
    17  C    0.000000   0.000000
    20  Cl   0.000000   0.000000
    21  Cl   0.000000   0.000000
    22  C    0.000000   0.000000
    25  Cl   0.000000   0.000000
    26  Cl   0.000000   0.000000
    27  C    0.000000   0.000000
    30  Cl   0.000000   0.000000
    31  Cl   0.000000   0.000000
    32  C    0.000000   0.000000
    35  Cl   0.000000   0.000000
    36  Cl   0.000000   0.000000
    37  C    0.000000   0.000000
    40  Cl   0.000000   0.000000
    41  Cl   0.000000   0.000000
    42  C    0.000000   0.000000
    45  Cl   0.000000   0.000000
    46  Cl   0.000000   0.000000
    47  C    0.000000   0.000000
    50  Cl   0.000000   0.000000
    51  Cl   0.000000   0.000000
    52  C    0.000000   0.000000
    55  Cl   0.000000   0.000000
    56  Cl   0.000000   0.000000
    57  C    0.000000   0.000000
    60  Cl   0.000000   0.000000
    61  Cl   0.000000   0.000000
    62  C    0.000000   0.000000
    65  Cl   0.000000   0.000000
    66  Cl   0.000000   0.000000
    67  C    0.000000   0.000000
    70  Cl   0.000000   0.000000
    71  Cl   0.000000   0.000000
    72  C    0.000000   0.000000
    75  Cl   0.000000   0.000000
    76  Cl   0.000000   0.000000
    77  C    0.000000   0.000000
    80  Cl   0.000000   0.000000
    81  Cl   0.000000   0.000000
    82  C    0.000000   0.000000
    85  Cl   0.000000   0.000000
    86  Cl   0.000000   0.000000
    87  C    0.000000   0.000000
    90  Cl   0.000000   0.000000
    91  Cl   0.000000   0.000000
 Charge=             -0.0000 electrons
 Dipole moment (field-independent basis, Debye):
    X=              0.0082    Y=             -0.0115    Z=             -0.0949  Tot=              0.0959
 N-N= 1.845116989771D+02 E-N=-2.804739937589D+02  KE=-6.318845883314D+01
 Calling FoFJK, ICntrl=      2127 FMM=F ISym2X=0 I1Cent= 0 IOpClX= 1 NMat=1 NMatS=1 NMatT=0.
 Cartesian Forces:  Max     0.021281229 RMS     0.002826323
 SvSCFP is copying densities from files   528 and   530 to   603.
 ONIOM: saving gridpoint  1
 ONIOM: restoring gridpoint  3
 ONIOM: calculating energy.
 ONIOM: gridpoint  1 method:  low   system:  model energy:     0.111504768470
 ONIOM: gridpoint  2 method:  high  system:  model energy:  -309.579039519815
 ONIOM: gridpoint  3 method:  low   system:  real  energy:    -0.403896306684
 ONIOM: extrapolated energy =    -310.094440594969
 ONIOM: calculating first derivatives.
 ONIOM: calculating electric field derivatives.
 ONIOM: Integrating ONIOM file  4 number   619
 ONIOM: Dipole        =-3.30865984D-01-9.71986724D-02 1.99764154D-01
 ONIOM: Dipole moment (Debye):
    X=    -0.8410    Y=    -0.2471    Z=     0.5077  Tot=     1.0130
 ONIOM: Integrating ONIOM file  5 number   695
 Anisotropic Hyperfine tensors: 
                 1             2             3             4             5 
      1   0.727303D-01 -0.118354D+00 -0.123957D+00  0.557092D-01 -0.531172D-02
      2   0.371038D-01  0.102451D-01  0.183498D-01 -0.652467D-02 -0.691203D-02
      3  -0.556310D-02 -0.474954D-01 -0.498730D-01  0.155009D-01  0.870150D-02
      4   0.419073D-01  0.795183D-02  0.271618D-01 -0.880665D-02  0.349639D-02
      5  -0.273365D-01  0.138599D+00  0.159504D+00 -0.579724D-01 -0.850738D-02
      6  -0.671672D-01  0.165849D+00  0.173830D+00 -0.712101D-01 -0.338978D-02
                 6             7             8             9            10 
      1  -0.345854D+00  0.635947D-01  0.415402D-02 -0.148655D+00  0.521254D-02
      2   0.731818D-01  0.112555D-02  0.407525D-02  0.911838D-02 -0.130771D-02
      3  -0.112600D+00  0.208703D-01  0.408437D-02 -0.775327D-01 -0.981077D-03
      4   0.106069D+00 -0.122825D-01 -0.150248D-02  0.143565D-01 -0.818118D-04
      5   0.436249D+00 -0.635769D-01 -0.103513D-01  0.185338D+00 -0.173231D-02
      6   0.458454D+00 -0.844649D-01 -0.823839D-02  0.226188D+00 -0.423147D-02
                11            12            13            14            15 
      1  -0.896229D-01 -0.263103D-01  0.645560D-02  0.243748D-01  0.572526D-01
      2  -0.590478D+00 -0.337688D-01  0.256597D-02  0.327758D-02  0.314557D-01
      3   0.272630D+00  0.325318D-01 -0.199878D-02 -0.184493D-01 -0.157318D-01
      4  -0.399587D+00  0.189288D-01 -0.197773D-02 -0.271762D-02  0.263547D-01
      5   0.527327D+00 -0.205072D-01 -0.205447D-02  0.741373D-02  0.394134D-01
      6  -0.183007D+00 -0.622151D-02 -0.445682D-02 -0.592556D-02 -0.415208D-01
                16            17            18            19            20 
      1  -0.410134D-01  0.000000D+00  0.000000D+00  0.000000D+00  0.000000D+00
      2  -0.366796D-01  0.000000D+00  0.000000D+00  0.000000D+00  0.000000D+00
      3  -0.197793D-01  0.000000D+00  0.000000D+00  0.000000D+00  0.000000D+00
      4   0.204255D-01  0.000000D+00  0.000000D+00  0.000000D+00  0.000000D+00
      5  -0.301374D-01  0.000000D+00  0.000000D+00  0.000000D+00  0.000000D+00
      6   0.607927D-01  0.000000D+00  0.000000D+00  0.000000D+00  0.000000D+00
                21            22            23            24            25 
      1   0.000000D+00  0.000000D+00  0.000000D+00  0.000000D+00  0.000000D+00
      2   0.000000D+00  0.000000D+00  0.000000D+00  0.000000D+00  0.000000D+00
      3   0.000000D+00  0.000000D+00  0.000000D+00  0.000000D+00  0.000000D+00
      4   0.000000D+00  0.000000D+00  0.000000D+00  0.000000D+00  0.000000D+00
      5   0.000000D+00  0.000000D+00  0.000000D+00  0.000000D+00  0.000000D+00
      6   0.000000D+00  0.000000D+00  0.000000D+00  0.000000D+00  0.000000D+00
                26            27            28            29            30 
      1   0.000000D+00  0.000000D+00  0.000000D+00  0.000000D+00  0.000000D+00
      2   0.000000D+00  0.000000D+00  0.000000D+00  0.000000D+00  0.000000D+00
      3   0.000000D+00  0.000000D+00  0.000000D+00  0.000000D+00  0.000000D+00
      4   0.000000D+00  0.000000D+00  0.000000D+00  0.000000D+00  0.000000D+00
      5   0.000000D+00  0.000000D+00  0.000000D+00  0.000000D+00  0.000000D+00
      6   0.000000D+00  0.000000D+00  0.000000D+00  0.000000D+00  0.000000D+00
                31            32            33            34            35 
      1   0.000000D+00  0.000000D+00  0.000000D+00  0.000000D+00  0.000000D+00
      2   0.000000D+00  0.000000D+00  0.000000D+00  0.000000D+00  0.000000D+00
      3   0.000000D+00  0.000000D+00  0.000000D+00  0.000000D+00  0.000000D+00
      4   0.000000D+00  0.000000D+00  0.000000D+00  0.000000D+00  0.000000D+00
      5   0.000000D+00  0.000000D+00  0.000000D+00  0.000000D+00  0.000000D+00
      6   0.000000D+00  0.000000D+00  0.000000D+00  0.000000D+00  0.000000D+00
                36            37            38            39            40 
      1   0.000000D+00  0.000000D+00  0.000000D+00  0.000000D+00  0.000000D+00
      2   0.000000D+00  0.000000D+00  0.000000D+00  0.000000D+00  0.000000D+00
      3   0.000000D+00  0.000000D+00  0.000000D+00  0.000000D+00  0.000000D+00
      4   0.000000D+00  0.000000D+00  0.000000D+00  0.000000D+00  0.000000D+00
      5   0.000000D+00  0.000000D+00  0.000000D+00  0.000000D+00  0.000000D+00
      6   0.000000D+00  0.000000D+00  0.000000D+00  0.000000D+00  0.000000D+00
                41            42            43            44            45 
      1   0.000000D+00  0.000000D+00  0.000000D+00  0.000000D+00  0.000000D+00
      2   0.000000D+00  0.000000D+00  0.000000D+00  0.000000D+00  0.000000D+00
      3   0.000000D+00  0.000000D+00  0.000000D+00  0.000000D+00  0.000000D+00
      4   0.000000D+00  0.000000D+00  0.000000D+00  0.000000D+00  0.000000D+00
      5   0.000000D+00  0.000000D+00  0.000000D+00  0.000000D+00  0.000000D+00
      6   0.000000D+00  0.000000D+00  0.000000D+00  0.000000D+00  0.000000D+00
                46            47            48            49            50 
      1   0.000000D+00  0.000000D+00  0.000000D+00  0.000000D+00  0.000000D+00
      2   0.000000D+00  0.000000D+00  0.000000D+00  0.000000D+00  0.000000D+00
      3   0.000000D+00  0.000000D+00  0.000000D+00  0.000000D+00  0.000000D+00
      4   0.000000D+00  0.000000D+00  0.000000D+00  0.000000D+00  0.000000D+00
      5   0.000000D+00  0.000000D+00  0.000000D+00  0.000000D+00  0.000000D+00
      6   0.000000D+00  0.000000D+00  0.000000D+00  0.000000D+00  0.000000D+00
                51            52            53            54            55 
      1   0.000000D+00  0.000000D+00  0.000000D+00  0.000000D+00  0.000000D+00
      2   0.000000D+00  0.000000D+00  0.000000D+00  0.000000D+00  0.000000D+00
      3   0.000000D+00  0.000000D+00  0.000000D+00  0.000000D+00  0.000000D+00
      4   0.000000D+00  0.000000D+00  0.000000D+00  0.000000D+00  0.000000D+00
      5   0.000000D+00  0.000000D+00  0.000000D+00  0.000000D+00  0.000000D+00
      6   0.000000D+00  0.000000D+00  0.000000D+00  0.000000D+00  0.000000D+00
                56            57            58            59            60 
      1   0.000000D+00  0.000000D+00  0.000000D+00  0.000000D+00  0.000000D+00
      2   0.000000D+00  0.000000D+00  0.000000D+00  0.000000D+00  0.000000D+00
      3   0.000000D+00  0.000000D+00  0.000000D+00  0.000000D+00  0.000000D+00
      4   0.000000D+00  0.000000D+00  0.000000D+00  0.000000D+00  0.000000D+00
      5   0.000000D+00  0.000000D+00  0.000000D+00  0.000000D+00  0.000000D+00
      6   0.000000D+00  0.000000D+00  0.000000D+00  0.000000D+00  0.000000D+00
                61            62            63            64            65 
      1   0.000000D+00  0.000000D+00  0.000000D+00  0.000000D+00  0.000000D+00
      2   0.000000D+00  0.000000D+00  0.000000D+00  0.000000D+00  0.000000D+00
      3   0.000000D+00  0.000000D+00  0.000000D+00  0.000000D+00  0.000000D+00
      4   0.000000D+00  0.000000D+00  0.000000D+00  0.000000D+00  0.000000D+00
      5   0.000000D+00  0.000000D+00  0.000000D+00  0.000000D+00  0.000000D+00
      6   0.000000D+00  0.000000D+00  0.000000D+00  0.000000D+00  0.000000D+00
                66            67            68            69            70 
      1   0.000000D+00  0.000000D+00  0.000000D+00  0.000000D+00  0.000000D+00
      2   0.000000D+00  0.000000D+00  0.000000D+00  0.000000D+00  0.000000D+00
      3   0.000000D+00  0.000000D+00  0.000000D+00  0.000000D+00  0.000000D+00
      4   0.000000D+00  0.000000D+00  0.000000D+00  0.000000D+00  0.000000D+00
      5   0.000000D+00  0.000000D+00  0.000000D+00  0.000000D+00  0.000000D+00
      6   0.000000D+00  0.000000D+00  0.000000D+00  0.000000D+00  0.000000D+00
                71            72            73            74            75 
      1   0.000000D+00  0.000000D+00  0.000000D+00  0.000000D+00  0.000000D+00
      2   0.000000D+00  0.000000D+00  0.000000D+00  0.000000D+00  0.000000D+00
      3   0.000000D+00  0.000000D+00  0.000000D+00  0.000000D+00  0.000000D+00
      4   0.000000D+00  0.000000D+00  0.000000D+00  0.000000D+00  0.000000D+00
      5   0.000000D+00  0.000000D+00  0.000000D+00  0.000000D+00  0.000000D+00
      6   0.000000D+00  0.000000D+00  0.000000D+00  0.000000D+00  0.000000D+00
                76            77            78            79            80 
      1   0.000000D+00  0.000000D+00  0.000000D+00  0.000000D+00  0.000000D+00
      2   0.000000D+00  0.000000D+00  0.000000D+00  0.000000D+00  0.000000D+00
      3   0.000000D+00  0.000000D+00  0.000000D+00  0.000000D+00  0.000000D+00
      4   0.000000D+00  0.000000D+00  0.000000D+00  0.000000D+00  0.000000D+00
      5   0.000000D+00  0.000000D+00  0.000000D+00  0.000000D+00  0.000000D+00
      6   0.000000D+00  0.000000D+00  0.000000D+00  0.000000D+00  0.000000D+00
                81            82            83            84            85 
      1   0.000000D+00  0.000000D+00  0.000000D+00  0.000000D+00  0.000000D+00
      2   0.000000D+00  0.000000D+00  0.000000D+00  0.000000D+00  0.000000D+00
      3   0.000000D+00  0.000000D+00  0.000000D+00  0.000000D+00  0.000000D+00
      4   0.000000D+00  0.000000D+00  0.000000D+00  0.000000D+00  0.000000D+00
      5   0.000000D+00  0.000000D+00  0.000000D+00  0.000000D+00  0.000000D+00
      6   0.000000D+00  0.000000D+00  0.000000D+00  0.000000D+00  0.000000D+00
                86            87            88            89            90 
      1   0.000000D+00  0.000000D+00  0.000000D+00  0.000000D+00  0.000000D+00
      2   0.000000D+00  0.000000D+00  0.000000D+00  0.000000D+00  0.000000D+00
      3   0.000000D+00  0.000000D+00  0.000000D+00  0.000000D+00  0.000000D+00
      4   0.000000D+00  0.000000D+00  0.000000D+00  0.000000D+00  0.000000D+00
      5   0.000000D+00  0.000000D+00  0.000000D+00  0.000000D+00  0.000000D+00
      6   0.000000D+00  0.000000D+00  0.000000D+00  0.000000D+00  0.000000D+00
                91 
      1   0.000000D+00
      2   0.000000D+00
      3   0.000000D+00
      4   0.000000D+00
      5   0.000000D+00
      6   0.000000D+00
 ONIOM Fermi contact: 
               1
     1  C   -0.005041
     2  C    0.024756
     3  C    0.031092
     4  C   -0.019584
     5  H   -0.003696
     6  C    0.045976
     7  C   -0.021732
     8  H   -0.004086
     9  C    0.035043
    10  H    0.001517
    11  C    0.087019
    12  H    0.002796
    13  H    0.001744
    14  H   -0.004819
    15  H   -0.007610
    16  H   -0.006009
    17  C    0.000000
    18  H    0.000000
    19  H    0.000000
    20  Cl   0.000000
    21  Cl   0.000000
    22  C    0.000000
    23  H    0.000000
    24  H    0.000000
    25  Cl   0.000000
    26  Cl   0.000000
    27  C    0.000000
    28  H    0.000000
    29  H    0.000000
    30  Cl   0.000000
    31  Cl   0.000000
    32  C    0.000000
    33  H    0.000000
    34  H    0.000000
    35  Cl   0.000000
    36  Cl   0.000000
    37  C    0.000000
    38  H    0.000000
    39  H    0.000000
    40  Cl   0.000000
    41  Cl   0.000000
    42  C    0.000000
    43  H    0.000000
    44  H    0.000000
    45  Cl   0.000000
    46  Cl   0.000000
    47  C    0.000000
    48  H    0.000000
    49  H    0.000000
    50  Cl   0.000000
    51  Cl   0.000000
    52  C    0.000000
    53  H    0.000000
    54  H    0.000000
    55  Cl   0.000000
    56  Cl   0.000000
    57  C    0.000000
    58  H    0.000000
    59  H    0.000000
    60  Cl   0.000000
    61  Cl   0.000000
    62  C    0.000000
    63  H    0.000000
    64  H    0.000000
    65  Cl   0.000000
    66  Cl   0.000000
    67  C    0.000000
    68  H    0.000000
    69  H    0.000000
    70  Cl   0.000000
    71  Cl   0.000000
    72  C    0.000000
    73  H    0.000000
    74  H    0.000000
    75  Cl   0.000000
    76  Cl   0.000000
    77  C    0.000000
    78  H    0.000000
    79  H    0.000000
    80  Cl   0.000000
[...]
   Y21       -2.21133   0.00001   0.00000   0.00042   0.00004  -2.21129
   Z21        2.96818  -0.00002   0.00000   0.00136   0.00037   2.96855
   X22       10.81636   0.00008   0.00000   0.00075   0.00086  10.81721
   Y22       -2.01418  -0.00001   0.00000  -0.00023  -0.00025  -2.01444
   Z22       -2.95117   0.00000   0.00000   0.00107   0.00010  -2.95106
   X23        8.78175   0.00009   0.00000   0.00063   0.00074   8.78249
   Y23       -2.11396   0.00005   0.00000   0.00076   0.00069  -2.11327
   Z23       -2.44180  -0.00002   0.00000   0.00041  -0.00058  -2.44238
   X24       11.97702  -0.00007   0.00000  -0.00062  -0.00051  11.97651
   Y24       -3.14710  -0.00013   0.00000  -0.00164  -0.00172  -3.14882
   Z24       -1.62275   0.00000   0.00000   0.00091  -0.00012  -1.62287
   X25       11.84155   0.00025   0.00000   0.00291   0.00298  11.84453
   Y25        1.17520  -0.00008   0.00000  -0.00098  -0.00099   1.17422
   Z25       -2.87401   0.00013   0.00000   0.00269   0.00191  -2.87211
   X26       11.25372   0.00008   0.00000   0.00086   0.00101  11.25473
   Y26       -3.12753   0.00004   0.00000   0.00036   0.00053  -3.12700
   Z26       -6.06926  -0.00002   0.00000   0.00095  -0.00008  -6.06934
   X27        3.98882  -0.00005   0.00000  -0.00077  -0.00080   3.98801
   Y27        6.01498   0.00001   0.00000   0.00065   0.00022   6.01520
   Z27        2.92008   0.00002   0.00000   0.00033  -0.00023   2.91985
   X28        3.48107  -0.00031   0.00000  -0.00284  -0.00284   3.47823
   Y28        4.04908   0.00009   0.00000   0.00133   0.00091   4.04999
   Z28        2.37465  -0.00013   0.00000  -0.00058  -0.00126   2.37339
   X29        2.57247  -0.00003   0.00000  -0.00037  -0.00042   2.57205
   Y29        7.37783   0.00003   0.00000   0.00125   0.00084   7.37867
   Z29        2.17902  -0.00001   0.00000   0.00078   0.00029   2.17931
   X30        7.02342  -0.00005   0.00000  -0.00095  -0.00098   7.02244
   Y30        6.77467   0.00001   0.00000   0.00017  -0.00016   6.77451
   Z30        1.72350  -0.00011   0.00000  -0.00071  -0.00120   1.72231
   X31        4.16500   0.00015   0.00000   0.00148   0.00142   4.16642
   Y31        6.26324  -0.00006   0.00000  -0.00006  -0.00069   6.26255
   Z31        6.25280   0.00002   0.00000   0.00046  -0.00009   6.25271
   X32       -4.25887  -0.00010   0.00000  -0.00107  -0.00107  -4.25994
   Y32        1.53081   0.00002   0.00000   0.00104   0.00029   1.53111
   Z32        6.59416  -0.00016   0.00000  -0.00124  -0.00212   6.59204
   X33       -3.57237  -0.00004   0.00000  -0.00028  -0.00026  -3.57263
   Y33       -0.45044   0.00004   0.00000   0.00119   0.00045  -0.44999
   Z33        6.66621  -0.00039   0.00000  -0.00315  -0.00413   6.66208
   X34       -4.16897   0.00007   0.00000   0.00100   0.00097  -4.16800
   Y34        2.43384   0.00020   0.00000   0.00191   0.00106   2.43490
   Z34        8.48668  -0.00027   0.00000  -0.00187  -0.00269   8.48398
   X35       -7.41491  -0.00018   0.00000  -0.00254  -0.00254  -7.41744
   Y35        1.57585  -0.00016   0.00000  -0.00053  -0.00125   1.57460
   Z35        5.47438   0.00021   0.00000   0.00333   0.00243   5.47680
   X36       -2.39852  -0.00033   0.00000  -0.00397  -0.00398  -2.40249
   Y36        3.26686   0.00007   0.00000   0.00212   0.00152   3.26838
   Z36        4.41749  -0.00019   0.00000  -0.00241  -0.00317   4.41431
   X37       -1.97294  -0.00011   0.00000  -0.00120  -0.00131  -1.97425
   Y37        8.60363   0.00011   0.00000   0.00211   0.00127   8.60491
   Z37        8.63616   0.00018   0.00000   0.00258   0.00213   8.63828
   X38       -0.70671  -0.00015   0.00000  -0.00150  -0.00162  -0.70834
   Y38       10.25552   0.00013   0.00000   0.00215   0.00132  10.25684
   Z38        8.86419   0.00026   0.00000   0.00349   0.00314   8.86733
   X39       -1.66236   0.00001   0.00000  -0.00006  -0.00014  -1.66250
   Y39        7.68491   0.00015   0.00000   0.00242   0.00169   7.68660
   Z39        6.77455   0.00019   0.00000   0.00259   0.00208   6.77664
   X40       -5.15491  -0.00013   0.00000  -0.00133  -0.00145  -5.15636
   Y40        9.55702   0.00008   0.00000   0.00213   0.00124   9.55827
   Z40        8.91604   0.00005   0.00000   0.00127   0.00085   8.91689
   X41       -1.36554  -0.00019   0.00000  -0.00224  -0.00233  -1.36787
   Y41        6.39229  -0.00001   0.00000   0.00139   0.00041   6.39271
   Z41       11.09021   0.00010   0.00000   0.00218   0.00160  11.09181
   X42        8.37948  -0.00005   0.00000  -0.00048  -0.00038   8.37910
   Y42        2.03576   0.00018   0.00000   0.00183   0.00210   2.03786
   Z42       -8.39332  -0.00004   0.00000   0.00020  -0.00056  -8.39387
   X43        7.33611  -0.00008   0.00000  -0.00117  -0.00105   7.33505
   Y43        0.49463   0.00020   0.00000   0.00237   0.00257   0.49720
   Z43       -7.42087  -0.00005   0.00000   0.00021  -0.00064  -7.42151
   X44       10.44996  -0.00008   0.00000  -0.00070  -0.00059  10.44936
   Y44        1.71793   0.00010   0.00000   0.00096   0.00124   1.71917
   Z44       -8.26338  -0.00006   0.00000   0.00007  -0.00069  -8.26407
   X45        7.61707   0.00013   0.00000   0.00128   0.00134   7.61840
   Y45        4.98746   0.00025   0.00000   0.00266   0.00284   4.99030
   Z45       -6.98866  -0.00010   0.00000  -0.00051  -0.00110  -6.98976
   X46        7.43506   0.00007   0.00000   0.00032   0.00044   7.43550
   Y46        2.20170   0.00012   0.00000   0.00109   0.00153   2.20323
   Z46      -11.59305  -0.00006   0.00000   0.00004  -0.00071 -11.59376
   X47      -10.25521  -0.00005   0.00000   0.00015   0.00017 -10.25504
   Y47        3.70566   0.00017   0.00000   0.00248   0.00209   3.70775
   Z47       -0.73057  -0.00001   0.00000   0.00063  -0.00017  -0.73073
   X48      -11.94513   0.00002   0.00000   0.00032   0.00036 -11.94477
   Y48        2.61432   0.00025   0.00000   0.00388   0.00343   2.61776
   Z48       -0.14652   0.00033   0.00000   0.00421   0.00333  -0.14318
   X49       -8.76847   0.00026   0.00000   0.00315   0.00316  -8.76530
   Y49        3.63865   0.00009   0.00000   0.00154   0.00108   3.63973
   Z49        0.74999  -0.00038   0.00000  -0.00277  -0.00355   0.74644
   X50      -11.12900   0.00035   0.00000   0.00380   0.00379 -11.12521
   Y50        6.88458   0.00027   0.00000   0.00352   0.00314   6.88772
   Z50       -1.28944  -0.00005   0.00000   0.00044  -0.00018  -1.28962
   X51       -9.07237  -0.00029   0.00000  -0.00402  -0.00396  -9.07633
   Y51        2.44268   0.00002   0.00000   0.00022   0.00001   2.44269
   Z51       -3.59138  -0.00000   0.00000   0.00020  -0.00066  -3.59205
   X52       -3.01138   0.00005   0.00000   0.00031   0.00040  -3.01097
   Y52        1.86282  -0.00006   0.00000  -0.00063  -0.00054   1.86228
   Z52       -7.73428   0.00009   0.00000   0.00196   0.00111  -7.73317
   X53       -3.63986   0.00008   0.00000   0.00125   0.00136  -3.63850
   Y53        2.45605   0.00004   0.00000  -0.00014   0.00005   2.45610
   Z53       -9.64434   0.00010   0.00000   0.00173   0.00091  -9.64343
   X54       -4.05505  -0.00006   0.00000  -0.00086  -0.00079  -4.05584
   Y54        2.89709  -0.00009   0.00000  -0.00089  -0.00090   2.89619
   Z54       -6.23135   0.00003   0.00000   0.00119   0.00040  -6.23096
   X55        0.27630   0.00002   0.00000   0.00001   0.00010   0.27640
   Y55        2.46349   0.00001   0.00000  -0.00010   0.00002   2.46351
   Z55       -7.41562   0.00027   0.00000   0.00442   0.00363  -7.41199
   X56       -3.46983   0.00005   0.00000   0.00041   0.00055  -3.46928
   Y56       -1.42632  -0.00007   0.00000  -0.00072  -0.00065  -1.42697
   Z56       -7.36802   0.00006   0.00000   0.00200   0.00096  -7.36706
   X57       -2.67593   0.00021   0.00000   0.00224   0.00216  -2.67376
   Y57       11.14156  -0.00003   0.00000   0.00018  -0.00025  11.14130
   Z57        1.42780   0.00004   0.00000   0.00067   0.00036   1.42816
   X58       -1.98909   0.00011   0.00000   0.00190   0.00183  -1.98726
   Y58       11.57289  -0.00014   0.00000  -0.00049  -0.00080  11.57209
   Z58       -0.51052  -0.00003   0.00000   0.00036   0.00008  -0.51044
   X59       -4.33664   0.00018   0.00000   0.00191   0.00181  -4.33483
   Y59       12.32212  -0.00008   0.00000  -0.00043  -0.00091  12.32122
   Z59        1.92380   0.00009   0.00000   0.00066   0.00040   1.92420
   X60       -0.20244   0.00006   0.00000   0.00085   0.00074  -0.20169
   Y60       11.70852   0.00014   0.00000   0.00173   0.00121  11.70973
   Z60        3.61726   0.00019   0.00000   0.00209   0.00183   3.61909
   X61       -3.49128   0.00015   0.00000   0.00224   0.00220  -3.48909
   Y61        7.89988   0.00000   0.00000   0.00020  -0.00025   7.89963
   Z61        1.67444  -0.00021   0.00000  -0.00092  -0.00142   1.67302
   X62        2.09493  -0.00001   0.00000  -0.00007  -0.00009   2.09485
   Y62        0.63094  -0.00003   0.00000   0.00051  -0.00032   0.63062
   Z62        9.34813  -0.00010   0.00000  -0.00033  -0.00121   9.34692
   X63        1.38216   0.00007   0.00000   0.00064   0.00061   1.38276
   Y63        2.52381  -0.00006   0.00000   0.00004  -0.00077   2.52304
   Z63        8.78459  -0.00027   0.00000  -0.00250  -0.00328   8.78131
   X64        3.69576  -0.00004   0.00000  -0.00029  -0.00032   3.69544
   Y64        0.80087   0.00005   0.00000   0.00126   0.00037   0.80125
   Z64       10.68853  -0.00009   0.00000  -0.00031  -0.00117  10.68736
   X65        3.07984   0.00005   0.00000   0.00058   0.00061   3.08045
   Y65       -1.05131  -0.00014   0.00000  -0.00138  -0.00205  -1.05335
   Z65        6.63414   0.00002   0.00000   0.00129   0.00032   6.63446
   X66       -0.37801  -0.00005   0.00000  -0.00062  -0.00062  -0.37863
   Y66       -1.10584   0.00006   0.00000   0.00216   0.00121  -1.10463
   Z66       10.78576  -0.00004   0.00000   0.00078  -0.00022  10.78555
   X67        2.01544   0.00004   0.00000   0.00030   0.00046   2.01589
   Y67       -4.10035  -0.00010   0.00000  -0.00071  -0.00068  -4.10102
   Z67       -5.72371   0.00004   0.00000   0.00158   0.00042  -5.72329
   X68        0.36188  -0.00001   0.00000  -0.00015   0.00002   0.36190
   Y68       -5.22550   0.00002   0.00000   0.00040   0.00045  -5.22505
   Z68       -6.34235  -0.00014   0.00000   0.00034  -0.00089  -6.34324
   X69        1.41000   0.00029   0.00000   0.00206   0.00218   1.41218
   Y69       -2.19788  -0.00011   0.00000  -0.00092  -0.00093  -2.19881
   Z69       -5.06474   0.00024   0.00000   0.00321   0.00216  -5.06258
   X70        4.18172  -0.00021   0.00000  -0.00173  -0.00156   4.18016
   Y70       -3.79940   0.00020   0.00000   0.00164   0.00184  -3.79756
   Z70       -8.24969  -0.00013   0.00000   0.00029  -0.00083  -8.25052
   X71        3.59143   0.00005   0.00000   0.00059   0.00075   3.59217
   Y71       -5.71125  -0.00003   0.00000  -0.00088  -0.00097  -5.71222
   Z71       -3.24221   0.00006   0.00000   0.00146   0.00022  -3.24199
   X72        3.53716  -0.00000   0.00000  -0.00025  -0.00020   3.53697
   Y72        7.41862   0.00002   0.00000  -0.00012   0.00026   7.41887
   Z72      -11.23654  -0.00017   0.00000  -0.00131  -0.00179 -11.23832
   X73        5.37070   0.00006   0.00000  -0.00003   0.00004   5.37074
   Y73        7.21056   0.00000   0.00000   0.00002   0.00048   7.21103
   Z73      -12.23118  -0.00016   0.00000  -0.00133  -0.00181 -12.23299
   X74        3.35739  -0.00004   0.00000  -0.00020  -0.00014   3.35725
   Y74        5.96700   0.00006   0.00000   0.00027   0.00055   5.96755
   Z74       -9.73521  -0.00010   0.00000  -0.00098  -0.00154  -9.73675
   X75        3.34448  -0.00013   0.00000  -0.00148  -0.00147   3.34301
   Y75       10.47964   0.00002   0.00000  -0.00026   0.00003  10.47967
   Z75       -9.87878  -0.00008   0.00000  -0.00094  -0.00124  -9.88002
   X76        1.01477  -0.00008   0.00000  -0.00079  -0.00071   1.01406
   Y76        7.12485  -0.00007   0.00000  -0.00138  -0.00091   7.12394
   Z76      -13.39891  -0.00011   0.00000  -0.00060  -0.00112 -13.40003
   X77       -2.86699   0.00016   0.00000   0.00112   0.00113  -2.86587
   Y77        8.75682  -0.00016   0.00000  -0.00195  -0.00190   8.75493
   Z77       -6.95674  -0.00005   0.00000   0.00036  -0.00009  -6.95683
   X78       -1.00863   0.00020   0.00000   0.00090   0.00093  -1.00770
   Y78        8.01127  -0.00006   0.00000  -0.00222  -0.00211   8.00916
   Z78       -7.58263  -0.00024   0.00000  -0.00107  -0.00155  -7.58418
   X79       -2.90621   0.00038   0.00000   0.00352   0.00351  -2.90270
   Y79       10.84982  -0.00015   0.00000  -0.00183  -0.00178  10.84805
   Z79       -7.08224   0.00012   0.00000   0.00170   0.00137  -7.08087
   X80       -5.30606  -0.00019   0.00000  -0.00187  -0.00183  -5.30789
   Y80        7.47528   0.00003   0.00000   0.00075   0.00088   7.47617
   Z80       -8.84915   0.00039   0.00000   0.00286   0.00232  -8.84682
   X81       -3.44694  -0.00064   0.00000  -0.00494  -0.00494  -3.45189
   Y81        7.81169  -0.00037   0.00000  -0.00368  -0.00382   7.80787
   Z81       -3.78884  -0.00021   0.00000  -0.00124  -0.00175  -3.79059
   X82        4.06817  -0.00005   0.00000  -0.00048  -0.00053   4.06764
   Y82       11.29400  -0.00006   0.00000  -0.00156  -0.00165  11.29235
   Z82       -3.06957  -0.00006   0.00000  -0.00029  -0.00054  -3.07011
   X83        5.23329  -0.00018   0.00000  -0.00128  -0.00132   5.23197
   Y83       11.21673  -0.00023   0.00000  -0.00238  -0.00236  11.21437
   Z83       -4.81035  -0.00019   0.00000  -0.00094  -0.00119  -4.81154
   X84        5.27394  -0.00026   0.00000  -0.00156  -0.00162   5.27233
   Y84       11.22592  -0.00034   0.00000  -0.00331  -0.00348  11.22243
   Z84       -1.35653   0.00010   0.00000   0.00037   0.00012  -1.35641
   X85        2.23521   0.00024   0.00000   0.00219   0.00211   2.23733
   Y85       14.08673   0.00013   0.00000   0.00042   0.00031  14.08704
   Z85       -3.06623   0.00005   0.00000   0.00073   0.00062  -3.06560
   X86        1.92215   0.00020   0.00000   0.00083   0.00081   1.92297
   Y86        8.71851  -0.00031   0.00000  -0.00256  -0.00268   8.71582
   Z86       -3.04238  -0.00000   0.00000   0.00025  -0.00017  -3.04254
   X87       -8.27173   0.00001   0.00000   0.00005  -0.00002  -8.27175
   Y87       13.00868  -0.00009   0.00000  -0.00122  -0.00145  13.00723
   Z87       -3.18633  -0.00000   0.00000   0.00017  -0.00008  -3.18641
   X88      -10.10910   0.00001   0.00000   0.00018   0.00012 -10.10898
   Y88       13.11809  -0.00014   0.00000  -0.00126  -0.00146  13.11663
   Z88       -4.18663  -0.00001   0.00000  -0.00006  -0.00031  -4.18694
   X89       -7.71131   0.00007   0.00000   0.00097   0.00092  -7.71039
   Y89       11.00810  -0.00008   0.00000  -0.00125  -0.00149  11.00661
   Z89       -2.87932  -0.00023   0.00000  -0.00237  -0.00273  -2.88205
   X90       -5.93312  -0.00000   0.00000  -0.00003  -0.00010  -5.93322
   Y90       14.58421   0.00009   0.00000   0.00149   0.00139  14.58560
   Z90       -4.98573   0.00018   0.00000   0.00248   0.00234  -4.98339
   X91       -8.50642  -0.00013   0.00000  -0.00134  -0.00145  -8.50787
   Y91       14.57930  -0.00048   0.00000  -0.00519  -0.00559  14.57371
   Z91       -0.24575   0.00017   0.00000   0.00221   0.00205  -0.24370
         Item               Value     Threshold  Converged?
 Maximum Force            0.057782     0.000450     NO 
 RMS     Force            0.007398     0.000300     NO 
 Maximum Displacement     0.140843     0.001800     NO 
 RMS     Displacement     0.018191     0.001200     NO 
 Predicted change in Energy=-1.387054D-02
 GradGradGradGradGradGradGradGradGradGradGradGradGradGradGradGradGradGrad

 Unable to Open any file for archive entry.
 1\1\GINC-X10P1N23\Force\ONIOM(B3LYP/6-31G(d):PM6)\Mixed\C23H38Cl30\MAY
 UMIAO\12-Jul-2024\0\\# scf=(xqc,maxcycle=64) force guess=read oniom(b3
 lyp/em=gd3bj/6-31g(d):pm6) nosymm\\Title Card\\0,1\C,0.5518064,-0.1754
 9458,-0.17919406\C,-0.08703645,-1.29368036,0.41764862\C,-0.273183,0.87
 696575,-0.65474533\C,-1.45849086,-1.35818813,0.52525365\H,0.53496315,-
 2.10776029,0.78601899\C,1.97142838,-0.14407127,-0.31001146\C,-1.650431
 88,0.81316169,-0.51779592\H,0.18007724,1.74448265,-1.12840363\C,-2.257
 88561,-0.304995,0.05593913\H,-1.91971316,-2.22992695,0.98172579\C,2.68
 647338,0.89780884,-1.00212396\H,2.5281503,-0.98968085,0.09929163\H,-2.
 26367143,1.64234236,-0.86609345\H,-3.34048395,-0.36462734,0.13207271\H
 ,3.62886564,1.29153851,-0.62858014\H,2.33958097,1.28776646,-1.95795758
 \C,4.97826833,0.55643692,1.99150238\H,5.26235211,1.14421981,1.09337807
 \H,3.98161167,0.86365873,2.37147136\Cl,6.19088334,0.77248946,3.2517689
 1\Cl,4.93572352,-1.17018421,1.57069261\C,5.72376916,-1.06586033,-1.561
 68967\H,4.64710202,-1.1186606,-1.29214627\H,6.33796725,-1.66537479,-0.
 85872374\Cl,6.26627886,0.62189045,-1.52086187\Cl,5.95521182,-1.6550192
 1,-3.21171156\C,2.11079019,3.18299162,1.54523863\H,1.84210517,2.142680
 5,1.2566117\H,1.361293,3.90417952,1.1530894\Cl,3.7166317,3.58499933,0.
 9120385\Cl,2.20402202,3.31436352,3.30883824\C,-2.25369635,0.81007107,3
 .48947783\H,-1.89041834,-0.23836319,3.52760477\H,-2.2061233,1.28793516
 ,4.49095552\Cl,-3.92379909,0.83390317,2.89691466\Cl,-1.26923966,1.7287
 4908,2.33763296\C,-1.04403559,4.55284627,4.57005749\H,-0.37397733,5.42
 698839,4.69072586\H,-0.87968496,4.06667662,3.58493988\Cl,-2.72786059,5
 .05735862,4.71816329\Cl,-0.72261105,3.3826557,5.8686855\C,4.43422846,1
 .0772786,-4.44155105\H,3.8821013,0.26174898,-3.92695581\H,5.52988006,0
 .90909055,-4.37279314\Cl,4.03077822,2.63924972,-3.69823866\Cl,3.934466
 73,1.16508956,-6.13477661\C,-5.42682423,1.96095232,-0.38659895\H,-6.32
 108827,1.38343984,-0.07753364\H,-4.64007186,1.92549048,0.39687869\Cl,-
 5.88921405,3.64316181,-0.68234253\Cl,-4.80089098,1.2926114,-1.90047832
 \C,-1.59355149,0.98576294,-4.09280633\H,-1.92613018,1.29968414,-5.1035
 6365\H,-2.14584165,1.5330722,-3.29749043\Cl,0.14621404,1.30362351,-3.9
 2417646\Cl,-1.83615375,-0.75477577,-3.89899014\C,-1.41603911,5.8958588
 1,0.75556103\H,-1.05258026,6.1241092,-0.27015769\H,-2.29485361,6.52058
 743,1.01803115\Cl,-0.10712517,6.19588384,1.91417128\Cl,-1.84750841,4.1
 8043726,0.88607435\C,1.10859128,0.33387876,4.94681738\H,0.7314059,1.33
 554061,4.64860507\H,1.95571122,0.42380376,5.6561241\Cl,1.62978289,-0.5
 56328,3.51063626\Cl,-0.20003513,-0.58518497,5.70758103\C,1.06652401,-2
 .16981029,-3.02885672\H,0.19149872,-2.76521578,-3.35622812\H,0.7461372
 7,-1.16306706,-2.68014333\Cl,2.2128712,-2.01055711,-4.36554604\Cl,1.90
 050048,-3.02226509,-1.71570506\C,1.87178588,3.92576292,-5.94612006\H,2
 .84205425,3.81566278,-6.47245919\H,1.77665271,3.15759794,-5.15165243\C
 l,1.76982018,5.54558846,-5.2276234\Cl,0.53699331,3.77031032,-7.0903990
 2\C,-1.51714796,4.63391151,-3.6813494\H,-0.53374463,4.23938265,-4.0125
 572\H,-1.53789762,5.74147994,-3.7477596\Cl,-2.80784474,3.95574934,-4.6
 8276597\Cl,-1.82404369,4.13376843,-2.0049682\C,2.15278517,5.97652912,-
 1.62434834\H,2.76933626,5.93563544,-2.54552853\H,2.7908503,5.94049932,
 -0.71784284\Cl,1.18282455,7.4543765,-1.62257826\Cl,1.01715991,4.613634
 84,-1.60995733\C,-4.37721074,6.88389926,-1.68613321\H,-5.34950527,6.94
 179398,-2.21547162\H,-4.08065031,5.82523726,-1.52367122\Cl,-3.13967008
 ,7.71762899,-2.63833422\Cl,-4.50140523,7.7150341,-0.13004296\\Version=
 ES64L-G16RevC.01\HF=0.1115048\S2=2.324848\S2-1=0.\S2A=2.054256\RMSD=3.
 551e-09\RMSF=7.398e-03\Dipole=-0.330866,-0.0971987,0.1997642\Quadrupol
 e=2.269663,0.3687264,-2.6383893,0.0316468,-0.0777952,-2.5783919\PG=C01
  [X(C23H38Cl30)]\\@
 The archive entry for this job was punched.


 IN THE WOODS WE RETURN TO REASON AND FAITH.

                                 -- EMERSON
 Job cpu time:       0 days  0 hours  4 minutes 37.2 seconds.
 Elapsed time:       0 days  0 hours  0 minutes 11.2 seconds.
 File lengths (MBytes):  RWF=    104 Int=      0 D2E=      0 Chk=     34 Scr=      1
 Normal termination of Gaussian 16 at Fri Jul 12 22:46:40 2024.
