 Entering Gaussian System, Link 0=g16
 Input=JOBS/6_A.gjf
 Output=JOBS/6_A.log
 Initial command:
 /data/app/gaussian/C01-avx2//g16/l1.exe "/tmp/Gau-1765155.inp" -scrdir="/tmp/"
 Entering Link 1 = /data/app/gaussian/C01-avx2//g16/l1.exe PID=   1765156.
  
 Copyright (c) 1988-2019, Gaussian, Inc.  All Rights Reserved.
  
 This is part of the Gaussian(R) 16 program.  It is based on
 the Gaussian(R) 09 system (copyright 2009, Gaussian, Inc.),
 the Gaussian(R) 03 system (copyright 2003, Gaussian, Inc.),
 the Gaussian(R) 98 system (copyright 1998, Gaussian, Inc.),
 the Gaussian(R) 94 system (copyright 1995, Gaussian, Inc.),
 the Gaussian 92(TM) system (copyright 1992, Gaussian, Inc.),
 the Gaussian 90(TM) system (copyright 1990, Gaussian, Inc.),
 the Gaussian 88(TM) system (copyright 1988, Gaussian, Inc.),
 the Gaussian 86(TM) system (copyright 1986, Carnegie Mellon
 University), and the Gaussian 82(TM) system (copyright 1983,
 Carnegie Mellon University). Gaussian is a federally registered
 trademark of Gaussian, Inc.
  
 This software contains proprietary and confidential information,
 including trade secrets, belonging to Gaussian, Inc.
  
 This software is provided under written license and may be
 used, copied, transmitted, or stored only in accord with that
 written license.
  
 The following legend is applicable only to US Government
 contracts under FAR:
  
                    RESTRICTED RIGHTS LEGEND
  
 Use, reproduction and disclosure by the US Government is
 subject to restrictions as set forth in subparagraphs (a)
 and (c) of the Commercial Computer Software - Restricted
 Rights clause in FAR 52.227-19.
  
 Gaussian, Inc.
 340 Quinnipiac St., Bldg. 40, Wallingford CT 06492
  
  
 ---------------------------------------------------------------
 Warning -- This program may not be used in any manner that
 competes with the business of Gaussian, Inc. or will provide
 assistance to any competitor of Gaussian, Inc.  The licensee
 of this program is prohibited from giving any competitor of
 Gaussian, Inc. access to this program.  By using this program,
 the user acknowledges that Gaussian, Inc. is engaged in the
 business of creating and licensing software in the field of
 computational chemistry and represents and warrants to the
 licensee that it is not a competitor of Gaussian, Inc. and that
 it will not use this program in any manner prohibited above.
 ---------------------------------------------------------------
  

 Cite this work as:
 Gaussian 16, Revision C.01,
 M. J. Frisch, G. W. Trucks, H. B. Schlegel, G. E. Scuseria, 
 M. A. Robb, J. R. Cheeseman, G. Scalmani, V. Barone, 
 G. A. Petersson, H. Nakatsuji, X. Li, M. Caricato, A. V. Marenich, 
 J. Bloino, B. G. Janesko, R. Gomperts, B. Mennucci, H. P. Hratchian, 
 J. V. Ortiz, A. F. Izmaylov, J. L. Sonnenberg, D. Williams-Young, 
 F. Ding, F. Lipparini, F. Egidi, J. Goings, B. Peng, A. Petrone, 
 T. Henderson, D. Ranasinghe, V. G. Zakrzewski, J. Gao, N. Rega, 
 G. Zheng, W. Liang, M. Hada, M. Ehara, K. Toyota, R. Fukuda, 
 J. Hasegawa, M. Ishida, T. Nakajima, Y. Honda, O. Kitao, H. Nakai, 
 T. Vreven, K. Throssell, J. A. Montgomery, Jr., J. E. Peralta, 
 F. Ogliaro, M. J. Bearpark, J. J. Heyd, E. N. Brothers, K. N. Kudin, 
 V. N. Staroverov, T. A. Keith, R. Kobayashi, J. Normand, 
 K. Raghavachari, A. P. Rendell, J. C. Burant, S. S. Iyengar, 
 J. Tomasi, M. Cossi, J. M. Millam, M. Klene, C. Adamo, R. Cammi, 
 J. W. Ochterski, R. L. Martin, K. Morokuma, O. Farkas, 
 J. B. Foresman, and D. J. Fox, Gaussian, Inc., Wallingford CT, 2019.
 
 ******************************************
 Gaussian 16:  ES64L-G16RevC.01  3-Jul-2019
                12-Jul-2024 
 ******************************************
 %chk=a.chk
 %nprocshared=28
 Will use up to   28 processors via shared memory.
 %mem=48gb
 ----------------------------------------------------------------------
 # scf=(xqc,maxcycle=64) force guess=read oniom(td/b3lyp/em=gd3bj/6-31g
 (d):pm6) nosymm
 ----------------------------------------------------------------------
 1/10=7,30=1,38=1,52=2/1,3;
 2/12=2,15=1,17=6,18=5,40=1/2;
 1/10=7,30=1,38=1,52=2,53=3172/20;
 3/5=2,25=1,41=3900000,71=1,116=-2/1,2,3;
 4/5=1,35=1/1;
 5/5=2,7=64,8=3,13=1,35=1,38=6/2,8;
 6/7=2,8=2,9=2,10=2,28=1/1;
 7/7=1,30=1,33=-1/1,2,3,16;
 1/10=7,30=1,52=2,53=2032/20;
 3/5=1,6=6,7=1,11=9,25=1,30=1,71=1,74=-5,116=-2,124=41/1,2,3,8;
 4/5=1/1;
 5/5=2,7=64,8=3,13=1,38=6/2,8;
 8/6=1,10=2/1;
 9/15=2,42=1,70=2/14;
 10/5=4,31=1/2;
 6/7=2,8=2,9=2,10=2,18=1/1;
 7/7=1,12=6,13=5,30=1,33=-1/1,2,3,16;
 1/10=7,30=1,52=2,53=1022/20;
 3/5=2,25=1,41=3900000,71=1,116=-2/1,2,3;
 4/5=1,35=1/1;
 5/5=2,7=64,8=3,13=1,35=1,38=6/2,8;
 6/7=2,8=2,9=2,10=2,28=1/1;
 7/7=1,30=1,33=-1/1,2,3,16;
 1/10=7,30=1,52=2,53=3015/20;
 7/9=1,29=1,44=-1,126=2/16;
 1/10=7,30=1,52=2/3;
 99//99;
 ONIOM: restoring gridpoint  3 on chk file.
 ----------
 Title Card
 ----------
 Symbolic Z-matrix:
 Charge =  0 Multiplicity = 1 for low   level calculation on real  system.
 Charge =  0 Multiplicity = 1 for high  level calculation on model system.
 Charge =  0 Multiplicity = 1 for low   level calculation on model system.
 c                     0.55222  -0.1757   -0.17988  h 
 c                    -0.08637  -1.29404   0.41648  h 
 c                    -0.27211   0.87764  -0.65438  h 
 c                    -1.45805  -1.35817   0.52536  h 
 h                     0.53588  -2.10809   0.78377  h 
 c                     1.97205  -0.14519  -0.30942  h 
 c                    -1.64957   0.81398  -0.51755  h 
 h                     0.18137   1.74656  -1.12546  h 
 c                    -2.25717  -0.30458   0.05575  h 
 h                    -1.91869  -2.22823   0.98464  h 
 c                     2.68638   0.89598  -1.00287  h 
 h                     2.5282   -0.99082   0.10118  h 
 h                    -2.2632    1.64377  -0.86319  h 
 h                    -3.33948  -0.36362   0.13277  h 
 h                     3.62597   1.29433  -0.62789  h 
 h                     2.33601   1.28692  -1.95688  h 
 c                     4.97767   0.55645   1.99188  l 
 h                     5.26165   1.14461   1.09397  l 
 h                     3.98089   0.86324   2.37188  l 
 cl                    6.19011   0.77242   3.25235  l 
 cl                    4.93576  -1.17005   1.57055  l 
 c                     5.72463  -1.0663   -1.56151  l 
 h                     4.64776  -1.11782  -1.29255  l 
 h                     6.33778  -1.66685  -0.85852  l 
 cl                    6.26895   0.62085  -1.51981  l 
 cl                    5.95609  -1.65515  -3.21166  l 
 c                     2.11035   3.18322   1.54485  l 
 h                     1.84054   2.14313   1.25639  l 
 h                     1.36112   3.90521   1.15358  l 
 cl                    3.71593   3.58393   0.91002  l 
 cl                    2.2053    3.31417   3.30839  l 
 c                    -2.25478   0.81081   3.48733  l 
 h                    -1.88981  -0.23706   3.5245   l 
 h                    -2.20508   1.28875   4.48866  l 
 cl                   -3.92638   0.83254   2.89919  l 
 cl                   -1.27406   1.73045   2.33321  l 
 c                    -1.04494   4.55396   4.57178  l 
 h                    -0.37518   5.42825   4.69321  l 
 h                    -0.87967   4.06783   3.58679  l 
 cl                   -2.72894   5.05833   4.71836  l 
 cl                   -0.72438   3.38349   5.87034  l 
 c                     4.43427   1.07898  -4.44239  l 
 h                     3.88118   0.26456  -3.92711  l 
 h                     5.52973   0.90961  -4.37342  l 
 cl                    4.03225   2.64186  -3.70022  l 
 cl                    3.93483   1.16585  -6.13575  l 
 c                    -5.42656   1.96235  -0.38701  l 
 h                    -6.32092   1.38642  -0.07528  l 
 h                    -4.63787   1.92613   0.3945   l 
 cl                   -5.88735   3.64505  -0.68254  l 
 cl                   -4.80527   1.2922   -1.90199  l 
 c                    -1.59312   0.985    -4.0918   l 
 h                    -1.92494   1.29933  -5.10267  l 
 h                    -2.14614   1.53207  -3.29682  l 
 cl                    0.14648   1.30314  -3.92181  l 
 cl                   -1.83576  -0.75558  -3.89876  l 
 c                    -1.41462   5.89538   0.75653  l 
 h                    -1.05125   6.1233   -0.26928  l 
 h                    -2.29415   6.51926   1.01869  l 
 cl                   -0.10623   6.19687   1.91537  l 
 cl                   -1.84486   4.17977   0.88711  l 
 c                     1.10891   0.33338   4.94602  l 
 h                     0.73181   1.33464   4.64642  l 
 h                     1.95577   0.42429   5.65554  l 
 cl                    1.63074  -0.55865   3.51121  l 
 cl                   -0.20004  -0.58478   5.70727  l 
 c                     1.06665  -2.1699   -3.02871  l 
 h                     0.19104  -2.76454  -3.35595  l 
 h                     0.74676  -1.1634   -2.67885  l 
 cl                    2.21222  -2.00971  -4.36595  l 
 cl                    1.90138  -3.02402  -1.71709  l 
 c                     1.87163   3.926    -5.94724  l 
 h                     2.84187   3.81595  -6.47371  l 
 h                     1.77671   3.15803  -5.15251  l 
 cl                    1.76943   5.54602  -5.22913  l 
 cl                    0.53675   3.76989  -7.09136  l 
 c                    -1.51859   4.6319   -3.68179  l 
 h                    -0.53565   4.23523  -4.01191  l 
 h                    -1.53719   5.73972  -3.74527  l 
 cl                   -2.80846   3.95923  -4.68773  l 
 cl                   -1.82799   4.12949  -2.00646  l 
 c                     2.15383   5.97557  -1.62417  l 
 h                     2.77053   5.93488  -2.54533  l 
 h                     2.79265   5.93993  -0.7181   l 
 cl                    1.18282   7.45271  -1.62211  l 
 cl                    1.01818   4.6124   -1.60964  l 
 c                    -4.37725   6.88302  -1.68618  l 
 h                    -5.34952   6.9409   -2.21558  l 
 h                    -4.07977   5.82437  -1.52545  l 
 cl                   -3.14023   7.7193   -2.6368   l 
 cl                   -4.50251   7.71136  -0.12869  l 
 

 GradGradGradGradGradGradGradGradGradGradGradGradGradGradGradGradGradGrad
 Berny optimization.
 Initialization pass.
 Trust Radius=3.00D-01 FncErr=1.00D-07 GrdErr=1.00D-07 EigMax=2.50D+02 EigMin=1.00D-04
 Number of steps in this run=      2 maximum allowed number of steps=      2.
 GradGradGradGradGradGradGradGradGradGradGradGradGradGradGradGradGradGrad

 Symmetry turned off by external request.
 Stoichiometry    C23H38Cl30
 Framework group  C1[X(C23H38Cl30)]
 Deg. of freedom   267
 Full point group                 C1      NOp   1
                          Input orientation:                          
 ---------------------------------------------------------------------
 Center     Atomic      Atomic             Coordinates (Angstroms)
 Number     Number       Type             X           Y           Z
 ---------------------------------------------------------------------
      1          6           0        0.552219   -0.175701   -0.179876
      2          6           0       -0.086365   -1.294036    0.416479
      3          6           0       -0.272106    0.877640   -0.654385
      4          6           0       -1.458049   -1.358169    0.525361
      5          1           0        0.535883   -2.108088    0.783769
      6          6           0        1.972047   -0.145191   -0.309419
      7          6           0       -1.649571    0.813981   -0.517547
      8          1           0        0.181365    1.746556   -1.125456
      9          6           0       -2.257171   -0.304575    0.055748
     10          1           0       -1.918691   -2.228231    0.984637
     11          6           0        2.686380    0.895981   -1.002872
     12          1           0        2.528197   -0.990823    0.101176
     13          1           0       -2.263196    1.643774   -0.863187
     14          1           0       -3.339478   -0.363616    0.132770
     15          1           0        3.625972    1.294332   -0.627895
     16          1           0        2.336012    1.286919   -1.956882
     17          6           0        4.977665    0.556450    1.991881
     18          1           0        5.261654    1.144614    1.093974
     19          1           0        3.980888    0.863242    2.371877
     20         17           0        6.190106    0.772417    3.252348
     21         17           0        4.935763   -1.170051    1.570549
     22          6           0        5.724628   -1.066301   -1.561515
     23          1           0        4.647762   -1.117817   -1.292554
     24          1           0        6.337781   -1.666854   -0.858520
     25         17           0        6.268954    0.620850   -1.519809
     26         17           0        5.956094   -1.655148   -3.211658
     27          6           0        2.110353    3.183216    1.544853
     28          1           0        1.840536    2.143131    1.256386
     29          1           0        1.361121    3.905212    1.153577
     30         17           0        3.715926    3.583930    0.910017
     31         17           0        2.205297    3.314169    3.308388
     32          6           0       -2.254784    0.810812    3.487334
     33          1           0       -1.889805   -0.237060    3.524499
     34          1           0       -2.205076    1.288748    4.488656
     35         17           0       -3.926384    0.832540    2.899185
     36         17           0       -1.274063    1.730448    2.333205
     37          6           0       -1.044944    4.553965    4.571776
     38          1           0       -0.375178    5.428248    4.693208
     39          1           0       -0.879668    4.067833    3.586794
     40         17           0       -2.728944    5.058326    4.718363
     41         17           0       -0.724378    3.383495    5.870339
     42          6           0        4.434272    1.078978   -4.442393
     43          1           0        3.881183    0.264563   -3.927106
     44          1           0        5.529735    0.909610   -4.373418
     45         17           0        4.032247    2.641858   -3.700220
     46         17           0        3.934829    1.165849   -6.135754
     47          6           0       -5.426556    1.962350   -0.387006
     48          1           0       -6.320918    1.386416   -0.075277
     49          1           0       -4.637867    1.926133    0.394503
     50         17           0       -5.887346    3.645047   -0.682535
     51         17           0       -4.805272    1.292200   -1.901988
     52          6           0       -1.593121    0.985003   -4.091796
     53          1           0       -1.924941    1.299330   -5.102674
     54          1           0       -2.146137    1.532075   -3.296821
     55         17           0        0.146482    1.303138   -3.921805
     56         17           0       -1.835755   -0.755579   -3.898757
     57          6           0       -1.414622    5.895377    0.756525
     58          1           0       -1.051246    6.123296   -0.269279
     59          1           0       -2.294151    6.519261    1.018693
     60         17           0       -0.106232    6.196868    1.915366
     61         17           0       -1.844862    4.179766    0.887110
     62          6           0        1.108908    0.333377    4.946015
     63          1           0        0.731810    1.334637    4.646416
     64          1           0        1.955766    0.424292    5.655539
     65         17           0        1.630744   -0.558649    3.511211
     66         17           0       -0.200036   -0.584780    5.707272
     67          6           0        1.066645   -2.169905   -3.028707
     68          1           0        0.191044   -2.764544   -3.355951
     69          1           0        0.746762   -1.163402   -2.678849
     70         17           0        2.212221   -2.009711   -4.365953
     71         17           0        1.901376   -3.024020   -1.717088
     72          6           0        1.871628    3.925997   -5.947237
     73          1           0        2.841872    3.815947   -6.473709
     74          1           0        1.776707    3.158029   -5.152511
     75         17           0        1.769426    5.546020   -5.229134
     76         17           0        0.536746    3.769887   -7.091363
     77          6           0       -1.518592    4.631905   -3.681786
     78          1           0       -0.535654    4.235228   -4.011914
     79          1           0       -1.537191    5.739719   -3.745269
     80         17           0       -2.808456    3.959231   -4.687733
     81         17           0       -1.827992    4.129494   -2.006461
     82          6           0        2.153834    5.975567   -1.624175
     83          1           0        2.770530    5.934885   -2.545325
     84          1           0        2.792645    5.939930   -0.718100
     85         17           0        1.182822    7.452713   -1.622109
     86         17           0        1.018177    4.612399   -1.609638
     87          6           0       -4.377250    6.883024   -1.686180
     88          1           0       -5.349520    6.940903   -2.215580
     89          1           0       -4.079765    5.824367   -1.525446
     90         17           0       -3.140235    7.719298   -2.636804
     91         17           0       -4.502510    7.711364   -0.128690
 ---------------------------------------------------------------------
 Rotational constants (GHZ):           0.0226113           0.0200528           0.0153397
 ONIOM: saving gridpoint 17
 ONIOM: restoring gridpoint  3 on chk file.
 ONIOM: generating point  3 -- low level on real system.
 Standard basis: VSTO-6G (5D, 7F)
   400 basis functions,  2580 primitive gaussians,   430 cartesian basis functions
   170 alpha electrons      170 beta electrons
       nuclear repulsion energy      5299.8878220288 Hartrees.
 Integral buffers will be    131072 words long.
 Regular integral format.
 Two-electron integral symmetry is turned off.
 Do NDO integrals.
 One-electron integrals computed using PRISM.
 NBasis=   400 RedAO= F EigKep=  0.00D+00  NBF=   400
 NBsUse=   400 1.00D-04 EigRej=  0.00D+00 NBFU=   400
 Initial guess from the checkpoint file:  "a.chk"
 B after Tr=    -0.000266   -0.000296   -0.000564
         Rot=    1.000000   -0.000018    0.000014   -0.000007 Ang=  -0.00 deg.
 Initial guess <Sx>= 0.0000 <Sy>= 0.0000 <Sz>= 0.0000 <S**2>=-0.0000 S=-0.0000
 Keep J ints in memory in canonical form, NReq=3161508.
 Overlap will be assumed to be unity.
 Requested convergence on RMS density matrix=1.00D-08 within  64 cycles.
 Requested convergence on MAX density matrix=1.00D-06.
 Requested convergence on             energy=1.00D-06.
 No special actions if energy rises.
 SCF Done:  E(UPM6) = -0.404045102841     A.U. after   12 cycles
            NFock= 11  Conv=0.75D-08     -V/T= 0.9994
 <Sx>= 0.0000 <Sy>= 0.0000 <Sz>= 0.0000 <S**2>=-0.0000 S=-0.0000
 <L.S>=  0.00000000000    
 Annihilation of the first spin contaminant:
 S**2 before annihilation    -0.0000,   after     0.0000
 QCSCF skips out because SCF is already converged.

 **********************************************************************

            Population analysis using the SCF Density.

 **********************************************************************

 Alpha  occ. eigenvalues --   -1.11186  -1.05606  -1.05306  -1.05253  -1.05168
 Alpha  occ. eigenvalues --   -1.05142  -1.05124  -1.04943  -1.04874  -1.04794
 Alpha  occ. eigenvalues --   -1.04750  -1.04687  -1.04478  -1.04461  -1.04335
 Alpha  occ. eigenvalues --   -1.04101  -1.01697  -0.98578  -0.98274  -0.98185
 Alpha  occ. eigenvalues --   -0.98132  -0.98095  -0.97956  -0.97932  -0.97824
 Alpha  occ. eigenvalues --   -0.97764  -0.97756  -0.97637  -0.97405  -0.97347
 Alpha  occ. eigenvalues --   -0.97241  -0.97211  -0.96990  -0.92235  -0.88756
 Alpha  occ. eigenvalues --   -0.88671  -0.88583  -0.88387  -0.88361  -0.88257
 Alpha  occ. eigenvalues --   -0.88204  -0.88114  -0.88095  -0.88009  -0.87888
 Alpha  occ. eigenvalues --   -0.87662  -0.87556  -0.87500  -0.87208  -0.82585
 Alpha  occ. eigenvalues --   -0.79171  -0.72875  -0.65408  -0.62700  -0.62367
 Alpha  occ. eigenvalues --   -0.62115  -0.61861  -0.61672  -0.61539  -0.61492
 Alpha  occ. eigenvalues --   -0.61311  -0.61259  -0.61148  -0.61055  -0.60906
 Alpha  occ. eigenvalues --   -0.60355  -0.60299  -0.60117  -0.60037  -0.59985
 Alpha  occ. eigenvalues --   -0.59759  -0.59603  -0.59520  -0.59444  -0.59350
 Alpha  occ. eigenvalues --   -0.59258  -0.59197  -0.59105  -0.58979  -0.58933
 Alpha  occ. eigenvalues --   -0.58736  -0.58593  -0.58533  -0.58487  -0.58323
 Alpha  occ. eigenvalues --   -0.58226  -0.58023  -0.57771  -0.57722  -0.57700
 Alpha  occ. eigenvalues --   -0.57653  -0.57581  -0.57511  -0.57499  -0.57389
 Alpha  occ. eigenvalues --   -0.57241  -0.57097  -0.57049  -0.56888  -0.56772
 Alpha  occ. eigenvalues --   -0.55180  -0.53386  -0.52185  -0.51022  -0.49650
 Alpha  occ. eigenvalues --   -0.46180  -0.45343  -0.45051  -0.44766  -0.44247
 Alpha  occ. eigenvalues --   -0.44220  -0.44081  -0.44004  -0.43929  -0.43825
 Alpha  occ. eigenvalues --   -0.43751  -0.43687  -0.43607  -0.43483  -0.43457
 Alpha  occ. eigenvalues --   -0.43416  -0.43402  -0.43381  -0.43317  -0.43281
 Alpha  occ. eigenvalues --   -0.43218  -0.43146  -0.43115  -0.43043  -0.42971
 Alpha  occ. eigenvalues --   -0.42885  -0.42867  -0.42789  -0.42754  -0.42626
 Alpha  occ. eigenvalues --   -0.42585  -0.42472  -0.42374  -0.42299  -0.42093
 Alpha  occ. eigenvalues --   -0.41992  -0.41894  -0.41873  -0.41776  -0.41775
 Alpha  occ. eigenvalues --   -0.41717  -0.41675  -0.41620  -0.41589  -0.41466
 Alpha  occ. eigenvalues --   -0.41337  -0.41283  -0.41271  -0.41225  -0.41214
 Alpha  occ. eigenvalues --   -0.41136  -0.41123  -0.41054  -0.41020  -0.40879
 Alpha  occ. eigenvalues --   -0.40864  -0.40753  -0.40601  -0.40574  -0.40504
 Alpha  occ. eigenvalues --   -0.40353  -0.40319  -0.39605  -0.36931  -0.32826
 Alpha virt. eigenvalues --   -0.03660  -0.01243  -0.00938  -0.00903  -0.00847
 Alpha virt. eigenvalues --   -0.00648  -0.00620  -0.00560  -0.00519  -0.00474
 Alpha virt. eigenvalues --   -0.00462  -0.00451  -0.00382  -0.00364  -0.00259
 Alpha virt. eigenvalues --   -0.00247  -0.00242  -0.00228  -0.00203  -0.00186
 Alpha virt. eigenvalues --   -0.00165  -0.00126  -0.00072  -0.00008   0.00058
 Alpha virt. eigenvalues --    0.00387   0.00396   0.00427   0.00459   0.00500
 Alpha virt. eigenvalues --    0.00615   0.00696   0.02644   0.08939   0.14216
 Alpha virt. eigenvalues --    0.14309   0.14475   0.14595   0.14698   0.14797
 Alpha virt. eigenvalues --    0.14866   0.14936   0.15000   0.15041   0.15086
 Alpha virt. eigenvalues --    0.15129   0.15161   0.15163   0.15274   0.15367
 Alpha virt. eigenvalues --    0.15436   0.15448   0.15521   0.15592   0.15621
 Alpha virt. eigenvalues --    0.15740   0.15773   0.15861   0.15930   0.15941
 Alpha virt. eigenvalues --    0.15981   0.15988   0.16096   0.16374   0.16397
 Alpha virt. eigenvalues --    0.16423   0.16725   0.17038   0.17249   0.17955
 Alpha virt. eigenvalues --    0.18587   0.19329   0.19857   0.20430   0.21142
 Alpha virt. eigenvalues --    0.21324   0.21615   0.21832   0.22177   0.22328
 Alpha virt. eigenvalues --    3.16334   3.16791   3.17338   3.17923   3.18120
 Alpha virt. eigenvalues --    3.18368   3.18633   3.18706   3.18955   3.19085
 Alpha virt. eigenvalues --    3.19101   3.19282   3.19317   3.19544   3.19630
 Alpha virt. eigenvalues --    3.19651   3.19694   3.19831   3.19906   3.19991
 Alpha virt. eigenvalues --    3.20023   3.20186   3.20270   3.20305   3.20440
 Alpha virt. eigenvalues --    3.20483   3.20546   3.20564   3.20625   3.20669
 Alpha virt. eigenvalues --    3.20719   3.20826   3.20882   3.20977   3.21007
 Alpha virt. eigenvalues --    3.21060   3.21123   3.21164   3.21202   3.21241
 Alpha virt. eigenvalues --    3.21423   3.21457   3.21571   3.21724   3.21852
 Alpha virt. eigenvalues --    3.21980   3.22065   3.22131   3.22183   3.22332
 Alpha virt. eigenvalues --    3.22437   3.22515   3.22525   3.22614   3.22740
 Alpha virt. eigenvalues --    3.22807   3.22956   3.23013   3.23155   3.23187
 Alpha virt. eigenvalues --    3.23200   3.23316   3.23380   3.23432   3.23488
 Alpha virt. eigenvalues --    3.23518   3.23586   3.23671   3.23753   3.23793
 Alpha virt. eigenvalues --    3.23851   3.23969   3.23985   3.24006   3.24104
 Alpha virt. eigenvalues --    3.24139   3.24147   3.24254   3.24297   3.24327
 Alpha virt. eigenvalues --    3.24389   3.24492   3.24497   3.24550   3.24652
 Alpha virt. eigenvalues --    3.24673   3.24735   3.24823   3.24865   3.24960
 Alpha virt. eigenvalues --    3.24974   3.25043   3.25075   3.25095   3.25122
 Alpha virt. eigenvalues --    3.25156   3.25311   3.25400   3.25471   3.25521
 Alpha virt. eigenvalues --    3.25561   3.25694   3.25752   3.25780   3.25867
 Alpha virt. eigenvalues --    3.25902   3.25927   3.26002   3.26126   3.26227
 Alpha virt. eigenvalues --    3.26318   3.26348   3.26428   3.26478   3.26788
 Alpha virt. eigenvalues --    3.26847   3.26907   3.27032   3.27044   3.27169
 Alpha virt. eigenvalues --    3.27265   3.27348   3.27399   3.27403   3.27484
 Alpha virt. eigenvalues --    3.27555   3.27650   3.27741   3.27764   3.27845
 Alpha virt. eigenvalues --    3.27885   3.27959   3.28160   3.28168   3.28224
 Alpha virt. eigenvalues --    3.28284   3.28398   3.28480   3.28570   3.28610
 Alpha virt. eigenvalues --    3.28656   3.28702   3.28741   3.28848   3.28956
 Alpha virt. eigenvalues --    3.29161   3.29286   3.29377   3.29720   3.29956
  Beta  occ. eigenvalues --   -1.11186  -1.05606  -1.05306  -1.05253  -1.05168
  Beta  occ. eigenvalues --   -1.05142  -1.05124  -1.04943  -1.04874  -1.04794
  Beta  occ. eigenvalues --   -1.04750  -1.04687  -1.04478  -1.04461  -1.04335
  Beta  occ. eigenvalues --   -1.04101  -1.01697  -0.98578  -0.98274  -0.98185
  Beta  occ. eigenvalues --   -0.98132  -0.98095  -0.97956  -0.97932  -0.97824
  Beta  occ. eigenvalues --   -0.97764  -0.97756  -0.97637  -0.97405  -0.97347
  Beta  occ. eigenvalues --   -0.97241  -0.97211  -0.96990  -0.92235  -0.88756
  Beta  occ. eigenvalues --   -0.88671  -0.88583  -0.88387  -0.88361  -0.88257
  Beta  occ. eigenvalues --   -0.88204  -0.88114  -0.88095  -0.88009  -0.87888
  Beta  occ. eigenvalues --   -0.87662  -0.87556  -0.87500  -0.87208  -0.82585
  Beta  occ. eigenvalues --   -0.79171  -0.72875  -0.65408  -0.62700  -0.62367
  Beta  occ. eigenvalues --   -0.62115  -0.61861  -0.61672  -0.61539  -0.61492
  Beta  occ. eigenvalues --   -0.61311  -0.61259  -0.61148  -0.61055  -0.60906
  Beta  occ. eigenvalues --   -0.60355  -0.60299  -0.60117  -0.60037  -0.59985
  Beta  occ. eigenvalues --   -0.59759  -0.59603  -0.59520  -0.59444  -0.59350
  Beta  occ. eigenvalues --   -0.59258  -0.59197  -0.59105  -0.58979  -0.58933
  Beta  occ. eigenvalues --   -0.58736  -0.58593  -0.58533  -0.58487  -0.58323
  Beta  occ. eigenvalues --   -0.58226  -0.58023  -0.57771  -0.57722  -0.57700
  Beta  occ. eigenvalues --   -0.57653  -0.57581  -0.57511  -0.57499  -0.57389
  Beta  occ. eigenvalues --   -0.57241  -0.57097  -0.57049  -0.56888  -0.56772
  Beta  occ. eigenvalues --   -0.55180  -0.53386  -0.52185  -0.51022  -0.49650
  Beta  occ. eigenvalues --   -0.46180  -0.45343  -0.45051  -0.44766  -0.44247
  Beta  occ. eigenvalues --   -0.44220  -0.44081  -0.44004  -0.43929  -0.43825
  Beta  occ. eigenvalues --   -0.43751  -0.43687  -0.43607  -0.43483  -0.43457
  Beta  occ. eigenvalues --   -0.43416  -0.43402  -0.43381  -0.43317  -0.43281
  Beta  occ. eigenvalues --   -0.43218  -0.43146  -0.43115  -0.43043  -0.42971
  Beta  occ. eigenvalues --   -0.42885  -0.42867  -0.42789  -0.42754  -0.42626
  Beta  occ. eigenvalues --   -0.42585  -0.42472  -0.42374  -0.42299  -0.42093
  Beta  occ. eigenvalues --   -0.41992  -0.41894  -0.41873  -0.41776  -0.41775
  Beta  occ. eigenvalues --   -0.41717  -0.41675  -0.41620  -0.41589  -0.41466
  Beta  occ. eigenvalues --   -0.41337  -0.41283  -0.41271  -0.41225  -0.41214
  Beta  occ. eigenvalues --   -0.41136  -0.41123  -0.41054  -0.41020  -0.40879
  Beta  occ. eigenvalues --   -0.40864  -0.40753  -0.40601  -0.40574  -0.40504
  Beta  occ. eigenvalues --   -0.40353  -0.40319  -0.39605  -0.36931  -0.32826
  Beta virt. eigenvalues --   -0.03660  -0.01243  -0.00938  -0.00903  -0.00847
  Beta virt. eigenvalues --   -0.00648  -0.00620  -0.00560  -0.00519  -0.00474
  Beta virt. eigenvalues --   -0.00462  -0.00451  -0.00382  -0.00364  -0.00259
  Beta virt. eigenvalues --   -0.00247  -0.00242  -0.00228  -0.00203  -0.00186
  Beta virt. eigenvalues --   -0.00165  -0.00126  -0.00072  -0.00008   0.00058
  Beta virt. eigenvalues --    0.00387   0.00396   0.00427   0.00459   0.00500
  Beta virt. eigenvalues --    0.00615   0.00696   0.02644   0.08939   0.14216
  Beta virt. eigenvalues --    0.14309   0.14475   0.14595   0.14698   0.14797
  Beta virt. eigenvalues --    0.14866   0.14936   0.15000   0.15041   0.15086
  Beta virt. eigenvalues --    0.15129   0.15161   0.15163   0.15274   0.15367
  Beta virt. eigenvalues --    0.15436   0.15448   0.15521   0.15592   0.15621
  Beta virt. eigenvalues --    0.15740   0.15773   0.15861   0.15930   0.15941
  Beta virt. eigenvalues --    0.15981   0.15988   0.16096   0.16374   0.16397
  Beta virt. eigenvalues --    0.16423   0.16725   0.17038   0.17249   0.17955
  Beta virt. eigenvalues --    0.18587   0.19329   0.19857   0.20430   0.21142
  Beta virt. eigenvalues --    0.21324   0.21615   0.21832   0.22177   0.22328
  Beta virt. eigenvalues --    3.16334   3.16791   3.17338   3.17923   3.18120
  Beta virt. eigenvalues --    3.18368   3.18633   3.18706   3.18955   3.19085
  Beta virt. eigenvalues --    3.19101   3.19282   3.19317   3.19544   3.19630
  Beta virt. eigenvalues --    3.19651   3.19694   3.19831   3.19906   3.19991
  Beta virt. eigenvalues --    3.20023   3.20186   3.20270   3.20305   3.20440
  Beta virt. eigenvalues --    3.20483   3.20546   3.20564   3.20625   3.20669
  Beta virt. eigenvalues --    3.20719   3.20826   3.20882   3.20977   3.21007
  Beta virt. eigenvalues --    3.21060   3.21123   3.21164   3.21202   3.21241
  Beta virt. eigenvalues --    3.21423   3.21457   3.21571   3.21724   3.21852
  Beta virt. eigenvalues --    3.21980   3.22065   3.22131   3.22183   3.22332
  Beta virt. eigenvalues --    3.22437   3.22515   3.22525   3.22614   3.22740
  Beta virt. eigenvalues --    3.22807   3.22956   3.23013   3.23155   3.23187
  Beta virt. eigenvalues --    3.23200   3.23316   3.23380   3.23432   3.23488
  Beta virt. eigenvalues --    3.23518   3.23586   3.23671   3.23753   3.23793
  Beta virt. eigenvalues --    3.23851   3.23969   3.23985   3.24006   3.24104
  Beta virt. eigenvalues --    3.24139   3.24147   3.24254   3.24297   3.24327
  Beta virt. eigenvalues --    3.24389   3.24492   3.24497   3.24550   3.24652
  Beta virt. eigenvalues --    3.24673   3.24735   3.24823   3.24865   3.24960
  Beta virt. eigenvalues --    3.24974   3.25043   3.25075   3.25095   3.25122
  Beta virt. eigenvalues --    3.25156   3.25311   3.25400   3.25471   3.25521
  Beta virt. eigenvalues --    3.25561   3.25694   3.25752   3.25780   3.25867
  Beta virt. eigenvalues --    3.25902   3.25927   3.26002   3.26126   3.26227
  Beta virt. eigenvalues --    3.26318   3.26348   3.26428   3.26478   3.26788
  Beta virt. eigenvalues --    3.26847   3.26907   3.27032   3.27044   3.27169
  Beta virt. eigenvalues --    3.27265   3.27348   3.27399   3.27403   3.27484
  Beta virt. eigenvalues --    3.27555   3.27650   3.27741   3.27764   3.27845
  Beta virt. eigenvalues --    3.27885   3.27959   3.28160   3.28168   3.28224
  Beta virt. eigenvalues --    3.28284   3.28398   3.28480   3.28570   3.28610
  Beta virt. eigenvalues --    3.28656   3.28702   3.28741   3.28848   3.28956
  Beta virt. eigenvalues --    3.29161   3.29286   3.29377   3.29720   3.29956
          Condensed to atoms (all electrons):
          Atomic-Atomic Spin Densities.
 Mulliken charges and spin densities:
               1          2
     1  C   -0.015127   0.000000
     2  C   -0.141861   0.000000
     3  C   -0.148863   0.000000
     4  C   -0.156990   0.000000
     5  H    0.153325   0.000000
     6  C   -0.128973   0.000000
     7  C   -0.152366   0.000000
     8  H    0.155128   0.000000
     9  C   -0.116781   0.000000
    10  H    0.149029   0.000000
    11  C   -0.366767   0.000000
    12  H    0.156577   0.000000
    13  H    0.151119   0.000000
    14  H    0.145514   0.000000
    15  H    0.156951   0.000000
    16  H    0.162631   0.000000
    17  C   -0.139409   0.000000
    18  H    0.187913   0.000000
    19  H    0.186298   0.000000
    20  Cl  -0.094722   0.000000
    21  Cl  -0.140546   0.000000
    22  C   -0.144779   0.000000
    23  H    0.192836   0.000000
    24  H    0.191699   0.000000
    25  Cl  -0.127647   0.000000
    26  Cl  -0.111294   0.000000
    27  C   -0.143267   0.000000
    28  H    0.198344   0.000000
    29  H    0.196882   0.000000
    30  Cl  -0.126305   0.000000
    31  Cl  -0.126593   0.000000
    32  C   -0.128006   0.000000
    33  H    0.192324   0.000000
    34  H    0.191933   0.000000
    35  Cl  -0.130945   0.000000
    36  Cl  -0.123531   0.000000
    37  C   -0.137234   0.000000
    38  H    0.184778   0.000000
    39  H    0.194492   0.000000
    40  Cl  -0.101141   0.000000
    41  Cl  -0.142593   0.000000
    42  C   -0.132947   0.000000
    43  H    0.194042   0.000000
    44  H    0.195147   0.000000
    45  Cl  -0.141330   0.000000
    46  Cl  -0.114836   0.000000
    47  C   -0.141877   0.000000
    48  H    0.182924   0.000000
    49  H    0.191685   0.000000
    50  Cl  -0.117435   0.000000
    51  Cl  -0.114965   0.000000
    52  C   -0.126507   0.000000
    53  H    0.190351   0.000000
    54  H    0.195676   0.000000
    55  Cl  -0.141965   0.000000
    56  Cl  -0.117337   0.000000
    57  C   -0.138669   0.000000
    58  H    0.199218   0.000000
    59  H    0.193665   0.000000
    60  Cl  -0.134851   0.000000
    61  Cl  -0.113035   0.000000
    62  C   -0.145243   0.000000
    63  H    0.191589   0.000000
    64  H    0.186309   0.000000
    65  Cl  -0.112442   0.000000
    66  Cl  -0.120922   0.000000
    67  C   -0.132770   0.000000
    68  H    0.183880   0.000000
    69  H    0.198667   0.000000
    70  Cl  -0.116978   0.000000
    71  Cl  -0.133607   0.000000
    72  C   -0.139086   0.000000
    73  H    0.191340   0.000000
    74  H    0.189806   0.000000
    75  Cl  -0.137036   0.000000
    76  Cl  -0.106343   0.000000
    77  C   -0.143299   0.000000
    78  H    0.193032   0.000000
    79  H    0.194025   0.000000
    80  Cl  -0.120923   0.000000
    81  Cl  -0.125745   0.000000
    82  C   -0.144665   0.000000
    83  H    0.188781   0.000000
    84  H    0.188156   0.000000
    85  Cl  -0.107537   0.000000
    86  Cl  -0.129280   0.000000
    87  C   -0.149077   0.000000
    88  H    0.186191   0.000000
    89  H    0.193231   0.000000
    90  Cl  -0.116949   0.000000
    91  Cl  -0.112092   0.000000
 Sum of Mulliken charges =  -0.00000   0.00000
 Mulliken charges and spin densities with hydrogens summed into heavy atoms:
               1          2
     1  C   -0.015127   0.000000
     2  C    0.011464   0.000000
     3  C    0.006265   0.000000
     4  C   -0.007961   0.000000
     6  C    0.027604   0.000000
     7  C   -0.001248   0.000000
     9  C    0.028734   0.000000
    11  C   -0.047185   0.000000
    17  C    0.234803   0.000000
    20  Cl  -0.094722   0.000000
    21  Cl  -0.140546   0.000000
    22  C    0.239756   0.000000
    25  Cl  -0.127647   0.000000
    26  Cl  -0.111294   0.000000
    27  C    0.251960   0.000000
    30  Cl  -0.126305   0.000000
    31  Cl  -0.126593   0.000000
    32  C    0.256251   0.000000
    35  Cl  -0.130945   0.000000
    36  Cl  -0.123531   0.000000
    37  C    0.242036   0.000000
    40  Cl  -0.101141   0.000000
    41  Cl  -0.142593   0.000000
    42  C    0.256242   0.000000
    45  Cl  -0.141330   0.000000
    46  Cl  -0.114836   0.000000
    47  C    0.232733   0.000000
    50  Cl  -0.117435   0.000000
    51  Cl  -0.114965   0.000000
    52  C    0.259519   0.000000
    55  Cl  -0.141965   0.000000
    56  Cl  -0.117337   0.000000
    57  C    0.254214   0.000000
    60  Cl  -0.134851   0.000000
    61  Cl  -0.113035   0.000000
    62  C    0.232654   0.000000
    65  Cl  -0.112442   0.000000
    66  Cl  -0.120922   0.000000
    67  C    0.249777   0.000000
    70  Cl  -0.116978   0.000000
    71  Cl  -0.133607   0.000000
    72  C    0.242060   0.000000
    75  Cl  -0.137036   0.000000
    76  Cl  -0.106343   0.000000
    77  C    0.243758   0.000000
    80  Cl  -0.120923   0.000000
    81  Cl  -0.125745   0.000000
    82  C    0.232272   0.000000
    85  Cl  -0.107537   0.000000
    86  Cl  -0.129280   0.000000
    87  C    0.230345   0.000000
    90  Cl  -0.116949   0.000000
    91  Cl  -0.112092   0.000000
 Charge=             -0.0000 electrons
 Dipole moment (field-independent basis, Debye):
    X=             -0.9079    Y=             -0.2149    Z=              0.4782  Tot=              1.0484
 N-N= 5.299887822029D+03 E-N=-9.744989650997D+03  KE=-6.384487915378D+02
 Calling FoFJK, ICntrl=      2127 FMM=F ISym2X=0 I1Cent= 0 IOpClX= 1 NMat=1 NMatS=1 NMatT=0.
 Cartesian Forces:  Max     0.066030131 RMS     0.008840363
 SvSCFP is copying densities from files   528 and   530 to   603.
 ONIOM: saving gridpoint  3
 ONIOM: restoring gridpoint 17
 ONIOM: restoring gridpoint  2 on chk file.
 ONIOM: generating point  2 -- high level on model system.
 Standard basis: 6-31G(d) (6D, 7F)
   136 basis functions,   256 primitive gaussians,   136 cartesian basis functions
    28 alpha electrons       28 beta electrons
       nuclear repulsion energy       319.0774739670 Hartrees.
 NAtoms=   91 NActive=   16 NUniq=   16 SFac= 1.00D+00 NAtFMM=   60 NAOKFM=F Big=F
 Integral buffers will be    131072 words long.
 Regular integral format.
 Two-electron integral symmetry is turned off.
 Nuclear repulsion after empirical dispersion term =      319.0498546065 Hartrees.
 One-electron integrals computed using PRISM.
 NBasis=   136 RedAO= T EigKep=  4.73D-04  NBF=   136
 NBsUse=   136 1.00D-06 EigRej= -1.00D+00 NBFU=   136
 Initial guess from the checkpoint file:  "a.chk"
 B after Tr=     0.001025   -0.000254    0.000101
         Rot=    1.000000   -0.000172   -0.000107    0.000150 Ang=  -0.03 deg.
 Initial guess <Sx>= 0.0000 <Sy>= 0.0000 <Sz>= 0.0000 <S**2>=-0.0000 S=-0.0000
 Requested convergence on RMS density matrix=1.00D-08 within  64 cycles.
 Requested convergence on MAX density matrix=1.00D-06.
 Requested convergence on             energy=1.00D-06.
 No special actions if energy rises.
 SCF Done:  E(UB3LYP) =  -309.636391129     A.U. after    9 cycles
            NFock=  9  Conv=0.41D-08     -V/T= 2.0105
 <Sx>= 0.0000 <Sy>= 0.0000 <Sz>= 0.0000 <S**2>=-0.0000 S=-0.0000
 <L.S>=  0.00000000000    
 Annihilation of the first spin contaminant:
 S**2 before annihilation    -0.0000,   after     0.0000
 QCSCF skips out because SCF is already converged.
 DoSCS=F DFT=T ScalE2(SS,OS)=  1.000000  1.000000
 ExpMin= 1.61D-01 ExpMax= 3.05D+03 ExpMxC= 4.57D+02 IAcc=3 IRadAn=         5 AccDes= 0.00D+00
 HarFok:  IExCor=  205 AccDes= 0.00D+00 IRadAn=         5 IDoV=-2 UseB2=F ITyADJ=14
 ICtDFT= 12500011 ScaDFX=  1.000000  1.000000  1.000000  1.000000
 Range of M.O.s used for correlation:     9   136
 NBasis=   136 NAE=    28 NBE=    28 NFC=     8 NFV=     0
 NROrb=    128 NOA=    20 NOB=    20 NVA=   108 NVB=   108
 Keep R1, R2, and R3 ints in memory in canonical form, NReq=183338682.
    12 initial guesses have been made.
 Convergence on wavefunction:    0.000001000000000
 Iteration     1 Dimension    12 NMult     0 NNew     12
 CISAX will form    12 AO SS matrices at one time.
 New state      1 was old state      2
 New state      2 was old state      3
 New state      3 was old state      7
 Iteration     2 Dimension    18 NMult    12 NNew      6
 New state      2 was old state      3
 New state      3 was old state      2
 Iteration     3 Dimension    24 NMult    18 NNew      6
 Iteration     4 Dimension    30 NMult    24 NNew      6
 Iteration     5 Dimension    36 NMult    30 NNew      6
 Iteration     6 Dimension    42 NMult    36 NNew      6
 Iteration     7 Dimension    48 NMult    42 NNew      6
 Iteration     8 Dimension    54 NMult    48 NNew      6
 Iteration     9 Dimension    58 NMult    54 NNew      4
 ***********************************************************************
 Excited states from <AA,BB:AA,BB> singles matrix:
 ***********************************************************************
 
 ExtSpn:  IState=     1 X2= 1.376 Y2= 0.376 X2-Y2-1= 4.44D-16
          S2Grnd= -0.000 Ra=  0.500 Rb=  0.500 T=  1.000 S2Ext=  2.000 S2=  2.000
 ExtSpn:  IState=     2 X2= 1.026 Y2= 0.026 X2-Y2-1=-4.44D-16
          S2Grnd= -0.000 Ra=  0.500 Rb=  0.500 T=  1.000 S2Ext=  2.000 S2=  2.000
 ExtSpn:  IState=     3 X2= 1.008 Y2= 0.008 X2-Y2-1= 2.22D-16
          S2Grnd= -0.000 Ra=  0.500 Rb=  0.500 T=  1.000 S2Ext=  2.000 S2=  2.000
 Ground to excited state transition densities written to RWF  633
 Ground to excited state transition electric dipole moments (Au):
       state          X           Y           Z        Dip. S.      Osc.
         1         0.0000     -0.0000      0.0000      0.0000      0.0000
         2        -0.0000      0.0000     -0.0000      0.0000      0.0000
         3         0.0000      0.0000     -0.0000      0.0000      0.0000
 Ground to excited state transition velocity dipole moments (Au):
       state          X           Y           Z        Dip. S.      Osc.
         1        -0.0000     -0.0000      0.0000      0.0000      0.0000
         2         0.0000      0.0000     -0.0000      0.0000      0.0000
         3        -0.0000      0.0000     -0.0000      0.0000      0.0000
 Ground to excited state transition magnetic dipole moments (Au):
       state          X           Y           Z
         1        -0.0000     -0.0000     -0.0000
         2         0.0000     -0.0000     -0.0000
         3        -0.0000     -0.0000     -0.0000
 Ground to excited state transition velocity quadrupole moments (Au):
       state          XX          YY          ZZ          XY          XZ          YZ
         1        -0.0000      0.0000     -0.0000      0.0000      0.0000      0.0000
         2        -0.0000     -0.0000      0.0000      0.0000     -0.0000      0.0000
         3        -0.0000     -0.0000     -0.0000      0.0000     -0.0000      0.0000
 <0|del|b> * <b|rxdel|0> + <0|del|b> * <b|delr+rdel|0>
 Rotatory Strengths (R) in cgs (10**-40 erg-esu-cm/Gauss)
       state          XX          YY          ZZ    R(velocity)    E-M Angle
         1         0.0000     -0.0000      0.0000      0.0000       90.00
         2        -0.0000      0.0000     -0.0000      0.0000       90.00
         3        -0.0000      0.0000     -0.0000     -0.0000       90.00
 1/2[<0|r|b>*<b|rxdel|0> + (<0|rxdel|b>*<b|r|0>)*]
 Rotatory Strengths (R) in cgs (10**-40 erg-esu-cm/Gauss)
       state          XX          YY          ZZ     R(length)
         1         0.0000     -0.0000      0.0000      0.0000
         2         0.0000      0.0000     -0.0000     -0.0000
         3         0.0000      0.0000     -0.0000      0.0000
  1/2[<0|del|b>*<b|r|0> + (<0|r|b>*<b|del|0>)*] (Au)
       state          X           Y           Z        Dip. S.   Osc.(frdel)
         1        -0.0000      0.0000      0.0000     -0.0000     -0.0000
         2        -0.0000      0.0000      0.0000     -0.0000     -0.0000
         3        -0.0000      0.0000      0.0000     -0.0000     -0.0000

 Excitation energies and oscillator strengths:
 
 Excited state symmetry could not be determined.
 Excited State   1:  3.000-?Sym    0.8622 eV 1438.06 nm  f=0.0000  <S**2>=2.000
     26A -> 29A       -0.14539
     26A -> 31A       -0.12824
     28A -> 29A        0.78424
     28A -> 31A        0.12767
     26B -> 29B        0.14539
     26B -> 31B        0.12824
     28B -> 29B       -0.78424
     28B -> 31B       -0.12767
     28A <- 29A        0.38937
     28B <- 29B       -0.38937
 This state for optimization and/or second-order correction.
 Total Energy, E(TD-HF/TD-DFT) =  -309.604707246    
 Copying the excited state density for this state as the 1-particle RhoCI density.
 
 Excited state symmetry could not be determined.
 Excited State   2:  3.000-?Sym    3.7331 eV  332.12 nm  f=0.0000  <S**2>=2.000
     26A -> 29A        0.45547
     27A -> 29A       -0.29750
     27A -> 30A        0.27431
     28A -> 31A       -0.31814
     26B -> 29B       -0.45547
     27B -> 29B        0.29750
     27B -> 30B       -0.27431
     28B -> 31B        0.31814
 
 Excited state symmetry could not be determined.
 Excited State   3:  3.000-?Sym    3.8711 eV  320.28 nm  f=0.0000  <S**2>=2.000
     26A -> 29A        0.23628
     27A -> 29A        0.54222
     27A -> 30A        0.11263
     28A -> 30A        0.31644
     28A -> 31A       -0.15047
     26B -> 29B       -0.23628
     27B -> 29B       -0.54222
     27B -> 30B       -0.11263
     28B -> 30B       -0.31644
     28B -> 31B        0.15047
 SavETr:  write IOETrn=   770 NScale= 10 NData=  16 NLR=1 NState=    3 LETran=      64.
          IDoAtm=11111111111111110000000000000000000000000000000000
          IDoAtm=00000000000000000000000000000000000000000
          Differentiating once with respect to electric field.
                with respect to dipole field.
          Differentiating once with respect to nuclear coordinates.
 Keep R1 and R2 ints in memory in canonical form, NReq=114009024.
          There are     1 degrees of freedom in the 1st order CPHF.  IDoFFX=0 NUNeed=     1.
 LinEq1:  Iter=  0 NonCon=     1 RMS=2.37D-03 Max=4.69D-02 NDo=     1
 AX will form     1 AO Fock derivatives at one time.
 LinEq1:  Iter=  1 NonCon=     1 RMS=2.97D-03 Max=1.29D-01 NDo=     1
 LinEq1:  Iter=  2 NonCon=     1 RMS=1.15D-03 Max=1.44D-02 NDo=     1
 LinEq1:  Iter=  3 NonCon=     1 RMS=5.80D-04 Max=1.18D-02 NDo=     1
 LinEq1:  Iter=  4 NonCon=     1 RMS=3.32D-04 Max=9.19D-03 NDo=     1
 LinEq1:  Iter=  5 NonCon=     1 RMS=2.15D-04 Max=4.52D-03 NDo=     1
 LinEq1:  Iter=  6 NonCon=     1 RMS=9.89D-05 Max=1.49D-03 NDo=     1
 LinEq1:  Iter=  7 NonCon=     1 RMS=4.76D-05 Max=7.92D-04 NDo=     1
 LinEq1:  Iter=  8 NonCon=     1 RMS=2.43D-05 Max=4.41D-04 NDo=     1
 LinEq1:  Iter=  9 NonCon=     1 RMS=1.74D-05 Max=3.63D-04 NDo=     1
 LinEq1:  Iter= 10 NonCon=     1 RMS=9.81D-06 Max=1.76D-04 NDo=     1
 LinEq1:  Iter= 11 NonCon=     1 RMS=5.13D-06 Max=6.20D-05 NDo=     1
 LinEq1:  Iter= 12 NonCon=     1 RMS=1.54D-06 Max=1.89D-05 NDo=     1
 LinEq1:  Iter= 13 NonCon=     1 RMS=4.39D-07 Max=5.79D-06 NDo=     1
 LinEq1:  Iter= 14 NonCon=     1 RMS=1.18D-07 Max=2.08D-06 NDo=     1
 LinEq1:  Iter= 15 NonCon=     1 RMS=8.53D-08 Max=1.60D-06 NDo=     1
 LinEq1:  Iter= 16 NonCon=     1 RMS=2.02D-08 Max=2.57D-07 NDo=     1
 LinEq1:  Iter= 17 NonCon=     1 RMS=6.09D-09 Max=1.13D-07 NDo=     1
 LinEq1:  Iter= 18 NonCon=     1 RMS=2.99D-09 Max=4.85D-08 NDo=     1
 LinEq1:  Iter= 19 NonCon=     1 RMS=1.01D-09 Max=1.34D-08 NDo=     1
 LinEq1:  Iter= 20 NonCon=     1 RMS=1.93D-10 Max=1.85D-09 NDo=     1
 LinEq1:  Iter= 21 NonCon=     0 RMS=3.70D-11 Max=2.93D-10 NDo=     1
 Linear equations converged to 1.000D-10 1.000D-09 after    21 iterations.
 End of Minotr F.D. properties file   721 does not exist.
 End of Minotr F.D. properties file   722 does not exist.
 End of Minotr F.D. properties file   788 does not exist.

 **********************************************************************

            Population analysis using the SCF Density.

 **********************************************************************

 Alpha  occ. eigenvalues --  -10.20183 -10.19618 -10.19165 -10.19048 -10.18936
 Alpha  occ. eigenvalues --  -10.18878 -10.18860 -10.18755  -0.85507  -0.78127
 Alpha  occ. eigenvalues --   -0.74538  -0.70756  -0.62590  -0.59983  -0.55857
 Alpha  occ. eigenvalues --   -0.50835  -0.46726  -0.45080  -0.43093  -0.41918
 Alpha  occ. eigenvalues --   -0.40069  -0.38942  -0.36604  -0.34988  -0.33477
 Alpha  occ. eigenvalues --   -0.28047  -0.25150  -0.19756
 Alpha virt. eigenvalues --   -0.05890   0.00394   0.04265   0.09756   0.12123
 Alpha virt. eigenvalues --    0.13302   0.16036   0.16243   0.17312   0.18392
 Alpha virt. eigenvalues --    0.19899   0.21591   0.26703   0.28214   0.30679
 Alpha virt. eigenvalues --    0.33594   0.36445   0.37649   0.46178   0.52011
 Alpha virt. eigenvalues --    0.52776   0.54264   0.54972   0.56571   0.57404
 Alpha virt. eigenvalues --    0.58855   0.59114   0.59670   0.61245   0.62061
 Alpha virt. eigenvalues --    0.62270   0.63575   0.65001   0.65982   0.68890
 Alpha virt. eigenvalues --    0.71981   0.77274   0.82673   0.83651   0.83958
 Alpha virt. eigenvalues --    0.85040   0.85514   0.88906   0.90692   0.92762
 Alpha virt. eigenvalues --    0.93670   0.94076   0.95785   0.99268   1.01513
 Alpha virt. eigenvalues --    1.04776   1.08718   1.14639   1.16667   1.18288
 Alpha virt. eigenvalues --    1.25940   1.29230   1.33494   1.39360   1.44095
 Alpha virt. eigenvalues --    1.44811   1.45645   1.48506   1.49540   1.51328
 Alpha virt. eigenvalues --    1.64374   1.72038   1.77631   1.80131   1.85703
 Alpha virt. eigenvalues --    1.88501   1.89936   1.91744   1.94948   1.97204
 Alpha virt. eigenvalues --    1.98476   2.05004   2.11031   2.11282   2.14609
 Alpha virt. eigenvalues --    2.14957   2.17873   2.22459   2.26718   2.32264
 Alpha virt. eigenvalues --    2.32995   2.35646   2.47817   2.51043   2.57105
 Alpha virt. eigenvalues --    2.59605   2.62434   2.65916   2.73965   2.75503
 Alpha virt. eigenvalues --    2.76919   2.86045   2.91827   3.13777   3.41563
 Alpha virt. eigenvalues --    4.07335   4.09567   4.12238   4.13912   4.25060
 Alpha virt. eigenvalues --    4.32814   4.42437   4.71083
  Beta  occ. eigenvalues --  -10.20183 -10.19618 -10.19165 -10.19048 -10.18936
  Beta  occ. eigenvalues --  -10.18878 -10.18860 -10.18755  -0.85507  -0.78127
  Beta  occ. eigenvalues --   -0.74538  -0.70756  -0.62590  -0.59983  -0.55857
  Beta  occ. eigenvalues --   -0.50835  -0.46726  -0.45080  -0.43093  -0.41918
  Beta  occ. eigenvalues --   -0.40069  -0.38942  -0.36604  -0.34988  -0.33477
  Beta  occ. eigenvalues --   -0.28047  -0.25150  -0.19756
  Beta virt. eigenvalues --   -0.05890   0.00394   0.04265   0.09756   0.12123
  Beta virt. eigenvalues --    0.13302   0.16036   0.16243   0.17312   0.18392
  Beta virt. eigenvalues --    0.19899   0.21591   0.26703   0.28214   0.30679
  Beta virt. eigenvalues --    0.33594   0.36445   0.37649   0.46178   0.52011
  Beta virt. eigenvalues --    0.52776   0.54264   0.54972   0.56571   0.57404
  Beta virt. eigenvalues --    0.58855   0.59114   0.59670   0.61245   0.62061
  Beta virt. eigenvalues --    0.62270   0.63575   0.65001   0.65982   0.68890
  Beta virt. eigenvalues --    0.71981   0.77274   0.82673   0.83651   0.83958
  Beta virt. eigenvalues --    0.85040   0.85514   0.88906   0.90692   0.92762
  Beta virt. eigenvalues --    0.93670   0.94076   0.95785   0.99268   1.01513
  Beta virt. eigenvalues --    1.04776   1.08718   1.14639   1.16667   1.18288
  Beta virt. eigenvalues --    1.25940   1.29230   1.33494   1.39360   1.44095
  Beta virt. eigenvalues --    1.44811   1.45645   1.48506   1.49540   1.51328
  Beta virt. eigenvalues --    1.64374   1.72038   1.77631   1.80131   1.85703
  Beta virt. eigenvalues --    1.88501   1.89936   1.91744   1.94948   1.97204
  Beta virt. eigenvalues --    1.98476   2.05004   2.11031   2.11282   2.14609
  Beta virt. eigenvalues --    2.14957   2.17873   2.22459   2.26718   2.32264
  Beta virt. eigenvalues --    2.32995   2.35646   2.47817   2.51043   2.57105
  Beta virt. eigenvalues --    2.59605   2.62434   2.65916   2.73965   2.75503
  Beta virt. eigenvalues --    2.76919   2.86045   2.91827   3.13777   3.41563
  Beta virt. eigenvalues --    4.07335   4.09567   4.12238   4.13912   4.25060
  Beta virt. eigenvalues --    4.32814   4.42437   4.71083
          Condensed to atoms (all electrons):
          Atomic-Atomic Spin Densities.
 Mulliken charges and spin densities:
               1          2
     1  C    0.186604   0.000000
     2  C   -0.187379  -0.000000
     3  C   -0.175329  -0.000000
     4  C   -0.127766  -0.000000
     5  H    0.127192   0.000000
     6  C   -0.162357   0.000000
     7  C   -0.127365   0.000000
     8  H    0.129410   0.000000
     9  C   -0.131014   0.000000
    10  H    0.130001  -0.000000
    11  C   -0.369185  -0.000000
    12  H    0.138911  -0.000000
    13  H    0.129991  -0.000000
    14  H    0.130578   0.000000
    15  H    0.152382  -0.000000
    16  H    0.155326   0.000000
    17  C    0.000000   0.000000
    18  H    0.000000   0.000000
    19  H    0.000000   0.000000
    20  Cl   0.000000   0.000000
    21  Cl   0.000000   0.000000
    22  C    0.000000   0.000000
    23  H    0.000000   0.000000
    24  H    0.000000   0.000000
    25  Cl   0.000000   0.000000
    26  Cl   0.000000   0.000000
    27  C    0.000000   0.000000
    28  H    0.000000   0.000000
    29  H    0.000000   0.000000
    30  Cl   0.000000   0.000000
    31  Cl   0.000000   0.000000
    32  C    0.000000   0.000000
    33  H    0.000000   0.000000
    34  H    0.000000   0.000000
    35  Cl   0.000000   0.000000
    36  Cl   0.000000   0.000000
    37  C    0.000000   0.000000
    38  H    0.000000   0.000000
    39  H    0.000000   0.000000
    40  Cl   0.000000   0.000000
    41  Cl   0.000000   0.000000
    42  C    0.000000   0.000000
    43  H    0.000000   0.000000
    44  H    0.000000   0.000000
    45  Cl   0.000000   0.000000
    46  Cl   0.000000   0.000000
    47  C    0.000000   0.000000
    48  H    0.000000   0.000000
    49  H    0.000000   0.000000
    50  Cl   0.000000   0.000000
    51  Cl   0.000000   0.000000
    52  C    0.000000   0.000000
    53  H    0.000000   0.000000
    54  H    0.000000   0.000000
    55  Cl   0.000000   0.000000
    56  Cl   0.000000   0.000000
    57  C    0.000000   0.000000
    58  H    0.000000   0.000000
    59  H    0.000000   0.000000
    60  Cl   0.000000   0.000000
    61  Cl   0.000000   0.000000
    62  C    0.000000   0.000000
    63  H    0.000000   0.000000
    64  H    0.000000   0.000000
    65  Cl   0.000000   0.000000
    66  Cl   0.000000   0.000000
    67  C    0.000000   0.000000
    68  H    0.000000   0.000000
    69  H    0.000000   0.000000
    70  Cl   0.000000   0.000000
    71  Cl   0.000000   0.000000
    72  C    0.000000   0.000000
    73  H    0.000000   0.000000
    74  H    0.000000   0.000000
    75  Cl   0.000000   0.000000
    76  Cl   0.000000   0.000000
    77  C    0.000000   0.000000
    78  H    0.000000   0.000000
    79  H    0.000000   0.000000
    80  Cl   0.000000   0.000000
    81  Cl   0.000000   0.000000
    82  C    0.000000   0.000000
    83  H    0.000000   0.000000
    84  H    0.000000   0.000000
    85  Cl   0.000000   0.000000
    86  Cl   0.000000   0.000000
    87  C    0.000000   0.000000
    88  H    0.000000   0.000000
    89  H    0.000000   0.000000
    90  Cl   0.000000   0.000000
    91  Cl   0.000000   0.000000
 Sum of Mulliken charges =  -0.00000   0.00000
 Mulliken charges and spin densities with hydrogens summed into heavy atoms:
               1          2
     1  C    0.186604   0.000000
     2  C   -0.060187  -0.000000
     3  C   -0.045919  -0.000000
     4  C    0.002234  -0.000000
     6  C   -0.023446   0.000000
     7  C    0.002626   0.000000
     9  C   -0.000436   0.000000
    11  C   -0.061477  -0.000000
    17  C    0.000000   0.000000
    20  Cl   0.000000   0.000000
    21  Cl   0.000000   0.000000
    22  C    0.000000   0.000000
    25  Cl   0.000000   0.000000
    26  Cl   0.000000   0.000000
    27  C    0.000000   0.000000
    30  Cl   0.000000   0.000000
    31  Cl   0.000000   0.000000
    32  C    0.000000   0.000000
    35  Cl   0.000000   0.000000
    36  Cl   0.000000   0.000000
    37  C    0.000000   0.000000
    40  Cl   0.000000   0.000000
    41  Cl   0.000000   0.000000
    42  C    0.000000   0.000000
    45  Cl   0.000000   0.000000
    46  Cl   0.000000   0.000000
    47  C    0.000000   0.000000
    50  Cl   0.000000   0.000000
    51  Cl   0.000000   0.000000
    52  C    0.000000   0.000000
    55  Cl   0.000000   0.000000
    56  Cl   0.000000   0.000000
    57  C    0.000000   0.000000
    60  Cl   0.000000   0.000000
    61  Cl   0.000000   0.000000
    62  C    0.000000   0.000000
    65  Cl   0.000000   0.000000
    66  Cl   0.000000   0.000000
    67  C    0.000000   0.000000
    70  Cl   0.000000   0.000000
    71  Cl   0.000000   0.000000
    72  C    0.000000   0.000000
    75  Cl   0.000000   0.000000
    76  Cl   0.000000   0.000000
    77  C    0.000000   0.000000
    80  Cl   0.000000   0.000000
    81  Cl   0.000000   0.000000
    82  C    0.000000   0.000000
    85  Cl   0.000000   0.000000
    86  Cl   0.000000   0.000000
    87  C    0.000000   0.000000
    90  Cl   0.000000   0.000000
    91  Cl   0.000000   0.000000
 Electronic spatial extent (au):  <R**2>=            995.4759
 Charge=             -0.0000 electrons
 Dipole moment (field-independent basis, Debye):
    X=             -0.2729    Y=             -0.1245    Z=              0.0028  Tot=              0.3000
 Quadrupole moment (field-independent basis, Debye-Ang):
   XX=            -43.0554   YY=            -44.3060   ZZ=            -48.7649
   XY=              0.0263   XZ=              0.0782   YZ=             -3.6702
 Traceless Quadrupole moment (field-independent basis, Debye-Ang):
   XX=              2.3200   YY=              1.0695   ZZ=             -3.3895
   XY=              0.0263   XZ=              0.0782   YZ=             -3.6702
 Octapole moment (field-independent basis, Debye-Ang**2):
  XXX=             -5.0478  YYY=              6.8274  ZZZ=             30.5641  XYY=              0.5795
  XXY=              4.9993  XXZ=             13.1726  XZZ=              2.0617  YZZ=              5.8078
  YYZ=             11.2351  XYZ=              0.2680
 Hexadecapole moment (field-independent basis, Debye-Ang**3):
 XXXX=           -854.4450 YYYY=           -305.0776 ZZZZ=           -155.5552 XXXY=            -49.7209
 XXXZ=             74.5755 YYYX=            -65.0589 YYYZ=             58.5623 ZZZX=             64.9315
 ZZZY=             67.3737 XXYY=           -188.8536 XXZZ=           -186.5255 YYZZ=            -73.7977
 XXYZ=             10.7359 YYXZ=             19.5333 ZZXY=            -17.4065
 N-N= 3.190498546065D+02 E-N=-1.354343345423D+03  KE= 3.064267798846D+02
                          Isotropic Fermi Contact Couplings
        Atom                 a.u.       MegaHertz       Gauss      10(-4) cm-1
     1  C(13)              0.00000       0.00000       0.00000       0.00000
     2  C(13)             -0.00000      -0.00000      -0.00000      -0.00000
     3  C(13)              0.00000       0.00000       0.00000       0.00000
     4  C(13)              0.00000       0.00000       0.00000       0.00000
     5  H(1)              -0.00000      -0.00000      -0.00000      -0.00000
     6  C(13)              0.00000       0.00000       0.00000       0.00000
     7  C(13)              0.00000       0.00000       0.00000       0.00000
     8  H(1)               0.00000       0.00000       0.00000       0.00000
     9  C(13)              0.00000       0.00000       0.00000       0.00000
    10  H(1)              -0.00000      -0.00000      -0.00000      -0.00000
    11  C(13)             -0.00000      -0.00000      -0.00000      -0.00000
    12  H(1)              -0.00000      -0.00000      -0.00000      -0.00000
    13  H(1)              -0.00000      -0.00000      -0.00000      -0.00000
    14  H(1)              -0.00000      -0.00000      -0.00000      -0.00000
    15  H(1)               0.00000       0.00000       0.00000       0.00000
    16  H(1)               0.00000       0.00000       0.00000       0.00000
 --------------------------------------------------------
       Center         ----  Spin Dipole Couplings  ----
                      3XX-RR        3YY-RR        3ZZ-RR
 --------------------------------------------------------
     1   Atom        0.000000      0.000000      0.000000
     2   Atom        0.000000      0.000000      0.000000
     3   Atom        0.000000      0.000000      0.000000
     4   Atom        0.000000      0.000000      0.000000
     5   Atom        0.000000      0.000000      0.000000
     6   Atom        0.000000      0.000000      0.000000
     7   Atom        0.000000      0.000000      0.000000
     8   Atom        0.000000      0.000000      0.000000
     9   Atom        0.000000      0.000000      0.000000
    10   Atom        0.000000      0.000000      0.000000
    11   Atom        0.000000      0.000000      0.000000
    12   Atom        0.000000      0.000000      0.000000
    13   Atom        0.000000      0.000000      0.000000
    14   Atom        0.000000      0.000000      0.000000
    15   Atom        0.000000      0.000000      0.000000
    16   Atom        0.000000      0.000000      0.000000
 --------------------------------------------------------
                        XY            XZ            YZ
 --------------------------------------------------------
     1   Atom        0.000000      0.000000      0.000000
     2   Atom        0.000000      0.000000      0.000000
     3   Atom        0.000000      0.000000      0.000000
     4   Atom        0.000000      0.000000      0.000000
     5   Atom        0.000000      0.000000      0.000000
     6   Atom        0.000000      0.000000      0.000000
     7   Atom        0.000000      0.000000      0.000000
     8   Atom        0.000000      0.000000      0.000000
     9   Atom        0.000000      0.000000      0.000000
    10   Atom        0.000000      0.000000      0.000000
    11   Atom        0.000000      0.000000      0.000000
    12   Atom        0.000000      0.000000      0.000000
    13   Atom        0.000000      0.000000      0.000000
    14   Atom        0.000000      0.000000      0.000000
    15   Atom        0.000000      0.000000      0.000000
    16   Atom        0.000000      0.000000      0.000000
 --------------------------------------------------------


 ---------------------------------------------------------------------------------
              Anisotropic Spin Dipole Couplings in Principal Axis System
 ---------------------------------------------------------------------------------

       Atom             a.u.   MegaHertz   Gauss  10(-4) cm-1        Axes

              Baa     0.0000     0.000     0.000     0.000  1.0000  0.0000  0.0000
     1 C(13)  Bbb     0.0000     0.000     0.000     0.000 -0.0000  1.0000  0.0000
              Bcc     0.0000     0.000     0.000     0.000  0.0000  0.0000  1.0000
 
              Baa     0.0000     0.000     0.000     0.000  1.0000  0.0000  0.0000
     2 C(13)  Bbb     0.0000     0.000     0.000     0.000 -0.0000  1.0000  0.0000
              Bcc     0.0000     0.000     0.000     0.000  0.0000  0.0000  1.0000
 
              Baa     0.0000     0.000     0.000     0.000  1.0000  0.0000  0.0000
     3 C(13)  Bbb     0.0000     0.000     0.000     0.000 -0.0000  1.0000  0.0000
              Bcc     0.0000     0.000     0.000     0.000  0.0000  0.0000  1.0000
 
              Baa     0.0000     0.000     0.000     0.000  1.0000  0.0000  0.0000
     4 C(13)  Bbb     0.0000     0.000     0.000     0.000 -0.0000  1.0000  0.0000
              Bcc     0.0000     0.000     0.000     0.000  0.0000  0.0000  1.0000
 
              Baa     0.0000     0.000     0.000     0.000  1.0000  0.0000  0.0000
     5 H(1)   Bbb     0.0000     0.000     0.000     0.000 -0.0000  1.0000  0.0000
              Bcc     0.0000     0.000     0.000     0.000  0.0000  0.0000  1.0000
 
              Baa     0.0000     0.000     0.000     0.000  1.0000  0.0000  0.0000
     6 C(13)  Bbb     0.0000     0.000     0.000     0.000 -0.0000  1.0000  0.0000
              Bcc     0.0000     0.000     0.000     0.000  0.0000  0.0000  1.0000
 
              Baa     0.0000     0.000     0.000     0.000  1.0000  0.0000  0.0000
     7 C(13)  Bbb     0.0000     0.000     0.000     0.000 -0.0000  1.0000  0.0000
              Bcc     0.0000     0.000     0.000     0.000  0.0000  0.0000  1.0000
 
              Baa     0.0000     0.000     0.000     0.000  1.0000  0.0000  0.0000
     8 H(1)   Bbb     0.0000     0.000     0.000     0.000 -0.0000  1.0000  0.0000
              Bcc     0.0000     0.000     0.000     0.000  0.0000  0.0000  1.0000
 
              Baa     0.0000     0.000     0.000     0.000  1.0000  0.0000  0.0000
     9 C(13)  Bbb     0.0000     0.000     0.000     0.000 -0.0000  1.0000  0.0000
              Bcc     0.0000     0.000     0.000     0.000  0.0000  0.0000  1.0000
 
              Baa     0.0000     0.000     0.000     0.000  1.0000  0.0000  0.0000
    10 H(1)   Bbb     0.0000     0.000     0.000     0.000 -0.0000  1.0000  0.0000
              Bcc     0.0000     0.000     0.000     0.000  0.0000  0.0000  1.0000
 
              Baa     0.0000     0.000     0.000     0.000  1.0000  0.0000  0.0000
    11 C(13)  Bbb     0.0000     0.000     0.000     0.000 -0.0000  1.0000  0.0000
              Bcc     0.0000     0.000     0.000     0.000  0.0000  0.0000  1.0000
 
              Baa     0.0000     0.000     0.000     0.000  1.0000  0.0000  0.0000
    12 H(1)   Bbb     0.0000     0.000     0.000     0.000 -0.0000  1.0000  0.0000
              Bcc     0.0000     0.000     0.000     0.000  0.0000  0.0000  1.0000
 
              Baa     0.0000     0.000     0.000     0.000  1.0000  0.0000  0.0000
    13 H(1)   Bbb     0.0000     0.000     0.000     0.000 -0.0000  1.0000  0.0000
              Bcc     0.0000     0.000     0.000     0.000  0.0000  0.0000  1.0000
 
              Baa     0.0000     0.000     0.000     0.000  1.0000  0.0000  0.0000
    14 H(1)   Bbb     0.0000     0.000     0.000     0.000 -0.0000  1.0000  0.0000
              Bcc     0.0000     0.000     0.000     0.000  0.0000  0.0000  1.0000
 
              Baa     0.0000     0.000     0.000     0.000  1.0000  0.0000  0.0000
    15 H(1)   Bbb     0.0000     0.000     0.000     0.000 -0.0000  1.0000  0.0000
              Bcc     0.0000     0.000     0.000     0.000  0.0000  0.0000  1.0000
 
              Baa     0.0000     0.000     0.000     0.000  1.0000  0.0000  0.0000
    16 H(1)   Bbb     0.0000     0.000     0.000     0.000 -0.0000  1.0000  0.0000
              Bcc     0.0000     0.000     0.000     0.000  0.0000  0.0000  1.0000
 

 ---------------------------------------------------------------------------------

 Calling FoFJK, ICntrl=  10005127 FMM=F ISym2X=0 I1Cent= 0 IOpClX= 1 NMat=1 NMatS=1 NMatT=0.
 Cartesian Forces:  Max     0.079309900 RMS     0.010540098
 SvSCFP is copying densities from files   528 and   530 to   603.
 ONIOM: saving gridpoint  2
 ONIOM: restoring gridpoint 17
 ONIOM: restoring gridpoint  1 on chk file.
 ONIOM: generating point  1 -- low level on model system.
 Standard basis: VSTO-6G (5D, 7F)
    40 basis functions,   240 primitive gaussians,    40 cartesian basis functions
    20 alpha electrons       20 beta electrons
       nuclear repulsion energy       184.5201798553 Hartrees.
 Integral buffers will be    131072 words long.
 Regular integral format.
 Two-electron integral symmetry is turned off.
 Do NDO integrals.
 One-electron integrals computed using PRISM.
 NBasis=    40 RedAO= F EigKep=  0.00D+00  NBF=    40
 NBsUse=    40 1.00D-04 EigRej=  0.00D+00 NBFU=    40
 Initial guess from the checkpoint file:  "a.chk"
 B after Tr=     0.001025   -0.000254    0.000101
         Rot=    1.000000   -0.000172   -0.000107    0.000150 Ang=  -0.03 deg.
 Initial guess <Sx>= 0.0000 <Sy>= 0.0000 <Sz>= 0.0000 <S**2>= 0.8762 S= 0.5612
 Keep J ints in memory in canonical form, NReq=867663.
 Overlap will be assumed to be unity.
 Requested convergence on RMS density matrix=1.00D-08 within  64 cycles.
 Requested convergence on MAX density matrix=1.00D-06.
 Requested convergence on             energy=1.00D-06.
 No special actions if energy rises.
 SCF Done:  E(UPM6) =  0.860854478040E-01 A.U. after   16 cycles
            NFock= 15  Conv=0.56D-08     -V/T= 1.0014
 <Sx>= 0.0000 <Sy>= 0.0000 <Sz>= 0.0000 <S**2>= 0.8756 S= 0.5609
 <L.S>=  0.00000000000    
 Annihilation of the first spin contaminant:
 S**2 before annihilation     0.8756,   after     1.1414
 QCSCF skips out because SCF is already converged.

 **********************************************************************

            Population analysis using the SCF Density.

 **********************************************************************

 Alpha  occ. eigenvalues --   -1.09760  -1.00171  -0.95864  -0.90526  -0.81199
 Alpha  occ. eigenvalues --   -0.77833  -0.71381  -0.63769  -0.58682  -0.56633
 Alpha  occ. eigenvalues --   -0.54043  -0.52324  -0.50783  -0.49736  -0.48186
 Alpha  occ. eigenvalues --   -0.44846  -0.43201  -0.39583  -0.36797  -0.32080
 Alpha virt. eigenvalues --    0.00636   0.01815   0.04430   0.10003   0.15561
 Alpha virt. eigenvalues --    0.15666   0.17686   0.18312   0.18544   0.19247
 Alpha virt. eigenvalues --    0.19818   0.20420   0.21139   0.21558   0.22346
 Alpha virt. eigenvalues --    0.22667   0.22835   0.22953   0.23408   0.23460
  Beta  occ. eigenvalues --   -1.09699  -1.00093  -0.95816  -0.90663  -0.81236
  Beta  occ. eigenvalues --   -0.77840  -0.71473  -0.63593  -0.58592  -0.56699
  Beta  occ. eigenvalues --   -0.54182  -0.52282  -0.50791  -0.49532  -0.48037
  Beta  occ. eigenvalues --   -0.44725  -0.43207  -0.38742  -0.36162  -0.34116
  Beta virt. eigenvalues --   -0.01182   0.02406   0.05203   0.10530   0.15503
  Beta virt. eigenvalues --    0.15831   0.17663   0.18386   0.18615   0.19254
  Beta virt. eigenvalues --    0.19874   0.20611   0.21089   0.21501   0.22291
  Beta virt. eigenvalues --    0.22408   0.22736   0.23019   0.23399   0.23520
          Condensed to atoms (all electrons):
          Atomic-Atomic Spin Densities.
 Mulliken charges and spin densities:
               1          2
     1  C    0.029998  -0.395562
     2  C   -0.172013   0.383010
     3  C   -0.157955   0.393885
     4  C   -0.135681  -0.323375
     5  H    0.147526  -0.013420
     6  C   -0.150607   0.708299
     7  C   -0.141598  -0.324910
     8  H    0.150944  -0.013518
     9  C   -0.146384   0.385622
    10  H    0.144390   0.011278
    11  C   -0.309432  -0.846857
    12  H    0.149479  -0.033925
    13  H    0.144671   0.011376
    14  H    0.144946  -0.013267
    15  H    0.150224   0.034933
    16  H    0.151492   0.036431
    17  C    0.000000   0.000000
    18  H    0.000000   0.000000
    19  H    0.000000   0.000000
    20  Cl   0.000000   0.000000
    21  Cl   0.000000   0.000000
    22  C    0.000000   0.000000
    23  H    0.000000   0.000000
    24  H    0.000000   0.000000
    25  Cl   0.000000   0.000000
    26  Cl   0.000000   0.000000
    27  C    0.000000   0.000000
    28  H    0.000000   0.000000
    29  H    0.000000   0.000000
    30  Cl   0.000000   0.000000
    31  Cl   0.000000   0.000000
    32  C    0.000000   0.000000
    33  H    0.000000   0.000000
    34  H    0.000000   0.000000
    35  Cl   0.000000   0.000000
    36  Cl   0.000000   0.000000
    37  C    0.000000   0.000000
    38  H    0.000000   0.000000
    39  H    0.000000   0.000000
    40  Cl   0.000000   0.000000
    41  Cl   0.000000   0.000000
    42  C    0.000000   0.000000
    43  H    0.000000   0.000000
    44  H    0.000000   0.000000
    45  Cl   0.000000   0.000000
    46  Cl   0.000000   0.000000
    47  C    0.000000   0.000000
    48  H    0.000000   0.000000
    49  H    0.000000   0.000000
    50  Cl   0.000000   0.000000
    51  Cl   0.000000   0.000000
    52  C    0.000000   0.000000
    53  H    0.000000   0.000000
    54  H    0.000000   0.000000
    55  Cl   0.000000   0.000000
    56  Cl   0.000000   0.000000
    57  C    0.000000   0.000000
    58  H    0.000000   0.000000
    59  H    0.000000   0.000000
    60  Cl   0.000000   0.000000
    61  Cl   0.000000   0.000000
    62  C    0.000000   0.000000
    63  H    0.000000   0.000000
    64  H    0.000000   0.000000
    65  Cl   0.000000   0.000000
    66  Cl   0.000000   0.000000
    67  C    0.000000   0.000000
    68  H    0.000000   0.000000
    69  H    0.000000   0.000000
    70  Cl   0.000000   0.000000
    71  Cl   0.000000   0.000000
    72  C    0.000000   0.000000
    73  H    0.000000   0.000000
    74  H    0.000000   0.000000
    75  Cl   0.000000   0.000000
    76  Cl   0.000000   0.000000
    77  C    0.000000   0.000000
    78  H    0.000000   0.000000
    79  H    0.000000   0.000000
    80  Cl   0.000000   0.000000
    81  Cl   0.000000   0.000000
    82  C    0.000000   0.000000
    83  H    0.000000   0.000000
    84  H    0.000000   0.000000
    85  Cl   0.000000   0.000000
    86  Cl   0.000000   0.000000
    87  C    0.000000   0.000000
    88  H    0.000000   0.000000
    89  H    0.000000   0.000000
    90  Cl   0.000000   0.000000
    91  Cl   0.000000   0.000000
 Sum of Mulliken charges =   0.00000   0.00000
 Mulliken charges and spin densities with hydrogens summed into heavy atoms:
               1          2
     1  C    0.029998  -0.395562
     2  C   -0.024487   0.369590
     3  C   -0.007011   0.380367
     4  C    0.008709  -0.312097
     6  C   -0.001127   0.674373
     7  C    0.003073  -0.313534
     9  C   -0.001438   0.372356
    11  C   -0.007716  -0.775493
    17  C    0.000000   0.000000
    20  Cl   0.000000   0.000000
    21  Cl   0.000000   0.000000
    22  C    0.000000   0.000000
    25  Cl   0.000000   0.000000
    26  Cl   0.000000   0.000000
    27  C    0.000000   0.000000
    30  Cl   0.000000   0.000000
    31  Cl   0.000000   0.000000
    32  C    0.000000   0.000000
    35  Cl   0.000000   0.000000
    36  Cl   0.000000   0.000000
    37  C    0.000000   0.000000
    40  Cl   0.000000   0.000000
    41  Cl   0.000000   0.000000
    42  C    0.000000   0.000000
    45  Cl   0.000000   0.000000
    46  Cl   0.000000   0.000000
    47  C    0.000000   0.000000
    50  Cl   0.000000   0.000000
    51  Cl   0.000000   0.000000
    52  C    0.000000   0.000000
    55  Cl   0.000000   0.000000
    56  Cl   0.000000   0.000000
    57  C    0.000000   0.000000
    60  Cl   0.000000   0.000000
    61  Cl   0.000000   0.000000
    62  C    0.000000   0.000000
    65  Cl   0.000000   0.000000
    66  Cl   0.000000   0.000000
    67  C    0.000000   0.000000
    70  Cl   0.000000   0.000000
    71  Cl   0.000000   0.000000
    72  C    0.000000   0.000000
    75  Cl   0.000000   0.000000
    76  Cl   0.000000   0.000000
    77  C    0.000000   0.000000
    80  Cl   0.000000   0.000000
    81  Cl   0.000000   0.000000
    82  C    0.000000   0.000000
    85  Cl   0.000000   0.000000
    86  Cl   0.000000   0.000000
    87  C    0.000000   0.000000
    90  Cl   0.000000   0.000000
    91  Cl   0.000000   0.000000
 Charge=              0.0000 electrons
 Dipole moment (field-independent basis, Debye):
    X=              0.0306    Y=             -0.0412    Z=             -0.1133  Tot=              0.1244
 N-N= 1.845201798553D+02 E-N=-2.804953207657D+02  KE=-6.322410789599D+01
 Calling FoFJK, ICntrl=      2127 FMM=F ISym2X=0 I1Cent= 0 IOpClX= 1 NMat=1 NMatS=1 NMatT=0.
 Cartesian Forces:  Max     0.032901870 RMS     0.004523615
 SvSCFP is copying densities from files   528 and   530 to   603.
 ONIOM: saving gridpoint  1
 ONIOM: restoring gridpoint  3
 ONIOM: calculating energy.
 ONIOM: gridpoint  1 method:  low   system:  model energy:     0.086085447804
 ONIOM: gridpoint  2 method:  high  system:  model energy:  -309.604707246436
 ONIOM: gridpoint  3 method:  low   system:  real  energy:    -0.404045102841
 ONIOM: extrapolated energy =    -310.094837797081
 ONIOM: calculating first derivatives.
 ONIOM: calculating electric field derivatives.
 ONIOM: Integrating ONIOM file  4 number   619
 ONIOM: Dipole        =-8.84871980D-02 1.23564823D-02 1.56806672D-01
 ONIOM: Dipole moment (Debye):
    X=    -0.2249    Y=     0.0314    Z=     0.3986  Tot=     0.4587
 ONIOM: Integrating ONIOM file  5 number   695
 Anisotropic Hyperfine tensors: 
                 1             2             3             4             5 
      1   0.000000D+00  0.000000D+00  0.000000D+00  0.000000D+00  0.000000D+00
      2   0.000000D+00  0.000000D+00  0.000000D+00  0.000000D+00  0.000000D+00
      3   0.000000D+00  0.000000D+00  0.000000D+00  0.000000D+00  0.000000D+00
      4   0.000000D+00  0.000000D+00  0.000000D+00  0.000000D+00  0.000000D+00
      5   0.000000D+00  0.000000D+00  0.000000D+00  0.000000D+00  0.000000D+00
      6   0.000000D+00  0.000000D+00  0.000000D+00  0.000000D+00  0.000000D+00
                 6             7             8             9            10 
      1   0.000000D+00  0.000000D+00  0.000000D+00  0.000000D+00  0.000000D+00
      2   0.000000D+00  0.000000D+00  0.000000D+00  0.000000D+00  0.000000D+00
      3   0.000000D+00  0.000000D+00  0.000000D+00  0.000000D+00  0.000000D+00
      4   0.000000D+00  0.000000D+00  0.000000D+00  0.000000D+00  0.000000D+00
      5   0.000000D+00  0.000000D+00  0.000000D+00  0.000000D+00  0.000000D+00
      6   0.000000D+00  0.000000D+00  0.000000D+00  0.000000D+00  0.000000D+00
                11            12            13            14            15 
      1   0.000000D+00  0.000000D+00  0.000000D+00  0.000000D+00  0.000000D+00
      2   0.000000D+00  0.000000D+00  0.000000D+00  0.000000D+00  0.000000D+00
      3   0.000000D+00  0.000000D+00  0.000000D+00  0.000000D+00  0.000000D+00
      4   0.000000D+00  0.000000D+00  0.000000D+00  0.000000D+00  0.000000D+00
      5   0.000000D+00  0.000000D+00  0.000000D+00  0.000000D+00  0.000000D+00
      6   0.000000D+00  0.000000D+00  0.000000D+00  0.000000D+00  0.000000D+00
                16            17            18            19            20 
      1   0.000000D+00  0.000000D+00  0.000000D+00  0.000000D+00  0.000000D+00
      2   0.000000D+00  0.000000D+00  0.000000D+00  0.000000D+00  0.000000D+00
      3   0.000000D+00  0.000000D+00  0.000000D+00  0.000000D+00  0.000000D+00
      4   0.000000D+00  0.000000D+00  0.000000D+00  0.000000D+00  0.000000D+00
      5   0.000000D+00  0.000000D+00  0.000000D+00  0.000000D+00  0.000000D+00
      6   0.000000D+00  0.000000D+00  0.000000D+00  0.000000D+00  0.000000D+00
                21            22            23            24            25 
      1   0.000000D+00  0.000000D+00  0.000000D+00  0.000000D+00  0.000000D+00
      2   0.000000D+00  0.000000D+00  0.000000D+00  0.000000D+00  0.000000D+00
      3   0.000000D+00  0.000000D+00  0.000000D+00  0.000000D+00  0.000000D+00
      4   0.000000D+00  0.000000D+00  0.000000D+00  0.000000D+00  0.000000D+00
      5   0.000000D+00  0.000000D+00  0.000000D+00  0.000000D+00  0.000000D+00
      6   0.000000D+00  0.000000D+00  0.000000D+00  0.000000D+00  0.000000D+00
                26            27            28            29            30 
      1   0.000000D+00  0.000000D+00  0.000000D+00  0.000000D+00  0.000000D+00
      2   0.000000D+00  0.000000D+00  0.000000D+00  0.000000D+00  0.000000D+00
      3   0.000000D+00  0.000000D+00  0.000000D+00  0.000000D+00  0.000000D+00
      4   0.000000D+00  0.000000D+00  0.000000D+00  0.000000D+00  0.000000D+00
      5   0.000000D+00  0.000000D+00  0.000000D+00  0.000000D+00  0.000000D+00
      6   0.000000D+00  0.000000D+00  0.000000D+00  0.000000D+00  0.000000D+00
[...]
   X21        9.32724   0.00002   0.00000   0.00029   0.00030   9.32754
   Y21       -2.21108   0.00000   0.00000  -0.00055  -0.00005  -2.21112
   Z21        2.96791  -0.00001   0.00000  -0.00155  -0.00047   2.96744
   X22       10.81798   0.00007   0.00000   0.00091   0.00084  10.81882
   Y22       -2.01502  -0.00000   0.00000  -0.00049  -0.00025  -2.01527
   Z22       -2.95084  -0.00000   0.00000  -0.00104   0.00002  -2.95082
   X23        8.78300   0.00008   0.00000   0.00085   0.00079   8.78379
   Y23       -2.11237   0.00004   0.00000   0.00058   0.00081  -2.11156
   Z23       -2.44257  -0.00001   0.00000  -0.00118  -0.00010  -2.44267
   X24       11.97667  -0.00008   0.00000  -0.00054  -0.00057  11.97610
   Y24       -3.14990  -0.00012   0.00000  -0.00179  -0.00148  -3.15138
   Z24       -1.62237   0.00000   0.00000  -0.00091   0.00018  -1.62218
   X25       11.84661   0.00022   0.00000   0.00311   0.00300  11.84961
   Y25        1.17324  -0.00007   0.00000  -0.00125  -0.00100   1.17223
   Z25       -2.87202   0.00013   0.00000   0.00050   0.00138  -2.87064
   X26       11.25539   0.00007   0.00000   0.00102   0.00092  11.25631
   Y26       -3.12778   0.00006   0.00000   0.00065   0.00073  -3.12704
   Z26       -6.06915  -0.00003   0.00000  -0.00155  -0.00045  -6.06960
   X27        3.98799  -0.00005   0.00000  -0.00084  -0.00093   3.98706
   Y27        6.01541   0.00001   0.00000  -0.00014   0.00030   6.01571
   Z27        2.91935   0.00001   0.00000  -0.00105  -0.00030   2.91905
   X28        3.47811  -0.00031   0.00000  -0.00317  -0.00324   3.47487
   Y28        4.04993   0.00011   0.00000   0.00077   0.00118   4.05111
   Z28        2.37422  -0.00013   0.00000  -0.00207  -0.00122   2.37301
   X29        2.57215  -0.00003   0.00000  -0.00040  -0.00051   2.57163
   Y29        7.37978   0.00002   0.00000   0.00076   0.00115   7.38093
   Z29        2.17995  -0.00001   0.00000   0.00001   0.00071   2.18066
   X30        7.02208  -0.00007   0.00000  -0.00102  -0.00113   7.02095
   Y30        6.77265   0.00004   0.00000  -0.00062  -0.00020   6.77244
   Z30        1.71968  -0.00006   0.00000  -0.00200  -0.00132   1.71836
   X31        4.16741   0.00014   0.00000   0.00157   0.00152   4.16893
   Y31        6.26287  -0.00008   0.00000  -0.00198  -0.00137   6.26150
   Z31        6.25195   0.00001   0.00000  -0.00102  -0.00028   6.25167
   X32       -4.26093  -0.00009   0.00000  -0.00113  -0.00111  -4.26204
   Y32        1.53221  -0.00000   0.00000  -0.00023   0.00030   1.53251
   Z32        6.59011  -0.00012   0.00000  -0.00299  -0.00191   6.58820
   X33       -3.57121  -0.00006   0.00000  -0.00051  -0.00046  -3.57168
   Y33       -0.44798   0.00001   0.00000  -0.00005   0.00049  -0.44748
   Z33        6.66034  -0.00037   0.00000  -0.00435  -0.00318   6.65716
   X34       -4.16699   0.00006   0.00000   0.00061   0.00064  -4.16635
   Y34        2.43538   0.00020   0.00000   0.00101   0.00163   2.43701
   Z34        8.48233  -0.00025   0.00000  -0.00360  -0.00256   8.47977
   X35       -7.41979  -0.00015   0.00000  -0.00226  -0.00226  -7.42205
   Y35        1.57327  -0.00015   0.00000  -0.00216  -0.00172   1.57155
   Z35        5.47867   0.00018   0.00000   0.00038   0.00150   5.48017
   X36       -2.40763  -0.00024   0.00000  -0.00331  -0.00334  -2.41097
   Y36        3.27007   0.00003   0.00000   0.00016   0.00060   3.27067
   Z36        4.40912  -0.00013   0.00000  -0.00421  -0.00324   4.40588
   X37       -1.97466  -0.00010   0.00000  -0.00131  -0.00134  -1.97600
   Y37        8.60575   0.00010   0.00000   0.00068   0.00134   8.60708
   Z37        8.63940   0.00017   0.00000   0.00154   0.00224   8.64165
   X38       -0.70898  -0.00014   0.00000  -0.00188  -0.00193  -0.71092
   Y38       10.25790   0.00012   0.00000   0.00094   0.00162  10.25953
   Z38        8.86888   0.00025   0.00000   0.00324   0.00384   8.87272
   X39       -1.66233   0.00001   0.00000   0.00011   0.00006  -1.66228
   Y39        7.68709   0.00015   0.00000   0.00179   0.00236   7.68945
   Z39        6.77806   0.00017   0.00000   0.00134   0.00209   6.78014
   X40       -5.15696  -0.00012   0.00000  -0.00166  -0.00171  -5.15866
   Y40        9.55885   0.00007   0.00000  -0.00010   0.00053   9.55938
   Z40        8.91641   0.00006   0.00000  -0.00013   0.00057   8.91698
   X41       -1.36888  -0.00018   0.00000  -0.00253  -0.00250  -1.37138
   Y41        6.39388  -0.00003   0.00000  -0.00133  -0.00054   6.39333
   Z41       11.09333   0.00007   0.00000   0.00002   0.00083  11.09416
   X42        8.37956  -0.00006   0.00000  -0.00033  -0.00052   8.37904
   Y42        2.03897   0.00017   0.00000   0.00217   0.00210   2.04108
   Z42       -8.39491  -0.00003   0.00000  -0.00144  -0.00055  -8.39546
   X43        7.33437  -0.00008   0.00000  -0.00110  -0.00125   7.33312
   Y43        0.49995   0.00017   0.00000   0.00266   0.00263   0.50259
   Z43       -7.42115  -0.00005   0.00000  -0.00136  -0.00038  -7.42154
   X44       10.44968  -0.00008   0.00000  -0.00059  -0.00077  10.44891
   Y44        1.71891   0.00011   0.00000   0.00127   0.00124   1.72016
   Z44       -8.26456  -0.00004   0.00000  -0.00098  -0.00011  -8.26467
   X45        7.61984   0.00012   0.00000   0.00156   0.00136   7.62120
   Y45        4.99239   0.00022   0.00000   0.00299   0.00299   4.99538
   Z45       -6.99240  -0.00008   0.00000  -0.00217  -0.00142  -6.99382
   X46        7.43575   0.00006   0.00000   0.00102   0.00078   7.43653
   Y46        2.20314   0.00013   0.00000   0.00208   0.00185   2.20499
   Z46      -11.59490  -0.00005   0.00000  -0.00187  -0.00097 -11.59587
   X47      -10.25470  -0.00004   0.00000   0.00054   0.00043 -10.25427
   Y47        3.70830   0.00017   0.00000   0.00212   0.00222   3.71052
   Z47       -0.73133  -0.00000   0.00000  -0.00120  -0.00015  -0.73148
   X48      -11.94480   0.00002   0.00000   0.00065   0.00057 -11.94424
   Y48        2.61995   0.00024   0.00000   0.00380   0.00390   2.62385
   Z48       -0.14225   0.00033   0.00000   0.00287   0.00400  -0.13825
   X49       -8.76430   0.00025   0.00000   0.00340   0.00332  -8.76098
   Y49        3.63986   0.00010   0.00000   0.00135   0.00153   3.64140
   Z49        0.74550  -0.00036   0.00000  -0.00436  -0.00332   0.74218
   X50      -11.12547   0.00035   0.00000   0.00439   0.00424 -11.12123
   Y50        6.88814   0.00026   0.00000   0.00312   0.00318   6.89132
   Z50       -1.28980  -0.00005   0.00000  -0.00178  -0.00087  -1.29067
   X51       -9.08065  -0.00024   0.00000  -0.00369  -0.00381  -9.08446
   Y51        2.44190   0.00003   0.00000  -0.00006  -0.00009   2.44182
   Z51       -3.59424   0.00002   0.00000  -0.00187  -0.00076  -3.59500
   X52       -3.01056   0.00004   0.00000   0.00056   0.00038  -3.01018
   Y52        1.86139  -0.00005   0.00000  -0.00023  -0.00040   1.86099
   Z52       -7.73237   0.00008   0.00000   0.00021   0.00126  -7.73112
   X53       -3.63761   0.00008   0.00000   0.00122   0.00101  -3.63660
   Y53        2.45538   0.00005   0.00000   0.00059   0.00032   2.45570
   Z53       -9.64266   0.00010   0.00000   0.00032   0.00135  -9.64131
   X54       -4.05561  -0.00007   0.00000  -0.00059  -0.00076  -4.05637
   Y54        2.89520  -0.00008   0.00000  -0.00104  -0.00114   2.89406
   Z54       -6.23009   0.00002   0.00000  -0.00006   0.00096  -6.22913
   X55        0.27681   0.00001   0.00000   0.00030   0.00011   0.27693
   Y55        2.46257   0.00002   0.00000   0.00039   0.00028   2.46286
   Z55       -7.41114   0.00026   0.00000   0.00206   0.00304  -7.40810
   X56       -3.46907   0.00005   0.00000   0.00094   0.00081  -3.46827
   Y56       -1.42784  -0.00005   0.00000  -0.00044  -0.00060  -1.42843
   Z56       -7.36758   0.00006   0.00000  -0.00110   0.00012  -7.36746
   X57       -2.67325   0.00020   0.00000   0.00233   0.00217  -2.67108
   Y57       11.14065  -0.00001   0.00000  -0.00041  -0.00012  11.14053
   Z57        1.42963   0.00002   0.00000  -0.00054   0.00004   1.42967
   X58       -1.98657   0.00011   0.00000   0.00218   0.00199  -1.98458
   Y58       11.57135  -0.00012   0.00000  -0.00049  -0.00029  11.57107
   Z58       -0.50886  -0.00004   0.00000  -0.00057  -0.00001  -0.50888
   X59       -4.33532   0.00020   0.00000   0.00229   0.00212  -4.33319
   Y59       12.31962  -0.00005   0.00000  -0.00080  -0.00050  12.31911
   Z59        1.92505   0.00008   0.00000  -0.00002   0.00053   1.92558
   X60       -0.20075   0.00003   0.00000   0.00091   0.00077  -0.19998
   Y60       11.71038   0.00012   0.00000   0.00010   0.00053  11.71091
   Z60        3.61952   0.00018   0.00000   0.00105   0.00158   3.62110
   X61       -3.48628   0.00011   0.00000   0.00199   0.00186  -3.48442
   Y61        7.89861   0.00003   0.00000  -0.00045  -0.00015   7.89846
   Z61        1.67640  -0.00026   0.00000  -0.00361  -0.00285   1.67354
   X62        2.09553  -0.00003   0.00000  -0.00020  -0.00013   2.09540
   Y62        0.62999  -0.00003   0.00000  -0.00101  -0.00027   0.62972
   Z62        9.34661  -0.00010   0.00000  -0.00253  -0.00149   9.34513
   X63        1.38292   0.00007   0.00000   0.00055   0.00058   1.38351
   Y63        2.52210  -0.00005   0.00000  -0.00115  -0.00045   2.52165
   Z63        8.78045  -0.00026   0.00000  -0.00392  -0.00296   8.77749
   X64        3.69586  -0.00005   0.00000  -0.00072  -0.00063   3.69523
   Y64        0.80180   0.00004   0.00000  -0.00023   0.00060   0.80240
   Z64       10.68742  -0.00009   0.00000  -0.00196  -0.00095  10.68647
   X65        3.08166   0.00004   0.00000   0.00047   0.00052   3.08218
   Y65       -1.05569  -0.00012   0.00000  -0.00251  -0.00189  -1.05758
   Z65        6.63523   0.00000   0.00000  -0.00141  -0.00030   6.63493
   X66       -0.37801  -0.00006   0.00000  -0.00091  -0.00080  -0.37882
   Y66       -1.10507   0.00007   0.00000  -0.00001   0.00077  -1.10430
   Z66       10.78518  -0.00005   0.00000  -0.00244  -0.00128  10.78390
   X67        2.01567   0.00004   0.00000   0.00069   0.00061   2.01628
   Y67       -4.10053  -0.00010   0.00000  -0.00058  -0.00058  -4.10111
   Z67       -5.72343   0.00003   0.00000  -0.00100   0.00027  -5.72315
   X68        0.36102   0.00001   0.00000   0.00010   0.00003   0.36105
   Y68       -5.22423   0.00001   0.00000   0.00048   0.00042  -5.22381
   Z68       -6.34183  -0.00014   0.00000  -0.00164  -0.00029  -6.34212
   X69        1.41118   0.00030   0.00000   0.00261   0.00251   1.41369
   Y69       -2.19851  -0.00012   0.00000  -0.00110  -0.00108  -2.19959
   Z69       -5.06229   0.00024   0.00000   0.00182   0.00301  -5.05928
   X70        4.18049  -0.00022   0.00000  -0.00194  -0.00206   4.17843
   Y70       -3.79780   0.00020   0.00000   0.00234   0.00223  -3.79557
   Z70       -8.25046  -0.00014   0.00000  -0.00293  -0.00170  -8.25216
   X71        3.59308   0.00004   0.00000   0.00126   0.00123   3.59432
   Y71       -5.71457  -0.00001   0.00000  -0.00134  -0.00120  -5.71577
   Z71       -3.24483   0.00008   0.00000  -0.00191  -0.00057  -3.24540
   X72        3.53686  -0.00000   0.00000  -0.00002  -0.00031   3.53655
   Y72        7.41906   0.00002   0.00000   0.00045   0.00019   7.41924
   Z72      -11.23865  -0.00016   0.00000  -0.00250  -0.00181 -11.24046
   X73        5.37036   0.00004   0.00000   0.00030  -0.00000   5.37036
   Y73        7.21109   0.00001   0.00000   0.00050   0.00021   7.21131
   Z73      -12.23354  -0.00014   0.00000  -0.00215  -0.00148 -12.23502
   X74        3.35749  -0.00005   0.00000  -0.00023  -0.00049   3.35700
   Y74        5.96781   0.00006   0.00000   0.00077   0.00058   5.96839
   Z74       -9.73683  -0.00011   0.00000  -0.00219  -0.00143  -9.73826
   X75        3.34373  -0.00014   0.00000  -0.00125  -0.00156   3.34217
   Y75       10.48046  -0.00000   0.00000   0.00025   0.00006  10.48052
   Z75       -9.88163  -0.00008   0.00000  -0.00215  -0.00161  -9.88324
   X76        1.01430  -0.00007   0.00000  -0.00012  -0.00044   1.01386
   Y76        7.12405  -0.00007   0.00000  -0.00028  -0.00068   7.12337
   Z76      -13.40073  -0.00009   0.00000  -0.00237  -0.00164 -13.40237
   X77       -2.86972   0.00022   0.00000   0.00196   0.00171  -2.86801
   Y77        8.75303  -0.00014   0.00000  -0.00164  -0.00177   8.75126
   Z77       -6.95757  -0.00003   0.00000  -0.00079  -0.00008  -6.95765
   X78       -1.01224   0.00023   0.00000   0.00176   0.00151  -1.01073
   Y78        8.00342   0.00003   0.00000  -0.00157  -0.00170   8.00172
   Z78       -7.58142  -0.00027   0.00000  -0.00235  -0.00163  -7.58305
   X79       -2.90487   0.00042   0.00000   0.00437   0.00410  -2.90077
   Y79       10.84650  -0.00015   0.00000  -0.00160  -0.00173  10.84476
   Z79       -7.07753   0.00008   0.00000   0.00063   0.00123  -7.07630
   X80       -5.30721  -0.00020   0.00000  -0.00152  -0.00178  -5.30899
   Y80        7.48186  -0.00005   0.00000   0.00058   0.00034   7.48220
   Z80       -8.85853   0.00054   0.00000   0.00264   0.00344  -8.85509
   X81       -3.45440  -0.00059   0.00000  -0.00417  -0.00436  -3.45877
   Y81        7.80361  -0.00030   0.00000  -0.00342  -0.00339   7.80022
   Z81       -3.79166  -0.00021   0.00000  -0.00260  -0.00183  -3.79349
   X82        4.07016  -0.00008   0.00000  -0.00080  -0.00102   4.06913
   Y82       11.29218  -0.00007   0.00000  -0.00215  -0.00200  11.29018
   Z82       -3.06925  -0.00008   0.00000  -0.00116  -0.00067  -3.06991
   X83        5.23554  -0.00024   0.00000  -0.00160  -0.00185   5.23369
   Y83       11.21531  -0.00024   0.00000  -0.00280  -0.00273  11.21258
   Z83       -4.80997  -0.00020   0.00000  -0.00172  -0.00124  -4.81121
   X84        5.27733  -0.00034   0.00000  -0.00240  -0.00260   5.27474
   Y84       11.22484  -0.00037   0.00000  -0.00437  -0.00413  11.22071
   Z84       -1.35701   0.00010   0.00000  -0.00016   0.00031  -1.35670
   X85        2.23521   0.00029   0.00000   0.00283   0.00257   2.23778
   Y85       14.08359   0.00015   0.00000   0.00037   0.00050  14.08409
   Z85       -3.06534   0.00005   0.00000   0.00001   0.00039  -3.06496
   X86        1.92408   0.00018   0.00000   0.00049   0.00029   1.92437
   Y86        8.71617  -0.00031   0.00000  -0.00308  -0.00295   8.71322
   Z86       -3.04177  -0.00002   0.00000  -0.00159  -0.00094  -3.04272
   X87       -8.27180   0.00000   0.00000   0.00028   0.00003  -8.27177
   Y87       13.00703  -0.00009   0.00000  -0.00168  -0.00169  13.00535
   Z87       -3.18642  -0.00000   0.00000  -0.00072  -0.00015  -3.18657
   X88      -10.10913   0.00001   0.00000   0.00035   0.00009 -10.10904
   Y88       13.11640  -0.00014   0.00000  -0.00148  -0.00156  13.11485
   Z88       -4.18684  -0.00001   0.00000  -0.00077  -0.00018  -4.18701
   X89       -7.70964   0.00006   0.00000   0.00109   0.00087  -7.70877
   Y89       11.00646  -0.00009   0.00000  -0.00173  -0.00170  11.00475
   Z89       -2.88268  -0.00023   0.00000  -0.00333  -0.00267  -2.88535
   X90       -5.93418   0.00001   0.00000   0.00034   0.00005  -5.93413
   Y90       14.58736   0.00006   0.00000   0.00121   0.00115  14.58851
   Z90       -4.98284   0.00018   0.00000   0.00186   0.00233  -4.98051
   X91       -8.50851  -0.00012   0.00000  -0.00117  -0.00140  -8.50991
   Y91       14.57237  -0.00047   0.00000  -0.00627  -0.00613  14.56624
   Z91       -0.24319   0.00017   0.00000   0.00154   0.00204  -0.24115
         Item               Value     Threshold  Converged?
 Maximum Force            0.045742     0.000450     NO 
 RMS     Force            0.005936     0.000300     NO 
 Maximum Displacement     0.148013     0.001800     NO 
 RMS     Displacement     0.018158     0.001200     NO 
 Predicted change in Energy=-1.119883D-02
 GradGradGradGradGradGradGradGradGradGradGradGradGradGradGradGradGradGrad

 Unable to Open any file for archive entry.
 1\1\GINC-X10P1N23\Force\ONIOM(B3LYP TD-FC/6-31G(d):PM6)\Mixed\C23H38Cl
 30\MAYUMIAO\12-Jul-2024\0\\# scf=(xqc,maxcycle=64) force guess=read on
 iom(td/b3lyp/em=gd3bj/6-31g(d):pm6) nosymm\\Title Card\\0,1\C,0.552219
 31,-0.17570104,-0.17987622\C,-0.08636539,-1.29403591,0.41647855\C,-0.2
 7210556,0.87763967,-0.65438497\C,-1.45804861,-1.35816873,0.52536095\H,
 0.53588257,-2.10808796,0.78376887\C,1.97204676,-0.14519091,-0.30941878
 \C,-1.64957121,0.81398102,-0.51754733\H,0.18136545,1.74655551,-1.12545
 612\C,-2.25717141,-0.3045752,0.05574807\H,-1.91869106,-2.22823085,0.98
 463712\C,2.68638042,0.89598125,-1.0028716\H,2.52819672,-0.99082325,0.1
 0117579\H,-2.26319558,1.64377416,-0.86318708\H,-3.33947807,-0.36361579
 ,0.13276981\H,3.62597218,1.29433163,-0.62789463\H,2.33601213,1.2869186
 4,-1.95688239\C,4.97766529,0.55644991,1.9918813\H,5.26165364,1.1446143
 1,1.09397356\H,3.98088796,0.86324155,2.37187662\Cl,6.19010639,0.772416
 89,3.2523476\Cl,4.93576337,-1.17005087,1.57054908\C,5.72462835,-1.0663
 0137,-1.56151485\H,4.64776243,-1.11781701,-1.29255412\H,6.33778138,-1.
 66685404,-0.85851981\Cl,6.26895374,0.62084974,-1.51980945\Cl,5.9560943
 5,-1.65514755,-3.2116576\C,2.11035315,3.18321601,1.54485321\H,1.840536
 02,2.1431314,1.25638551\H,1.36112139,3.90521226,1.15357738\Cl,3.715925
 59,3.58393031,0.91001733\Cl,2.20529739,3.31416916,3.3083883\C,-2.25478
 444,0.81081162,3.48733414\H,-1.88980531,-0.23705961,3.52449885\H,-2.20
 507584,1.28874786,4.48865598\Cl,-3.92638438,0.83254031,2.89918514\Cl,-
 1.2740633,1.7304477,2.33320519\C,-1.04494443,4.55396488,4.57177616\H,-
 0.37517804,5.428248,4.69320845\H,-0.87966765,4.06783263,3.58679371\Cl,
 -2.72894379,5.05832635,4.71836267\Cl,-0.724378,3.38349471,5.87033872\C
 ,4.43427225,1.07897815,-4.44239287\H,3.88118325,0.26456325,-3.92710561
 \H,5.52973496,0.90961034,-4.37341794\Cl,4.03224678,2.64185759,-3.70022
 015\Cl,3.93482899,1.16584915,-6.13575439\C,-5.42655603,1.96234987,-0.3
 8700553\H,-6.32091828,1.38641586,-0.07527671\H,-4.63786698,1.92613345,
 0.39450312\Cl,-5.88734613,3.64504673,-0.68253535\Cl,-4.80527151,1.2921
 9957,-1.90198817\C,-1.59312073,0.98500254,-4.09179609\H,-1.92494144,1.
 29932983,-5.10267417\H,-2.14613718,1.53207484,-3.29682057\Cl,0.1464822
 5,1.3031377,-3.92180513\Cl,-1.83575534,-0.75557873,-3.89875731\C,-1.41
 462189,5.89537739,0.7565253\H,-1.05124595,6.12329595,-0.26927896\H,-2.
 29415071,6.51926067,1.0186934\Cl,-0.1062324,6.19686752,1.91536581\Cl,-
 1.84486243,4.17976596,0.88711043\C,1.10890818,0.33337658,4.94601542\H,
 0.73181007,1.33463705,4.64641599\H,1.95576605,0.42429229,5.65553868\Cl
 ,1.63074426,-0.55864859,3.51121132\Cl,-0.20003595,-0.58477989,5.707271
 72\C,1.06664533,-2.16990482,-3.02870735\H,0.19104381,-2.76454382,-3.35
 595131\H,0.74676227,-1.16340212,-2.67884925\Cl,2.21222059,-2.00971091,
 -4.36595331\Cl,1.90137634,-3.02401986,-1.7170883\C,1.87162798,3.925996
 77,-5.94723717\H,2.84187161,3.81594679,-6.47370923\H,1.77670687,3.1580
 2857,-5.15251068\Cl,1.76942568,5.54602013,-5.22913369\Cl,0.53674625,3.
 76988737,-7.09136327\C,-1.51859163,4.63190479,-3.68178571\H,-0.5356541
 5,4.23522761,-4.0119141\H,-1.53719054,5.73971936,-3.74526861\Cl,-2.808
 45604,3.95923128,-4.68773295\Cl,-1.82799214,4.12949353,-2.00646058\C,2
 .15383371,5.9755669,-1.62417451\H,2.77053028,5.93488477,-2.54532515\H,
 2.79264541,5.93992992,-0.71809972\Cl,1.18282213,7.4527135,-1.62210899\
 Cl,1.01817671,4.61239934,-1.60963797\C,-4.37724996,6.88302418,-1.68617
 989\H,-5.34952004,6.94090253,-2.2155797\H,-4.0797652,5.8243672,-1.5254
 4636\Cl,-3.1402348,7.71929805,-2.63680375\Cl,-4.5025096,7.71136425,-0.
 12868971\\Version=ES64L-G16RevC.01\HF=0.0860854\S2=0.8756\S2-1=0.\S2A=
 1.141362\RMSD=5.586e-09\RMSF=5.936e-03\Dipole=-0.0884872,0.0123565,0.1
 568067\PG=C01 [X(C23H38Cl30)]\\@
 The archive entry for this job was punched.


 HE THAT RISETH LATE MUST TROT ALL DAY.

                  -- BENJAMIN FRANKLIN
 Job cpu time:       0 days  0 hours 19 minutes 34.1 seconds.
 Elapsed time:       0 days  0 hours  0 minutes 46.7 seconds.
 File lengths (MBytes):  RWF=    173 Int=      0 D2E=      0 Chk=     37 Scr=      1
 Normal termination of Gaussian 16 at Fri Jul 12 22:48:29 2024.
