 Entering Gaussian System, Link 0=g16
 Input=JOBS/6_B.gjf
 Output=JOBS/6_B.log
 Initial command:
 /data/app/gaussian/C01-avx2//g16/l1.exe "/tmp/Gau-1763965.inp" -scrdir="/tmp/"
 Entering Link 1 = /data/app/gaussian/C01-avx2//g16/l1.exe PID=   1763966.
  
 Copyright (c) 1988-2019, Gaussian, Inc.  All Rights Reserved.
  
 This is part of the Gaussian(R) 16 program.  It is based on
 the Gaussian(R) 09 system (copyright 2009, Gaussian, Inc.),
 the Gaussian(R) 03 system (copyright 2003, Gaussian, Inc.),
 the Gaussian(R) 98 system (copyright 1998, Gaussian, Inc.),
 the Gaussian(R) 94 system (copyright 1995, Gaussian, Inc.),
 the Gaussian 92(TM) system (copyright 1992, Gaussian, Inc.),
 the Gaussian 90(TM) system (copyright 1990, Gaussian, Inc.),
 the Gaussian 88(TM) system (copyright 1988, Gaussian, Inc.),
 the Gaussian 86(TM) system (copyright 1986, Carnegie Mellon
 University), and the Gaussian 82(TM) system (copyright 1983,
 Carnegie Mellon University). Gaussian is a federally registered
 trademark of Gaussian, Inc.
  
 This software contains proprietary and confidential information,
 including trade secrets, belonging to Gaussian, Inc.
  
 This software is provided under written license and may be
 used, copied, transmitted, or stored only in accord with that
 written license.
  
 The following legend is applicable only to US Government
 contracts under FAR:
  
                    RESTRICTED RIGHTS LEGEND
  
 Use, reproduction and disclosure by the US Government is
 subject to restrictions as set forth in subparagraphs (a)
 and (c) of the Commercial Computer Software - Restricted
 Rights clause in FAR 52.227-19.
  
 Gaussian, Inc.
 340 Quinnipiac St., Bldg. 40, Wallingford CT 06492
  
  
 ---------------------------------------------------------------
 Warning -- This program may not be used in any manner that
 competes with the business of Gaussian, Inc. or will provide
 assistance to any competitor of Gaussian, Inc.  The licensee
 of this program is prohibited from giving any competitor of
 Gaussian, Inc. access to this program.  By using this program,
 the user acknowledges that Gaussian, Inc. is engaged in the
 business of creating and licensing software in the field of
 computational chemistry and represents and warrants to the
 licensee that it is not a competitor of Gaussian, Inc. and that
 it will not use this program in any manner prohibited above.
 ---------------------------------------------------------------
  

 Cite this work as:
 Gaussian 16, Revision C.01,
 M. J. Frisch, G. W. Trucks, H. B. Schlegel, G. E. Scuseria, 
 M. A. Robb, J. R. Cheeseman, G. Scalmani, V. Barone, 
 G. A. Petersson, H. Nakatsuji, X. Li, M. Caricato, A. V. Marenich, 
 J. Bloino, B. G. Janesko, R. Gomperts, B. Mennucci, H. P. Hratchian, 
 J. V. Ortiz, A. F. Izmaylov, J. L. Sonnenberg, D. Williams-Young, 
 F. Ding, F. Lipparini, F. Egidi, J. Goings, B. Peng, A. Petrone, 
 T. Henderson, D. Ranasinghe, V. G. Zakrzewski, J. Gao, N. Rega, 
 G. Zheng, W. Liang, M. Hada, M. Ehara, K. Toyota, R. Fukuda, 
 J. Hasegawa, M. Ishida, T. Nakajima, Y. Honda, O. Kitao, H. Nakai, 
 T. Vreven, K. Throssell, J. A. Montgomery, Jr., J. E. Peralta, 
 F. Ogliaro, M. J. Bearpark, J. J. Heyd, E. N. Brothers, K. N. Kudin, 
 V. N. Staroverov, T. A. Keith, R. Kobayashi, J. Normand, 
 K. Raghavachari, A. P. Rendell, J. C. Burant, S. S. Iyengar, 
 J. Tomasi, M. Cossi, J. M. Millam, M. Klene, C. Adamo, R. Cammi, 
 J. W. Ochterski, R. L. Martin, K. Morokuma, O. Farkas, 
 J. B. Foresman, and D. J. Fox, Gaussian, Inc., Wallingford CT, 2019.
 
 ******************************************
 Gaussian 16:  ES64L-G16RevC.01  3-Jul-2019
                12-Jul-2024 
 ******************************************
 %chk=b.chk
 %nprocshared=28
 Will use up to   28 processors via shared memory.
 %mem=48gb
 ----------------------------------------------------------------------
 # scf=(xqc,maxcycle=64) force guess=read oniom(b3lyp/em=gd3bj/6-31g(d)
 :pm6) nosymm
 ----------------------------------------------------------------------
 1/10=7,30=1,38=1,52=2/1,3;
 2/12=2,15=1,17=6,18=5,40=1/2;
 1/10=7,30=1,38=1,52=2,53=3172/20;
 3/5=2,25=1,41=3900000,71=1,116=-2/1,2,3;
 4/5=1,35=1/1;
 5/5=2,7=64,8=3,13=1,35=1,38=6/2,8;
 6/7=2,8=2,9=2,10=2,28=1/1;
 7/7=1,30=1,33=-1/1,2,3,16;
 1/10=7,30=1,52=2,53=2032/20;
 3/5=1,6=6,7=1,11=2,25=1,30=1,71=1,74=-5,116=-2,124=41/1,2,3;
 4/5=1/1;
 5/5=2,7=64,8=3,13=1,38=6/2,8;
 6/7=2,8=2,9=2,10=2,28=1/1;
 7/7=1,30=1,33=-1/1,2,3,16;
 1/10=7,30=1,52=2,53=1022/20;
 3/5=2,25=1,41=3900000,71=1,116=-2/1,2,3;
 4/5=1,35=1/1;
 5/5=2,7=64,8=3,13=1,35=1,38=6/2,8;
 6/7=2,8=2,9=2,10=2,28=1/1;
 7/7=1,30=1,33=-1/1,2,3,16;
 1/10=7,30=1,52=2,53=3015/20;
 7/9=1,29=1,44=-1,126=2/16;
 1/10=7,30=1,52=2/3;
 99//99;
 ONIOM: restoring gridpoint  3 on chk file.
 ----------
 Title Card
 ----------
 Symbolic Z-matrix:
 Charge =  0 Multiplicity = 1 for low   level calculation on real  system.
 Charge =  0 Multiplicity = 3 for high  level calculation on model system.
 Charge =  0 Multiplicity = 3 for low   level calculation on model system.
 c                     0.55222  -0.1757   -0.17988  h 
 c                    -0.08637  -1.29404   0.41648  h 
 c                    -0.27211   0.87764  -0.65438  h 
 c                    -1.45805  -1.35817   0.52536  h 
 h                     0.53588  -2.10809   0.78377  h 
 c                     1.97205  -0.14519  -0.30942  h 
 c                    -1.64957   0.81398  -0.51755  h 
 h                     0.18137   1.74656  -1.12546  h 
 c                    -2.25717  -0.30458   0.05575  h 
 h                    -1.91869  -2.22823   0.98464  h 
 c                     2.68638   0.89598  -1.00287  h 
 h                     2.5282   -0.99082   0.10118  h 
 h                    -2.2632    1.64377  -0.86319  h 
 h                    -3.33948  -0.36362   0.13277  h 
 h                     3.62597   1.29433  -0.62789  h 
 h                     2.33601   1.28692  -1.95688  h 
 c                     4.97767   0.55645   1.99188  l 
 h                     5.26165   1.14461   1.09397  l 
 h                     3.98089   0.86324   2.37188  l 
 cl                    6.19011   0.77242   3.25235  l 
 cl                    4.93576  -1.17005   1.57055  l 
 c                     5.72463  -1.0663   -1.56151  l 
 h                     4.64776  -1.11782  -1.29255  l 
 h                     6.33778  -1.66685  -0.85852  l 
 cl                    6.26895   0.62085  -1.51981  l 
 cl                    5.95609  -1.65515  -3.21166  l 
 c                     2.11035   3.18322   1.54485  l 
 h                     1.84054   2.14313   1.25639  l 
 h                     1.36112   3.90521   1.15358  l 
 cl                    3.71593   3.58393   0.91002  l 
 cl                    2.2053    3.31417   3.30839  l 
 c                    -2.25478   0.81081   3.48733  l 
 h                    -1.88981  -0.23706   3.5245   l 
 h                    -2.20508   1.28875   4.48866  l 
 cl                   -3.92638   0.83254   2.89919  l 
 cl                   -1.27406   1.73045   2.33321  l 
 c                    -1.04494   4.55396   4.57178  l 
 h                    -0.37518   5.42825   4.69321  l 
 h                    -0.87967   4.06783   3.58679  l 
 cl                   -2.72894   5.05833   4.71836  l 
 cl                   -0.72438   3.38349   5.87034  l 
 c                     4.43427   1.07898  -4.44239  l 
 h                     3.88118   0.26456  -3.92711  l 
 h                     5.52973   0.90961  -4.37342  l 
 cl                    4.03225   2.64186  -3.70022  l 
 cl                    3.93483   1.16585  -6.13575  l 
 c                    -5.42656   1.96235  -0.38701  l 
 h                    -6.32092   1.38642  -0.07528  l 
 h                    -4.63787   1.92613   0.3945   l 
 cl                   -5.88735   3.64505  -0.68254  l 
 cl                   -4.80527   1.2922   -1.90199  l 
 c                    -1.59312   0.985    -4.0918   l 
 h                    -1.92494   1.29933  -5.10267  l 
 h                    -2.14614   1.53207  -3.29682  l 
 cl                    0.14648   1.30314  -3.92181  l 
 cl                   -1.83576  -0.75558  -3.89876  l 
 c                    -1.41462   5.89538   0.75653  l 
 h                    -1.05125   6.1233   -0.26928  l 
 h                    -2.29415   6.51926   1.01869  l 
 cl                   -0.10623   6.19687   1.91537  l 
 cl                   -1.84486   4.17977   0.88711  l 
 c                     1.10891   0.33338   4.94602  l 
 h                     0.73181   1.33464   4.64642  l 
 h                     1.95577   0.42429   5.65554  l 
 cl                    1.63074  -0.55865   3.51121  l 
 cl                   -0.20004  -0.58478   5.70727  l 
 c                     1.06665  -2.1699   -3.02871  l 
 h                     0.19104  -2.76454  -3.35595  l 
 h                     0.74676  -1.1634   -2.67885  l 
 cl                    2.21222  -2.00971  -4.36595  l 
 cl                    1.90138  -3.02402  -1.71709  l 
 c                     1.87163   3.926    -5.94724  l 
 h                     2.84187   3.81595  -6.47371  l 
 h                     1.77671   3.15803  -5.15251  l 
 cl                    1.76943   5.54602  -5.22913  l 
 cl                    0.53675   3.76989  -7.09136  l 
 c                    -1.51859   4.6319   -3.68179  l 
 h                    -0.53565   4.23523  -4.01191  l 
 h                    -1.53719   5.73972  -3.74527  l 
 cl                   -2.80846   3.95923  -4.68773  l 
 cl                   -1.82799   4.12949  -2.00646  l 
 c                     2.15383   5.97557  -1.62417  l 
 h                     2.77053   5.93488  -2.54533  l 
 h                     2.79265   5.93993  -0.7181   l 
 cl                    1.18282   7.45271  -1.62211  l 
 cl                    1.01818   4.6124   -1.60964  l 
 c                    -4.37725   6.88302  -1.68618  l 
 h                    -5.34952   6.9409   -2.21558  l 
 h                    -4.07977   5.82437  -1.52545  l 
 cl                   -3.14023   7.7193   -2.6368   l 
 cl                   -4.50251   7.71136  -0.12869  l 
 

 GradGradGradGradGradGradGradGradGradGradGradGradGradGradGradGradGradGrad
 Berny optimization.
 Initialization pass.
 Trust Radius=3.00D-01 FncErr=1.00D-07 GrdErr=1.00D-07 EigMax=2.50D+02 EigMin=1.00D-04
 Number of steps in this run=      2 maximum allowed number of steps=      2.
 GradGradGradGradGradGradGradGradGradGradGradGradGradGradGradGradGradGrad

 Symmetry turned off by external request.
 Stoichiometry    C23H38Cl30
 Framework group  C1[X(C23H38Cl30)]
 Deg. of freedom   267
 Full point group                 C1      NOp   1
                          Input orientation:                          
 ---------------------------------------------------------------------
 Center     Atomic      Atomic             Coordinates (Angstroms)
 Number     Number       Type             X           Y           Z
 ---------------------------------------------------------------------
      1          6           0        0.552219   -0.175701   -0.179876
      2          6           0       -0.086365   -1.294036    0.416479
      3          6           0       -0.272106    0.877640   -0.654385
      4          6           0       -1.458049   -1.358169    0.525361
      5          1           0        0.535883   -2.108088    0.783769
      6          6           0        1.972047   -0.145191   -0.309419
      7          6           0       -1.649571    0.813981   -0.517547
      8          1           0        0.181365    1.746556   -1.125456
      9          6           0       -2.257171   -0.304575    0.055748
     10          1           0       -1.918691   -2.228231    0.984637
     11          6           0        2.686380    0.895981   -1.002872
     12          1           0        2.528197   -0.990823    0.101176
     13          1           0       -2.263196    1.643774   -0.863187
     14          1           0       -3.339478   -0.363616    0.132770
     15          1           0        3.625972    1.294332   -0.627895
     16          1           0        2.336012    1.286919   -1.956882
     17          6           0        4.977665    0.556450    1.991881
     18          1           0        5.261654    1.144614    1.093974
     19          1           0        3.980888    0.863242    2.371877
     20         17           0        6.190106    0.772417    3.252348
     21         17           0        4.935763   -1.170051    1.570549
     22          6           0        5.724628   -1.066301   -1.561515
     23          1           0        4.647762   -1.117817   -1.292554
     24          1           0        6.337781   -1.666854   -0.858520
     25         17           0        6.268954    0.620850   -1.519809
     26         17           0        5.956094   -1.655148   -3.211658
     27          6           0        2.110353    3.183216    1.544853
     28          1           0        1.840536    2.143131    1.256386
     29          1           0        1.361121    3.905212    1.153577
     30         17           0        3.715926    3.583930    0.910017
     31         17           0        2.205297    3.314169    3.308388
     32          6           0       -2.254784    0.810812    3.487334
     33          1           0       -1.889805   -0.237060    3.524499
     34          1           0       -2.205076    1.288748    4.488656
     35         17           0       -3.926384    0.832540    2.899185
     36         17           0       -1.274063    1.730448    2.333205
     37          6           0       -1.044944    4.553965    4.571776
     38          1           0       -0.375178    5.428248    4.693208
     39          1           0       -0.879668    4.067833    3.586794
     40         17           0       -2.728944    5.058326    4.718363
     41         17           0       -0.724378    3.383495    5.870339
     42          6           0        4.434272    1.078978   -4.442393
     43          1           0        3.881183    0.264563   -3.927106
     44          1           0        5.529735    0.909610   -4.373418
     45         17           0        4.032247    2.641858   -3.700220
     46         17           0        3.934829    1.165849   -6.135754
     47          6           0       -5.426556    1.962350   -0.387006
     48          1           0       -6.320918    1.386416   -0.075277
     49          1           0       -4.637867    1.926133    0.394503
     50         17           0       -5.887346    3.645047   -0.682535
     51         17           0       -4.805272    1.292200   -1.901988
     52          6           0       -1.593121    0.985003   -4.091796
     53          1           0       -1.924941    1.299330   -5.102674
     54          1           0       -2.146137    1.532075   -3.296821
     55         17           0        0.146482    1.303138   -3.921805
     56         17           0       -1.835755   -0.755579   -3.898757
     57          6           0       -1.414622    5.895377    0.756525
     58          1           0       -1.051246    6.123296   -0.269279
     59          1           0       -2.294151    6.519261    1.018693
     60         17           0       -0.106232    6.196868    1.915366
     61         17           0       -1.844862    4.179766    0.887110
     62          6           0        1.108908    0.333377    4.946015
     63          1           0        0.731810    1.334637    4.646416
     64          1           0        1.955766    0.424292    5.655539
     65         17           0        1.630744   -0.558649    3.511211
     66         17           0       -0.200036   -0.584780    5.707272
     67          6           0        1.066645   -2.169905   -3.028707
     68          1           0        0.191044   -2.764544   -3.355951
     69          1           0        0.746762   -1.163402   -2.678849
     70         17           0        2.212221   -2.009711   -4.365953
     71         17           0        1.901376   -3.024020   -1.717088
     72          6           0        1.871628    3.925997   -5.947237
     73          1           0        2.841872    3.815947   -6.473709
     74          1           0        1.776707    3.158029   -5.152511
     75         17           0        1.769426    5.546020   -5.229134
     76         17           0        0.536746    3.769887   -7.091363
     77          6           0       -1.518592    4.631905   -3.681786
     78          1           0       -0.535654    4.235228   -4.011914
     79          1           0       -1.537191    5.739719   -3.745269
     80         17           0       -2.808456    3.959231   -4.687733
     81         17           0       -1.827992    4.129494   -2.006461
     82          6           0        2.153834    5.975567   -1.624175
     83          1           0        2.770530    5.934885   -2.545325
     84          1           0        2.792645    5.939930   -0.718100
     85         17           0        1.182822    7.452713   -1.622109
     86         17           0        1.018177    4.612399   -1.609638
     87          6           0       -4.377250    6.883024   -1.686180
     88          1           0       -5.349520    6.940903   -2.215580
     89          1           0       -4.079765    5.824367   -1.525446
     90         17           0       -3.140235    7.719298   -2.636804
     91         17           0       -4.502510    7.711364   -0.128690
 ---------------------------------------------------------------------
 Rotational constants (GHZ):           0.0226113           0.0200528           0.0153397
 ONIOM: saving gridpoint 17
 ONIOM: restoring gridpoint  3 on chk file.
 ONIOM: generating point  3 -- low level on real system.
 Standard basis: VSTO-6G (5D, 7F)
   400 basis functions,  2580 primitive gaussians,   430 cartesian basis functions
   170 alpha electrons      170 beta electrons
       nuclear repulsion energy      5299.8878220288 Hartrees.
 Integral buffers will be    131072 words long.
 Regular integral format.
 Two-electron integral symmetry is turned off.
 Do NDO integrals.
 One-electron integrals computed using PRISM.
 NBasis=   400 RedAO= F EigKep=  0.00D+00  NBF=   400
 NBsUse=   400 1.00D-04 EigRej=  0.00D+00 NBFU=   400
 Initial guess from the checkpoint file:  "b.chk"
 B after Tr=    -0.000266   -0.000296   -0.000564
         Rot=    1.000000   -0.000018    0.000014   -0.000007 Ang=  -0.00 deg.
 Initial guess <Sx>= 0.0000 <Sy>= 0.0000 <Sz>= 0.0000 <S**2>=-0.0000 S=-0.0000
 Keep J ints in memory in canonical form, NReq=3161508.
 Overlap will be assumed to be unity.
 Requested convergence on RMS density matrix=1.00D-08 within  64 cycles.
 Requested convergence on MAX density matrix=1.00D-06.
 Requested convergence on             energy=1.00D-06.
 No special actions if energy rises.
 SCF Done:  E(UPM6) = -0.404045102841     A.U. after   12 cycles
            NFock= 11  Conv=0.75D-08     -V/T= 0.9994
 <Sx>= 0.0000 <Sy>= 0.0000 <Sz>= 0.0000 <S**2>=-0.0000 S=-0.0000
 <L.S>=  0.00000000000    
 Annihilation of the first spin contaminant:
 S**2 before annihilation    -0.0000,   after     0.0000
 QCSCF skips out because SCF is already converged.

 **********************************************************************

            Population analysis using the SCF Density.

 **********************************************************************

 Alpha  occ. eigenvalues --   -1.11186  -1.05606  -1.05306  -1.05253  -1.05168
 Alpha  occ. eigenvalues --   -1.05142  -1.05124  -1.04943  -1.04874  -1.04794
 Alpha  occ. eigenvalues --   -1.04750  -1.04687  -1.04478  -1.04461  -1.04335
 Alpha  occ. eigenvalues --   -1.04101  -1.01697  -0.98578  -0.98274  -0.98185
 Alpha  occ. eigenvalues --   -0.98132  -0.98095  -0.97956  -0.97932  -0.97824
 Alpha  occ. eigenvalues --   -0.97764  -0.97756  -0.97637  -0.97405  -0.97347
 Alpha  occ. eigenvalues --   -0.97241  -0.97211  -0.96990  -0.92235  -0.88756
 Alpha  occ. eigenvalues --   -0.88671  -0.88583  -0.88387  -0.88361  -0.88257
 Alpha  occ. eigenvalues --   -0.88204  -0.88114  -0.88095  -0.88009  -0.87888
 Alpha  occ. eigenvalues --   -0.87662  -0.87556  -0.87500  -0.87208  -0.82585
 Alpha  occ. eigenvalues --   -0.79171  -0.72875  -0.65408  -0.62700  -0.62367
 Alpha  occ. eigenvalues --   -0.62115  -0.61861  -0.61672  -0.61539  -0.61492
 Alpha  occ. eigenvalues --   -0.61311  -0.61259  -0.61148  -0.61055  -0.60906
 Alpha  occ. eigenvalues --   -0.60355  -0.60299  -0.60117  -0.60037  -0.59985
 Alpha  occ. eigenvalues --   -0.59759  -0.59603  -0.59520  -0.59444  -0.59350
 Alpha  occ. eigenvalues --   -0.59258  -0.59197  -0.59105  -0.58979  -0.58933
 Alpha  occ. eigenvalues --   -0.58736  -0.58593  -0.58533  -0.58487  -0.58323
 Alpha  occ. eigenvalues --   -0.58226  -0.58023  -0.57771  -0.57722  -0.57700
 Alpha  occ. eigenvalues --   -0.57653  -0.57581  -0.57511  -0.57499  -0.57389
 Alpha  occ. eigenvalues --   -0.57241  -0.57097  -0.57049  -0.56888  -0.56772
 Alpha  occ. eigenvalues --   -0.55180  -0.53386  -0.52185  -0.51022  -0.49650
 Alpha  occ. eigenvalues --   -0.46180  -0.45343  -0.45051  -0.44766  -0.44247
 Alpha  occ. eigenvalues --   -0.44220  -0.44081  -0.44004  -0.43929  -0.43825
 Alpha  occ. eigenvalues --   -0.43751  -0.43687  -0.43607  -0.43483  -0.43457
 Alpha  occ. eigenvalues --   -0.43416  -0.43402  -0.43381  -0.43317  -0.43281
 Alpha  occ. eigenvalues --   -0.43218  -0.43146  -0.43115  -0.43043  -0.42971
 Alpha  occ. eigenvalues --   -0.42885  -0.42867  -0.42789  -0.42754  -0.42626
 Alpha  occ. eigenvalues --   -0.42585  -0.42472  -0.42374  -0.42299  -0.42093
 Alpha  occ. eigenvalues --   -0.41992  -0.41894  -0.41873  -0.41776  -0.41775
 Alpha  occ. eigenvalues --   -0.41717  -0.41675  -0.41620  -0.41589  -0.41466
 Alpha  occ. eigenvalues --   -0.41337  -0.41283  -0.41271  -0.41225  -0.41214
 Alpha  occ. eigenvalues --   -0.41136  -0.41123  -0.41054  -0.41020  -0.40879
 Alpha  occ. eigenvalues --   -0.40864  -0.40753  -0.40601  -0.40574  -0.40504
 Alpha  occ. eigenvalues --   -0.40353  -0.40319  -0.39605  -0.36931  -0.32826
 Alpha virt. eigenvalues --   -0.03660  -0.01243  -0.00938  -0.00903  -0.00847
 Alpha virt. eigenvalues --   -0.00648  -0.00620  -0.00560  -0.00519  -0.00474
 Alpha virt. eigenvalues --   -0.00462  -0.00451  -0.00382  -0.00364  -0.00259
 Alpha virt. eigenvalues --   -0.00247  -0.00242  -0.00228  -0.00203  -0.00186
 Alpha virt. eigenvalues --   -0.00165  -0.00126  -0.00072  -0.00008   0.00058
 Alpha virt. eigenvalues --    0.00387   0.00396   0.00427   0.00459   0.00500
 Alpha virt. eigenvalues --    0.00615   0.00696   0.02644   0.08939   0.14216
 Alpha virt. eigenvalues --    0.14309   0.14475   0.14595   0.14698   0.14797
 Alpha virt. eigenvalues --    0.14866   0.14936   0.15000   0.15041   0.15086
 Alpha virt. eigenvalues --    0.15129   0.15161   0.15163   0.15274   0.15367
 Alpha virt. eigenvalues --    0.15436   0.15448   0.15521   0.15592   0.15621
 Alpha virt. eigenvalues --    0.15740   0.15773   0.15861   0.15930   0.15941
 Alpha virt. eigenvalues --    0.15981   0.15988   0.16096   0.16374   0.16397
 Alpha virt. eigenvalues --    0.16423   0.16725   0.17038   0.17249   0.17955
 Alpha virt. eigenvalues --    0.18587   0.19329   0.19857   0.20430   0.21142
 Alpha virt. eigenvalues --    0.21324   0.21615   0.21832   0.22177   0.22328
 Alpha virt. eigenvalues --    3.16334   3.16791   3.17338   3.17923   3.18120
 Alpha virt. eigenvalues --    3.18368   3.18633   3.18706   3.18955   3.19085
 Alpha virt. eigenvalues --    3.19101   3.19282   3.19317   3.19544   3.19630
 Alpha virt. eigenvalues --    3.19651   3.19694   3.19831   3.19906   3.19991
 Alpha virt. eigenvalues --    3.20023   3.20186   3.20270   3.20305   3.20440
 Alpha virt. eigenvalues --    3.20483   3.20546   3.20564   3.20625   3.20669
 Alpha virt. eigenvalues --    3.20719   3.20826   3.20882   3.20977   3.21007
 Alpha virt. eigenvalues --    3.21060   3.21123   3.21164   3.21202   3.21241
 Alpha virt. eigenvalues --    3.21423   3.21457   3.21571   3.21724   3.21852
 Alpha virt. eigenvalues --    3.21980   3.22065   3.22131   3.22183   3.22332
 Alpha virt. eigenvalues --    3.22437   3.22515   3.22525   3.22614   3.22740
 Alpha virt. eigenvalues --    3.22807   3.22956   3.23013   3.23155   3.23187
 Alpha virt. eigenvalues --    3.23200   3.23316   3.23380   3.23432   3.23488
 Alpha virt. eigenvalues --    3.23518   3.23586   3.23671   3.23753   3.23793
 Alpha virt. eigenvalues --    3.23851   3.23969   3.23985   3.24006   3.24104
 Alpha virt. eigenvalues --    3.24139   3.24147   3.24254   3.24297   3.24327
 Alpha virt. eigenvalues --    3.24389   3.24492   3.24497   3.24550   3.24652
 Alpha virt. eigenvalues --    3.24673   3.24735   3.24823   3.24865   3.24960
 Alpha virt. eigenvalues --    3.24974   3.25043   3.25075   3.25095   3.25122
 Alpha virt. eigenvalues --    3.25156   3.25311   3.25400   3.25471   3.25521
 Alpha virt. eigenvalues --    3.25561   3.25694   3.25752   3.25780   3.25867
 Alpha virt. eigenvalues --    3.25902   3.25927   3.26002   3.26126   3.26227
 Alpha virt. eigenvalues --    3.26318   3.26348   3.26428   3.26478   3.26788
 Alpha virt. eigenvalues --    3.26847   3.26907   3.27032   3.27044   3.27169
 Alpha virt. eigenvalues --    3.27265   3.27348   3.27399   3.27403   3.27484
 Alpha virt. eigenvalues --    3.27555   3.27650   3.27741   3.27764   3.27845
 Alpha virt. eigenvalues --    3.27885   3.27959   3.28160   3.28168   3.28224
 Alpha virt. eigenvalues --    3.28284   3.28398   3.28480   3.28570   3.28610
 Alpha virt. eigenvalues --    3.28656   3.28702   3.28741   3.28848   3.28956
 Alpha virt. eigenvalues --    3.29161   3.29286   3.29377   3.29720   3.29956
  Beta  occ. eigenvalues --   -1.11186  -1.05606  -1.05306  -1.05253  -1.05168
  Beta  occ. eigenvalues --   -1.05142  -1.05124  -1.04943  -1.04874  -1.04794
  Beta  occ. eigenvalues --   -1.04750  -1.04687  -1.04478  -1.04461  -1.04335
  Beta  occ. eigenvalues --   -1.04101  -1.01697  -0.98578  -0.98274  -0.98185
  Beta  occ. eigenvalues --   -0.98132  -0.98095  -0.97956  -0.97932  -0.97824
  Beta  occ. eigenvalues --   -0.97764  -0.97756  -0.97637  -0.97405  -0.97347
  Beta  occ. eigenvalues --   -0.97241  -0.97211  -0.96990  -0.92235  -0.88756
  Beta  occ. eigenvalues --   -0.88671  -0.88583  -0.88387  -0.88361  -0.88257
  Beta  occ. eigenvalues --   -0.88204  -0.88114  -0.88095  -0.88009  -0.87888
  Beta  occ. eigenvalues --   -0.87662  -0.87556  -0.87500  -0.87208  -0.82585
  Beta  occ. eigenvalues --   -0.79171  -0.72875  -0.65408  -0.62700  -0.62367
  Beta  occ. eigenvalues --   -0.62115  -0.61861  -0.61672  -0.61539  -0.61492
  Beta  occ. eigenvalues --   -0.61311  -0.61259  -0.61148  -0.61055  -0.60906
  Beta  occ. eigenvalues --   -0.60355  -0.60299  -0.60117  -0.60037  -0.59985
  Beta  occ. eigenvalues --   -0.59759  -0.59603  -0.59520  -0.59444  -0.59350
  Beta  occ. eigenvalues --   -0.59258  -0.59197  -0.59105  -0.58979  -0.58933
  Beta  occ. eigenvalues --   -0.58736  -0.58593  -0.58533  -0.58487  -0.58323
  Beta  occ. eigenvalues --   -0.58226  -0.58023  -0.57771  -0.57722  -0.57700
  Beta  occ. eigenvalues --   -0.57653  -0.57581  -0.57511  -0.57499  -0.57389
  Beta  occ. eigenvalues --   -0.57241  -0.57097  -0.57049  -0.56888  -0.56772
  Beta  occ. eigenvalues --   -0.55180  -0.53386  -0.52185  -0.51022  -0.49650
  Beta  occ. eigenvalues --   -0.46180  -0.45343  -0.45051  -0.44766  -0.44247
  Beta  occ. eigenvalues --   -0.44220  -0.44081  -0.44004  -0.43929  -0.43825
  Beta  occ. eigenvalues --   -0.43751  -0.43687  -0.43607  -0.43483  -0.43457
  Beta  occ. eigenvalues --   -0.43416  -0.43402  -0.43381  -0.43317  -0.43281
  Beta  occ. eigenvalues --   -0.43218  -0.43146  -0.43115  -0.43043  -0.42971
  Beta  occ. eigenvalues --   -0.42885  -0.42867  -0.42789  -0.42754  -0.42626
  Beta  occ. eigenvalues --   -0.42585  -0.42472  -0.42374  -0.42299  -0.42093
  Beta  occ. eigenvalues --   -0.41992  -0.41894  -0.41873  -0.41776  -0.41775
  Beta  occ. eigenvalues --   -0.41717  -0.41675  -0.41620  -0.41589  -0.41466
  Beta  occ. eigenvalues --   -0.41337  -0.41283  -0.41271  -0.41225  -0.41214
  Beta  occ. eigenvalues --   -0.41136  -0.41123  -0.41054  -0.41020  -0.40879
  Beta  occ. eigenvalues --   -0.40864  -0.40753  -0.40601  -0.40574  -0.40504
  Beta  occ. eigenvalues --   -0.40353  -0.40319  -0.39605  -0.36931  -0.32826
  Beta virt. eigenvalues --   -0.03660  -0.01243  -0.00938  -0.00903  -0.00847
  Beta virt. eigenvalues --   -0.00648  -0.00620  -0.00560  -0.00519  -0.00474
  Beta virt. eigenvalues --   -0.00462  -0.00451  -0.00382  -0.00364  -0.00259
  Beta virt. eigenvalues --   -0.00247  -0.00242  -0.00228  -0.00203  -0.00186
  Beta virt. eigenvalues --   -0.00165  -0.00126  -0.00072  -0.00008   0.00058
  Beta virt. eigenvalues --    0.00387   0.00396   0.00427   0.00459   0.00500
  Beta virt. eigenvalues --    0.00615   0.00696   0.02644   0.08939   0.14216
  Beta virt. eigenvalues --    0.14309   0.14475   0.14595   0.14698   0.14797
  Beta virt. eigenvalues --    0.14866   0.14936   0.15000   0.15041   0.15086
  Beta virt. eigenvalues --    0.15129   0.15161   0.15163   0.15274   0.15367
  Beta virt. eigenvalues --    0.15436   0.15448   0.15521   0.15592   0.15621
  Beta virt. eigenvalues --    0.15740   0.15773   0.15861   0.15930   0.15941
  Beta virt. eigenvalues --    0.15981   0.15988   0.16096   0.16374   0.16397
  Beta virt. eigenvalues --    0.16423   0.16725   0.17038   0.17249   0.17955
  Beta virt. eigenvalues --    0.18587   0.19329   0.19857   0.20430   0.21142
  Beta virt. eigenvalues --    0.21324   0.21615   0.21832   0.22177   0.22328
  Beta virt. eigenvalues --    3.16334   3.16791   3.17338   3.17923   3.18120
  Beta virt. eigenvalues --    3.18368   3.18633   3.18706   3.18955   3.19085
  Beta virt. eigenvalues --    3.19101   3.19282   3.19317   3.19544   3.19630
  Beta virt. eigenvalues --    3.19651   3.19694   3.19831   3.19906   3.19991
  Beta virt. eigenvalues --    3.20023   3.20186   3.20270   3.20305   3.20440
  Beta virt. eigenvalues --    3.20483   3.20546   3.20564   3.20625   3.20669
  Beta virt. eigenvalues --    3.20719   3.20826   3.20882   3.20977   3.21007
  Beta virt. eigenvalues --    3.21060   3.21123   3.21164   3.21202   3.21241
  Beta virt. eigenvalues --    3.21423   3.21457   3.21571   3.21724   3.21852
  Beta virt. eigenvalues --    3.21980   3.22065   3.22131   3.22183   3.22332
  Beta virt. eigenvalues --    3.22437   3.22515   3.22525   3.22614   3.22740
  Beta virt. eigenvalues --    3.22807   3.22956   3.23013   3.23155   3.23187
  Beta virt. eigenvalues --    3.23200   3.23316   3.23380   3.23432   3.23488
  Beta virt. eigenvalues --    3.23518   3.23586   3.23671   3.23753   3.23793
  Beta virt. eigenvalues --    3.23851   3.23969   3.23985   3.24006   3.24104
  Beta virt. eigenvalues --    3.24139   3.24147   3.24254   3.24297   3.24327
  Beta virt. eigenvalues --    3.24389   3.24492   3.24497   3.24550   3.24652
  Beta virt. eigenvalues --    3.24673   3.24735   3.24823   3.24865   3.24960
  Beta virt. eigenvalues --    3.24974   3.25043   3.25075   3.25095   3.25122
  Beta virt. eigenvalues --    3.25156   3.25311   3.25400   3.25471   3.25521
  Beta virt. eigenvalues --    3.25561   3.25694   3.25752   3.25780   3.25867
  Beta virt. eigenvalues --    3.25902   3.25927   3.26002   3.26126   3.26227
  Beta virt. eigenvalues --    3.26318   3.26348   3.26428   3.26478   3.26788
  Beta virt. eigenvalues --    3.26847   3.26907   3.27032   3.27044   3.27169
  Beta virt. eigenvalues --    3.27265   3.27348   3.27399   3.27403   3.27484
  Beta virt. eigenvalues --    3.27555   3.27650   3.27741   3.27764   3.27845
  Beta virt. eigenvalues --    3.27885   3.27959   3.28160   3.28168   3.28224
  Beta virt. eigenvalues --    3.28284   3.28398   3.28480   3.28570   3.28610
  Beta virt. eigenvalues --    3.28656   3.28702   3.28741   3.28848   3.28956
  Beta virt. eigenvalues --    3.29161   3.29286   3.29377   3.29720   3.29956
          Condensed to atoms (all electrons):
          Atomic-Atomic Spin Densities.
 Mulliken charges and spin densities:
               1          2
     1  C   -0.015127   0.000000
     2  C   -0.141861   0.000000
     3  C   -0.148863   0.000000
     4  C   -0.156990   0.000000
     5  H    0.153325   0.000000
     6  C   -0.128973   0.000000
     7  C   -0.152366   0.000000
     8  H    0.155128   0.000000
     9  C   -0.116781   0.000000
    10  H    0.149029   0.000000
    11  C   -0.366767   0.000000
    12  H    0.156577   0.000000
    13  H    0.151119   0.000000
    14  H    0.145514   0.000000
    15  H    0.156951   0.000000
    16  H    0.162631   0.000000
    17  C   -0.139409   0.000000
    18  H    0.187913   0.000000
    19  H    0.186298   0.000000
    20  Cl  -0.094722   0.000000
    21  Cl  -0.140546   0.000000
    22  C   -0.144779   0.000000
    23  H    0.192836   0.000000
    24  H    0.191699   0.000000
    25  Cl  -0.127647   0.000000
    26  Cl  -0.111294   0.000000
    27  C   -0.143267   0.000000
    28  H    0.198344   0.000000
    29  H    0.196882   0.000000
    30  Cl  -0.126305   0.000000
    31  Cl  -0.126593   0.000000
    32  C   -0.128006   0.000000
    33  H    0.192324   0.000000
    34  H    0.191933   0.000000
    35  Cl  -0.130945   0.000000
    36  Cl  -0.123531   0.000000
    37  C   -0.137234   0.000000
    38  H    0.184778   0.000000
    39  H    0.194492   0.000000
    40  Cl  -0.101141   0.000000
    41  Cl  -0.142593   0.000000
    42  C   -0.132947   0.000000
    43  H    0.194042   0.000000
    44  H    0.195147   0.000000
    45  Cl  -0.141330   0.000000
    46  Cl  -0.114836   0.000000
    47  C   -0.141877   0.000000
    48  H    0.182924   0.000000
    49  H    0.191685   0.000000
    50  Cl  -0.117435   0.000000
    51  Cl  -0.114965   0.000000
    52  C   -0.126507   0.000000
    53  H    0.190351   0.000000
    54  H    0.195676   0.000000
    55  Cl  -0.141965   0.000000
    56  Cl  -0.117337   0.000000
    57  C   -0.138669   0.000000
    58  H    0.199218   0.000000
    59  H    0.193665   0.000000
    60  Cl  -0.134851   0.000000
    61  Cl  -0.113035   0.000000
    62  C   -0.145243   0.000000
    63  H    0.191589   0.000000
    64  H    0.186309   0.000000
    65  Cl  -0.112442   0.000000
    66  Cl  -0.120922   0.000000
    67  C   -0.132770   0.000000
    68  H    0.183880   0.000000
    69  H    0.198667   0.000000
    70  Cl  -0.116978   0.000000
    71  Cl  -0.133607   0.000000
    72  C   -0.139086   0.000000
    73  H    0.191340   0.000000
    74  H    0.189806   0.000000
    75  Cl  -0.137036   0.000000
    76  Cl  -0.106343   0.000000
    77  C   -0.143299   0.000000
    78  H    0.193032   0.000000
    79  H    0.194025   0.000000
    80  Cl  -0.120923   0.000000
    81  Cl  -0.125745   0.000000
    82  C   -0.144665   0.000000
    83  H    0.188781   0.000000
    84  H    0.188156   0.000000
    85  Cl  -0.107537   0.000000
    86  Cl  -0.129280   0.000000
    87  C   -0.149077   0.000000
    88  H    0.186191   0.000000
    89  H    0.193231   0.000000
    90  Cl  -0.116949   0.000000
    91  Cl  -0.112092   0.000000
 Sum of Mulliken charges =  -0.00000   0.00000
 Mulliken charges and spin densities with hydrogens summed into heavy atoms:
               1          2
     1  C   -0.015127   0.000000
     2  C    0.011464   0.000000
     3  C    0.006265   0.000000
     4  C   -0.007961   0.000000
     6  C    0.027604   0.000000
     7  C   -0.001248   0.000000
     9  C    0.028734   0.000000
    11  C   -0.047185   0.000000
    17  C    0.234803   0.000000
    20  Cl  -0.094722   0.000000
    21  Cl  -0.140546   0.000000
    22  C    0.239756   0.000000
    25  Cl  -0.127647   0.000000
    26  Cl  -0.111294   0.000000
    27  C    0.251960   0.000000
    30  Cl  -0.126305   0.000000
    31  Cl  -0.126593   0.000000
    32  C    0.256251   0.000000
    35  Cl  -0.130945   0.000000
    36  Cl  -0.123531   0.000000
    37  C    0.242036   0.000000
    40  Cl  -0.101141   0.000000
    41  Cl  -0.142593   0.000000
    42  C    0.256242   0.000000
    45  Cl  -0.141330   0.000000
    46  Cl  -0.114836   0.000000
    47  C    0.232733   0.000000
    50  Cl  -0.117435   0.000000
    51  Cl  -0.114965   0.000000
    52  C    0.259519   0.000000
    55  Cl  -0.141965   0.000000
    56  Cl  -0.117337   0.000000
    57  C    0.254214   0.000000
    60  Cl  -0.134851   0.000000
    61  Cl  -0.113035   0.000000
    62  C    0.232654   0.000000
    65  Cl  -0.112442   0.000000
    66  Cl  -0.120922   0.000000
    67  C    0.249777   0.000000
    70  Cl  -0.116978   0.000000
    71  Cl  -0.133607   0.000000
    72  C    0.242060   0.000000
    75  Cl  -0.137036   0.000000
    76  Cl  -0.106343   0.000000
    77  C    0.243758   0.000000
    80  Cl  -0.120923   0.000000
    81  Cl  -0.125745   0.000000
    82  C    0.232272   0.000000
    85  Cl  -0.107537   0.000000
    86  Cl  -0.129280   0.000000
    87  C    0.230345   0.000000
    90  Cl  -0.116949   0.000000
    91  Cl  -0.112092   0.000000
 Charge=             -0.0000 electrons
 Dipole moment (field-independent basis, Debye):
    X=             -0.9079    Y=             -0.2149    Z=              0.4782  Tot=              1.0484
 N-N= 5.299887822029D+03 E-N=-9.744989650997D+03  KE=-6.384487915378D+02
 Calling FoFJK, ICntrl=      2127 FMM=F ISym2X=0 I1Cent= 0 IOpClX= 1 NMat=1 NMatS=1 NMatT=0.
 Cartesian Forces:  Max     0.066030131 RMS     0.008840363
 SvSCFP is copying densities from files   528 and   530 to   603.
 ONIOM: saving gridpoint  3
 ONIOM: restoring gridpoint 17
 ONIOM: restoring gridpoint  2 on chk file.
 ONIOM: generating point  2 -- high level on model system.
 Standard basis: 6-31G(d) (6D, 7F)
   136 basis functions,   256 primitive gaussians,   136 cartesian basis functions
    29 alpha electrons       27 beta electrons
       nuclear repulsion energy       319.0774739670 Hartrees.
 NAtoms=   91 NActive=   16 NUniq=   16 SFac= 1.00D+00 NAtFMM=   60 NAOKFM=F Big=F
 Integral buffers will be    131072 words long.
 Raffenetti 2 integral format.
 Two-electron integral symmetry is turned off.
 Nuclear repulsion after empirical dispersion term =      319.0498546065 Hartrees.
 One-electron integrals computed using PRISM.
 NBasis=   136 RedAO= T EigKep=  4.73D-04  NBF=   136
 NBsUse=   136 1.00D-06 EigRej= -1.00D+00 NBFU=   136
 Initial guess from the checkpoint file:  "b.chk"
 B after Tr=     0.001025   -0.000254    0.000101
         Rot=    1.000000   -0.000172   -0.000107    0.000150 Ang=  -0.03 deg.
 Initial guess <Sx>= 0.0000 <Sy>= 0.0000 <Sz>= 1.0000 <S**2>= 2.0293 S= 1.0097
 Requested convergence on RMS density matrix=1.00D-08 within  64 cycles.
 Requested convergence on MAX density matrix=1.00D-06.
 Requested convergence on             energy=1.00D-06.
 No special actions if energy rises.
 SCF Done:  E(UB3LYP) =  -309.579006318     A.U. after   10 cycles
            NFock= 10  Conv=0.83D-08     -V/T= 2.0097
 <Sx>= 0.0000 <Sy>= 0.0000 <Sz>= 1.0000 <S**2>= 2.0293 S= 1.0097
 <L.S>=  0.00000000000    
 Annihilation of the first spin contaminant:
 S**2 before annihilation     2.0293,   after     2.0004
 QCSCF skips out because SCF is already converged.

 **********************************************************************

            Population analysis using the SCF Density.

 **********************************************************************

 Alpha  occ. eigenvalues --  -10.19797 -10.19702 -10.19506 -10.18876 -10.18752
 Alpha  occ. eigenvalues --  -10.18700 -10.18605 -10.18559  -0.85661  -0.79030
 Alpha  occ. eigenvalues --   -0.74492  -0.72146  -0.63246  -0.60014  -0.56285
 Alpha  occ. eigenvalues --   -0.51001  -0.46937  -0.45213  -0.43616  -0.41808
 Alpha  occ. eigenvalues --   -0.40781  -0.39651  -0.37067  -0.34978  -0.33485
 Alpha  occ. eigenvalues --   -0.29809  -0.25549  -0.23532  -0.13979
 Alpha virt. eigenvalues --    0.00224   0.02730   0.09782   0.11785   0.12709
 Alpha virt. eigenvalues --    0.15907   0.16064   0.16836   0.18169   0.19719
 Alpha virt. eigenvalues --    0.21112   0.26270   0.27866   0.30811   0.33542
 Alpha virt. eigenvalues --    0.36003   0.37326   0.46007   0.51372   0.52438
 Alpha virt. eigenvalues --    0.53686   0.54792   0.55325   0.57145   0.58060
 Alpha virt. eigenvalues --    0.58586   0.59649   0.60142   0.61997   0.62052
 Alpha virt. eigenvalues --    0.63287   0.64398   0.65093   0.68183   0.71584
 Alpha virt. eigenvalues --    0.77162   0.82443   0.83662   0.83927   0.84580
 Alpha virt. eigenvalues --    0.85515   0.88637   0.90603   0.92215   0.93248
 Alpha virt. eigenvalues --    0.93544   0.95486   0.98844   1.01504   1.04099
 Alpha virt. eigenvalues --    1.08524   1.14362   1.16591   1.18168   1.25817
 Alpha virt. eigenvalues --    1.28760   1.32920   1.38761   1.44024   1.44523
 Alpha virt. eigenvalues --    1.45603   1.48291   1.49266   1.51310   1.61864
 Alpha virt. eigenvalues --    1.70066   1.76764   1.80085   1.84526   1.87445
 Alpha virt. eigenvalues --    1.89372   1.91356   1.93930   1.96836   1.98056
 Alpha virt. eigenvalues --    2.04699   2.08819   2.10424   2.14294   2.14861
 Alpha virt. eigenvalues --    2.17779   2.21907   2.26293   2.31961   2.32323
 Alpha virt. eigenvalues --    2.34722   2.46940   2.50317   2.56538   2.59570
 Alpha virt. eigenvalues --    2.61860   2.65746   2.73910   2.75589   2.76918
 Alpha virt. eigenvalues --    2.85990   2.91669   3.13717   3.41687   4.06509
 Alpha virt. eigenvalues --    4.09408   4.12342   4.13150   4.24195   4.32886
 Alpha virt. eigenvalues --    4.42184   4.71059
  Beta  occ. eigenvalues --  -10.19593 -10.18943 -10.18795 -10.18726 -10.18448
  Beta  occ. eigenvalues --  -10.18424 -10.18394 -10.18322  -0.85057  -0.77217
  Beta  occ. eigenvalues --   -0.74120  -0.69806  -0.61530  -0.59629  -0.55105
  Beta  occ. eigenvalues --   -0.50409  -0.46280  -0.44744  -0.42811  -0.41665
  Beta  occ. eigenvalues --   -0.39715  -0.38409  -0.35795  -0.34525  -0.33250
  Beta  occ. eigenvalues --   -0.26155  -0.24528
  Beta virt. eigenvalues --   -0.11489  -0.02255   0.01144   0.06098   0.10043
  Beta virt. eigenvalues --    0.12501   0.13769   0.16380   0.16513   0.18070
  Beta virt. eigenvalues --    0.18726   0.20323   0.21981   0.27175   0.28801
  Beta virt. eigenvalues --    0.30888   0.33916   0.36818   0.37956   0.46437
  Beta virt. eigenvalues --    0.52751   0.53113   0.54724   0.55323   0.57675
  Beta virt. eigenvalues --    0.58241   0.59393   0.59660   0.60103   0.61967
  Beta virt. eigenvalues --    0.62486   0.63797   0.64098   0.65815   0.67025
  Beta virt. eigenvalues --    0.69847   0.72925   0.77643   0.83046   0.83978
  Beta virt. eigenvalues --    0.84225   0.85457   0.85755   0.89386   0.91011
  Beta virt. eigenvalues --    0.93148   0.93992   0.94769   0.96051   0.99864
  Beta virt. eigenvalues --    1.01880   1.05400   1.09161   1.15016   1.16996
  Beta virt. eigenvalues --    1.18650   1.26459   1.29860   1.34343   1.40067
  Beta virt. eigenvalues --    1.44583   1.45313   1.45961   1.49049   1.50284
  Beta virt. eigenvalues --    1.51754   1.66332   1.73566   1.78513   1.80518
  Beta virt. eigenvalues --    1.86677   1.89230   1.90849   1.92599   1.95933
  Beta virt. eigenvalues --    1.97604   1.99454   2.05498   2.12019   2.13049
  Beta virt. eigenvalues --    2.15132   2.15422   2.18488   2.23184   2.27452
  Beta virt. eigenvalues --    2.32770   2.34160   2.36820   2.48792   2.51948
  Beta virt. eigenvalues --    2.57708   2.60020   2.63339   2.66545   2.74372
  Beta virt. eigenvalues --    2.75813   2.77280   2.86386   2.92303   3.14120
  Beta virt. eigenvalues --    3.41896   4.08100   4.10147   4.12601   4.14727
  Beta virt. eigenvalues --    4.26271   4.33154   4.43101   4.71542
          Condensed to atoms (all electrons):
          Atomic-Atomic Spin Densities.
 Mulliken charges and spin densities:
               1          2
     1  C    0.192373  -0.102820
     2  C   -0.182140   0.238044
     3  C   -0.185527   0.280096
     4  C   -0.129685  -0.128534
     5  H    0.125587  -0.010613
     6  C   -0.176998   0.615747
     7  C   -0.126422  -0.145378
     8  H    0.125995  -0.010851
     9  C   -0.134085   0.321379
    10  H    0.128750   0.004822
    11  C   -0.342101   1.021074
    12  H    0.136213  -0.008644
    13  H    0.128739   0.005507
    14  H    0.128800  -0.015542
    15  H    0.154027  -0.035605
    16  H    0.156474  -0.028682
    17  C    0.000000   0.000000
    18  H    0.000000   0.000000
    19  H    0.000000   0.000000
    20  Cl   0.000000   0.000000
    21  Cl   0.000000   0.000000
    22  C    0.000000   0.000000
    23  H    0.000000   0.000000
    24  H    0.000000   0.000000
    25  Cl   0.000000   0.000000
    26  Cl   0.000000   0.000000
    27  C    0.000000   0.000000
    28  H    0.000000   0.000000
    29  H    0.000000   0.000000
    30  Cl   0.000000   0.000000
    31  Cl   0.000000   0.000000
    32  C    0.000000   0.000000
    33  H    0.000000   0.000000
    34  H    0.000000   0.000000
    35  Cl   0.000000   0.000000
    36  Cl   0.000000   0.000000
    37  C    0.000000   0.000000
    38  H    0.000000   0.000000
    39  H    0.000000   0.000000
    40  Cl   0.000000   0.000000
    41  Cl   0.000000   0.000000
    42  C    0.000000   0.000000
    43  H    0.000000   0.000000
    44  H    0.000000   0.000000
    45  Cl   0.000000   0.000000
    46  Cl   0.000000   0.000000
    47  C    0.000000   0.000000
    48  H    0.000000   0.000000
    49  H    0.000000   0.000000
    50  Cl   0.000000   0.000000
    51  Cl   0.000000   0.000000
    52  C    0.000000   0.000000
    53  H    0.000000   0.000000
    54  H    0.000000   0.000000
    55  Cl   0.000000   0.000000
    56  Cl   0.000000   0.000000
    57  C    0.000000   0.000000
    58  H    0.000000   0.000000
    59  H    0.000000   0.000000
    60  Cl   0.000000   0.000000
    61  Cl   0.000000   0.000000
    62  C    0.000000   0.000000
    63  H    0.000000   0.000000
    64  H    0.000000   0.000000
    65  Cl   0.000000   0.000000
    66  Cl   0.000000   0.000000
    67  C    0.000000   0.000000
    68  H    0.000000   0.000000
    69  H    0.000000   0.000000
    70  Cl   0.000000   0.000000
    71  Cl   0.000000   0.000000
    72  C    0.000000   0.000000
    73  H    0.000000   0.000000
    74  H    0.000000   0.000000
    75  Cl   0.000000   0.000000
    76  Cl   0.000000   0.000000
    77  C    0.000000   0.000000
    78  H    0.000000   0.000000
    79  H    0.000000   0.000000
    80  Cl   0.000000   0.000000
    81  Cl   0.000000   0.000000
    82  C    0.000000   0.000000
    83  H    0.000000   0.000000
    84  H    0.000000   0.000000
    85  Cl   0.000000   0.000000
    86  Cl   0.000000   0.000000
    87  C    0.000000   0.000000
    88  H    0.000000   0.000000
    89  H    0.000000   0.000000
    90  Cl   0.000000   0.000000
    91  Cl   0.000000   0.000000
 Sum of Mulliken charges =  -0.00000   2.00000
 Mulliken charges and spin densities with hydrogens summed into heavy atoms:
               1          2
     1  C    0.192373  -0.102820
     2  C   -0.056553   0.227431
     3  C   -0.059531   0.269245
     4  C   -0.000935  -0.123711
     6  C   -0.040784   0.607103
     7  C    0.002316  -0.139871
     9  C   -0.005285   0.305837
    11  C   -0.031600   0.956787
    17  C    0.000000   0.000000
    20  Cl   0.000000   0.000000
    21  Cl   0.000000   0.000000
    22  C    0.000000   0.000000
    25  Cl   0.000000   0.000000
    26  Cl   0.000000   0.000000
    27  C    0.000000   0.000000
    30  Cl   0.000000   0.000000
    31  Cl   0.000000   0.000000
    32  C    0.000000   0.000000
    35  Cl   0.000000   0.000000
    36  Cl   0.000000   0.000000
    37  C    0.000000   0.000000
    40  Cl   0.000000   0.000000
    41  Cl   0.000000   0.000000
    42  C    0.000000   0.000000
    45  Cl   0.000000   0.000000
    46  Cl   0.000000   0.000000
    47  C    0.000000   0.000000
    50  Cl   0.000000   0.000000
    51  Cl   0.000000   0.000000
    52  C    0.000000   0.000000
    55  Cl   0.000000   0.000000
    56  Cl   0.000000   0.000000
    57  C    0.000000   0.000000
    60  Cl   0.000000   0.000000
    61  Cl   0.000000   0.000000
    62  C    0.000000   0.000000
    65  Cl   0.000000   0.000000
    66  Cl   0.000000   0.000000
    67  C    0.000000   0.000000
    70  Cl   0.000000   0.000000
    71  Cl   0.000000   0.000000
    72  C    0.000000   0.000000
    75  Cl   0.000000   0.000000
    76  Cl   0.000000   0.000000
    77  C    0.000000   0.000000
    80  Cl   0.000000   0.000000
    81  Cl   0.000000   0.000000
    82  C    0.000000   0.000000
    85  Cl   0.000000   0.000000
    86  Cl   0.000000   0.000000
    87  C    0.000000   0.000000
    90  Cl   0.000000   0.000000
    91  Cl   0.000000   0.000000
 Electronic spatial extent (au):  <R**2>=            995.3592
 Charge=             -0.0000 electrons
 Dipole moment (field-independent basis, Debye):
    X=              0.0751    Y=             -0.0274    Z=             -0.0450  Tot=              0.0917
 Quadrupole moment (field-independent basis, Debye-Ang):
   XX=            -42.2883   YY=            -44.8057   ZZ=            -48.8754
   XY=              0.0451   XZ=             -0.0981   YZ=             -3.4680
 Traceless Quadrupole moment (field-independent basis, Debye-Ang):
   XX=              3.0348   YY=              0.5175   ZZ=             -3.5523
   XY=              0.0451   XZ=             -0.0981   YZ=             -3.4680
 Octapole moment (field-independent basis, Debye-Ang**2):
  XXX=             -0.8443  YYY=              7.0684  ZZZ=             31.0747  XYY=             -0.1823
  XXY=              4.3833  XXZ=             12.7146  XZZ=              2.1667  YZZ=              5.4469
  YYZ=             11.4221  XYZ=              0.6211
 Hexadecapole moment (field-independent basis, Debye-Ang**3):
 XXXX=           -843.2766 YYYY=           -307.6392 ZZZZ=           -157.7183 XXXY=            -52.7130
 XXXZ=             72.4490 YYYX=            -65.8732 YYYZ=             58.4832 ZZZX=             66.1307
 ZZZY=             68.5178 XXYY=           -192.2499 XXZZ=           -186.6593 YYZZ=            -74.0115
 XXYZ=             12.3441 YYXZ=             20.1760 ZZXY=            -18.4253
 N-N= 3.190498546065D+02 E-N=-1.354492472752D+03  KE= 3.066169134798D+02
                          Isotropic Fermi Contact Couplings
        Atom                 a.u.       MegaHertz       Gauss      10(-4) cm-1
     1  C(13)             -0.00495      -2.78178      -0.99261      -0.92790
     2  C(13)              0.02478      13.92745       4.96966       4.64570
     3  C(13)              0.03112      17.49038       6.24100       5.83416
     4  C(13)             -0.01958     -11.00658      -3.92742      -3.67140
     5  H(1)              -0.00370      -8.26167      -2.94797      -2.75580
     6  C(13)              0.04603      25.87066       9.23129       8.62952
     7  C(13)             -0.02173     -12.21475      -4.35853      -4.07440
     8  H(1)              -0.00409      -9.13376      -3.25915      -3.04670
     9  C(13)              0.03504      19.69421       7.02738       6.56928
    10  H(1)               0.00152       3.39604       1.21179       1.13280
    11  C(13)              0.08683      48.80456      17.41468      16.27945
    12  H(1)               0.00277       6.19416       2.21023       2.06615
    13  H(1)               0.00174       3.89697       1.39054       1.29989
    14  H(1)              -0.00482     -10.76284      -3.84045      -3.59010
    15  H(1)              -0.00757     -16.91589      -6.03601      -5.64254
    16  H(1)              -0.00608     -13.57829      -4.84507      -4.52923
 --------------------------------------------------------
       Center         ----  Spin Dipole Couplings  ----
                      3XX-RR        3YY-RR        3ZZ-RR
 --------------------------------------------------------
     1   Atom        0.072870     -0.005504     -0.067366
     2   Atom       -0.118335     -0.047820      0.166155
     3   Atom       -0.123846     -0.050777      0.174624
     4   Atom        0.055706      0.015296     -0.071002
     5   Atom       -0.005292      0.008699     -0.003406
     6   Atom       -0.346057     -0.111722      0.457779
     7   Atom        0.063580      0.021068     -0.084648
     8   Atom        0.004132      0.004156     -0.008288
     9   Atom       -0.148582     -0.077400      0.225982
    10   Atom        0.005229     -0.000986     -0.004242
    11   Atom       -0.086131      0.268397     -0.182266
    12   Atom       -0.026382      0.032522     -0.006141
    13   Atom        0.006437     -0.001988     -0.004450
    14   Atom        0.024372     -0.018453     -0.005919
    15   Atom        0.056844     -0.015436     -0.041408
    16   Atom       -0.040643     -0.019897      0.060540
 --------------------------------------------------------
                        XY            XZ            YZ
 --------------------------------------------------------
     1   Atom        0.037129      0.042054     -0.027287
     2   Atom        0.010332      0.008089      0.138322
     3   Atom        0.018290      0.027215      0.158800
     4   Atom       -0.006631     -0.009007     -0.058179
     5   Atom       -0.006905      0.003495     -0.008505
     6   Atom        0.073131      0.105657      0.437100
     7   Atom        0.001084     -0.012366     -0.063382
     8   Atom        0.004040     -0.001513     -0.010324
     9   Atom        0.009228      0.014586      0.185366
    10   Atom       -0.001308     -0.000085     -0.001723
    11   Atom       -0.591298     -0.401627      0.526484
    12   Atom       -0.033709      0.018937     -0.020591
    13   Atom        0.002575     -0.001976     -0.002064
    14   Atom        0.003264     -0.002743      0.007419
    15   Atom        0.031767      0.026302      0.039651
    16   Atom       -0.036898      0.020674     -0.030186
 --------------------------------------------------------


 ---------------------------------------------------------------------------------
              Anisotropic Spin Dipole Couplings in Principal Axis System
 ---------------------------------------------------------------------------------

       Atom             a.u.   MegaHertz   Gauss  10(-4) cm-1        Axes

              Baa    -0.0945   -12.684    -4.526    -4.231 -0.3051  0.3931  0.8674
     1 C(13)  Bbb     0.0011     0.150     0.053     0.050 -0.1817  0.8701 -0.4582
              Bcc     0.0934    12.535     4.473     4.181  0.9348  0.2974  0.1941
 
              Baa    -0.1231   -16.522    -5.895    -5.511  0.7922 -0.5589  0.2451
     2 C(13)  Bbb    -0.1113   -14.937    -5.330    -4.982  0.6094  0.7024 -0.3679
              Bcc     0.2344    31.459    11.225    10.493  0.0335  0.4408  0.8970
 
              Baa    -0.1346   -18.058    -6.444    -6.023 -0.4246  0.8200 -0.3838
     3 C(13)  Bbb    -0.1249   -16.754    -5.978    -5.588  0.9014  0.3433 -0.2639
              Bcc     0.2594    34.812    12.422    11.612  0.0847  0.4580  0.8849
 
              Baa    -0.1011   -13.562    -4.839    -4.524  0.0702  0.4493  0.8906
     4 C(13)  Bbb     0.0443     5.944     2.121     1.983  0.1511  0.8777 -0.4547
              Bcc     0.0568     7.618     2.718     2.541  0.9860 -0.1665  0.0063
 
              Baa    -0.0081    -4.336    -1.547    -1.446  0.9268  0.3755 -0.0096
     5 H(1)   Bbb    -0.0078    -4.153    -1.482    -1.385 -0.1534  0.4016  0.9029
              Bcc     0.0159     8.489     3.029     2.832 -0.3429  0.8353 -0.4298
 
              Baa    -0.3703   -49.696   -17.733   -16.577  0.8370 -0.5207  0.1681
     6 C(13)  Bbb    -0.3398   -45.599   -16.271   -15.210  0.5339  0.7097 -0.4597
              Bcc     0.7101    95.295    34.004    31.787  0.1201  0.4745  0.8720
 
              Baa    -0.1150   -15.428    -5.505    -5.146  0.0601  0.4212  0.9050
     7 C(13)  Bbb     0.0483     6.483     2.313     2.163 -0.3630  0.8538 -0.3732
              Bcc     0.0667     8.944     3.191     2.983  0.9299  0.3061 -0.2042
 
              Baa    -0.0141    -7.547    -2.693    -2.518 -0.0382  0.4973  0.8667
     8 H(1)   Bbb     0.0019     1.020     0.364     0.340  0.8838 -0.3879  0.2615
              Bcc     0.0122     6.528     2.329     2.177  0.4663  0.7760 -0.4247
 
              Baa    -0.1655   -22.208    -7.925    -7.408 -0.1273  0.8983 -0.4206
     9 C(13)  Bbb    -0.1489   -19.987    -7.132    -6.667  0.9912  0.0994 -0.0877
              Bcc     0.3144    42.196    15.056    14.075  0.0370  0.4280  0.9030
 
              Baa    -0.0050    -2.678    -0.956    -0.893  0.0597  0.4083  0.9109
    10 H(1)   Bbb    -0.0005    -0.256    -0.091    -0.085  0.1978  0.8896 -0.4117
              Bcc     0.0055     2.935     1.047     0.979  0.9784 -0.2047  0.0277
 
              Baa    -0.5387   -72.294   -25.796   -24.115  0.6335 -0.0400  0.7727
    11 C(13)  Bbb    -0.5223   -70.090   -25.010   -23.380  0.5649  0.7064 -0.4265
              Bcc     1.0611   142.385    50.806    47.494 -0.5288  0.7067  0.4701
 
              Baa    -0.0442   -23.582    -8.415    -7.866  0.9052  0.3239 -0.2752
    12 H(1)   Bbb    -0.0146    -7.809    -2.786    -2.605  0.1038  0.4594  0.8821
              Bcc     0.0588    31.391    11.201    10.471 -0.4121  0.8271 -0.3822
 
              Baa    -0.0056    -3.010    -1.074    -1.004  0.0449  0.4672  0.8830
    13 H(1)   Bbb    -0.0020    -1.082    -0.386    -0.361 -0.3526  0.8344 -0.4235
              Bcc     0.0077     4.092     1.460     1.365  0.9347  0.2924 -0.2022
 
              Baa    -0.0223   -11.878    -4.238    -3.962 -0.0880  0.9014 -0.4240
    14 H(1)   Bbb    -0.0025    -1.344    -0.480    -0.448  0.0400  0.4285  0.9026
              Bcc     0.0248    13.222     4.718     4.410  0.9953  0.0625 -0.0738
 
              Baa    -0.0702   -37.461   -13.367   -12.496 -0.0249 -0.5767  0.8166
    15 H(1)   Bbb    -0.0115    -6.112    -2.181    -2.039 -0.5153  0.7073  0.4839
              Bcc     0.0817    43.574    15.548    14.535  0.8566  0.4088  0.3148
 
              Baa    -0.0686   -36.616   -13.065   -12.214  0.7924  0.6098  0.0157
    16 H(1)   Bbb    -0.0107    -5.698    -2.033    -1.901 -0.5483  0.7009  0.4562
              Bcc     0.0793    42.314    15.099    14.114  0.2672 -0.3701  0.8897
 

 ---------------------------------------------------------------------------------

 Calling FoFJK, ICntrl=      2127 FMM=F ISym2X=0 I1Cent= 0 IOpClX= 1 NMat=1 NMatS=1 NMatT=0.
 Cartesian Forces:  Max     0.031198326 RMS     0.003467409
 SvSCFP is copying densities from files   528 and   530 to   603.
 ONIOM: saving gridpoint  2
 ONIOM: restoring gridpoint 17
 ONIOM: restoring gridpoint  1 on chk file.
 ONIOM: generating point  1 -- low level on model system.
 Standard basis: VSTO-6G (5D, 7F)
    40 basis functions,   240 primitive gaussians,    40 cartesian basis functions
    21 alpha electrons       19 beta electrons
       nuclear repulsion energy       184.5201798553 Hartrees.
 Integral buffers will be    131072 words long.
 Regular integral format.
 Two-electron integral symmetry is turned off.
 Do NDO integrals.
 One-electron integrals computed using PRISM.
 NBasis=    40 RedAO= F EigKep=  0.00D+00  NBF=    40
 NBsUse=    40 1.00D-04 EigRej=  0.00D+00 NBFU=    40
 Initial guess from the checkpoint file:  "b.chk"
 B after Tr=     0.001025   -0.000254    0.000101
         Rot=    1.000000   -0.000172   -0.000107    0.000150 Ang=  -0.03 deg.
 Initial guess <Sx>= 0.0000 <Sy>= 0.0000 <Sz>= 1.0000 <S**2>= 2.3248 S= 1.1046
 Keep J ints in memory in canonical form, NReq=867663.
 Overlap will be assumed to be unity.
 Requested convergence on RMS density matrix=1.00D-08 within  64 cycles.
 Requested convergence on MAX density matrix=1.00D-06.
 Requested convergence on             energy=1.00D-06.
 No special actions if energy rises.
 SCF Done:  E(UPM6) =  0.111484187000     A.U. after   14 cycles
            NFock= 13  Conv=0.75D-08     -V/T= 1.0018
 <Sx>= 0.0000 <Sy>= 0.0000 <Sz>= 1.0000 <S**2>= 2.3252 S= 1.1047
 <L.S>=  0.00000000000    
 Annihilation of the first spin contaminant:
 S**2 before annihilation     2.3252,   after     2.0544
 QCSCF skips out because SCF is already converged.

 **********************************************************************

            Population analysis using the SCF Density.

 **********************************************************************

 Alpha  occ. eigenvalues --   -1.09816  -1.00359  -0.95917  -0.90970  -0.81597
 Alpha  occ. eigenvalues --   -0.77959  -0.71754  -0.63953  -0.58937  -0.56849
 Alpha  occ. eigenvalues --   -0.54589  -0.52389  -0.51341  -0.50319  -0.48608
 Alpha  occ. eigenvalues --   -0.45099  -0.43326  -0.40889  -0.37170  -0.35899
 Alpha  occ. eigenvalues --   -0.29958
 Alpha virt. eigenvalues --    0.01875   0.02557   0.09671   0.15188   0.15626
 Alpha virt. eigenvalues --    0.17166   0.18199   0.18343   0.18948   0.19633
 Alpha virt. eigenvalues --    0.20337   0.20887   0.21471   0.22050   0.22274
 Alpha virt. eigenvalues --    0.22490   0.22806   0.23153   0.23398
  Beta  occ. eigenvalues --   -1.09688  -0.99691  -0.95811  -0.89911  -0.80902
  Beta  occ. eigenvalues --   -0.77729  -0.71056  -0.63355  -0.58297  -0.56473
  Beta  occ. eigenvalues --   -0.53626  -0.52263  -0.50107  -0.48881  -0.47640
  Beta  occ. eigenvalues --   -0.44567  -0.43096  -0.36821  -0.36278
  Beta virt. eigenvalues --   -0.03396   0.02213   0.02700   0.07032   0.10841
  Beta virt. eigenvalues --    0.15663   0.15969   0.17892   0.18460   0.18874
  Beta virt. eigenvalues --    0.19448   0.20184   0.20681   0.21348   0.21787
  Beta virt. eigenvalues --    0.22356   0.22883   0.22963   0.23222   0.23506
  Beta virt. eigenvalues --    0.23784
          Condensed to atoms (all electrons):
          Atomic-Atomic Spin Densities.
 Mulliken charges and spin densities:
               1          2
     1  C    0.041935  -0.377344
     2  C   -0.173637   0.444408
     3  C   -0.160207   0.461848
     4  C   -0.134855  -0.364389
     5  H    0.148163  -0.015570
     6  C   -0.171981   0.789363
     7  C   -0.140832  -0.367713
     8  H    0.150948  -0.016259
     9  C   -0.146510   0.451410
    10  H    0.144527   0.012671
    11  C   -0.304547   1.039281
    12  H    0.152855  -0.010935
    13  H    0.144761   0.012859
    14  H    0.145134  -0.015522
    15  H    0.151531  -0.022917
    16  H    0.152716  -0.021191
    17  C    0.000000   0.000000
    18  H    0.000000   0.000000
    19  H    0.000000   0.000000
    20  Cl   0.000000   0.000000
    21  Cl   0.000000   0.000000
    22  C    0.000000   0.000000
    23  H    0.000000   0.000000
    24  H    0.000000   0.000000
    25  Cl   0.000000   0.000000
    26  Cl   0.000000   0.000000
    27  C    0.000000   0.000000
    28  H    0.000000   0.000000
    29  H    0.000000   0.000000
    30  Cl   0.000000   0.000000
    31  Cl   0.000000   0.000000
    32  C    0.000000   0.000000
    33  H    0.000000   0.000000
    34  H    0.000000   0.000000
    35  Cl   0.000000   0.000000
    36  Cl   0.000000   0.000000
    37  C    0.000000   0.000000
    38  H    0.000000   0.000000
    39  H    0.000000   0.000000
    40  Cl   0.000000   0.000000
    41  Cl   0.000000   0.000000
    42  C    0.000000   0.000000
    43  H    0.000000   0.000000
    44  H    0.000000   0.000000
    45  Cl   0.000000   0.000000
    46  Cl   0.000000   0.000000
    47  C    0.000000   0.000000
    48  H    0.000000   0.000000
    49  H    0.000000   0.000000
    50  Cl   0.000000   0.000000
    51  Cl   0.000000   0.000000
    52  C    0.000000   0.000000
    53  H    0.000000   0.000000
    54  H    0.000000   0.000000
    55  Cl   0.000000   0.000000
    56  Cl   0.000000   0.000000
    57  C    0.000000   0.000000
    58  H    0.000000   0.000000
    59  H    0.000000   0.000000
    60  Cl   0.000000   0.000000
    61  Cl   0.000000   0.000000
    62  C    0.000000   0.000000
    63  H    0.000000   0.000000
    64  H    0.000000   0.000000
    65  Cl   0.000000   0.000000
    66  Cl   0.000000   0.000000
    67  C    0.000000   0.000000
    68  H    0.000000   0.000000
    69  H    0.000000   0.000000
    70  Cl   0.000000   0.000000
    71  Cl   0.000000   0.000000
    72  C    0.000000   0.000000
    73  H    0.000000   0.000000
    74  H    0.000000   0.000000
    75  Cl   0.000000   0.000000
    76  Cl   0.000000   0.000000
    77  C    0.000000   0.000000
    78  H    0.000000   0.000000
    79  H    0.000000   0.000000
    80  Cl   0.000000   0.000000
    81  Cl   0.000000   0.000000
    82  C    0.000000   0.000000
    83  H    0.000000   0.000000
    84  H    0.000000   0.000000
    85  Cl   0.000000   0.000000
    86  Cl   0.000000   0.000000
    87  C    0.000000   0.000000
    88  H    0.000000   0.000000
    89  H    0.000000   0.000000
    90  Cl   0.000000   0.000000
    91  Cl   0.000000   0.000000
 Sum of Mulliken charges =  -0.00000   2.00000
 Mulliken charges and spin densities with hydrogens summed into heavy atoms:
               1          2
     1  C    0.041935  -0.377344
     2  C   -0.025474   0.428838
     3  C   -0.009259   0.445589
     4  C    0.009672  -0.351718
     6  C   -0.019126   0.778427
     7  C    0.003930  -0.354853
     9  C   -0.001376   0.435888
    11  C   -0.000301   0.995173
    17  C    0.000000   0.000000
    20  Cl   0.000000   0.000000
    21  Cl   0.000000   0.000000
    22  C    0.000000   0.000000
    25  Cl   0.000000   0.000000
    26  Cl   0.000000   0.000000
    27  C    0.000000   0.000000
    30  Cl   0.000000   0.000000
    31  Cl   0.000000   0.000000
    32  C    0.000000   0.000000
    35  Cl   0.000000   0.000000
    36  Cl   0.000000   0.000000
    37  C    0.000000   0.000000
    40  Cl   0.000000   0.000000
    41  Cl   0.000000   0.000000
    42  C    0.000000   0.000000
    45  Cl   0.000000   0.000000
    46  Cl   0.000000   0.000000
    47  C    0.000000   0.000000
    50  Cl   0.000000   0.000000
    51  Cl   0.000000   0.000000
    52  C    0.000000   0.000000
    55  Cl   0.000000   0.000000
    56  Cl   0.000000   0.000000
    57  C    0.000000   0.000000
    60  Cl   0.000000   0.000000
    61  Cl   0.000000   0.000000
    62  C    0.000000   0.000000
    65  Cl   0.000000   0.000000
    66  Cl   0.000000   0.000000
    67  C    0.000000   0.000000
    70  Cl   0.000000   0.000000
    71  Cl   0.000000   0.000000
    72  C    0.000000   0.000000
    75  Cl   0.000000   0.000000
    76  Cl   0.000000   0.000000
    77  C    0.000000   0.000000
    80  Cl   0.000000   0.000000
    81  Cl   0.000000   0.000000
    82  C    0.000000   0.000000
    85  Cl   0.000000   0.000000
    86  Cl   0.000000   0.000000
    87  C    0.000000   0.000000
    90  Cl   0.000000   0.000000
    91  Cl   0.000000   0.000000
 Charge=             -0.0000 electrons
 Dipole moment (field-independent basis, Debye):
    X=              0.0033    Y=             -0.0026    Z=             -0.0845  Tot=              0.0846
 N-N= 1.845201798553D+02 E-N=-2.804897985006D+02  KE=-6.318868885485D+01
 Calling FoFJK, ICntrl=      2127 FMM=F ISym2X=0 I1Cent= 0 IOpClX= 1 NMat=1 NMatS=1 NMatT=0.
 Cartesian Forces:  Max     0.021376504 RMS     0.002805494
 SvSCFP is copying densities from files   528 and   530 to   603.
 ONIOM: saving gridpoint  1
 ONIOM: restoring gridpoint  3
 ONIOM: calculating energy.
 ONIOM: gridpoint  1 method:  low   system:  model energy:     0.111484187000
 ONIOM: gridpoint  2 method:  high  system:  model energy:  -309.579006318331
 ONIOM: gridpoint  3 method:  low   system:  real  energy:    -0.404045102841
 ONIOM: extrapolated energy =    -310.094535608172
 ONIOM: calculating first derivatives.
 ONIOM: calculating electric field derivatives.
 ONIOM: Integrating ONIOM file  4 number   619
 ONIOM: Dipole        =-3.28964663D-01-9.43117728D-02 2.03705377D-01
 ONIOM: Dipole moment (Debye):
    X=    -0.8361    Y=    -0.2397    Z=     0.5178  Tot=     1.0123
 ONIOM: Integrating ONIOM file  5 number   695
 Anisotropic Hyperfine tensors: 
                 1             2             3             4             5 
      1   0.728702D-01 -0.118335D+00 -0.123846D+00  0.557063D-01 -0.529247D-02
      2   0.371290D-01  0.103315D-01  0.182902D-01 -0.663087D-02 -0.690483D-02
      3  -0.550381D-02 -0.478200D-01 -0.507774D-01  0.152961D-01  0.869890D-02
      4   0.420541D-01  0.808924D-02  0.272154D-01 -0.900710D-02  0.349479D-02
      5  -0.272867D-01  0.138322D+00  0.158800D+00 -0.581789D-01 -0.850523D-02
      6  -0.673663D-01  0.166155D+00  0.174624D+00 -0.710023D-01 -0.340642D-02
                 6             7             8             9            10 
      1  -0.346057D+00  0.635800D-01  0.413198D-02 -0.148582D+00  0.522882D-02
      2   0.731305D-01  0.108427D-02  0.404015D-02  0.922766D-02 -0.130846D-02
      3  -0.111722D+00  0.210684D-01  0.415646D-02 -0.773998D-01 -0.986441D-03
      4   0.105657D+00 -0.123658D-01 -0.151324D-02  0.145865D-01 -0.848807D-04
      5   0.437100D+00 -0.633822D-01 -0.103240D-01  0.185366D+00 -0.172250D-02
      6   0.457779D+00 -0.846484D-01 -0.828844D-02  0.225982D+00 -0.424238D-02
                11            12            13            14            15 
      1  -0.861314D-01 -0.263816D-01  0.643713D-02  0.243721D-01  0.568439D-01
      2  -0.591298D+00 -0.337093D-01  0.257464D-02  0.326433D-02  0.317672D-01
      3   0.268397D+00  0.325221D-01 -0.198755D-02 -0.184526D-01 -0.154357D-01
      4  -0.401627D+00  0.189369D-01 -0.197569D-02 -0.274255D-02  0.263022D-01
      5   0.526484D+00 -0.205915D-01 -0.206404D-02  0.741933D-02  0.396509D-01
      6  -0.182266D+00 -0.614058D-02 -0.444958D-02 -0.591944D-02 -0.414083D-01
                16            17            18            19            20 
      1  -0.406427D-01  0.000000D+00  0.000000D+00  0.000000D+00  0.000000D+00
      2  -0.368984D-01  0.000000D+00  0.000000D+00  0.000000D+00  0.000000D+00
      3  -0.198972D-01  0.000000D+00  0.000000D+00  0.000000D+00  0.000000D+00
      4   0.206738D-01  0.000000D+00  0.000000D+00  0.000000D+00  0.000000D+00
      5  -0.301857D-01  0.000000D+00  0.000000D+00  0.000000D+00  0.000000D+00
      6   0.605399D-01  0.000000D+00  0.000000D+00  0.000000D+00  0.000000D+00
                21            22            23            24            25 
      1   0.000000D+00  0.000000D+00  0.000000D+00  0.000000D+00  0.000000D+00
      2   0.000000D+00  0.000000D+00  0.000000D+00  0.000000D+00  0.000000D+00
      3   0.000000D+00  0.000000D+00  0.000000D+00  0.000000D+00  0.000000D+00
      4   0.000000D+00  0.000000D+00  0.000000D+00  0.000000D+00  0.000000D+00
      5   0.000000D+00  0.000000D+00  0.000000D+00  0.000000D+00  0.000000D+00
      6   0.000000D+00  0.000000D+00  0.000000D+00  0.000000D+00  0.000000D+00
                26            27            28            29            30 
      1   0.000000D+00  0.000000D+00  0.000000D+00  0.000000D+00  0.000000D+00
      2   0.000000D+00  0.000000D+00  0.000000D+00  0.000000D+00  0.000000D+00
      3   0.000000D+00  0.000000D+00  0.000000D+00  0.000000D+00  0.000000D+00
      4   0.000000D+00  0.000000D+00  0.000000D+00  0.000000D+00  0.000000D+00
      5   0.000000D+00  0.000000D+00  0.000000D+00  0.000000D+00  0.000000D+00
      6   0.000000D+00  0.000000D+00  0.000000D+00  0.000000D+00  0.000000D+00
                31            32            33            34            35 
      1   0.000000D+00  0.000000D+00  0.000000D+00  0.000000D+00  0.000000D+00
      2   0.000000D+00  0.000000D+00  0.000000D+00  0.000000D+00  0.000000D+00
      3   0.000000D+00  0.000000D+00  0.000000D+00  0.000000D+00  0.000000D+00
      4   0.000000D+00  0.000000D+00  0.000000D+00  0.000000D+00  0.000000D+00
      5   0.000000D+00  0.000000D+00  0.000000D+00  0.000000D+00  0.000000D+00
      6   0.000000D+00  0.000000D+00  0.000000D+00  0.000000D+00  0.000000D+00
                36            37            38            39            40 
      1   0.000000D+00  0.000000D+00  0.000000D+00  0.000000D+00  0.000000D+00
      2   0.000000D+00  0.000000D+00  0.000000D+00  0.000000D+00  0.000000D+00
      3   0.000000D+00  0.000000D+00  0.000000D+00  0.000000D+00  0.000000D+00
      4   0.000000D+00  0.000000D+00  0.000000D+00  0.000000D+00  0.000000D+00
      5   0.000000D+00  0.000000D+00  0.000000D+00  0.000000D+00  0.000000D+00
      6   0.000000D+00  0.000000D+00  0.000000D+00  0.000000D+00  0.000000D+00
                41            42            43            44            45 
      1   0.000000D+00  0.000000D+00  0.000000D+00  0.000000D+00  0.000000D+00
      2   0.000000D+00  0.000000D+00  0.000000D+00  0.000000D+00  0.000000D+00
      3   0.000000D+00  0.000000D+00  0.000000D+00  0.000000D+00  0.000000D+00
      4   0.000000D+00  0.000000D+00  0.000000D+00  0.000000D+00  0.000000D+00
      5   0.000000D+00  0.000000D+00  0.000000D+00  0.000000D+00  0.000000D+00
      6   0.000000D+00  0.000000D+00  0.000000D+00  0.000000D+00  0.000000D+00
                46            47            48            49            50 
      1   0.000000D+00  0.000000D+00  0.000000D+00  0.000000D+00  0.000000D+00
      2   0.000000D+00  0.000000D+00  0.000000D+00  0.000000D+00  0.000000D+00
      3   0.000000D+00  0.000000D+00  0.000000D+00  0.000000D+00  0.000000D+00
      4   0.000000D+00  0.000000D+00  0.000000D+00  0.000000D+00  0.000000D+00
      5   0.000000D+00  0.000000D+00  0.000000D+00  0.000000D+00  0.000000D+00
      6   0.000000D+00  0.000000D+00  0.000000D+00  0.000000D+00  0.000000D+00
                51            52            53            54            55 
      1   0.000000D+00  0.000000D+00  0.000000D+00  0.000000D+00  0.000000D+00
      2   0.000000D+00  0.000000D+00  0.000000D+00  0.000000D+00  0.000000D+00
      3   0.000000D+00  0.000000D+00  0.000000D+00  0.000000D+00  0.000000D+00
      4   0.000000D+00  0.000000D+00  0.000000D+00  0.000000D+00  0.000000D+00
      5   0.000000D+00  0.000000D+00  0.000000D+00  0.000000D+00  0.000000D+00
      6   0.000000D+00  0.000000D+00  0.000000D+00  0.000000D+00  0.000000D+00
                56            57            58            59            60 
      1   0.000000D+00  0.000000D+00  0.000000D+00  0.000000D+00  0.000000D+00
      2   0.000000D+00  0.000000D+00  0.000000D+00  0.000000D+00  0.000000D+00
      3   0.000000D+00  0.000000D+00  0.000000D+00  0.000000D+00  0.000000D+00
      4   0.000000D+00  0.000000D+00  0.000000D+00  0.000000D+00  0.000000D+00
      5   0.000000D+00  0.000000D+00  0.000000D+00  0.000000D+00  0.000000D+00
      6   0.000000D+00  0.000000D+00  0.000000D+00  0.000000D+00  0.000000D+00
                61            62            63            64            65 
      1   0.000000D+00  0.000000D+00  0.000000D+00  0.000000D+00  0.000000D+00
      2   0.000000D+00  0.000000D+00  0.000000D+00  0.000000D+00  0.000000D+00
      3   0.000000D+00  0.000000D+00  0.000000D+00  0.000000D+00  0.000000D+00
      4   0.000000D+00  0.000000D+00  0.000000D+00  0.000000D+00  0.000000D+00
      5   0.000000D+00  0.000000D+00  0.000000D+00  0.000000D+00  0.000000D+00
      6   0.000000D+00  0.000000D+00  0.000000D+00  0.000000D+00  0.000000D+00
                66            67            68            69            70 
      1   0.000000D+00  0.000000D+00  0.000000D+00  0.000000D+00  0.000000D+00
      2   0.000000D+00  0.000000D+00  0.000000D+00  0.000000D+00  0.000000D+00
      3   0.000000D+00  0.000000D+00  0.000000D+00  0.000000D+00  0.000000D+00
      4   0.000000D+00  0.000000D+00  0.000000D+00  0.000000D+00  0.000000D+00
      5   0.000000D+00  0.000000D+00  0.000000D+00  0.000000D+00  0.000000D+00
      6   0.000000D+00  0.000000D+00  0.000000D+00  0.000000D+00  0.000000D+00
                71            72            73            74            75 
      1   0.000000D+00  0.000000D+00  0.000000D+00  0.000000D+00  0.000000D+00
      2   0.000000D+00  0.000000D+00  0.000000D+00  0.000000D+00  0.000000D+00
      3   0.000000D+00  0.000000D+00  0.000000D+00  0.000000D+00  0.000000D+00
      4   0.000000D+00  0.000000D+00  0.000000D+00  0.000000D+00  0.000000D+00
      5   0.000000D+00  0.000000D+00  0.000000D+00  0.000000D+00  0.000000D+00
      6   0.000000D+00  0.000000D+00  0.000000D+00  0.000000D+00  0.000000D+00
                76            77            78            79            80 
      1   0.000000D+00  0.000000D+00  0.000000D+00  0.000000D+00  0.000000D+00
      2   0.000000D+00  0.000000D+00  0.000000D+00  0.000000D+00  0.000000D+00
      3   0.000000D+00  0.000000D+00  0.000000D+00  0.000000D+00  0.000000D+00
      4   0.000000D+00  0.000000D+00  0.000000D+00  0.000000D+00  0.000000D+00
      5   0.000000D+00  0.000000D+00  0.000000D+00  0.000000D+00  0.000000D+00
      6   0.000000D+00  0.000000D+00  0.000000D+00  0.000000D+00  0.000000D+00
                81            82            83            84            85 
      1   0.000000D+00  0.000000D+00  0.000000D+00  0.000000D+00  0.000000D+00
      2   0.000000D+00  0.000000D+00  0.000000D+00  0.000000D+00  0.000000D+00
      3   0.000000D+00  0.000000D+00  0.000000D+00  0.000000D+00  0.000000D+00
      4   0.000000D+00  0.000000D+00  0.000000D+00  0.000000D+00  0.000000D+00
      5   0.000000D+00  0.000000D+00  0.000000D+00  0.000000D+00  0.000000D+00
      6   0.000000D+00  0.000000D+00  0.000000D+00  0.000000D+00  0.000000D+00
                86            87            88            89            90 
      1   0.000000D+00  0.000000D+00  0.000000D+00  0.000000D+00  0.000000D+00
      2   0.000000D+00  0.000000D+00  0.000000D+00  0.000000D+00  0.000000D+00
      3   0.000000D+00  0.000000D+00  0.000000D+00  0.000000D+00  0.000000D+00
      4   0.000000D+00  0.000000D+00  0.000000D+00  0.000000D+00  0.000000D+00
      5   0.000000D+00  0.000000D+00  0.000000D+00  0.000000D+00  0.000000D+00
      6   0.000000D+00  0.000000D+00  0.000000D+00  0.000000D+00  0.000000D+00
                91 
      1   0.000000D+00
      2   0.000000D+00
      3   0.000000D+00
      4   0.000000D+00
      5   0.000000D+00
      6   0.000000D+00
 ONIOM Fermi contact: 
               1
     1  C   -0.004949
     2  C    0.024778
     3  C    0.031116
     4  C   -0.019581
     5  H   -0.003697
     6  C    0.046025
     7  C   -0.021731
     8  H   -0.004087
     9  C    0.035037
    10  H    0.001520
    11  C    0.086826
    12  H    0.002772
    13  H    0.001744
    14  H   -0.004816
    15  H   -0.007569
    16  H   -0.006075
    17  C    0.000000
    18  H    0.000000
    19  H    0.000000
    20  Cl   0.000000
    21  Cl   0.000000
    22  C    0.000000
    23  H    0.000000
    24  H    0.000000
    25  Cl   0.000000
    26  Cl   0.000000
    27  C    0.000000
    28  H    0.000000
    29  H    0.000000
    30  Cl   0.000000
    31  Cl   0.000000
    32  C    0.000000
    33  H    0.000000
    34  H    0.000000
    35  Cl   0.000000
    36  Cl   0.000000
    37  C    0.000000
    38  H    0.000000
    39  H    0.000000
    40  Cl   0.000000
    41  Cl   0.000000
    42  C    0.000000
    43  H    0.000000
    44  H    0.000000
    45  Cl   0.000000
    46  Cl   0.000000
    47  C    0.000000
    48  H    0.000000
    49  H    0.000000
    50  Cl   0.000000
    51  Cl   0.000000
    52  C    0.000000
    53  H    0.000000
    54  H    0.000000
    55  Cl   0.000000
    56  Cl   0.000000
    57  C    0.000000
    58  H    0.000000
    59  H    0.000000
    60  Cl   0.000000
    61  Cl   0.000000
    62  C    0.000000
    63  H    0.000000
    64  H    0.000000
    65  Cl   0.000000
    66  Cl   0.000000
    67  C    0.000000
    68  H    0.000000
    69  H    0.000000
    70  Cl   0.000000
    71  Cl   0.000000
    72  C    0.000000
    73  H    0.000000
    74  H    0.000000
    75  Cl   0.000000
    76  Cl   0.000000
    77  C    0.000000
    78  H    0.000000
    79  H    0.000000
    80  Cl   0.000000
[...]
   Y21       -2.21108   0.00000   0.00000   0.00035  -0.00001  -2.21108
   Z21        2.96791  -0.00001   0.00000   0.00137   0.00040   2.96831
   X22       10.81798   0.00007   0.00000   0.00063   0.00075  10.81873
   Y22       -2.01502  -0.00000   0.00000  -0.00017  -0.00017  -2.01519
   Z22       -2.95084  -0.00000   0.00000   0.00103   0.00008  -2.95076
   X23        8.78300   0.00008   0.00000   0.00054   0.00065   8.78365
   Y23       -2.11237   0.00004   0.00000   0.00066   0.00061  -2.11176
   Z23       -2.44257  -0.00001   0.00000   0.00046  -0.00051  -2.44308
   X24       11.97667  -0.00008   0.00000  -0.00063  -0.00051  11.97616
   Y24       -3.14990  -0.00012   0.00000  -0.00150  -0.00156  -3.15145
   Z24       -1.62237   0.00000   0.00000   0.00083  -0.00017  -1.62254
   X25       11.84661   0.00022   0.00000   0.00259   0.00266  11.84927
   Y25        1.17324  -0.00007   0.00000  -0.00085  -0.00084   1.17240
   Z25       -2.87202   0.00013   0.00000   0.00262   0.00186  -2.87016
   X26       11.25539   0.00007   0.00000   0.00075   0.00090  11.25628
   Y26       -3.12778   0.00006   0.00000   0.00051   0.00070  -3.12708
   Z26       -6.06915  -0.00003   0.00000   0.00087  -0.00014  -6.06929
   X27        3.98799  -0.00005   0.00000  -0.00082  -0.00085   3.98714
   Y27        6.01541   0.00001   0.00000   0.00064   0.00023   6.01563
   Z27        2.91935   0.00001   0.00000   0.00035  -0.00019   2.91916
   X28        3.47811  -0.00031   0.00000  -0.00279  -0.00279   3.47532
   Y28        4.04993   0.00011   0.00000   0.00137   0.00098   4.05091
   Z28        2.37422  -0.00013   0.00000  -0.00070  -0.00134   2.37288
   X29        2.57215  -0.00003   0.00000  -0.00041  -0.00045   2.57170
   Y29        7.37978   0.00002   0.00000   0.00117   0.00077   7.38055
   Z29        2.17995  -0.00001   0.00000   0.00077   0.00030   2.18025
   X30        7.02208  -0.00007   0.00000  -0.00097  -0.00100   7.02109
   Y30        6.77265   0.00004   0.00000   0.00046   0.00014   6.77279
   Z30        1.71968  -0.00006   0.00000  -0.00028  -0.00075   1.71893
   X31        4.16741   0.00014   0.00000   0.00128   0.00124   4.16864
   Y31        6.26287  -0.00008   0.00000  -0.00024  -0.00085   6.26202
   Z31        6.25195   0.00001   0.00000   0.00045  -0.00007   6.25188
   X32       -4.26093  -0.00009   0.00000  -0.00098  -0.00097  -4.26190
   Y32        1.53221  -0.00000   0.00000   0.00083   0.00010   1.53231
   Z32        6.59011  -0.00012   0.00000  -0.00095  -0.00179   6.58832
   X33       -3.57121  -0.00006   0.00000  -0.00053  -0.00050  -3.57172
   Y33       -0.44798   0.00001   0.00000   0.00087   0.00014  -0.44783
   Z33        6.66034  -0.00037   0.00000  -0.00276  -0.00370   6.65663
   X34       -4.16699   0.00006   0.00000   0.00077   0.00076  -4.16623
   Y34        2.43538   0.00020   0.00000   0.00177   0.00094   2.43632
   Z34        8.48233  -0.00025   0.00000  -0.00160  -0.00239   8.47994
   X35       -7.41979  -0.00015   0.00000  -0.00220  -0.00219  -7.42198
   Y35        1.57327  -0.00015   0.00000  -0.00037  -0.00107   1.57220
   Z35        5.47867   0.00018   0.00000   0.00289   0.00204   5.48070
   X36       -2.40763  -0.00024   0.00000  -0.00302  -0.00302  -2.41065
   Y36        3.27007   0.00003   0.00000   0.00163   0.00105   3.27112
   Z36        4.40912  -0.00013   0.00000  -0.00164  -0.00237   4.40675
   X37       -1.97466  -0.00010   0.00000  -0.00117  -0.00126  -1.97592
   Y37        8.60575   0.00010   0.00000   0.00197   0.00116   8.60690
   Z37        8.63940   0.00017   0.00000   0.00240   0.00198   8.64138
   X38       -0.70898  -0.00014   0.00000  -0.00147  -0.00158  -0.71057
   Y38       10.25790   0.00012   0.00000   0.00201   0.00119  10.25909
   Z38        8.86888   0.00025   0.00000   0.00336   0.00304   8.87192
   X39       -1.66233   0.00001   0.00000  -0.00010  -0.00017  -1.66250
   Y39        7.68709   0.00015   0.00000   0.00240   0.00169   7.68878
   Z39        6.77806   0.00017   0.00000   0.00234   0.00187   6.77993
   X40       -5.15696  -0.00012   0.00000  -0.00129  -0.00139  -5.15835
   Y40        9.55885   0.00007   0.00000   0.00196   0.00109   9.55994
   Z40        8.91641   0.00006   0.00000   0.00129   0.00090   8.91732
   X41       -1.36888  -0.00018   0.00000  -0.00214  -0.00222  -1.37110
   Y41        6.39388  -0.00003   0.00000   0.00110   0.00015   6.39403
   Z41       11.09333   0.00007   0.00000   0.00183   0.00129  11.09462
   X42        8.37956  -0.00006   0.00000  -0.00052  -0.00043   8.37913
   Y42        2.03897   0.00017   0.00000   0.00168   0.00196   2.04093
   Z42       -8.39491  -0.00003   0.00000   0.00029  -0.00044  -8.39535
   X43        7.33437  -0.00008   0.00000  -0.00110  -0.00100   7.33338
   Y43        0.49995   0.00017   0.00000   0.00203   0.00225   0.50220
   Z43       -7.42115  -0.00005   0.00000   0.00016  -0.00067  -7.42182
   X44       10.44968  -0.00008   0.00000  -0.00072  -0.00062  10.44906
   Y44        1.71891   0.00011   0.00000   0.00097   0.00126   1.72018
   Z44       -8.26456  -0.00004   0.00000   0.00019  -0.00055  -8.26511
   X45        7.61984   0.00012   0.00000   0.00111   0.00115   7.62100
   Y45        4.99239   0.00022   0.00000   0.00237   0.00256   4.99495
   Z45       -6.99240  -0.00008   0.00000  -0.00021  -0.00078  -6.99319
   X46        7.43575   0.00006   0.00000   0.00030   0.00041   7.43616
   Y46        2.20314   0.00013   0.00000   0.00116   0.00161   2.20474
   Z46      -11.59490  -0.00005   0.00000   0.00014  -0.00059 -11.59549
   X47      -10.25470  -0.00004   0.00000   0.00025   0.00028 -10.25443
   Y47        3.70830   0.00017   0.00000   0.00243   0.00205   3.71035
   Z47       -0.73133  -0.00000   0.00000   0.00068  -0.00007  -0.73140
   X48      -11.94480   0.00002   0.00000   0.00041   0.00045 -11.94436
   Y48        2.61995   0.00024   0.00000   0.00376   0.00332   2.62326
   Z48       -0.14225   0.00033   0.00000   0.00406   0.00323  -0.13902
   X49       -8.76430   0.00025   0.00000   0.00304   0.00305  -8.76124
   Y49        3.63986   0.00010   0.00000   0.00157   0.00112   3.64098
   Z49        0.74550  -0.00036   0.00000  -0.00253  -0.00327   0.74223
   X50      -11.12547   0.00035   0.00000   0.00384   0.00384 -11.12164
   Y50        6.88814   0.00026   0.00000   0.00342   0.00305   6.89119
   Z50       -1.28980  -0.00005   0.00000   0.00037  -0.00021  -1.29001
   X51       -9.08065  -0.00024   0.00000  -0.00344  -0.00338  -9.08402
   Y51        2.44190   0.00003   0.00000   0.00027   0.00006   2.44196
   Z51       -3.59424   0.00002   0.00000   0.00042  -0.00040  -3.59463
   X52       -3.01056   0.00004   0.00000   0.00025   0.00034  -3.01022
   Y52        1.86139  -0.00005   0.00000  -0.00050  -0.00040   1.86098
   Z52       -7.73237   0.00008   0.00000   0.00185   0.00104  -7.73134
   X53       -3.63761   0.00008   0.00000   0.00113   0.00123  -3.63639
   Y53        2.45538   0.00005   0.00000  -0.00004   0.00016   2.45554
   Z53       -9.64266   0.00010   0.00000   0.00164   0.00086  -9.64180
   X54       -4.05561  -0.00007   0.00000  -0.00090  -0.00083  -4.05644
   Y54        2.89520  -0.00008   0.00000  -0.00080  -0.00080   2.89440
   Z54       -6.23009   0.00002   0.00000   0.00111   0.00035  -6.22974
   X55        0.27681   0.00001   0.00000  -0.00006   0.00002   0.27683
   Y55        2.46257   0.00002   0.00000   0.00005   0.00017   2.46274
   Z55       -7.41114   0.00026   0.00000   0.00422   0.00346  -7.40768
   X56       -3.46907   0.00005   0.00000   0.00044   0.00057  -3.46850
   Y56       -1.42784  -0.00005   0.00000  -0.00057  -0.00050  -1.42834
   Z56       -7.36758   0.00006   0.00000   0.00196   0.00096  -7.36662
   X57       -2.67325   0.00020   0.00000   0.00215   0.00207  -2.67117
   Y57       11.14065  -0.00001   0.00000   0.00036  -0.00006  11.14059
   Z57        1.42963   0.00002   0.00000   0.00035   0.00006   1.42969
   X58       -1.98657   0.00011   0.00000   0.00193   0.00185  -1.98471
   Y58       11.57135  -0.00012   0.00000  -0.00026  -0.00055  11.57080
   Z58       -0.50886  -0.00004   0.00000   0.00012  -0.00014  -0.50900
   X59       -4.33532   0.00020   0.00000   0.00201   0.00192  -4.33340
   Y59       12.31962  -0.00005   0.00000  -0.00009  -0.00055  12.31907
   Z59        1.92505   0.00008   0.00000   0.00048   0.00025   1.92530
   X60       -0.20075   0.00003   0.00000   0.00069   0.00059  -0.20016
   Y60       11.71038   0.00012   0.00000   0.00146   0.00095  11.71134
   Z60        3.61952   0.00018   0.00000   0.00190   0.00167   3.62118
   X61       -3.48628   0.00011   0.00000   0.00173   0.00169  -3.48460
   Y61        7.89861   0.00003   0.00000   0.00047   0.00003   7.89865
   Z61        1.67640  -0.00026   0.00000  -0.00161  -0.00208   1.67432
   X62        2.09553  -0.00003   0.00000  -0.00019  -0.00019   2.09534
   Y62        0.62999  -0.00003   0.00000   0.00060  -0.00021   0.62978
   Z62        9.34661  -0.00010   0.00000  -0.00036  -0.00121   9.34540
   X63        1.38292   0.00007   0.00000   0.00057   0.00056   1.38348
   Y63        2.52210  -0.00005   0.00000   0.00019  -0.00059   2.52151
   Z63        8.78045  -0.00026   0.00000  -0.00237  -0.00312   8.77734
   X64        3.69586  -0.00005   0.00000  -0.00040  -0.00041   3.69545
   Y64        0.80180   0.00004   0.00000   0.00118   0.00032   0.80212
   Z64       10.68742  -0.00009   0.00000  -0.00033  -0.00117  10.68625
   X65        3.08166   0.00004   0.00000   0.00037   0.00041   3.08207
   Y65       -1.05569  -0.00012   0.00000  -0.00109  -0.00174  -1.05743
   Z65        6.63523   0.00000   0.00000   0.00108   0.00014   6.63537
   X66       -0.37801  -0.00006   0.00000  -0.00076  -0.00074  -0.37876
   Y66       -1.10507   0.00007   0.00000   0.00220   0.00128  -1.10379
   Z66       10.78518  -0.00005   0.00000   0.00065  -0.00031  10.78487
   X67        2.01567   0.00004   0.00000   0.00035   0.00051   2.01617
   Y67       -4.10053  -0.00010   0.00000  -0.00072  -0.00067  -4.10120
   Z67       -5.72343   0.00003   0.00000   0.00154   0.00042  -5.72301
   X68        0.36102   0.00001   0.00000   0.00001   0.00018   0.36120
   Y68       -5.22423   0.00001   0.00000   0.00028   0.00034  -5.22389
   Z68       -6.34183  -0.00014   0.00000   0.00025  -0.00094  -6.34277
   X69        1.41118   0.00030   0.00000   0.00212   0.00224   1.41342
   Y69       -2.19851  -0.00012   0.00000  -0.00095  -0.00094  -2.19945
   Z69       -5.06229   0.00024   0.00000   0.00320   0.00219  -5.06010
   X70        4.18049  -0.00022   0.00000  -0.00173  -0.00157   4.17893
   Y70       -3.79780   0.00020   0.00000   0.00165   0.00187  -3.79594
   Z70       -8.25046  -0.00014   0.00000   0.00023  -0.00086  -8.25132
   X71        3.59308   0.00004   0.00000   0.00051   0.00067   3.59375
   Y71       -5.71457  -0.00001   0.00000  -0.00073  -0.00080  -5.71537
   Z71       -3.24483   0.00008   0.00000   0.00157   0.00037  -3.24446
   X72        3.53686  -0.00000   0.00000  -0.00026  -0.00022   3.53665
   Y72        7.41906   0.00002   0.00000  -0.00017   0.00021   7.41926
   Z72      -11.23865  -0.00016   0.00000  -0.00127  -0.00172 -11.24037
   X73        5.37036   0.00004   0.00000  -0.00006  -0.00000   5.37036
   Y73        7.21109   0.00001   0.00000   0.00004   0.00050   7.21159
   Z73      -12.23354  -0.00014   0.00000  -0.00125  -0.00171 -12.23525
   X74        3.35749  -0.00005   0.00000  -0.00023  -0.00018   3.35731
   Y74        5.96781   0.00006   0.00000   0.00020   0.00049   5.96830
   Z74       -9.73683  -0.00011   0.00000  -0.00100  -0.00155  -9.73838
   X75        3.34373  -0.00014   0.00000  -0.00159  -0.00159   3.34214
   Y75       10.48046  -0.00000   0.00000  -0.00042  -0.00012  10.48034
   Z75       -9.88163  -0.00008   0.00000  -0.00083  -0.00111  -9.88274
   X76        1.01430  -0.00007   0.00000  -0.00074  -0.00067   1.01363
   Y76        7.12405  -0.00007   0.00000  -0.00138  -0.00091   7.12315
   Z76      -13.40073  -0.00009   0.00000  -0.00057  -0.00106 -13.40180
   X77       -2.86972   0.00022   0.00000   0.00162   0.00162  -2.86810
   Y77        8.75303  -0.00014   0.00000  -0.00166  -0.00160   8.75143
   Z77       -6.95757  -0.00003   0.00000   0.00045   0.00003  -6.95754
   X78       -1.01224   0.00023   0.00000   0.00139   0.00141  -1.01083
   Y78        8.00342   0.00003   0.00000  -0.00154  -0.00142   8.00200
   Z78       -7.58142  -0.00027   0.00000  -0.00134  -0.00180  -7.58321
   X79       -2.90487   0.00042   0.00000   0.00383   0.00381  -2.90106
   Y79       10.84650  -0.00015   0.00000  -0.00164  -0.00157  10.84492
   Z79       -7.07753   0.00008   0.00000   0.00120   0.00090  -7.07664
   X80       -5.30721  -0.00020   0.00000  -0.00186  -0.00183  -5.30905
   Y80        7.48186  -0.00005   0.00000  -0.00005   0.00009   7.48195
   Z80       -8.85853   0.00054   0.00000   0.00432   0.00381  -8.85472
   X81       -3.45440  -0.00059   0.00000  -0.00400  -0.00400  -3.45841
   Y81        7.80361  -0.00030   0.00000  -0.00277  -0.00290   7.80071
   Z81       -3.79166  -0.00021   0.00000  -0.00095  -0.00143  -3.79309
   X82        4.07016  -0.00008   0.00000  -0.00089  -0.00095   4.06921
   Y82       11.29218  -0.00007   0.00000  -0.00170  -0.00177  11.29041
   Z82       -3.06925  -0.00008   0.00000  -0.00042  -0.00066  -3.06990
   X83        5.23554  -0.00024   0.00000  -0.00180  -0.00184   5.23370
   Y83       11.21531  -0.00024   0.00000  -0.00255  -0.00251  11.21280
   Z83       -4.80997  -0.00020   0.00000  -0.00111  -0.00134  -4.81131
   X84        5.27733  -0.00034   0.00000  -0.00224  -0.00231   5.27503
   Y84       11.22484  -0.00037   0.00000  -0.00370  -0.00386  11.22098
   Z84       -1.35701   0.00010   0.00000   0.00037   0.00014  -1.35687
   X85        2.23521   0.00029   0.00000   0.00249   0.00240   2.23761
   Y85       14.08359   0.00015   0.00000   0.00069   0.00059  14.08418
   Z85       -3.06534   0.00005   0.00000   0.00065   0.00056  -3.06478
   X86        1.92408   0.00018   0.00000   0.00031   0.00029   1.92436
   Y86        8.71617  -0.00031   0.00000  -0.00255  -0.00265   8.71352
   Z86       -3.04177  -0.00002   0.00000  -0.00005  -0.00044  -3.04222
   X87       -8.27180   0.00000   0.00000   0.00007  -0.00000  -8.27181
   Y87       13.00703  -0.00009   0.00000  -0.00127  -0.00150  13.00553
   Z87       -3.18642  -0.00000   0.00000   0.00012  -0.00009  -3.18651
   X88      -10.10913   0.00001   0.00000   0.00022   0.00015 -10.10898
   Y88       13.11640  -0.00014   0.00000  -0.00123  -0.00142  13.11499
   Z88       -4.18684  -0.00001   0.00000  -0.00011  -0.00033  -4.18716
   X89       -7.70964   0.00006   0.00000   0.00087   0.00082  -7.70882
   Y89       11.00646  -0.00009   0.00000  -0.00132  -0.00155  11.00491
   Z89       -2.88268  -0.00023   0.00000  -0.00233  -0.00265  -2.88533
   X90       -5.93418   0.00001   0.00000   0.00014   0.00006  -5.93413
   Y90       14.58736   0.00006   0.00000   0.00121   0.00112  14.58848
   Z90       -4.98284   0.00018   0.00000   0.00242   0.00231  -4.98052
   X91       -8.50851  -0.00012   0.00000  -0.00125  -0.00136  -8.50987
   Y91       14.57237  -0.00047   0.00000  -0.00512  -0.00552  14.56685
   Z91       -0.24319   0.00017   0.00000   0.00209   0.00197  -0.24122
         Item               Value     Threshold  Converged?
 Maximum Force            0.057724     0.000450     NO 
 RMS     Force            0.007392     0.000300     NO 
 Maximum Displacement     0.141398     0.001800     NO 
 RMS     Displacement     0.018174     0.001200     NO 
 Predicted change in Energy=-1.383508D-02
 GradGradGradGradGradGradGradGradGradGradGradGradGradGradGradGradGradGrad

 Unable to Open any file for archive entry.
 1\1\GINC-X10P1N23\Force\ONIOM(B3LYP/6-31G(d):PM6)\Mixed\C23H38Cl30\MAY
 UMIAO\12-Jul-2024\0\\# scf=(xqc,maxcycle=64) force guess=read oniom(b3
 lyp/em=gd3bj/6-31g(d):pm6) nosymm\\Title Card\\0,1\C,0.55221931,-0.175
 70104,-0.17987622\C,-0.08636539,-1.29403591,0.41647855\C,-0.27210556,0
 .87763967,-0.65438497\C,-1.45804861,-1.35816873,0.52536095\H,0.5358825
 7,-2.10808796,0.78376887\C,1.97204676,-0.14519091,-0.30941878\C,-1.649
 57121,0.81398102,-0.51754733\H,0.18136545,1.74655551,-1.12545612\C,-2.
 25717141,-0.3045752,0.05574807\H,-1.91869106,-2.22823085,0.98463712\C,
 2.68638042,0.89598125,-1.0028716\H,2.52819672,-0.99082325,0.10117579\H
 ,-2.26319558,1.64377416,-0.86318708\H,-3.33947807,-0.36361579,0.132769
 81\H,3.62597218,1.29433163,-0.62789463\H,2.33601213,1.28691864,-1.9568
 8239\C,4.97766529,0.55644991,1.9918813\H,5.26165364,1.14461431,1.09397
 356\H,3.98088796,0.86324155,2.37187662\Cl,6.19010639,0.77241689,3.2523
 476\Cl,4.93576337,-1.17005087,1.57054908\C,5.72462835,-1.06630137,-1.5
 6151485\H,4.64776243,-1.11781701,-1.29255412\H,6.33778138,-1.66685404,
 -0.85851981\Cl,6.26895374,0.62084974,-1.51980945\Cl,5.95609435,-1.6551
 4755,-3.2116576\C,2.11035315,3.18321601,1.54485321\H,1.84053602,2.1431
 314,1.25638551\H,1.36112139,3.90521226,1.15357738\Cl,3.71592559,3.5839
 3031,0.91001733\Cl,2.20529739,3.31416916,3.3083883\C,-2.25478444,0.810
 81162,3.48733414\H,-1.88980531,-0.23705961,3.52449885\H,-2.20507584,1.
 28874786,4.48865598\Cl,-3.92638438,0.83254031,2.89918514\Cl,-1.2740633
 ,1.7304477,2.33320519\C,-1.04494443,4.55396488,4.57177616\H,-0.3751780
 4,5.428248,4.69320845\H,-0.87966765,4.06783263,3.58679371\Cl,-2.728943
 79,5.05832635,4.71836267\Cl,-0.724378,3.38349471,5.87033872\C,4.434272
 25,1.07897815,-4.44239287\H,3.88118325,0.26456325,-3.92710561\H,5.5297
 3496,0.90961034,-4.37341794\Cl,4.03224678,2.64185759,-3.70022015\Cl,3.
 93482899,1.16584915,-6.13575439\C,-5.42655603,1.96234987,-0.38700553\H
 ,-6.32091828,1.38641586,-0.07527671\H,-4.63786698,1.92613345,0.3945031
 2\Cl,-5.88734613,3.64504673,-0.68253535\Cl,-4.80527151,1.29219957,-1.9
 0198817\C,-1.59312073,0.98500254,-4.09179609\H,-1.92494144,1.29932983,
 -5.10267417\H,-2.14613718,1.53207484,-3.29682057\Cl,0.14648225,1.30313
 77,-3.92180513\Cl,-1.83575534,-0.75557873,-3.89875731\C,-1.41462189,5.
 89537739,0.7565253\H,-1.05124595,6.12329595,-0.26927896\H,-2.29415071,
 6.51926067,1.0186934\Cl,-0.1062324,6.19686752,1.91536581\Cl,-1.8448624
 3,4.17976596,0.88711043\C,1.10890818,0.33337658,4.94601542\H,0.7318100
 7,1.33463705,4.64641599\H,1.95576605,0.42429229,5.65553868\Cl,1.630744
 26,-0.55864859,3.51121132\Cl,-0.20003595,-0.58477989,5.70727172\C,1.06
 664533,-2.16990482,-3.02870735\H,0.19104381,-2.76454382,-3.35595131\H,
 0.74676227,-1.16340212,-2.67884925\Cl,2.21222059,-2.00971091,-4.365953
 31\Cl,1.90137634,-3.02401986,-1.7170883\C,1.87162798,3.92599677,-5.947
 23717\H,2.84187161,3.81594679,-6.47370923\H,1.77670687,3.15802857,-5.1
 5251068\Cl,1.76942568,5.54602013,-5.22913369\Cl,0.53674625,3.76988737,
 -7.09136327\C,-1.51859163,4.63190479,-3.68178571\H,-0.53565415,4.23522
 761,-4.0119141\H,-1.53719054,5.73971936,-3.74526861\Cl,-2.80845604,3.9
 5923128,-4.68773295\Cl,-1.82799214,4.12949353,-2.00646058\C,2.15383371
 ,5.9755669,-1.62417451\H,2.77053028,5.93488477,-2.54532515\H,2.7926454
 1,5.93992992,-0.71809972\Cl,1.18282213,7.4527135,-1.62210899\Cl,1.0181
 7671,4.61239934,-1.60963797\C,-4.37724996,6.88302418,-1.68617989\H,-5.
 34952004,6.94090253,-2.2155797\H,-4.0797652,5.8243672,-1.52544636\Cl,-
 3.1402348,7.71929805,-2.63680375\Cl,-4.5025096,7.71136425,-0.12868971\
 \Version=ES64L-G16RevC.01\HF=0.1114842\S2=2.325177\S2-1=0.\S2A=2.05437
 3\RMSD=7.453e-09\RMSF=7.392e-03\Dipole=-0.3289647,-0.0943118,0.2037054
 \Quadrupole=2.2563155,0.3847206,-2.6410361,0.0335322,-0.0729393,-2.578
 3865\PG=C01 [X(C23H38Cl30)]\\@
 The archive entry for this job was punched.


 THERE'S NOTHING WRONG WITH FOLLOWING A TRAIN OF THOUGHT...
 AS LONG AS IT ULTIMATELY PULLS INTO THE STATION.
 Job cpu time:       0 days  0 hours  4 minutes 20.0 seconds.
 Elapsed time:       0 days  0 hours  0 minutes 10.6 seconds.
 File lengths (MBytes):  RWF=    104 Int=      0 D2E=      0 Chk=     34 Scr=      1
 Normal termination of Gaussian 16 at Fri Jul 12 22:47:41 2024.
