 Entering Gaussian System, Link 0=g16
 Input=JOBS/7_A.gjf
 Output=JOBS/7_A.log
 Initial command:
 /data/app/gaussian/C01-avx2//g16/l1.exe "/tmp/Gau-1767645.inp" -scrdir="/tmp/"
 Entering Link 1 = /data/app/gaussian/C01-avx2//g16/l1.exe PID=   1767646.
  
 Copyright (c) 1988-2019, Gaussian, Inc.  All Rights Reserved.
  
 This is part of the Gaussian(R) 16 program.  It is based on
 the Gaussian(R) 09 system (copyright 2009, Gaussian, Inc.),
 the Gaussian(R) 03 system (copyright 2003, Gaussian, Inc.),
 the Gaussian(R) 98 system (copyright 1998, Gaussian, Inc.),
 the Gaussian(R) 94 system (copyright 1995, Gaussian, Inc.),
 the Gaussian 92(TM) system (copyright 1992, Gaussian, Inc.),
 the Gaussian 90(TM) system (copyright 1990, Gaussian, Inc.),
 the Gaussian 88(TM) system (copyright 1988, Gaussian, Inc.),
 the Gaussian 86(TM) system (copyright 1986, Carnegie Mellon
 University), and the Gaussian 82(TM) system (copyright 1983,
 Carnegie Mellon University). Gaussian is a federally registered
 trademark of Gaussian, Inc.
  
 This software contains proprietary and confidential information,
 including trade secrets, belonging to Gaussian, Inc.
  
 This software is provided under written license and may be
 used, copied, transmitted, or stored only in accord with that
 written license.
  
 The following legend is applicable only to US Government
 contracts under FAR:
  
                    RESTRICTED RIGHTS LEGEND
  
 Use, reproduction and disclosure by the US Government is
 subject to restrictions as set forth in subparagraphs (a)
 and (c) of the Commercial Computer Software - Restricted
 Rights clause in FAR 52.227-19.
  
 Gaussian, Inc.
 340 Quinnipiac St., Bldg. 40, Wallingford CT 06492
  
  
 ---------------------------------------------------------------
 Warning -- This program may not be used in any manner that
 competes with the business of Gaussian, Inc. or will provide
 assistance to any competitor of Gaussian, Inc.  The licensee
 of this program is prohibited from giving any competitor of
 Gaussian, Inc. access to this program.  By using this program,
 the user acknowledges that Gaussian, Inc. is engaged in the
 business of creating and licensing software in the field of
 computational chemistry and represents and warrants to the
 licensee that it is not a competitor of Gaussian, Inc. and that
 it will not use this program in any manner prohibited above.
 ---------------------------------------------------------------
  

 Cite this work as:
 Gaussian 16, Revision C.01,
 M. J. Frisch, G. W. Trucks, H. B. Schlegel, G. E. Scuseria, 
 M. A. Robb, J. R. Cheeseman, G. Scalmani, V. Barone, 
 G. A. Petersson, H. Nakatsuji, X. Li, M. Caricato, A. V. Marenich, 
 J. Bloino, B. G. Janesko, R. Gomperts, B. Mennucci, H. P. Hratchian, 
 J. V. Ortiz, A. F. Izmaylov, J. L. Sonnenberg, D. Williams-Young, 
 F. Ding, F. Lipparini, F. Egidi, J. Goings, B. Peng, A. Petrone, 
 T. Henderson, D. Ranasinghe, V. G. Zakrzewski, J. Gao, N. Rega, 
 G. Zheng, W. Liang, M. Hada, M. Ehara, K. Toyota, R. Fukuda, 
 J. Hasegawa, M. Ishida, T. Nakajima, Y. Honda, O. Kitao, H. Nakai, 
 T. Vreven, K. Throssell, J. A. Montgomery, Jr., J. E. Peralta, 
 F. Ogliaro, M. J. Bearpark, J. J. Heyd, E. N. Brothers, K. N. Kudin, 
 V. N. Staroverov, T. A. Keith, R. Kobayashi, J. Normand, 
 K. Raghavachari, A. P. Rendell, J. C. Burant, S. S. Iyengar, 
 J. Tomasi, M. Cossi, J. M. Millam, M. Klene, C. Adamo, R. Cammi, 
 J. W. Ochterski, R. L. Martin, K. Morokuma, O. Farkas, 
 J. B. Foresman, and D. J. Fox, Gaussian, Inc., Wallingford CT, 2019.
 
 ******************************************
 Gaussian 16:  ES64L-G16RevC.01  3-Jul-2019
                12-Jul-2024 
 ******************************************
 %chk=a.chk
 %nprocshared=28
 Will use up to   28 processors via shared memory.
 %mem=48gb
 ----------------------------------------------------------------------
 # scf=(xqc,maxcycle=64) force guess=read oniom(td/b3lyp/em=gd3bj/6-31g
 (d):pm6) nosymm
 ----------------------------------------------------------------------
 1/10=7,30=1,38=1,52=2/1,3;
 2/12=2,15=1,17=6,18=5,40=1/2;
 1/10=7,30=1,38=1,52=2,53=3172/20;
 3/5=2,25=1,41=3900000,71=1,116=-2/1,2,3;
 4/5=1,35=1/1;
 5/5=2,7=64,8=3,13=1,35=1,38=6/2,8;
 6/7=2,8=2,9=2,10=2,28=1/1;
 7/7=1,30=1,33=-1/1,2,3,16;
 1/10=7,30=1,52=2,53=2032/20;
 3/5=1,6=6,7=1,11=9,25=1,30=1,71=1,74=-5,116=-2,124=41/1,2,3,8;
 4/5=1/1;
 5/5=2,7=64,8=3,13=1,38=6/2,8;
 8/6=1,10=2/1;
 9/15=2,42=1,70=2/14;
 10/5=4,31=1/2;
 6/7=2,8=2,9=2,10=2,18=1/1;
 7/7=1,12=6,13=5,30=1,33=-1/1,2,3,16;
 1/10=7,30=1,52=2,53=1022/20;
 3/5=2,25=1,41=3900000,71=1,116=-2/1,2,3;
 4/5=1,35=1/1;
 5/5=2,7=64,8=3,13=1,35=1,38=6/2,8;
 6/7=2,8=2,9=2,10=2,28=1/1;
 7/7=1,30=1,33=-1/1,2,3,16;
 1/10=7,30=1,52=2,53=3015/20;
 7/9=1,29=1,44=-1,126=2/16;
 1/10=7,30=1,52=2/3;
 99//99;
 ONIOM: restoring gridpoint  3 on chk file.
 ----------
 Title Card
 ----------
 Symbolic Z-matrix:
 Charge =  0 Multiplicity = 1 for low   level calculation on real  system.
 Charge =  0 Multiplicity = 1 for high  level calculation on model system.
 Charge =  0 Multiplicity = 1 for low   level calculation on model system.
 c                     0.55321  -0.17588  -0.1806   h 
 c                    -0.0859   -1.29436   0.41565  h 
 c                    -0.2704    0.87878  -0.6529   h 
 c                    -1.45728  -1.35722   0.52572  h 
 h                     0.53674  -2.10915   0.78068  h 
 c                     1.97318  -0.14617  -0.30899  h 
 c                    -1.64822   0.81487  -0.51637  h 
 h                     0.18293   1.74909  -1.12134  h 
 c                    -2.2554   -0.30444   0.05621  h 
 h                    -1.91819  -2.22666   0.98825  h 
 c                     2.68598   0.89326  -1.00349  h 
 h                     2.52692  -0.99303   0.10271  h 
 h                    -2.26175   1.64545  -0.85931  h 
 h                    -3.33827  -0.36184   0.13384  h 
 h                     3.62163   1.30011  -0.62799  h 
 h                     2.33303   1.2856   -1.95569  h 
 c                     4.97674   0.55645   1.9925   l 
 h                     5.26058   1.14517   1.09491  l 
 h                     3.97976   0.86256   2.37249  l 
 cl                    6.18889   0.77238   3.25329  l 
 cl                    4.93585  -1.16986   1.57033  l 
 c                     5.72593  -1.06693  -1.56127  l 
 h                     4.64879  -1.11657  -1.29314  l 
 h                     6.33743  -1.6691   -0.85823  l 
 cl                    6.27302   0.61929  -1.51816  l 
 cl                    5.95744  -1.65525  -3.21162  l 
 c                     2.10966   3.18355   1.54431  l 
 h                     1.83793   2.14392   1.25591  l 
 h                     1.36085   3.90669   1.15427  l 
 cl                    3.71481   3.58246   0.90711  l 
 cl                    2.20728   3.31379   3.30774  l 
 c                    -2.25644   0.81184   3.48416  l 
 h                    -1.88902  -0.2352    3.51965  l 
 h                    -2.20353   1.29014   4.48509  l 
 cl                   -3.93025   0.83042   2.90262  l 
 cl                   -1.28116   1.73289   2.32677  l 
 c                    -1.04636   4.55567   4.57443  l 
 h                    -0.37707   5.43018   4.69705  l 
 h                    -0.87964   4.06967   3.58963  l 
 cl                   -2.73063   5.05978   4.71873  l 
 cl                   -0.72712   3.38464   5.87276  l 
 c                     4.43426   1.0816   -4.44362  l 
 h                     3.87978   0.26876  -3.92738  l 
 h                     5.52943   0.91049  -4.37435  l 
 cl                    4.03448   2.64583  -3.70313  l 
 cl                    3.93542   1.16709  -6.13721  l 
 c                    -5.42621   1.96455  -0.38758  l 
 h                    -6.32064   1.39095  -0.07167  l 
 h                    -4.63443   1.92717   0.3907   l 
 cl                   -5.88426   3.64804  -0.68287  l 
 cl                   -4.81178   1.29165  -1.90411  l 
 c                    -1.59246   0.98387  -4.09026  l 
 h                    -1.92316   1.29888  -5.10129  l 
 h                    -2.14664   1.53055  -3.29584  l 
 cl                    0.14687   1.30247  -3.91812  l 
 cl                   -1.83512  -0.75677  -3.89835  l 
 c                    -1.41236   5.89471   0.7579   l 
 h                    -1.0492    6.122    -0.26808  l 
 h                    -2.29289   6.51733   1.01972  l 
 cl                   -0.10494   6.1984    1.91726  l 
 cl                   -1.84098   4.17887   0.88823  l 
 c                     1.10932   0.33263   4.94476  l 
 h                     0.73246   1.3333    4.64299  l 
 h                     1.95578   0.42503   5.6546   l 
 cl                    1.63215  -0.56209   3.51202  l 
 cl                   -0.20011  -0.58411   5.70677  l 
 c                     1.06687  -2.17016  -3.02846  l 
 h                     0.19043  -2.76358  -3.35573  l 
 h                     0.74802  -1.16402  -2.6767   l 
 cl                    2.21103  -2.00826  -4.3667   l 
 cl                    1.90266  -3.02653  -1.71897  l 
 c                     1.8714    3.92635  -5.94902  l 
 h                     2.84164   3.81637  -6.47565  l 
 h                     1.77673   3.15873  -5.15388  l 
 cl                    1.76868   5.5466   -5.23139  l 
 cl                    0.53633   3.76921  -7.09283  l 
 c                    -1.52035   4.62889  -3.68242  l 
 h                    -0.5381    4.22939  -4.01132  l 
 h                    -1.53563   5.73702  -3.74166  l 
 cl                   -2.80958   3.96409  -4.69409  l 
 cl                   -1.83427   4.12309  -2.00884  l 
 c                     2.15521   5.97409  -1.62403  l 
 h                     2.77189   5.93353  -2.54528  l 
 h                     2.79474   5.93865  -0.71835  l 
 cl                    1.1832    7.45052  -1.62139  l 
 cl                    1.01982   4.61028  -1.60923  l 
 c                    -4.37731   6.88165  -1.68625  l 
 h                    -5.34952   6.93947  -2.21575  l 
 h                    -4.07843   5.82301  -1.52825  l 
 cl                   -3.14102   7.72174  -2.6344   l 
 cl                   -4.50423   7.70556  -0.12656  l 
 

 GradGradGradGradGradGradGradGradGradGradGradGradGradGradGradGradGradGrad
 Berny optimization.
 Initialization pass.
 Trust Radius=3.00D-01 FncErr=1.00D-07 GrdErr=1.00D-07 EigMax=2.50D+02 EigMin=1.00D-04
 Number of steps in this run=      2 maximum allowed number of steps=      2.
 GradGradGradGradGradGradGradGradGradGradGradGradGradGradGradGradGradGrad

 Symmetry turned off by external request.
 Stoichiometry    C23H38Cl30
 Framework group  C1[X(C23H38Cl30)]
 Deg. of freedom   267
 Full point group                 C1      NOp   1
                          Input orientation:                          
 ---------------------------------------------------------------------
 Center     Atomic      Atomic             Coordinates (Angstroms)
 Number     Number       Type             X           Y           Z
 ---------------------------------------------------------------------
      1          6           0        0.553211   -0.175883   -0.180596
      2          6           0       -0.085899   -1.294359    0.415655
      3          6           0       -0.270402    0.878778   -0.652896
      4          6           0       -1.457284   -1.357224    0.525723
      5          1           0        0.536743   -2.109150    0.780679
      6          6           0        1.973180   -0.146167   -0.308992
      7          6           0       -1.648224    0.814866   -0.516365
      8          1           0        0.182927    1.749087   -1.121345
      9          6           0       -2.255404   -0.304438    0.056214
     10          1           0       -1.918192   -2.226656    0.988253
     11          6           0        2.685976    0.893258   -1.003493
     12          1           0        2.526920   -0.993029    0.102712
     13          1           0       -2.261752    1.645453   -0.859311
     14          1           0       -3.338272   -0.361837    0.133838
     15          1           0        3.621625    1.300110   -0.627985
     16          1           0        2.333032    1.285604   -1.955685
     17          6           0        4.976742    0.556449    1.992501
     18          1           0        5.260576    1.145165    1.094911
     19          1           0        3.979762    0.862563    2.372494
     20         17           0        6.188886    0.772376    3.253292
     21         17           0        4.935846   -1.169862    1.570330
     22          6           0        5.725929   -1.066927   -1.561274
     23          1           0        4.648792   -1.116573   -1.293141
     24          1           0        6.337427   -1.669100   -0.858229
     25         17           0        6.273017    0.619289   -1.518158
     26         17           0        5.957437   -1.655246   -3.211620
     27          6           0        2.109663    3.183551    1.544312
     28          1           0        1.837930    2.143924    1.255906
     29          1           0        1.360850    3.906693    1.154272
     30         17           0        3.714814    3.582465    0.907109
     31         17           0        2.207282    3.313788    3.307741
     32          6           0       -2.256436    0.811843    3.484165
     33          1           0       -1.889023   -0.235203    3.519652
     34          1           0       -2.203528    1.290142    4.485095
     35         17           0       -3.930252    0.830423    2.902619
     36         17           0       -1.281157    1.732888    2.326774
     37          6           0       -1.046361    4.555673    4.574428
     38          1           0       -0.377067    5.430184    4.697049
     39          1           0       -0.879640    4.069665    3.589631
     40         17           0       -2.730629    5.059779    4.718726
     41         17           0       -0.727117    3.384644    5.872764
     42          6           0        4.434264    1.081596   -4.443620
     43          1           0        3.879781    0.268762   -3.927384
     44          1           0        5.529432    0.910487   -4.374346
     45         17           0        4.034475    2.645835   -3.703127
     46         17           0        3.935417    1.167093   -6.137206
     47          6           0       -5.426205    1.964545   -0.387582
     48          1           0       -6.320637    1.390953   -0.071672
     49          1           0       -4.634427    1.927169    0.390703
     50         17           0       -5.884258    3.648042   -0.682868
     51         17           0       -4.811777    1.291647   -1.904111
     52          6           0       -1.592461    0.983871   -4.090262
     53          1           0       -1.923158    1.298883   -5.101289
     54          1           0       -2.146641    1.530554   -3.295840
     55         17           0        0.146870    1.302473   -3.918118
     56         17           0       -1.835119   -0.756767   -3.898350
     57          6           0       -1.412361    5.894708    0.757896
     58          1           0       -1.049201    6.122004   -0.268076
     59          1           0       -2.292887    6.517326    1.019721
     60         17           0       -0.104939    6.198398    1.917259
     61         17           0       -1.840981    4.178868    0.888232
     62          6           0        1.109322    0.332635    4.944755
     63          1           0        0.732463    1.333300    4.642993
     64          1           0        1.955778    0.425034    5.654596
     65         17           0        1.632149   -0.562091    3.512016
     66         17           0       -0.200113   -0.584106    5.706766
     67          6           0        1.066867   -2.170157   -3.028456
     68          1           0        0.190433   -2.763584   -3.355727
     69          1           0        0.748017   -1.164017   -2.676700
     70         17           0        2.211029   -2.008261   -4.366699
     71         17           0        1.902658   -3.026530   -1.718974
     72          6           0        1.871402    3.926349   -5.949021
     73          1           0        2.841639    3.816370   -6.475650
     74          1           0        1.776729    3.158727   -5.153884
     75         17           0        1.768684    5.546601   -5.231388
     76         17           0        0.536329    3.769206   -7.092835
     77          6           0       -1.520349    4.628893   -3.682419
     78          1           0       -0.538096    4.229391   -4.011323
     79          1           0       -1.535634    5.737020   -3.741657
     80         17           0       -2.809578    3.964086   -4.694089
     81         17           0       -1.834266    4.123094   -2.008841
     82          6           0        2.155211    5.974086   -1.624027
     83          1           0        2.771891    5.933529   -2.545275
     84          1           0        2.794739    5.938651   -0.718353
     85         17           0        1.183205    7.450519   -1.621386
     86         17           0        1.019817    4.610277   -1.609227
     87          6           0       -4.377309    6.881652   -1.686254
     88          1           0       -5.349521    6.939471   -2.215750
     89          1           0       -4.078427    5.823010   -1.528250
     90         17           0       -3.141016    7.721742   -2.634401
     91         17           0       -4.504225    7.705559   -0.126564
 ---------------------------------------------------------------------
 Rotational constants (GHZ):           0.0226064           0.0200466           0.0153350
 ONIOM: saving gridpoint 17
 ONIOM: restoring gridpoint  3 on chk file.
 ONIOM: generating point  3 -- low level on real system.
 Standard basis: VSTO-6G (5D, 7F)
   400 basis functions,  2580 primitive gaussians,   430 cartesian basis functions
   170 alpha electrons      170 beta electrons
       nuclear repulsion energy      5299.4490435707 Hartrees.
 Integral buffers will be    131072 words long.
 Regular integral format.
 Two-electron integral symmetry is turned off.
 Do NDO integrals.
 One-electron integrals computed using PRISM.
 NBasis=   400 RedAO= F EigKep=  0.00D+00  NBF=   400
 NBsUse=   400 1.00D-04 EigRej=  0.00D+00 NBFU=   400
 Initial guess from the checkpoint file:  "a.chk"
 B after Tr=    -0.000374   -0.000419   -0.000705
         Rot=    1.000000   -0.000026    0.000018   -0.000012 Ang=  -0.00 deg.
 Initial guess <Sx>= 0.0000 <Sy>= 0.0000 <Sz>= 0.0000 <S**2>=-0.0000 S=-0.0000
 Keep J ints in memory in canonical form, NReq=3161508.
 Overlap will be assumed to be unity.
 Requested convergence on RMS density matrix=1.00D-08 within  64 cycles.
 Requested convergence on MAX density matrix=1.00D-06.
 Requested convergence on             energy=1.00D-06.
 No special actions if energy rises.
 SCF Done:  E(UPM6) = -0.404305672495     A.U. after   12 cycles
            NFock= 11  Conv=0.66D-08     -V/T= 0.9994
 <Sx>= 0.0000 <Sy>= 0.0000 <Sz>= 0.0000 <S**2>=-0.0000 S=-0.0000
 <L.S>=  0.00000000000    
 Annihilation of the first spin contaminant:
 S**2 before annihilation    -0.0000,   after    -0.0000
 QCSCF skips out because SCF is already converged.

 **********************************************************************

            Population analysis using the SCF Density.

 **********************************************************************

 Alpha  occ. eigenvalues --   -1.11211  -1.05617  -1.05312  -1.05261  -1.05173
 Alpha  occ. eigenvalues --   -1.05138  -1.05130  -1.04943  -1.04875  -1.04793
 Alpha  occ. eigenvalues --   -1.04751  -1.04696  -1.04477  -1.04460  -1.04339
 Alpha  occ. eigenvalues --   -1.04100  -1.01737  -0.98590  -0.98281  -0.98194
 Alpha  occ. eigenvalues --   -0.98141  -0.98098  -0.97957  -0.97939  -0.97816
 Alpha  occ. eigenvalues --   -0.97768  -0.97756  -0.97636  -0.97404  -0.97346
 Alpha  occ. eigenvalues --   -0.97244  -0.97221  -0.96990  -0.92257  -0.88766
 Alpha  occ. eigenvalues --   -0.88681  -0.88583  -0.88391  -0.88361  -0.88257
 Alpha  occ. eigenvalues --   -0.88209  -0.88119  -0.88094  -0.88012  -0.87889
 Alpha  occ. eigenvalues --   -0.87661  -0.87556  -0.87505  -0.87208  -0.82601
 Alpha  occ. eigenvalues --   -0.79184  -0.72884  -0.65416  -0.62705  -0.62374
 Alpha  occ. eigenvalues --   -0.62115  -0.61859  -0.61665  -0.61538  -0.61492
 Alpha  occ. eigenvalues --   -0.61311  -0.61258  -0.61151  -0.61055  -0.60906
 Alpha  occ. eigenvalues --   -0.60364  -0.60299  -0.60119  -0.60042  -0.59993
 Alpha  occ. eigenvalues --   -0.59765  -0.59606  -0.59524  -0.59449  -0.59358
 Alpha  occ. eigenvalues --   -0.59261  -0.59201  -0.59107  -0.58984  -0.58939
 Alpha  occ. eigenvalues --   -0.58738  -0.58596  -0.58548  -0.58487  -0.58325
 Alpha  occ. eigenvalues --   -0.58238  -0.58035  -0.57773  -0.57725  -0.57703
 Alpha  occ. eigenvalues --   -0.57656  -0.57582  -0.57512  -0.57502  -0.57402
 Alpha  occ. eigenvalues --   -0.57239  -0.57097  -0.57056  -0.56888  -0.56771
 Alpha  occ. eigenvalues --   -0.55190  -0.53393  -0.52213  -0.51029  -0.49662
 Alpha  occ. eigenvalues --   -0.46184  -0.45325  -0.45066  -0.44772  -0.44255
 Alpha  occ. eigenvalues --   -0.44230  -0.44090  -0.43999  -0.43931  -0.43834
 Alpha  occ. eigenvalues --   -0.43754  -0.43693  -0.43601  -0.43485  -0.43459
 Alpha  occ. eigenvalues --   -0.43419  -0.43406  -0.43384  -0.43316  -0.43284
 Alpha  occ. eigenvalues --   -0.43222  -0.43146  -0.43118  -0.43045  -0.42973
 Alpha  occ. eigenvalues --   -0.42891  -0.42866  -0.42793  -0.42754  -0.42625
 Alpha  occ. eigenvalues --   -0.42585  -0.42472  -0.42387  -0.42312  -0.42104
 Alpha  occ. eigenvalues --   -0.41999  -0.41896  -0.41883  -0.41781  -0.41777
 Alpha  occ. eigenvalues --   -0.41712  -0.41682  -0.41621  -0.41595  -0.41470
 Alpha  occ. eigenvalues --   -0.41344  -0.41287  -0.41275  -0.41227  -0.41212
 Alpha  occ. eigenvalues --   -0.41144  -0.41127  -0.41052  -0.41027  -0.40887
 Alpha  occ. eigenvalues --   -0.40867  -0.40752  -0.40602  -0.40576  -0.40510
 Alpha  occ. eigenvalues --   -0.40361  -0.40318  -0.39611  -0.36935  -0.32844
 Alpha virt. eigenvalues --   -0.03660  -0.01267  -0.00953  -0.00917  -0.00861
 Alpha virt. eigenvalues --   -0.00651  -0.00627  -0.00572  -0.00526  -0.00471
 Alpha virt. eigenvalues --   -0.00463  -0.00453  -0.00387  -0.00364  -0.00266
 Alpha virt. eigenvalues --   -0.00246  -0.00238  -0.00231  -0.00201  -0.00189
 Alpha virt. eigenvalues --   -0.00164  -0.00126  -0.00066  -0.00009   0.00053
 Alpha virt. eigenvalues --    0.00376   0.00396   0.00446   0.00459   0.00501
 Alpha virt. eigenvalues --    0.00609   0.00699   0.02641   0.08931   0.14209
 Alpha virt. eigenvalues --    0.14302   0.14460   0.14579   0.14697   0.14787
 Alpha virt. eigenvalues --    0.14867   0.14945   0.14996   0.15036   0.15081
 Alpha virt. eigenvalues --    0.15127   0.15157   0.15163   0.15266   0.15365
 Alpha virt. eigenvalues --    0.15431   0.15442   0.15513   0.15584   0.15619
 Alpha virt. eigenvalues --    0.15739   0.15777   0.15861   0.15925   0.15938
 Alpha virt. eigenvalues --    0.15977   0.15982   0.16097   0.16365   0.16405
 Alpha virt. eigenvalues --    0.16418   0.16726   0.17030   0.17246   0.17954
 Alpha virt. eigenvalues --    0.18578   0.19321   0.19846   0.20416   0.21130
 Alpha virt. eigenvalues --    0.21310   0.21607   0.21820   0.22174   0.22316
 Alpha virt. eigenvalues --    3.16351   3.16800   3.17331   3.17928   3.18115
 Alpha virt. eigenvalues --    3.18361   3.18629   3.18711   3.18959   3.19087
 Alpha virt. eigenvalues --    3.19096   3.19277   3.19317   3.19541   3.19630
 Alpha virt. eigenvalues --    3.19645   3.19695   3.19832   3.19904   3.19992
 Alpha virt. eigenvalues --    3.20021   3.20183   3.20271   3.20305   3.20437
 Alpha virt. eigenvalues --    3.20479   3.20545   3.20558   3.20622   3.20667
 Alpha virt. eigenvalues --    3.20711   3.20827   3.20878   3.20973   3.21006
 Alpha virt. eigenvalues --    3.21061   3.21117   3.21162   3.21194   3.21237
 Alpha virt. eigenvalues --    3.21417   3.21453   3.21568   3.21723   3.21846
 Alpha virt. eigenvalues --    3.21977   3.22064   3.22132   3.22177   3.22324
 Alpha virt. eigenvalues --    3.22439   3.22510   3.22524   3.22606   3.22738
 Alpha virt. eigenvalues --    3.22801   3.22950   3.23006   3.23148   3.23186
 Alpha virt. eigenvalues --    3.23190   3.23306   3.23376   3.23427   3.23485
 Alpha virt. eigenvalues --    3.23512   3.23582   3.23664   3.23749   3.23792
 Alpha virt. eigenvalues --    3.23852   3.23960   3.23978   3.24003   3.24099
 Alpha virt. eigenvalues --    3.24137   3.24148   3.24247   3.24288   3.24321
 Alpha virt. eigenvalues --    3.24383   3.24487   3.24492   3.24546   3.24648
 Alpha virt. eigenvalues --    3.24668   3.24729   3.24817   3.24861   3.24952
 Alpha virt. eigenvalues --    3.24968   3.25037   3.25071   3.25089   3.25116
 Alpha virt. eigenvalues --    3.25151   3.25308   3.25393   3.25465   3.25518
 Alpha virt. eigenvalues --    3.25554   3.25689   3.25746   3.25773   3.25864
 Alpha virt. eigenvalues --    3.25893   3.25927   3.25999   3.26120   3.26224
 Alpha virt. eigenvalues --    3.26305   3.26341   3.26426   3.26469   3.26789
 Alpha virt. eigenvalues --    3.26847   3.26907   3.27020   3.27038   3.27166
 Alpha virt. eigenvalues --    3.27256   3.27343   3.27394   3.27400   3.27478
 Alpha virt. eigenvalues --    3.27550   3.27644   3.27738   3.27760   3.27842
 Alpha virt. eigenvalues --    3.27876   3.27956   3.28157   3.28166   3.28218
 Alpha virt. eigenvalues --    3.28283   3.28393   3.28479   3.28562   3.28601
 Alpha virt. eigenvalues --    3.28650   3.28694   3.28739   3.28843   3.28944
 Alpha virt. eigenvalues --    3.29153   3.29277   3.29366   3.29713   3.29957
  Beta  occ. eigenvalues --   -1.11211  -1.05617  -1.05312  -1.05261  -1.05173
  Beta  occ. eigenvalues --   -1.05138  -1.05130  -1.04943  -1.04875  -1.04793
  Beta  occ. eigenvalues --   -1.04751  -1.04696  -1.04477  -1.04460  -1.04339
  Beta  occ. eigenvalues --   -1.04100  -1.01737  -0.98590  -0.98281  -0.98194
  Beta  occ. eigenvalues --   -0.98141  -0.98098  -0.97957  -0.97939  -0.97816
  Beta  occ. eigenvalues --   -0.97768  -0.97756  -0.97636  -0.97404  -0.97346
  Beta  occ. eigenvalues --   -0.97244  -0.97221  -0.96990  -0.92257  -0.88766
  Beta  occ. eigenvalues --   -0.88681  -0.88583  -0.88391  -0.88361  -0.88257
  Beta  occ. eigenvalues --   -0.88209  -0.88119  -0.88094  -0.88012  -0.87889
  Beta  occ. eigenvalues --   -0.87661  -0.87556  -0.87505  -0.87208  -0.82601
  Beta  occ. eigenvalues --   -0.79184  -0.72884  -0.65416  -0.62705  -0.62374
  Beta  occ. eigenvalues --   -0.62115  -0.61859  -0.61665  -0.61538  -0.61492
  Beta  occ. eigenvalues --   -0.61311  -0.61258  -0.61151  -0.61055  -0.60906
  Beta  occ. eigenvalues --   -0.60364  -0.60299  -0.60119  -0.60042  -0.59993
  Beta  occ. eigenvalues --   -0.59765  -0.59606  -0.59524  -0.59449  -0.59358
  Beta  occ. eigenvalues --   -0.59261  -0.59201  -0.59107  -0.58984  -0.58939
  Beta  occ. eigenvalues --   -0.58738  -0.58596  -0.58548  -0.58487  -0.58325
  Beta  occ. eigenvalues --   -0.58238  -0.58035  -0.57773  -0.57725  -0.57703
  Beta  occ. eigenvalues --   -0.57656  -0.57582  -0.57512  -0.57502  -0.57402
  Beta  occ. eigenvalues --   -0.57239  -0.57097  -0.57056  -0.56888  -0.56771
  Beta  occ. eigenvalues --   -0.55190  -0.53393  -0.52213  -0.51029  -0.49662
  Beta  occ. eigenvalues --   -0.46184  -0.45325  -0.45066  -0.44772  -0.44255
  Beta  occ. eigenvalues --   -0.44230  -0.44090  -0.43999  -0.43931  -0.43834
  Beta  occ. eigenvalues --   -0.43754  -0.43693  -0.43601  -0.43485  -0.43459
  Beta  occ. eigenvalues --   -0.43419  -0.43406  -0.43384  -0.43316  -0.43284
  Beta  occ. eigenvalues --   -0.43222  -0.43146  -0.43118  -0.43045  -0.42973
  Beta  occ. eigenvalues --   -0.42891  -0.42866  -0.42793  -0.42754  -0.42625
  Beta  occ. eigenvalues --   -0.42585  -0.42472  -0.42387  -0.42312  -0.42104
  Beta  occ. eigenvalues --   -0.41999  -0.41896  -0.41883  -0.41781  -0.41777
  Beta  occ. eigenvalues --   -0.41712  -0.41682  -0.41621  -0.41595  -0.41470
  Beta  occ. eigenvalues --   -0.41344  -0.41287  -0.41275  -0.41227  -0.41212
  Beta  occ. eigenvalues --   -0.41144  -0.41127  -0.41052  -0.41027  -0.40887
  Beta  occ. eigenvalues --   -0.40867  -0.40752  -0.40602  -0.40576  -0.40510
  Beta  occ. eigenvalues --   -0.40361  -0.40318  -0.39611  -0.36935  -0.32844
  Beta virt. eigenvalues --   -0.03660  -0.01267  -0.00953  -0.00917  -0.00861
  Beta virt. eigenvalues --   -0.00651  -0.00627  -0.00572  -0.00526  -0.00471
  Beta virt. eigenvalues --   -0.00463  -0.00453  -0.00387  -0.00364  -0.00266
  Beta virt. eigenvalues --   -0.00246  -0.00238  -0.00231  -0.00201  -0.00189
  Beta virt. eigenvalues --   -0.00164  -0.00126  -0.00066  -0.00009   0.00053
  Beta virt. eigenvalues --    0.00376   0.00396   0.00446   0.00459   0.00501
  Beta virt. eigenvalues --    0.00609   0.00699   0.02641   0.08931   0.14209
  Beta virt. eigenvalues --    0.14302   0.14460   0.14579   0.14697   0.14787
  Beta virt. eigenvalues --    0.14867   0.14945   0.14996   0.15036   0.15081
  Beta virt. eigenvalues --    0.15127   0.15157   0.15163   0.15266   0.15365
  Beta virt. eigenvalues --    0.15431   0.15442   0.15513   0.15584   0.15619
  Beta virt. eigenvalues --    0.15739   0.15777   0.15861   0.15925   0.15938
  Beta virt. eigenvalues --    0.15977   0.15982   0.16097   0.16365   0.16405
  Beta virt. eigenvalues --    0.16418   0.16726   0.17030   0.17246   0.17954
  Beta virt. eigenvalues --    0.18578   0.19321   0.19846   0.20416   0.21130
  Beta virt. eigenvalues --    0.21310   0.21607   0.21820   0.22174   0.22316
  Beta virt. eigenvalues --    3.16351   3.16800   3.17331   3.17928   3.18115
  Beta virt. eigenvalues --    3.18361   3.18629   3.18711   3.18959   3.19087
  Beta virt. eigenvalues --    3.19096   3.19277   3.19317   3.19541   3.19630
  Beta virt. eigenvalues --    3.19645   3.19695   3.19832   3.19904   3.19992
  Beta virt. eigenvalues --    3.20021   3.20183   3.20271   3.20305   3.20437
  Beta virt. eigenvalues --    3.20479   3.20545   3.20558   3.20622   3.20667
  Beta virt. eigenvalues --    3.20711   3.20827   3.20878   3.20973   3.21006
  Beta virt. eigenvalues --    3.21061   3.21117   3.21162   3.21194   3.21237
  Beta virt. eigenvalues --    3.21417   3.21453   3.21568   3.21723   3.21846
  Beta virt. eigenvalues --    3.21977   3.22064   3.22132   3.22177   3.22324
  Beta virt. eigenvalues --    3.22439   3.22510   3.22524   3.22606   3.22738
  Beta virt. eigenvalues --    3.22801   3.22950   3.23006   3.23148   3.23186
  Beta virt. eigenvalues --    3.23190   3.23306   3.23376   3.23427   3.23485
  Beta virt. eigenvalues --    3.23512   3.23582   3.23664   3.23749   3.23792
  Beta virt. eigenvalues --    3.23852   3.23960   3.23978   3.24003   3.24099
  Beta virt. eigenvalues --    3.24137   3.24148   3.24247   3.24288   3.24321
  Beta virt. eigenvalues --    3.24383   3.24487   3.24492   3.24546   3.24648
  Beta virt. eigenvalues --    3.24668   3.24729   3.24817   3.24861   3.24952
  Beta virt. eigenvalues --    3.24968   3.25037   3.25071   3.25089   3.25116
  Beta virt. eigenvalues --    3.25151   3.25308   3.25393   3.25465   3.25518
  Beta virt. eigenvalues --    3.25554   3.25689   3.25746   3.25773   3.25864
  Beta virt. eigenvalues --    3.25893   3.25927   3.25999   3.26120   3.26224
  Beta virt. eigenvalues --    3.26305   3.26341   3.26426   3.26469   3.26789
  Beta virt. eigenvalues --    3.26847   3.26907   3.27020   3.27038   3.27166
  Beta virt. eigenvalues --    3.27256   3.27343   3.27394   3.27400   3.27478
  Beta virt. eigenvalues --    3.27550   3.27644   3.27738   3.27760   3.27842
  Beta virt. eigenvalues --    3.27876   3.27956   3.28157   3.28166   3.28218
  Beta virt. eigenvalues --    3.28283   3.28393   3.28479   3.28562   3.28601
  Beta virt. eigenvalues --    3.28650   3.28694   3.28739   3.28843   3.28944
  Beta virt. eigenvalues --    3.29153   3.29277   3.29366   3.29713   3.29957
          Condensed to atoms (all electrons):
          Atomic-Atomic Spin Densities.
 Mulliken charges and spin densities:
               1          2
     1  C   -0.015449   0.000000
     2  C   -0.141859   0.000000
     3  C   -0.148871   0.000000
     4  C   -0.157026   0.000000
     5  H    0.153346   0.000000
     6  C   -0.128580   0.000000
     7  C   -0.152184   0.000000
     8  H    0.155071   0.000000
     9  C   -0.117006   0.000000
    10  H    0.149234   0.000000
    11  C   -0.367163   0.000000
    12  H    0.156795   0.000000
    13  H    0.150995   0.000000
    14  H    0.145604   0.000000
    15  H    0.157352   0.000000
    16  H    0.162380   0.000000
    17  C   -0.139346   0.000000
    18  H    0.187915   0.000000
    19  H    0.186246   0.000000
    20  Cl  -0.094778   0.000000
    21  Cl  -0.140504   0.000000
    22  C   -0.144669   0.000000
    23  H    0.192847   0.000000
    24  H    0.191657   0.000000
    25  Cl  -0.127690   0.000000
    26  Cl  -0.111374   0.000000
    27  C   -0.143335   0.000000
    28  H    0.198317   0.000000
    29  H    0.196912   0.000000
    30  Cl  -0.126321   0.000000
    31  Cl  -0.126469   0.000000
    32  C   -0.128374   0.000000
    33  H    0.192323   0.000000
    34  H    0.191946   0.000000
    35  Cl  -0.130614   0.000000
    36  Cl  -0.123482   0.000000
    37  C   -0.137334   0.000000
    38  H    0.184797   0.000000
    39  H    0.194399   0.000000
    40  Cl  -0.101067   0.000000
    41  Cl  -0.142486   0.000000
    42  C   -0.132943   0.000000
    43  H    0.194032   0.000000
    44  H    0.195158   0.000000
    45  Cl  -0.141394   0.000000
    46  Cl  -0.114778   0.000000
    47  C   -0.141896   0.000000
    48  H    0.182962   0.000000
    49  H    0.191627   0.000000
    50  Cl  -0.117453   0.000000
    51  Cl  -0.114928   0.000000
    52  C   -0.126665   0.000000
    53  H    0.190337   0.000000
    54  H    0.195678   0.000000
    55  Cl  -0.141984   0.000000
    56  Cl  -0.117131   0.000000
    57  C   -0.138783   0.000000
    58  H    0.199118   0.000000
    59  H    0.193720   0.000000
    60  Cl  -0.134793   0.000000
    61  Cl  -0.113183   0.000000
    62  C   -0.145345   0.000000
    63  H    0.191457   0.000000
    64  H    0.186357   0.000000
    65  Cl  -0.112420   0.000000
    66  Cl  -0.120736   0.000000
    67  C   -0.132801   0.000000
    68  H    0.183890   0.000000
    69  H    0.198632   0.000000
    70  Cl  -0.116941   0.000000
    71  Cl  -0.133611   0.000000
    72  C   -0.139043   0.000000
    73  H    0.191367   0.000000
    74  H    0.189762   0.000000
    75  Cl  -0.137053   0.000000
    76  Cl  -0.106369   0.000000
    77  C   -0.143210   0.000000
    78  H    0.193023   0.000000
    79  H    0.194050   0.000000
    80  Cl  -0.120518   0.000000
    81  Cl  -0.126292   0.000000
    82  C   -0.144359   0.000000
    83  H    0.188812   0.000000
    84  H    0.188179   0.000000
    85  Cl  -0.107324   0.000000
    86  Cl  -0.129641   0.000000
    87  C   -0.149142   0.000000
    88  H    0.186201   0.000000
    89  H    0.193227   0.000000
    90  Cl  -0.116921   0.000000
    91  Cl  -0.112091   0.000000
 Sum of Mulliken charges =  -0.00000   0.00000
 Mulliken charges and spin densities with hydrogens summed into heavy atoms:
               1          2
     1  C   -0.015449   0.000000
     2  C    0.011487   0.000000
     3  C    0.006200   0.000000
     4  C   -0.007792   0.000000
     6  C    0.028215   0.000000
     7  C   -0.001189   0.000000
     9  C    0.028598   0.000000
    11  C   -0.047431   0.000000
    17  C    0.234814   0.000000
    20  Cl  -0.094778   0.000000
    21  Cl  -0.140504   0.000000
    22  C    0.239835   0.000000
    25  Cl  -0.127690   0.000000
    26  Cl  -0.111374   0.000000
    27  C    0.251895   0.000000
    30  Cl  -0.126321   0.000000
    31  Cl  -0.126469   0.000000
    32  C    0.255895   0.000000
    35  Cl  -0.130614   0.000000
    36  Cl  -0.123482   0.000000
    37  C    0.241861   0.000000
    40  Cl  -0.101067   0.000000
    41  Cl  -0.142486   0.000000
    42  C    0.256247   0.000000
    45  Cl  -0.141394   0.000000
    46  Cl  -0.114778   0.000000
    47  C    0.232693   0.000000
    50  Cl  -0.117453   0.000000
    51  Cl  -0.114928   0.000000
    52  C    0.259350   0.000000
    55  Cl  -0.141984   0.000000
    56  Cl  -0.117131   0.000000
    57  C    0.254055   0.000000
    60  Cl  -0.134793   0.000000
    61  Cl  -0.113183   0.000000
    62  C    0.232469   0.000000
    65  Cl  -0.112420   0.000000
    66  Cl  -0.120736   0.000000
    67  C    0.249721   0.000000
    70  Cl  -0.116941   0.000000
    71  Cl  -0.133611   0.000000
    72  C    0.242087   0.000000
    75  Cl  -0.137053   0.000000
    76  Cl  -0.106369   0.000000
    77  C    0.243864   0.000000
    80  Cl  -0.120518   0.000000
    81  Cl  -0.126292   0.000000
    82  C    0.232632   0.000000
    85  Cl  -0.107324   0.000000
    86  Cl  -0.129641   0.000000
    87  C    0.230286   0.000000
    90  Cl  -0.116921   0.000000
    91  Cl  -0.112091   0.000000
 Charge=             -0.0000 electrons
 Dipole moment (field-independent basis, Debye):
    X=             -0.9034    Y=             -0.2023    Z=              0.4906  Tot=              1.0477
 N-N= 5.299449043571D+03 E-N=-9.744097933614D+03  KE=-6.384490756557D+02
 Calling FoFJK, ICntrl=      2127 FMM=F ISym2X=0 I1Cent= 0 IOpClX= 1 NMat=1 NMatS=1 NMatT=0.
 Cartesian Forces:  Max     0.065092896 RMS     0.008753806
 SvSCFP is copying densities from files   528 and   530 to   603.
 ONIOM: saving gridpoint  3
 ONIOM: restoring gridpoint 17
 ONIOM: restoring gridpoint  2 on chk file.
 ONIOM: generating point  2 -- high level on model system.
 Standard basis: 6-31G(d) (6D, 7F)
   136 basis functions,   256 primitive gaussians,   136 cartesian basis functions
    28 alpha electrons       28 beta electrons
       nuclear repulsion energy       319.1374864071 Hartrees.
 NAtoms=   91 NActive=   16 NUniq=   16 SFac= 1.00D+00 NAtFMM=   60 NAOKFM=F Big=F
 Integral buffers will be    131072 words long.
 Regular integral format.
 Two-electron integral symmetry is turned off.
 Nuclear repulsion after empirical dispersion term =      319.1098603523 Hartrees.
 One-electron integrals computed using PRISM.
 NBasis=   136 RedAO= T EigKep=  4.73D-04  NBF=   136
 NBsUse=   136 1.00D-06 EigRej= -1.00D+00 NBFU=   136
 Initial guess from the checkpoint file:  "a.chk"
 B after Tr=     0.001702   -0.000173    0.000819
         Rot=    1.000000   -0.000267   -0.000206    0.000216 Ang=  -0.05 deg.
 Initial guess <Sx>= 0.0000 <Sy>= 0.0000 <Sz>= 0.0000 <S**2>=-0.0000 S=-0.0000
 Requested convergence on RMS density matrix=1.00D-08 within  64 cycles.
 Requested convergence on MAX density matrix=1.00D-06.
 Requested convergence on             energy=1.00D-06.
 No special actions if energy rises.
 SCF Done:  E(UB3LYP) =  -309.636418360     A.U. after    9 cycles
            NFock=  9  Conv=0.66D-08     -V/T= 2.0105
 <Sx>= 0.0000 <Sy>= 0.0000 <Sz>= 0.0000 <S**2>=-0.0000 S=-0.0000
 <L.S>=  0.00000000000    
 Annihilation of the first spin contaminant:
 S**2 before annihilation    -0.0000,   after    -0.0000
 QCSCF skips out because SCF is already converged.
 DoSCS=F DFT=T ScalE2(SS,OS)=  1.000000  1.000000
 ExpMin= 1.61D-01 ExpMax= 3.05D+03 ExpMxC= 4.57D+02 IAcc=3 IRadAn=         5 AccDes= 0.00D+00
 HarFok:  IExCor=  205 AccDes= 0.00D+00 IRadAn=         5 IDoV=-2 UseB2=F ITyADJ=14
 ICtDFT= 12500011 ScaDFX=  1.000000  1.000000  1.000000  1.000000
 Range of M.O.s used for correlation:     9   136
 NBasis=   136 NAE=    28 NBE=    28 NFC=     8 NFV=     0
 NROrb=    128 NOA=    20 NOB=    20 NVA=   108 NVB=   108
 Keep R1, R2, and R3 ints in memory in canonical form, NReq=183338682.
    12 initial guesses have been made.
 Convergence on wavefunction:    0.000001000000000
 Iteration     1 Dimension    12 NMult     0 NNew     12
 CISAX will form    12 AO SS matrices at one time.
 New state      2 was old state      3
 New state      3 was old state      7
 Iteration     2 Dimension    18 NMult    12 NNew      6
 New state      2 was old state      3
 New state      3 was old state      2
 Iteration     3 Dimension    24 NMult    18 NNew      6
 Iteration     4 Dimension    30 NMult    24 NNew      6
 Iteration     5 Dimension    36 NMult    30 NNew      6
 Iteration     6 Dimension    42 NMult    36 NNew      6
 Iteration     7 Dimension    48 NMult    42 NNew      6
 Iteration     8 Dimension    54 NMult    48 NNew      6
 Iteration     9 Dimension    58 NMult    54 NNew      4
 ***********************************************************************
 Excited states from <AA,BB:AA,BB> singles matrix:
 ***********************************************************************
 
 ExtSpn:  IState=     1 X2= 1.371 Y2= 0.371 X2-Y2-1=-5.55D-16
          S2Grnd= -0.000 Ra=  0.500 Rb=  0.500 T=  1.000 S2Ext=  2.000 S2=  2.000
 ExtSpn:  IState=     2 X2= 1.026 Y2= 0.026 X2-Y2-1=-4.44D-16
          S2Grnd= -0.000 Ra=  0.500 Rb=  0.500 T=  1.000 S2Ext=  2.000 S2=  2.000
 ExtSpn:  IState=     3 X2= 1.007 Y2= 0.007 X2-Y2-1= 4.44D-16
          S2Grnd= -0.000 Ra=  0.500 Rb=  0.500 T=  1.000 S2Ext=  2.000 S2=  2.000
 Ground to excited state transition densities written to RWF  633
 Ground to excited state transition electric dipole moments (Au):
       state          X           Y           Z        Dip. S.      Osc.
         1        -0.0000      0.0000      0.0000      0.0000      0.0000
         2         0.0000     -0.0000      0.0000      0.0000      0.0000
         3         0.0000      0.0000     -0.0000      0.0000      0.0000
 Ground to excited state transition velocity dipole moments (Au):
       state          X           Y           Z        Dip. S.      Osc.
         1        -0.0000      0.0000     -0.0000      0.0000      0.0000
         2        -0.0000     -0.0000      0.0000      0.0000      0.0000
         3        -0.0000      0.0000     -0.0000      0.0000      0.0000
 Ground to excited state transition magnetic dipole moments (Au):
       state          X           Y           Z
         1         0.0000      0.0000     -0.0000
         2        -0.0000      0.0000      0.0000
         3        -0.0000     -0.0000     -0.0000
 Ground to excited state transition velocity quadrupole moments (Au):
       state          XX          YY          ZZ          XY          XZ          YZ
         1        -0.0000      0.0000      0.0000     -0.0000      0.0000     -0.0000
         2        -0.0000      0.0000      0.0000     -0.0000      0.0000     -0.0000
         3         0.0000     -0.0000     -0.0000      0.0000     -0.0000      0.0000
 <0|del|b> * <b|rxdel|0> + <0|del|b> * <b|delr+rdel|0>
 Rotatory Strengths (R) in cgs (10**-40 erg-esu-cm/Gauss)
       state          XX          YY          ZZ    R(velocity)    E-M Angle
         1        -0.0000      0.0000      0.0000      0.0000       90.00
         2         0.0000      0.0000     -0.0000      0.0000       90.00
         3        -0.0000      0.0000     -0.0000     -0.0000       90.00
 1/2[<0|r|b>*<b|rxdel|0> + (<0|rxdel|b>*<b|r|0>)*]
 Rotatory Strengths (R) in cgs (10**-40 erg-esu-cm/Gauss)
       state          XX          YY          ZZ     R(length)
         1         0.0000     -0.0000      0.0000      0.0000
         2         0.0000      0.0000     -0.0000      0.0000
         3         0.0000      0.0000     -0.0000      0.0000
  1/2[<0|del|b>*<b|r|0> + (<0|r|b>*<b|del|0>)*] (Au)
       state          X           Y           Z        Dip. S.   Osc.(frdel)
         1         0.0000      0.0000     -0.0000     -0.0000     -0.0000
         2        -0.0000      0.0000      0.0000      0.0000      0.0000
         3        -0.0000      0.0000      0.0000     -0.0000     -0.0000

 Excitation energies and oscillator strengths:
 
 Excited state symmetry could not be determined.
 Excited State   1:  3.000-?Sym    0.8687 eV 1427.29 nm  f=0.0000  <S**2>=2.000
     26A -> 29A        0.14499
     26A -> 31A        0.12779
     28A -> 29A       -0.78297
     28A -> 31A       -0.12729
     26B -> 29B       -0.14499
     26B -> 31B       -0.12779
     28B -> 29B        0.78297
     28B -> 31B        0.12729
     28A <- 29A       -0.38675
     28B <- 29B        0.38675
 This state for optimization and/or second-order correction.
 Total Energy, E(TD-HF/TD-DFT) =  -309.604495347    
 Copying the excited state density for this state as the 1-particle RhoCI density.
 
 Excited state symmetry could not be determined.
 Excited State   2:  3.000-?Sym    3.7373 eV  331.74 nm  f=0.0000  <S**2>=2.000
     26A -> 29A       -0.45894
     27A -> 29A        0.28995
     27A -> 30A       -0.27683
     28A -> 31A        0.31959
     26B -> 29B        0.45894
     27B -> 29B       -0.28995
     27B -> 30B        0.27683
     28B -> 31B       -0.31959
 
 Excited state symmetry could not be determined.
 Excited State   3:  3.000-?Sym    3.8700 eV  320.37 nm  f=0.0000  <S**2>=2.000
     26A -> 29A        0.22848
     27A -> 29A        0.54595
     27A -> 30A        0.10981
     28A -> 30A        0.31932
     28A -> 31A       -0.14529
     26B -> 29B       -0.22848
     27B -> 29B       -0.54595
     27B -> 30B       -0.10981
     28B -> 30B       -0.31932
     28B -> 31B        0.14529
 SavETr:  write IOETrn=   770 NScale= 10 NData=  16 NLR=1 NState=    3 LETran=      64.
          IDoAtm=11111111111111110000000000000000000000000000000000
          IDoAtm=00000000000000000000000000000000000000000
          Differentiating once with respect to electric field.
                with respect to dipole field.
          Differentiating once with respect to nuclear coordinates.
 Keep R1 and R2 ints in memory in canonical form, NReq=114009024.
          There are     1 degrees of freedom in the 1st order CPHF.  IDoFFX=0 NUNeed=     1.
 LinEq1:  Iter=  0 NonCon=     1 RMS=2.35D-03 Max=4.64D-02 NDo=     1
 AX will form     1 AO Fock derivatives at one time.
 LinEq1:  Iter=  1 NonCon=     1 RMS=2.95D-03 Max=1.29D-01 NDo=     1
 LinEq1:  Iter=  2 NonCon=     1 RMS=1.14D-03 Max=1.42D-02 NDo=     1
 LinEq1:  Iter=  3 NonCon=     1 RMS=5.72D-04 Max=1.16D-02 NDo=     1
 LinEq1:  Iter=  4 NonCon=     1 RMS=3.25D-04 Max=9.05D-03 NDo=     1
 LinEq1:  Iter=  5 NonCon=     1 RMS=2.12D-04 Max=4.48D-03 NDo=     1
 LinEq1:  Iter=  6 NonCon=     1 RMS=9.81D-05 Max=1.46D-03 NDo=     1
 LinEq1:  Iter=  7 NonCon=     1 RMS=4.75D-05 Max=8.64D-04 NDo=     1
 LinEq1:  Iter=  8 NonCon=     1 RMS=2.59D-05 Max=5.04D-04 NDo=     1
 LinEq1:  Iter=  9 NonCon=     1 RMS=1.82D-05 Max=3.55D-04 NDo=     1
 LinEq1:  Iter= 10 NonCon=     1 RMS=9.93D-06 Max=1.75D-04 NDo=     1
 LinEq1:  Iter= 11 NonCon=     1 RMS=5.06D-06 Max=6.05D-05 NDo=     1
 LinEq1:  Iter= 12 NonCon=     1 RMS=1.52D-06 Max=1.87D-05 NDo=     1
 LinEq1:  Iter= 13 NonCon=     1 RMS=4.44D-07 Max=6.49D-06 NDo=     1
 LinEq1:  Iter= 14 NonCon=     1 RMS=1.54D-07 Max=2.80D-06 NDo=     1
 LinEq1:  Iter= 15 NonCon=     1 RMS=9.12D-08 Max=1.52D-06 NDo=     1
 LinEq1:  Iter= 16 NonCon=     1 RMS=1.97D-08 Max=2.54D-07 NDo=     1
 LinEq1:  Iter= 17 NonCon=     1 RMS=6.06D-09 Max=1.12D-07 NDo=     1
 LinEq1:  Iter= 18 NonCon=     1 RMS=3.06D-09 Max=4.88D-08 NDo=     1
 LinEq1:  Iter= 19 NonCon=     1 RMS=9.83D-10 Max=1.32D-08 NDo=     1
 LinEq1:  Iter= 20 NonCon=     1 RMS=1.88D-10 Max=1.80D-09 NDo=     1
 LinEq1:  Iter= 21 NonCon=     0 RMS=3.62D-11 Max=2.88D-10 NDo=     1
 Linear equations converged to 1.000D-10 1.000D-09 after    21 iterations.
 End of Minotr F.D. properties file   721 does not exist.
 End of Minotr F.D. properties file   722 does not exist.
 End of Minotr F.D. properties file   788 does not exist.

 **********************************************************************

            Population analysis using the SCF Density.

 **********************************************************************

 Alpha  occ. eigenvalues --  -10.20171 -10.19613 -10.19149 -10.19042 -10.18934
 Alpha  occ. eigenvalues --  -10.18877 -10.18858 -10.18755  -0.85513  -0.78145
 Alpha  occ. eigenvalues --   -0.74538  -0.70768  -0.62589  -0.59988  -0.55852
 Alpha  occ. eigenvalues --   -0.50835  -0.46729  -0.45079  -0.43094  -0.41914
 Alpha  occ. eigenvalues --   -0.40087  -0.38952  -0.36604  -0.34982  -0.33480
 Alpha  occ. eigenvalues --   -0.28045  -0.25150  -0.19761
 Alpha virt. eigenvalues --   -0.05884   0.00390   0.04273   0.09747   0.12113
 Alpha virt. eigenvalues --    0.13328   0.16028   0.16251   0.17310   0.18392
 Alpha virt. eigenvalues --    0.19895   0.21598   0.26742   0.28252   0.30687
 Alpha virt. eigenvalues --    0.33591   0.36456   0.37663   0.46195   0.52013
 Alpha virt. eigenvalues --    0.52762   0.54274   0.55000   0.56569   0.57412
 Alpha virt. eigenvalues --    0.58874   0.59111   0.59689   0.61239   0.62064
 Alpha virt. eigenvalues --    0.62264   0.63583   0.65013   0.65988   0.68926
 Alpha virt. eigenvalues --    0.71977   0.77270   0.82669   0.83644   0.83925
 Alpha virt. eigenvalues --    0.85052   0.85482   0.88922   0.90660   0.92777
 Alpha virt. eigenvalues --    0.93682   0.94035   0.95747   0.99288   1.01474
 Alpha virt. eigenvalues --    1.04810   1.08730   1.14649   1.16682   1.18288
 Alpha virt. eigenvalues --    1.25939   1.29298   1.33421   1.39407   1.44065
 Alpha virt. eigenvalues --    1.44766   1.45609   1.48546   1.49537   1.51362
 Alpha virt. eigenvalues --    1.64613   1.71918   1.77635   1.80175   1.85541
 Alpha virt. eigenvalues --    1.88486   1.89944   1.91718   1.95037   1.97204
 Alpha virt. eigenvalues --    1.98472   2.05030   2.11077   2.11285   2.14649
 Alpha virt. eigenvalues --    2.14987   2.17914   2.22507   2.26787   2.32269
 Alpha virt. eigenvalues --    2.33103   2.35638   2.47889   2.51062   2.57237
 Alpha virt. eigenvalues --    2.59618   2.62455   2.65956   2.74010   2.75515
 Alpha virt. eigenvalues --    2.76941   2.86081   2.91843   3.13788   3.41599
 Alpha virt. eigenvalues --    4.07388   4.09599   4.12231   4.13918   4.25047
 Alpha virt. eigenvalues --    4.32815   4.42443   4.71094
  Beta  occ. eigenvalues --  -10.20171 -10.19613 -10.19149 -10.19042 -10.18934
  Beta  occ. eigenvalues --  -10.18877 -10.18858 -10.18755  -0.85513  -0.78145
  Beta  occ. eigenvalues --   -0.74538  -0.70768  -0.62589  -0.59988  -0.55852
  Beta  occ. eigenvalues --   -0.50835  -0.46729  -0.45079  -0.43094  -0.41914
  Beta  occ. eigenvalues --   -0.40087  -0.38952  -0.36604  -0.34982  -0.33480
  Beta  occ. eigenvalues --   -0.28045  -0.25150  -0.19761
  Beta virt. eigenvalues --   -0.05884   0.00390   0.04273   0.09747   0.12113
  Beta virt. eigenvalues --    0.13328   0.16028   0.16251   0.17310   0.18392
  Beta virt. eigenvalues --    0.19895   0.21598   0.26742   0.28252   0.30687
  Beta virt. eigenvalues --    0.33591   0.36456   0.37663   0.46195   0.52013
  Beta virt. eigenvalues --    0.52762   0.54274   0.55000   0.56569   0.57412
  Beta virt. eigenvalues --    0.58874   0.59111   0.59689   0.61239   0.62064
  Beta virt. eigenvalues --    0.62264   0.63583   0.65013   0.65988   0.68926
  Beta virt. eigenvalues --    0.71977   0.77270   0.82669   0.83644   0.83925
  Beta virt. eigenvalues --    0.85052   0.85482   0.88922   0.90660   0.92777
  Beta virt. eigenvalues --    0.93682   0.94035   0.95747   0.99288   1.01474
  Beta virt. eigenvalues --    1.04810   1.08730   1.14649   1.16682   1.18288
  Beta virt. eigenvalues --    1.25939   1.29298   1.33421   1.39407   1.44065
  Beta virt. eigenvalues --    1.44766   1.45609   1.48546   1.49537   1.51362
  Beta virt. eigenvalues --    1.64613   1.71918   1.77635   1.80175   1.85541
  Beta virt. eigenvalues --    1.88486   1.89944   1.91718   1.95037   1.97204
  Beta virt. eigenvalues --    1.98472   2.05030   2.11077   2.11285   2.14649
  Beta virt. eigenvalues --    2.14987   2.17914   2.22507   2.26787   2.32269
  Beta virt. eigenvalues --    2.33103   2.35638   2.47889   2.51062   2.57237
  Beta virt. eigenvalues --    2.59618   2.62455   2.65956   2.74010   2.75515
  Beta virt. eigenvalues --    2.76941   2.86081   2.91843   3.13788   3.41599
  Beta virt. eigenvalues --    4.07388   4.09599   4.12231   4.13918   4.25047
  Beta virt. eigenvalues --    4.32815   4.42443   4.71094
          Condensed to atoms (all electrons):
          Atomic-Atomic Spin Densities.
 Mulliken charges and spin densities:
               1          2
     1  C    0.186352  -0.000000
     2  C   -0.187373   0.000000
     3  C   -0.175412  -0.000000
     4  C   -0.127622  -0.000000
     5  H    0.127167   0.000000
     6  C   -0.161724  -0.000000
     7  C   -0.127474  -0.000000
     8  H    0.129364   0.000000
     9  C   -0.130905   0.000000
    10  H    0.129967  -0.000000
    11  C   -0.369440   0.000000
    12  H    0.138871   0.000000
    13  H    0.130020  -0.000000
    14  H    0.130491   0.000000
    15  H    0.152527  -0.000000
    16  H    0.155191  -0.000000
    17  C    0.000000   0.000000
    18  H    0.000000   0.000000
    19  H    0.000000   0.000000
    20  Cl   0.000000   0.000000
    21  Cl   0.000000   0.000000
    22  C    0.000000   0.000000
    23  H    0.000000   0.000000
    24  H    0.000000   0.000000
    25  Cl   0.000000   0.000000
    26  Cl   0.000000   0.000000
    27  C    0.000000   0.000000
    28  H    0.000000   0.000000
    29  H    0.000000   0.000000
    30  Cl   0.000000   0.000000
    31  Cl   0.000000   0.000000
    32  C    0.000000   0.000000
    33  H    0.000000   0.000000
    34  H    0.000000   0.000000
    35  Cl   0.000000   0.000000
    36  Cl   0.000000   0.000000
    37  C    0.000000   0.000000
    38  H    0.000000   0.000000
    39  H    0.000000   0.000000
    40  Cl   0.000000   0.000000
    41  Cl   0.000000   0.000000
    42  C    0.000000   0.000000
    43  H    0.000000   0.000000
    44  H    0.000000   0.000000
    45  Cl   0.000000   0.000000
    46  Cl   0.000000   0.000000
    47  C    0.000000   0.000000
    48  H    0.000000   0.000000
    49  H    0.000000   0.000000
    50  Cl   0.000000   0.000000
    51  Cl   0.000000   0.000000
    52  C    0.000000   0.000000
    53  H    0.000000   0.000000
    54  H    0.000000   0.000000
    55  Cl   0.000000   0.000000
    56  Cl   0.000000   0.000000
    57  C    0.000000   0.000000
    58  H    0.000000   0.000000
    59  H    0.000000   0.000000
    60  Cl   0.000000   0.000000
    61  Cl   0.000000   0.000000
    62  C    0.000000   0.000000
    63  H    0.000000   0.000000
    64  H    0.000000   0.000000
    65  Cl   0.000000   0.000000
    66  Cl   0.000000   0.000000
    67  C    0.000000   0.000000
    68  H    0.000000   0.000000
    69  H    0.000000   0.000000
    70  Cl   0.000000   0.000000
    71  Cl   0.000000   0.000000
    72  C    0.000000   0.000000
    73  H    0.000000   0.000000
    74  H    0.000000   0.000000
    75  Cl   0.000000   0.000000
    76  Cl   0.000000   0.000000
    77  C    0.000000   0.000000
    78  H    0.000000   0.000000
    79  H    0.000000   0.000000
    80  Cl   0.000000   0.000000
    81  Cl   0.000000   0.000000
    82  C    0.000000   0.000000
    83  H    0.000000   0.000000
    84  H    0.000000   0.000000
    85  Cl   0.000000   0.000000
    86  Cl   0.000000   0.000000
    87  C    0.000000   0.000000
    88  H    0.000000   0.000000
    89  H    0.000000   0.000000
    90  Cl   0.000000   0.000000
    91  Cl   0.000000   0.000000
 Sum of Mulliken charges =  -0.00000  -0.00000
 Mulliken charges and spin densities with hydrogens summed into heavy atoms:
               1          2
     1  C    0.186352  -0.000000
     2  C   -0.060206   0.000000
     3  C   -0.046049  -0.000000
     4  C    0.002346  -0.000000
     6  C   -0.022853  -0.000000
     7  C    0.002547  -0.000000
     9  C   -0.000414   0.000000
    11  C   -0.061722   0.000000
    17  C    0.000000   0.000000
    20  Cl   0.000000   0.000000
    21  Cl   0.000000   0.000000
    22  C    0.000000   0.000000
    25  Cl   0.000000   0.000000
    26  Cl   0.000000   0.000000
    27  C    0.000000   0.000000
    30  Cl   0.000000   0.000000
    31  Cl   0.000000   0.000000
    32  C    0.000000   0.000000
    35  Cl   0.000000   0.000000
    36  Cl   0.000000   0.000000
    37  C    0.000000   0.000000
    40  Cl   0.000000   0.000000
    41  Cl   0.000000   0.000000
    42  C    0.000000   0.000000
    45  Cl   0.000000   0.000000
    46  Cl   0.000000   0.000000
    47  C    0.000000   0.000000
    50  Cl   0.000000   0.000000
    51  Cl   0.000000   0.000000
    52  C    0.000000   0.000000
    55  Cl   0.000000   0.000000
    56  Cl   0.000000   0.000000
    57  C    0.000000   0.000000
    60  Cl   0.000000   0.000000
    61  Cl   0.000000   0.000000
    62  C    0.000000   0.000000
    65  Cl   0.000000   0.000000
    66  Cl   0.000000   0.000000
    67  C    0.000000   0.000000
    70  Cl   0.000000   0.000000
    71  Cl   0.000000   0.000000
    72  C    0.000000   0.000000
    75  Cl   0.000000   0.000000
    76  Cl   0.000000   0.000000
    77  C    0.000000   0.000000
    80  Cl   0.000000   0.000000
    81  Cl   0.000000   0.000000
    82  C    0.000000   0.000000
    85  Cl   0.000000   0.000000
    86  Cl   0.000000   0.000000
    87  C    0.000000   0.000000
    90  Cl   0.000000   0.000000
    91  Cl   0.000000   0.000000
 Electronic spatial extent (au):  <R**2>=            994.9132
 Charge=             -0.0000 electrons
 Dipole moment (field-independent basis, Debye):
    X=             -0.2751    Y=             -0.1154    Z=              0.0098  Tot=              0.2984
 Quadrupole moment (field-independent basis, Debye-Ang):
   XX=            -43.0889   YY=            -44.2802   ZZ=            -48.7782
   XY=              0.0359   XZ=              0.0833   YZ=             -3.6655
 Traceless Quadrupole moment (field-independent basis, Debye-Ang):
   XX=              2.2935   YY=              1.1023   ZZ=             -3.3958
   XY=              0.0359   XZ=              0.0833   YZ=             -3.6655
 Octapole moment (field-independent basis, Debye-Ang**2):
  XXX=             -5.2792  YYY=              6.9102  ZZZ=             30.5477  XYY=              0.6238
  XXY=              5.0750  XXZ=             13.2194  XZZ=              1.9919  YZZ=              5.7823
  YYZ=             11.2146  XYZ=              0.2665
 Hexadecapole moment (field-independent basis, Debye-Ang**3):
 XXXX=           -854.6638 YYYY=           -304.9870 ZZZZ=           -155.4838 XXXY=            -49.4637
 XXXZ=             74.8193 YYYX=            -64.7765 YYYZ=             58.4619 ZZZX=             65.0961
 ZZZY=             67.3367 XXYY=           -188.5747 XXZZ=           -186.4678 YYZZ=            -73.8024
 XXYZ=             10.7161 YYXZ=             19.5412 ZZXY=            -17.3201
 N-N= 3.191098603523D+02 E-N=-1.354466745046D+03  KE= 3.064310203489D+02
                          Isotropic Fermi Contact Couplings
        Atom                 a.u.       MegaHertz       Gauss      10(-4) cm-1
     1  C(13)             -0.00000      -0.00000      -0.00000      -0.00000
     2  C(13)             -0.00000      -0.00000      -0.00000      -0.00000
     3  C(13)             -0.00000      -0.00000      -0.00000      -0.00000
     4  C(13)              0.00000       0.00000       0.00000       0.00000
     5  H(1)               0.00000       0.00000       0.00000       0.00000
     6  C(13)              0.00000       0.00000       0.00000       0.00000
     7  C(13)              0.00000       0.00000       0.00000       0.00000
     8  H(1)              -0.00000      -0.00000      -0.00000      -0.00000
     9  C(13)             -0.00000      -0.00000      -0.00000      -0.00000
    10  H(1)               0.00000       0.00000       0.00000       0.00000
    11  C(13)              0.00000       0.00000       0.00000       0.00000
    12  H(1)              -0.00000      -0.00000      -0.00000      -0.00000
    13  H(1)               0.00000       0.00000       0.00000       0.00000
    14  H(1)              -0.00000      -0.00000      -0.00000      -0.00000
    15  H(1)               0.00000       0.00000       0.00000       0.00000
    16  H(1)               0.00000       0.00000       0.00000       0.00000
 --------------------------------------------------------
       Center         ----  Spin Dipole Couplings  ----
                      3XX-RR        3YY-RR        3ZZ-RR
 --------------------------------------------------------
     1   Atom        0.000000      0.000000      0.000000
     2   Atom        0.000000      0.000000      0.000000
     3   Atom        0.000000      0.000000      0.000000
     4   Atom        0.000000      0.000000      0.000000
     5   Atom        0.000000      0.000000      0.000000
     6   Atom        0.000000      0.000000      0.000000
     7   Atom        0.000000      0.000000      0.000000
     8   Atom        0.000000      0.000000      0.000000
     9   Atom        0.000000      0.000000      0.000000
    10   Atom        0.000000      0.000000      0.000000
    11   Atom        0.000000      0.000000      0.000000
    12   Atom        0.000000      0.000000      0.000000
    13   Atom        0.000000      0.000000      0.000000
    14   Atom        0.000000      0.000000      0.000000
    15   Atom        0.000000      0.000000      0.000000
    16   Atom        0.000000      0.000000      0.000000
 --------------------------------------------------------
                        XY            XZ            YZ
 --------------------------------------------------------
     1   Atom        0.000000      0.000000      0.000000
     2   Atom        0.000000      0.000000      0.000000
     3   Atom        0.000000      0.000000      0.000000
     4   Atom        0.000000      0.000000      0.000000
     5   Atom        0.000000      0.000000      0.000000
     6   Atom        0.000000      0.000000      0.000000
     7   Atom        0.000000      0.000000      0.000000
     8   Atom        0.000000      0.000000      0.000000
     9   Atom        0.000000      0.000000      0.000000
    10   Atom        0.000000      0.000000      0.000000
    11   Atom        0.000000      0.000000      0.000000
    12   Atom        0.000000      0.000000      0.000000
    13   Atom        0.000000      0.000000      0.000000
    14   Atom        0.000000      0.000000      0.000000
    15   Atom        0.000000      0.000000      0.000000
    16   Atom        0.000000      0.000000      0.000000
 --------------------------------------------------------


 ---------------------------------------------------------------------------------
              Anisotropic Spin Dipole Couplings in Principal Axis System
 ---------------------------------------------------------------------------------

       Atom             a.u.   MegaHertz   Gauss  10(-4) cm-1        Axes

              Baa     0.0000     0.000     0.000     0.000  1.0000  0.0000  0.0000
     1 C(13)  Bbb     0.0000     0.000     0.000     0.000 -0.0000  1.0000  0.0000
              Bcc     0.0000     0.000     0.000     0.000  0.0000  0.0000  1.0000
 
              Baa     0.0000     0.000     0.000     0.000  1.0000  0.0000  0.0000
     2 C(13)  Bbb     0.0000     0.000     0.000     0.000 -0.0000  1.0000  0.0000
              Bcc     0.0000     0.000     0.000     0.000  0.0000  0.0000  1.0000
 
              Baa     0.0000     0.000     0.000     0.000  1.0000  0.0000  0.0000
     3 C(13)  Bbb     0.0000     0.000     0.000     0.000 -0.0000  1.0000  0.0000
              Bcc     0.0000     0.000     0.000     0.000  0.0000  0.0000  1.0000
 
              Baa     0.0000     0.000     0.000     0.000  1.0000  0.0000  0.0000
     4 C(13)  Bbb     0.0000     0.000     0.000     0.000 -0.0000  1.0000  0.0000
              Bcc     0.0000     0.000     0.000     0.000  0.0000  0.0000  1.0000
 
              Baa     0.0000     0.000     0.000     0.000  1.0000  0.0000  0.0000
     5 H(1)   Bbb     0.0000     0.000     0.000     0.000 -0.0000  1.0000  0.0000
              Bcc     0.0000     0.000     0.000     0.000  0.0000  0.0000  1.0000
 
              Baa     0.0000     0.000     0.000     0.000  1.0000  0.0000  0.0000
     6 C(13)  Bbb     0.0000     0.000     0.000     0.000 -0.0000  1.0000  0.0000
              Bcc     0.0000     0.000     0.000     0.000  0.0000  0.0000  1.0000
 
              Baa     0.0000     0.000     0.000     0.000  1.0000  0.0000  0.0000
     7 C(13)  Bbb     0.0000     0.000     0.000     0.000 -0.0000  1.0000  0.0000
              Bcc     0.0000     0.000     0.000     0.000  0.0000  0.0000  1.0000
 
              Baa     0.0000     0.000     0.000     0.000  1.0000  0.0000  0.0000
     8 H(1)   Bbb     0.0000     0.000     0.000     0.000 -0.0000  1.0000  0.0000
              Bcc     0.0000     0.000     0.000     0.000  0.0000  0.0000  1.0000
 
              Baa     0.0000     0.000     0.000     0.000  1.0000  0.0000  0.0000
     9 C(13)  Bbb     0.0000     0.000     0.000     0.000 -0.0000  1.0000  0.0000
              Bcc     0.0000     0.000     0.000     0.000  0.0000  0.0000  1.0000
 
              Baa     0.0000     0.000     0.000     0.000  1.0000  0.0000  0.0000
    10 H(1)   Bbb     0.0000     0.000     0.000     0.000 -0.0000  1.0000  0.0000
              Bcc     0.0000     0.000     0.000     0.000  0.0000  0.0000  1.0000
 
              Baa     0.0000     0.000     0.000     0.000  1.0000  0.0000  0.0000
    11 C(13)  Bbb     0.0000     0.000     0.000     0.000 -0.0000  1.0000  0.0000
              Bcc     0.0000     0.000     0.000     0.000  0.0000  0.0000  1.0000
 
              Baa     0.0000     0.000     0.000     0.000  1.0000  0.0000  0.0000
    12 H(1)   Bbb     0.0000     0.000     0.000     0.000 -0.0000  1.0000  0.0000
              Bcc     0.0000     0.000     0.000     0.000  0.0000  0.0000  1.0000
 
              Baa     0.0000     0.000     0.000     0.000  1.0000  0.0000  0.0000
    13 H(1)   Bbb     0.0000     0.000     0.000     0.000 -0.0000  1.0000  0.0000
              Bcc     0.0000     0.000     0.000     0.000  0.0000  0.0000  1.0000
 
              Baa     0.0000     0.000     0.000     0.000  1.0000  0.0000  0.0000
    14 H(1)   Bbb     0.0000     0.000     0.000     0.000 -0.0000  1.0000  0.0000
              Bcc     0.0000     0.000     0.000     0.000  0.0000  0.0000  1.0000
 
              Baa     0.0000     0.000     0.000     0.000  1.0000  0.0000  0.0000
    15 H(1)   Bbb     0.0000     0.000     0.000     0.000 -0.0000  1.0000  0.0000
              Bcc     0.0000     0.000     0.000     0.000  0.0000  0.0000  1.0000
 
              Baa     0.0000     0.000     0.000     0.000  1.0000  0.0000  0.0000
    16 H(1)   Bbb     0.0000     0.000     0.000     0.000 -0.0000  1.0000  0.0000
              Bcc     0.0000     0.000     0.000     0.000  0.0000  0.0000  1.0000
 

 ---------------------------------------------------------------------------------

 Calling FoFJK, ICntrl=  10005127 FMM=F ISym2X=0 I1Cent= 0 IOpClX= 1 NMat=1 NMatS=1 NMatT=0.
 Cartesian Forces:  Max     0.079081879 RMS     0.010538444
 SvSCFP is copying densities from files   528 and   530 to   603.
 ONIOM: saving gridpoint  2
 ONIOM: restoring gridpoint 17
 ONIOM: restoring gridpoint  1 on chk file.
 ONIOM: generating point  1 -- low level on model system.
 Standard basis: VSTO-6G (5D, 7F)
    40 basis functions,   240 primitive gaussians,    40 cartesian basis functions
    20 alpha electrons       20 beta electrons
       nuclear repulsion energy       184.5440249848 Hartrees.
 Integral buffers will be    131072 words long.
 Regular integral format.
 Two-electron integral symmetry is turned off.
 Do NDO integrals.
 One-electron integrals computed using PRISM.
 NBasis=    40 RedAO= F EigKep=  0.00D+00  NBF=    40
 NBsUse=    40 1.00D-04 EigRej=  0.00D+00 NBFU=    40
 Initial guess from the checkpoint file:  "a.chk"
 B after Tr=     0.001702   -0.000173    0.000819
         Rot=    1.000000   -0.000267   -0.000206    0.000216 Ang=  -0.05 deg.
 Initial guess <Sx>= 0.0000 <Sy>= 0.0000 <Sz>= 0.0000 <S**2>= 0.8756 S= 0.5609
 Keep J ints in memory in canonical form, NReq=867663.
 Overlap will be assumed to be unity.
 Requested convergence on RMS density matrix=1.00D-08 within  64 cycles.
 Requested convergence on MAX density matrix=1.00D-06.
 Requested convergence on             energy=1.00D-06.
 No special actions if energy rises.
 SCF Done:  E(UPM6) =  0.860144857475E-01 A.U. after   16 cycles
            NFock= 15  Conv=0.79D-08     -V/T= 1.0014
 <Sx>= 0.0000 <Sy>= 0.0000 <Sz>= 0.0000 <S**2>= 0.8723 S= 0.5594
 <L.S>=  0.00000000000    
 Annihilation of the first spin contaminant:
 S**2 before annihilation     0.8723,   after     1.1315
 QCSCF skips out because SCF is already converged.

 **********************************************************************

            Population analysis using the SCF Density.

 **********************************************************************

 Alpha  occ. eigenvalues --   -1.09773  -1.00205  -0.95865  -0.90543  -0.81207
 Alpha  occ. eigenvalues --   -0.77836  -0.71383  -0.63770  -0.58683  -0.56635
 Alpha  occ. eigenvalues --   -0.54048  -0.52323  -0.50803  -0.49735  -0.48189
 Alpha  occ. eigenvalues --   -0.44841  -0.43204  -0.39578  -0.36795  -0.32080
 Alpha virt. eigenvalues --    0.00632   0.01811   0.04433   0.10004   0.15563
 Alpha virt. eigenvalues --    0.15667   0.17701   0.18315   0.18547   0.19258
 Alpha virt. eigenvalues --    0.19822   0.20421   0.21135   0.21556   0.22340
 Alpha virt. eigenvalues --    0.22664   0.22833   0.22947   0.23418   0.23457
  Beta  occ. eigenvalues --   -1.09713  -1.00128  -0.95817  -0.90681  -0.81242
  Beta  occ. eigenvalues --   -0.77845  -0.71474  -0.63595  -0.58595  -0.56700
  Beta  occ. eigenvalues --   -0.54183  -0.52280  -0.50812  -0.49532  -0.48041
  Beta  occ. eigenvalues --   -0.44721  -0.43210  -0.38741  -0.36159  -0.34113
  Beta virt. eigenvalues --   -0.01182   0.02402   0.05204   0.10530   0.15508
  Beta virt. eigenvalues --    0.15829   0.17678   0.18390   0.18616   0.19263
  Beta virt. eigenvalues --    0.19876   0.20611   0.21085   0.21500   0.22288
  Beta virt. eigenvalues --    0.22403   0.22739   0.23013   0.23402   0.23517
          Condensed to atoms (all electrons):
          Atomic-Atomic Spin Densities.
 Mulliken charges and spin densities:
               1          2
     1  C    0.029746  -0.395117
     2  C   -0.171953   0.382639
     3  C   -0.157997   0.393057
     4  C   -0.135759  -0.322134
     5  H    0.147508  -0.013404
     6  C   -0.150305   0.706917
     7  C   -0.141526  -0.324698
     8  H    0.150897  -0.013486
     9  C   -0.146510   0.384345
    10  H    0.144562   0.011261
    11  C   -0.309734  -0.844982
    12  H    0.149644  -0.033919
    13  H    0.144619   0.011358
    14  H    0.145003  -0.013241
    15  H    0.150440   0.035029
    16  H    0.151364   0.036375
    17  C    0.000000   0.000000
    18  H    0.000000   0.000000
    19  H    0.000000   0.000000
    20  Cl   0.000000   0.000000
    21  Cl   0.000000   0.000000
    22  C    0.000000   0.000000
    23  H    0.000000   0.000000
    24  H    0.000000   0.000000
    25  Cl   0.000000   0.000000
    26  Cl   0.000000   0.000000
    27  C    0.000000   0.000000
    28  H    0.000000   0.000000
    29  H    0.000000   0.000000
    30  Cl   0.000000   0.000000
    31  Cl   0.000000   0.000000
    32  C    0.000000   0.000000
    33  H    0.000000   0.000000
    34  H    0.000000   0.000000
    35  Cl   0.000000   0.000000
    36  Cl   0.000000   0.000000
    37  C    0.000000   0.000000
    38  H    0.000000   0.000000
    39  H    0.000000   0.000000
    40  Cl   0.000000   0.000000
    41  Cl   0.000000   0.000000
    42  C    0.000000   0.000000
    43  H    0.000000   0.000000
    44  H    0.000000   0.000000
    45  Cl   0.000000   0.000000
    46  Cl   0.000000   0.000000
    47  C    0.000000   0.000000
    48  H    0.000000   0.000000
    49  H    0.000000   0.000000
    50  Cl   0.000000   0.000000
    51  Cl   0.000000   0.000000
    52  C    0.000000   0.000000
    53  H    0.000000   0.000000
    54  H    0.000000   0.000000
    55  Cl   0.000000   0.000000
    56  Cl   0.000000   0.000000
    57  C    0.000000   0.000000
    58  H    0.000000   0.000000
    59  H    0.000000   0.000000
    60  Cl   0.000000   0.000000
    61  Cl   0.000000   0.000000
    62  C    0.000000   0.000000
    63  H    0.000000   0.000000
    64  H    0.000000   0.000000
    65  Cl   0.000000   0.000000
    66  Cl   0.000000   0.000000
    67  C    0.000000   0.000000
    68  H    0.000000   0.000000
    69  H    0.000000   0.000000
    70  Cl   0.000000   0.000000
    71  Cl   0.000000   0.000000
    72  C    0.000000   0.000000
    73  H    0.000000   0.000000
    74  H    0.000000   0.000000
    75  Cl   0.000000   0.000000
    76  Cl   0.000000   0.000000
    77  C    0.000000   0.000000
    78  H    0.000000   0.000000
    79  H    0.000000   0.000000
    80  Cl   0.000000   0.000000
    81  Cl   0.000000   0.000000
    82  C    0.000000   0.000000
    83  H    0.000000   0.000000
    84  H    0.000000   0.000000
    85  Cl   0.000000   0.000000
    86  Cl   0.000000   0.000000
    87  C    0.000000   0.000000
    88  H    0.000000   0.000000
    89  H    0.000000   0.000000
    90  Cl   0.000000   0.000000
    91  Cl   0.000000   0.000000
 Sum of Mulliken charges =  -0.00000   0.00000
 Mulliken charges and spin densities with hydrogens summed into heavy atoms:
               1          2
     1  C    0.029746  -0.395117
     2  C   -0.024445   0.369235
     3  C   -0.007099   0.379571
     4  C    0.008803  -0.310872
     6  C   -0.000661   0.672998
     7  C    0.003093  -0.313339
     9  C   -0.001507   0.371104
    11  C   -0.007930  -0.773579
    17  C    0.000000   0.000000
    20  Cl   0.000000   0.000000
    21  Cl   0.000000   0.000000
    22  C    0.000000   0.000000
    25  Cl   0.000000   0.000000
    26  Cl   0.000000   0.000000
    27  C    0.000000   0.000000
    30  Cl   0.000000   0.000000
    31  Cl   0.000000   0.000000
    32  C    0.000000   0.000000
    35  Cl   0.000000   0.000000
    36  Cl   0.000000   0.000000
    37  C    0.000000   0.000000
    40  Cl   0.000000   0.000000
    41  Cl   0.000000   0.000000
    42  C    0.000000   0.000000
    45  Cl   0.000000   0.000000
    46  Cl   0.000000   0.000000
    47  C    0.000000   0.000000
    50  Cl   0.000000   0.000000
    51  Cl   0.000000   0.000000
    52  C    0.000000   0.000000
    55  Cl   0.000000   0.000000
    56  Cl   0.000000   0.000000
    57  C    0.000000   0.000000
    60  Cl   0.000000   0.000000
    61  Cl   0.000000   0.000000
    62  C    0.000000   0.000000
    65  Cl   0.000000   0.000000
    66  Cl   0.000000   0.000000
    67  C    0.000000   0.000000
    70  Cl   0.000000   0.000000
    71  Cl   0.000000   0.000000
    72  C    0.000000   0.000000
    75  Cl   0.000000   0.000000
    76  Cl   0.000000   0.000000
    77  C    0.000000   0.000000
    80  Cl   0.000000   0.000000
    81  Cl   0.000000   0.000000
    82  C    0.000000   0.000000
    85  Cl   0.000000   0.000000
    86  Cl   0.000000   0.000000
    87  C    0.000000   0.000000
    90  Cl   0.000000   0.000000
    91  Cl   0.000000   0.000000
 Charge=             -0.0000 electrons
 Dipole moment (field-independent basis, Debye):
    X=              0.0235    Y=             -0.0323    Z=             -0.1037  Tot=              0.1112
 N-N= 1.845440249848D+02 E-N=-2.805396593566D+02  KE=-6.322558215761D+01
 Calling FoFJK, ICntrl=      2127 FMM=F ISym2X=0 I1Cent= 0 IOpClX= 1 NMat=1 NMatS=1 NMatT=0.
 Cartesian Forces:  Max     0.032110949 RMS     0.004459624
 SvSCFP is copying densities from files   528 and   530 to   603.
 ONIOM: saving gridpoint  1
 ONIOM: restoring gridpoint  3
 ONIOM: calculating energy.
 ONIOM: gridpoint  1 method:  low   system:  model energy:     0.086014485748
 ONIOM: gridpoint  2 method:  high  system:  model energy:  -309.604495346870
 ONIOM: gridpoint  3 method:  low   system:  real  energy:    -0.404305672495
 ONIOM: extrapolated energy =    -310.094815505112
 ONIOM: calculating first derivatives.
 ONIOM: calculating electric field derivatives.
 ONIOM: Integrating ONIOM file  4 number   619
 ONIOM: Dipole        =-8.86867447D-02 1.50021270D-02 1.60021899D-01
 ONIOM: Dipole moment (Debye):
    X=    -0.2254    Y=     0.0381    Z=     0.4067  Tot=     0.4666
 ONIOM: Integrating ONIOM file  5 number   695
 Anisotropic Hyperfine tensors: 
                 1             2             3             4             5 
      1   0.000000D+00  0.000000D+00  0.000000D+00  0.000000D+00  0.000000D+00
      2   0.000000D+00  0.000000D+00  0.000000D+00  0.000000D+00  0.000000D+00
      3   0.000000D+00  0.000000D+00  0.000000D+00  0.000000D+00  0.000000D+00
      4   0.000000D+00  0.000000D+00  0.000000D+00  0.000000D+00  0.000000D+00
      5   0.000000D+00  0.000000D+00  0.000000D+00  0.000000D+00  0.000000D+00
      6   0.000000D+00  0.000000D+00  0.000000D+00  0.000000D+00  0.000000D+00
                 6             7             8             9            10 
      1   0.000000D+00  0.000000D+00  0.000000D+00  0.000000D+00  0.000000D+00
      2   0.000000D+00  0.000000D+00  0.000000D+00  0.000000D+00  0.000000D+00
      3   0.000000D+00  0.000000D+00  0.000000D+00  0.000000D+00  0.000000D+00
      4   0.000000D+00  0.000000D+00  0.000000D+00  0.000000D+00  0.000000D+00
      5   0.000000D+00  0.000000D+00  0.000000D+00  0.000000D+00  0.000000D+00
      6   0.000000D+00  0.000000D+00  0.000000D+00  0.000000D+00  0.000000D+00
                11            12            13            14            15 
      1   0.000000D+00  0.000000D+00  0.000000D+00  0.000000D+00  0.000000D+00
      2   0.000000D+00  0.000000D+00  0.000000D+00  0.000000D+00  0.000000D+00
      3   0.000000D+00  0.000000D+00  0.000000D+00  0.000000D+00  0.000000D+00
      4   0.000000D+00  0.000000D+00  0.000000D+00  0.000000D+00  0.000000D+00
      5   0.000000D+00  0.000000D+00  0.000000D+00  0.000000D+00  0.000000D+00
      6   0.000000D+00  0.000000D+00  0.000000D+00  0.000000D+00  0.000000D+00
                16            17            18            19            20 
      1   0.000000D+00  0.000000D+00  0.000000D+00  0.000000D+00  0.000000D+00
      2   0.000000D+00  0.000000D+00  0.000000D+00  0.000000D+00  0.000000D+00
      3   0.000000D+00  0.000000D+00  0.000000D+00  0.000000D+00  0.000000D+00
      4   0.000000D+00  0.000000D+00  0.000000D+00  0.000000D+00  0.000000D+00
      5   0.000000D+00  0.000000D+00  0.000000D+00  0.000000D+00  0.000000D+00
      6   0.000000D+00  0.000000D+00  0.000000D+00  0.000000D+00  0.000000D+00
                21            22            23            24            25 
      1   0.000000D+00  0.000000D+00  0.000000D+00  0.000000D+00  0.000000D+00
      2   0.000000D+00  0.000000D+00  0.000000D+00  0.000000D+00  0.000000D+00
      3   0.000000D+00  0.000000D+00  0.000000D+00  0.000000D+00  0.000000D+00
      4   0.000000D+00  0.000000D+00  0.000000D+00  0.000000D+00  0.000000D+00
      5   0.000000D+00  0.000000D+00  0.000000D+00  0.000000D+00  0.000000D+00
      6   0.000000D+00  0.000000D+00  0.000000D+00  0.000000D+00  0.000000D+00
                26            27            28            29            30 
      1   0.000000D+00  0.000000D+00  0.000000D+00  0.000000D+00  0.000000D+00
      2   0.000000D+00  0.000000D+00  0.000000D+00  0.000000D+00  0.000000D+00
      3   0.000000D+00  0.000000D+00  0.000000D+00  0.000000D+00  0.000000D+00
      4   0.000000D+00  0.000000D+00  0.000000D+00  0.000000D+00  0.000000D+00
      5   0.000000D+00  0.000000D+00  0.000000D+00  0.000000D+00  0.000000D+00
      6   0.000000D+00  0.000000D+00  0.000000D+00  0.000000D+00  0.000000D+00
                31            32            33            34            35 
[...]
   Y21       -2.21072  -0.00000   0.00000  -0.00063  -0.00012  -2.21083
   Z21        2.96749  -0.00001   0.00000  -0.00149  -0.00039   2.96710
   X22       10.82044   0.00005   0.00000   0.00072   0.00066  10.82110
   Y22       -2.01620   0.00000   0.00000  -0.00037  -0.00013  -2.01633
   Z22       -2.95038  -0.00001   0.00000  -0.00107  -0.00000  -2.95038
   X23        8.78494   0.00006   0.00000   0.00068   0.00063   8.78557
   Y23       -2.11002   0.00003   0.00000   0.00048   0.00072  -2.10929
   Z23       -2.44368  -0.00000   0.00000  -0.00111  -0.00001  -2.44369
   X24       11.97600  -0.00007   0.00000  -0.00051  -0.00053  11.97547
   Y24       -3.15414  -0.00010   0.00000  -0.00156  -0.00124  -3.15538
   Z24       -1.62182  -0.00000   0.00000  -0.00103   0.00008  -1.62174
   X25       11.85428   0.00018   0.00000   0.00259   0.00249  11.85677
   Y25        1.17029  -0.00005   0.00000  -0.00102  -0.00077   1.16952
   Z25       -2.86890   0.00012   0.00000   0.00043   0.00132  -2.86758
   X26       11.25792   0.00006   0.00000   0.00082   0.00073  11.25865
   Y26       -3.12796   0.00008   0.00000   0.00094   0.00103  -3.12693
   Z26       -6.06908  -0.00004   0.00000  -0.00165  -0.00053  -6.06961
   X27        3.98669  -0.00006   0.00000  -0.00095  -0.00101   3.98567
   Y27        6.01604   0.00002   0.00000  -0.00009   0.00036   6.01640
   Z27        2.91833   0.00001   0.00000  -0.00103  -0.00026   2.91807
   X28        3.47318  -0.00029   0.00000  -0.00298  -0.00304   3.47015
   Y28        4.05143   0.00012   0.00000   0.00084   0.00125   4.05268
   Z28        2.37332  -0.00013   0.00000  -0.00219  -0.00132   2.37200
   X29        2.57163  -0.00003   0.00000  -0.00054  -0.00064   2.57100
   Y29        7.38258   0.00001   0.00000   0.00075   0.00115   7.38373
   Z29        2.18126   0.00000   0.00000   0.00008   0.00081   2.18207
   X30        7.01998  -0.00008   0.00000  -0.00104  -0.00114   7.01884
   Y30        6.76988   0.00007   0.00000  -0.00013   0.00029   6.77017
   Z30        1.71419   0.00001   0.00000  -0.00132  -0.00063   1.71356
   X31        4.17116   0.00012   0.00000   0.00115   0.00113   4.17229
   Y31        6.26215  -0.00010   0.00000  -0.00226  -0.00164   6.26051
   Z31        6.25072  -0.00001   0.00000  -0.00102  -0.00027   6.25046
   X32       -4.26405  -0.00007   0.00000  -0.00098  -0.00094  -4.26499
   Y32        1.53416  -0.00002   0.00000  -0.00053   0.00000   1.53416
   Z32        6.58412  -0.00008   0.00000  -0.00251  -0.00140   6.58272
   X33       -3.56974  -0.00009   0.00000  -0.00089  -0.00082  -3.57056
   Y33       -0.44447  -0.00003   0.00000  -0.00054   0.00000  -0.44447
   Z33        6.65118  -0.00030   0.00000  -0.00358  -0.00237   6.64880
   X34       -4.16406   0.00003   0.00000   0.00020   0.00026  -4.16381
   Y34        2.43802   0.00018   0.00000   0.00064   0.00126   2.43928
   Z34        8.47560  -0.00019   0.00000  -0.00302  -0.00196   8.47365
   X35       -7.42710  -0.00013   0.00000  -0.00173  -0.00170  -7.42880
   Y35        1.56927  -0.00013   0.00000  -0.00180  -0.00136   1.56791
   Z35        5.48515   0.00013   0.00000  -0.00034   0.00082   5.48597
   X36       -2.42104  -0.00011   0.00000  -0.00180  -0.00181  -2.42285
   Y36        3.27468  -0.00001   0.00000  -0.00054  -0.00010   3.27459
   Z36        4.39696  -0.00005   0.00000  -0.00301  -0.00201   4.39495
   X37       -1.97734  -0.00010   0.00000  -0.00128  -0.00130  -1.97863
   Y37        8.60897   0.00008   0.00000   0.00048   0.00114   8.61012
   Z37        8.64442   0.00015   0.00000   0.00126   0.00199   8.64641
   X38       -0.71255  -0.00014   0.00000  -0.00185  -0.00188  -0.71443
   Y38       10.26156   0.00010   0.00000   0.00071   0.00140  10.26296
   Z38        8.87614   0.00024   0.00000   0.00310   0.00373   8.87986
   X39       -1.66228  -0.00000   0.00000   0.00001  -0.00002  -1.66230
   Y39        7.69055   0.00015   0.00000   0.00180   0.00238   7.69293
   Z39        6.78342   0.00014   0.00000   0.00094   0.00171   6.78513
   X40       -5.16014  -0.00011   0.00000  -0.00162  -0.00164  -5.16178
   Y40        9.56160   0.00005   0.00000  -0.00034   0.00030   9.56189
   Z40        8.91710   0.00007   0.00000  -0.00008   0.00066   8.91776
   X41       -1.37405  -0.00017   0.00000  -0.00239  -0.00234  -1.37639
   Y41        6.39605  -0.00005   0.00000  -0.00171  -0.00092   6.39513
   Z41       11.09792   0.00004   0.00000  -0.00047   0.00036  11.09828
   X42        8.37954  -0.00006   0.00000  -0.00034  -0.00053   8.37901
   Y42        2.04392   0.00014   0.00000   0.00196   0.00190   2.04582
   Z42       -8.39723  -0.00002   0.00000  -0.00131  -0.00041  -8.39763
   X43        7.33172  -0.00007   0.00000  -0.00102  -0.00118   7.33054
   Y43        0.50789   0.00013   0.00000   0.00225   0.00222   0.51011
   Z43       -7.42168  -0.00006   0.00000  -0.00143  -0.00044  -7.42212
   X44       10.44911  -0.00007   0.00000  -0.00057  -0.00075  10.44836
   Y44        1.72057   0.00011   0.00000   0.00126   0.00123   1.72180
   Z44       -8.26632  -0.00002   0.00000  -0.00075   0.00013  -8.26618
   X45        7.62405   0.00010   0.00000   0.00130   0.00110   7.62515
   Y45        4.99990   0.00019   0.00000   0.00258   0.00258   5.00248
   Z45       -6.99790  -0.00005   0.00000  -0.00175  -0.00098  -6.99888
   X46        7.43686   0.00005   0.00000   0.00093   0.00069   7.43755
   Y46        2.20549   0.00014   0.00000   0.00225   0.00202   2.20750
   Z46      -11.59764  -0.00004   0.00000  -0.00171  -0.00080 -11.59844
   X47      -10.25404  -0.00001   0.00000   0.00086   0.00077 -10.25327
   Y47        3.71245   0.00016   0.00000   0.00208   0.00218   3.71463
   Z47       -0.73242   0.00001   0.00000  -0.00107   0.00002  -0.73240
   X48      -11.94427   0.00004   0.00000   0.00086   0.00079 -11.94348
   Y48        2.62852   0.00024   0.00000   0.00378   0.00389   2.63241
   Z48       -0.13544   0.00030   0.00000   0.00257   0.00374  -0.13170
   X49       -8.75780   0.00024   0.00000   0.00326   0.00319  -8.75461
   Y49        3.64182   0.00010   0.00000   0.00142   0.00161   3.64343
   Z49        0.73832  -0.00029   0.00000  -0.00373  -0.00265   0.73567
   X50      -11.11964   0.00034   0.00000   0.00438   0.00424 -11.11540
   Y50        6.89380   0.00024   0.00000   0.00294   0.00300   6.89680
   Z50       -1.29043  -0.00005   0.00000  -0.00184  -0.00089  -1.29133
   X51       -9.09294  -0.00018   0.00000  -0.00287  -0.00299  -9.09594
   Y51        2.44086   0.00002   0.00000  -0.00006  -0.00009   2.44077
   Z51       -3.59825   0.00003   0.00000  -0.00159  -0.00045  -3.59870
   X52       -3.00932   0.00003   0.00000   0.00045   0.00027  -3.00904
   Y52        1.85925  -0.00002   0.00000  -0.00002  -0.00018   1.85907
   Z52       -7.72947   0.00007   0.00000   0.00009   0.00117  -7.72830
   X53       -3.63424   0.00007   0.00000   0.00106   0.00085  -3.63340
   Y53        2.45453   0.00005   0.00000   0.00069   0.00042   2.45496
   Z53       -9.64004   0.00009   0.00000   0.00019   0.00125  -9.63879
   X54       -4.05656  -0.00007   0.00000  -0.00067  -0.00083  -4.05740
   Y54        2.89233  -0.00007   0.00000  -0.00088  -0.00098   2.89135
   Z54       -6.22824   0.00002   0.00000  -0.00011   0.00093  -6.22730
   X55        0.27754  -0.00000   0.00000   0.00018   0.00000   0.27755
   Y55        2.46132   0.00003   0.00000   0.00063   0.00052   2.46184
   Z55       -7.40417   0.00024   0.00000   0.00177   0.00277  -7.40140
   X56       -3.46787   0.00006   0.00000   0.00101   0.00087  -3.46700
   Y56       -1.43008  -0.00003   0.00000  -0.00021  -0.00036  -1.43044
   Z56       -7.36681   0.00006   0.00000  -0.00114   0.00011  -7.36670
   X57       -2.66898   0.00018   0.00000   0.00212   0.00197  -2.66700
   Y57       11.13938   0.00002   0.00000  -0.00007   0.00022  11.13961
   Z57        1.43222  -0.00003   0.00000  -0.00107  -0.00045   1.43176
   X58       -1.98270   0.00013   0.00000   0.00233   0.00215  -1.98055
   Y58       11.56891  -0.00008   0.00000   0.00005   0.00026  11.56917
   Z58       -0.50659  -0.00006   0.00000  -0.00091  -0.00032  -0.50691
   X59       -4.33293   0.00021   0.00000   0.00236   0.00221  -4.33072
   Y59       12.31596  -0.00000   0.00000  -0.00014   0.00016  12.31612
   Z59        1.92699   0.00005   0.00000  -0.00040   0.00018   1.92718
   X60       -0.19831   0.00001   0.00000   0.00069   0.00057  -0.19774
   Y60       11.71327   0.00008   0.00000  -0.00044  -0.00001  11.71327
   Z60        3.62309   0.00013   0.00000   0.00067   0.00122   3.62431
   X61       -3.47895   0.00006   0.00000   0.00118   0.00108  -3.47787
   Y61        7.89692   0.00006   0.00000  -0.00000   0.00029   7.89721
   Z61        1.67851  -0.00032   0.00000  -0.00449  -0.00370   1.67481
   X62        2.09631  -0.00003   0.00000  -0.00037  -0.00028   2.09604
   Y62        0.62859  -0.00001   0.00000  -0.00083  -0.00009   0.62850
   Z62        9.34423  -0.00010   0.00000  -0.00259  -0.00152   9.34271
   X63        1.38415   0.00005   0.00000   0.00040   0.00046   1.38461
   Y63        2.51957  -0.00003   0.00000  -0.00087  -0.00016   2.51941
   Z63        8.77398  -0.00023   0.00000  -0.00369  -0.00271   8.77128
   X64        3.69588  -0.00006   0.00000  -0.00088  -0.00077   3.69511
   Y64        0.80320   0.00003   0.00000  -0.00032   0.00051   0.80371
   Z64       10.68564  -0.00008   0.00000  -0.00198  -0.00094  10.68469
   X65        3.08431   0.00001   0.00000   0.00013   0.00020   3.08451
   Y65       -1.06220  -0.00009   0.00000  -0.00208  -0.00146  -1.06365
   Z65        6.63675  -0.00002   0.00000  -0.00172  -0.00058   6.63617
   X66       -0.37816  -0.00007   0.00000  -0.00114  -0.00100  -0.37916
   Y66       -1.10380   0.00008   0.00000   0.00014   0.00092  -1.10288
   Z66       10.78422  -0.00006   0.00000  -0.00267  -0.00148  10.78275
   X67        2.01609   0.00004   0.00000   0.00075   0.00067   2.01676
   Y67       -4.10100  -0.00008   0.00000  -0.00046  -0.00046  -4.10146
   Z67       -5.72295   0.00003   0.00000  -0.00104   0.00026  -5.72269
   X68        0.35987   0.00005   0.00000   0.00036   0.00029   0.36015
   Y68       -5.22242  -0.00001   0.00000   0.00031   0.00026  -5.22216
   Z68       -6.34140  -0.00013   0.00000  -0.00160  -0.00022  -6.34163
   X69        1.41355   0.00028   0.00000   0.00247   0.00238   1.41593
   Y69       -2.19967  -0.00010   0.00000  -0.00102  -0.00100  -2.20068
   Z69       -5.05823   0.00025   0.00000   0.00180   0.00302  -5.05521
   X70        4.17824  -0.00020   0.00000  -0.00179  -0.00190   4.17634
   Y70       -3.79506   0.00019   0.00000   0.00229   0.00218  -3.79288
   Z70       -8.25187  -0.00013   0.00000  -0.00291  -0.00166  -8.25353
   X71        3.59550   0.00002   0.00000   0.00120   0.00117   3.59668
   Y71       -5.71931  -0.00001   0.00000  -0.00131  -0.00117  -5.72049
   Z71       -3.24839   0.00007   0.00000  -0.00197  -0.00061  -3.24900
   X72        3.53644  -0.00001   0.00000  -0.00011  -0.00040   3.53603
   Y72        7.41972   0.00001   0.00000   0.00035   0.00009   7.41982
   Z72      -11.24202  -0.00015   0.00000  -0.00238  -0.00167 -11.24369
   X73        5.36992   0.00001   0.00000   0.00016  -0.00014   5.36977
   Y73        7.21189   0.00002   0.00000   0.00059   0.00030   7.21219
   Z73      -12.23720  -0.00012   0.00000  -0.00202  -0.00133 -12.23854
   X74        3.35753  -0.00004   0.00000  -0.00024  -0.00049   3.35704
   Y74        5.96913   0.00006   0.00000   0.00058   0.00039   5.96952
   Z74       -9.73943  -0.00012   0.00000  -0.00221  -0.00143  -9.74086
   X75        3.34233  -0.00015   0.00000  -0.00140  -0.00171   3.34062
   Y75       10.48156  -0.00003   0.00000   0.00007  -0.00012  10.48143
   Z75       -9.88589  -0.00008   0.00000  -0.00202  -0.00146  -9.88735
   X76        1.01352  -0.00005   0.00000  -0.00006  -0.00038   1.01314
   Y76        7.12277  -0.00006   0.00000  -0.00028  -0.00068   7.12209
   Z76      -13.40352  -0.00008   0.00000  -0.00235  -0.00159 -13.40511
   X77       -2.87304   0.00025   0.00000   0.00249   0.00225  -2.87080
   Y77        8.74734  -0.00010   0.00000  -0.00118  -0.00130   8.74604
   Z77       -6.95876   0.00001   0.00000  -0.00058   0.00016  -6.95861
   X78       -1.01685   0.00026   0.00000   0.00223   0.00198  -1.01487
   Y78        7.99239   0.00011   0.00000  -0.00076  -0.00089   7.99150
   Z78       -7.58030  -0.00027   0.00000  -0.00253  -0.00178  -7.58209
   X79       -2.90193   0.00047   0.00000   0.00473   0.00446  -2.89747
   Y79       10.84140  -0.00013   0.00000  -0.00124  -0.00137  10.84003
   Z79       -7.07071   0.00001   0.00000  -0.00017   0.00046  -7.07024
   X80       -5.30933  -0.00021   0.00000  -0.00145  -0.00171  -5.31105
   Y80        7.49104  -0.00015   0.00000  -0.00052  -0.00077   7.49027
   Z80       -8.87054   0.00065   0.00000   0.00434   0.00518  -8.86537
   X81       -3.46626  -0.00042   0.00000  -0.00202  -0.00221  -3.46847
   Y81        7.79152  -0.00018   0.00000  -0.00179  -0.00177   7.78975
   Z81       -3.79616  -0.00016   0.00000  -0.00181  -0.00101  -3.79717
   X82        4.07276  -0.00012   0.00000  -0.00141  -0.00163   4.07113
   Y82       11.28939  -0.00012   0.00000  -0.00248  -0.00233  11.28705
   Z82       -3.06897  -0.00008   0.00000  -0.00132  -0.00081  -3.06977
   X83        5.23811  -0.00031   0.00000  -0.00227  -0.00251   5.23560
   Y83       11.21274  -0.00023   0.00000  -0.00300  -0.00292  11.20982
   Z83       -4.80987  -0.00020   0.00000  -0.00187  -0.00137  -4.81125
   X84        5.28129  -0.00041   0.00000  -0.00320  -0.00339   5.27790
   Y84       11.22242  -0.00039   0.00000  -0.00489  -0.00464  11.21778
   Z84       -1.35749   0.00009   0.00000  -0.00023   0.00026  -1.35723
   X85        2.23593   0.00033   0.00000   0.00309   0.00284   2.23877
   Y85       14.07944   0.00015   0.00000   0.00050   0.00064  14.08007
   Z85       -3.06398   0.00004   0.00000  -0.00013   0.00027  -3.06370
   X86        1.92717   0.00010   0.00000  -0.00076  -0.00095   1.92623
   Y86        8.71216  -0.00028   0.00000  -0.00284  -0.00272   8.70944
   Z86       -3.04100  -0.00006   0.00000  -0.00214  -0.00147  -3.04247
   X87       -8.27191   0.00000   0.00000   0.00031   0.00007  -8.27184
   Y87       13.00444  -0.00011   0.00000  -0.00182  -0.00182  13.00262
   Z87       -3.18656  -0.00001   0.00000  -0.00077  -0.00017  -3.18673
   X88      -10.10913   0.00001   0.00000   0.00040   0.00015 -10.10898
   Y88       13.11370  -0.00012   0.00000  -0.00139  -0.00146  13.11224
   Z88       -4.18716  -0.00002   0.00000  -0.00086  -0.00024  -4.18740
   X89       -7.70711   0.00006   0.00000   0.00092   0.00071  -7.70640
   Y89       11.00389  -0.00011   0.00000  -0.00192  -0.00189  11.00200
   Z89       -2.88797  -0.00021   0.00000  -0.00325  -0.00255  -2.89053
   X90       -5.93566   0.00003   0.00000   0.00057   0.00028  -5.93538
   Y90       14.59198   0.00004   0.00000   0.00082   0.00076  14.59273
   Z90       -4.97830   0.00018   0.00000   0.00184   0.00233  -4.97596
   X91       -8.51175  -0.00011   0.00000  -0.00103  -0.00124  -8.51300
   Y91       14.56140  -0.00046   0.00000  -0.00618  -0.00604  14.55536
   Z91       -0.23917   0.00015   0.00000   0.00137   0.00190  -0.23727
         Item               Value     Threshold  Converged?
 Maximum Force            0.045718     0.000450     NO 
 RMS     Force            0.005950     0.000300     NO 
 Maximum Displacement     0.146859     0.001800     NO 
 RMS     Displacement     0.018152     0.001200     NO 
 Predicted change in Energy=-1.113042D-02
 GradGradGradGradGradGradGradGradGradGradGradGradGradGradGradGradGradGrad

 Unable to Open any file for archive entry.
 1\1\GINC-X10P1N23\Force\ONIOM(B3LYP TD-FC/6-31G(d):PM6)\Mixed\C23H38Cl
 30\MAYUMIAO\12-Jul-2024\0\\# scf=(xqc,maxcycle=64) force guess=read on
 iom(td/b3lyp/em=gd3bj/6-31g(d):pm6) nosymm\\Title Card\\0,1\C,0.553211
 48,-0.17588276,-0.18059631\C,-0.08589915,-1.2943594,0.41565458\C,-0.27
 040248,0.87877755,-0.65289635\C,-1.45728425,-1.35722434,0.52572274\H,0
 .53674329,-2.10914974,0.78067942\C,1.97317978,-0.14616676,-0.30899196\
 C,-1.64822373,0.81486627,-0.51636515\H,0.18292687,1.74908672,-1.121344
 6\C,-2.25540412,-0.30443756,0.05621391\H,-1.91819247,-2.2266557,0.9882
 5306\C,2.68597572,0.89325804,-1.00349349\H,2.52691964,-0.99302913,0.10
 271218\H,-2.26175245,1.64545332,-0.85931114\H,-3.33827161,-0.36183709,
 0.13383786\H,3.62162532,1.30011003,-0.62798508\H,2.33303189,1.28560438
 ,-1.95568517\C,4.97674191,0.55644858,1.99250102\H,5.2605762,1.14516536
 ,1.09491124\H,3.9797618,0.86256313,2.37249442\Cl,6.18888567,0.77237601
 ,3.25329242\Cl,4.93584589,-1.16986222,1.5703296\C,5.72592889,-1.066927
 35,-1.56127405\H,4.64879171,-1.11657282,-1.29314062\H,6.33742657,-1.66
 909958,-0.85822892\Cl,6.27301743,0.61928879,-1.51815753\Cl,5.9574372,-
 1.65524589,-3.21162031\C,2.10966325,3.18355061,1.54431181\H,1.8379302,
 2.14392429,1.25590561\H,1.36085015,3.90669293,1.15427197\Cl,3.71481389
 ,3.58246458,0.90710918\Cl,2.20728234,3.3137876,3.30774077\C,-2.2564359
 3,0.81184325,3.48416473\H,-1.88902299,-0.23520275,3.51965152\H,-2.2035
 2776,1.29014247,4.48509457\Cl,-3.93025161,0.83042331,2.9026186\Cl,-1.2
 8115736,1.73288768,2.32677361\C,-1.04636122,4.555673,4.57442831\H,-0.3
 7706664,5.43018397,4.69704914\H,-0.87964004,4.06966533,3.58963103\Cl,-
 2.73062902,5.05977912,4.71872614\Cl,-0.72711693,3.38464376,5.87276426\
 C,4.43426376,1.08159605,-4.44362039\H,3.87978107,0.26876202,-3.9273842
 \H,5.52943221,0.9104865,-4.37434615\Cl,4.03447534,2.64583462,-3.703127
 22\Cl,3.9354169,1.16709331,-6.13720647\C,-5.42620536,1.96454541,-0.387
 58224\H,-6.32063685,1.39095296,-0.07167244\H,-4.63442711,1.92716927,0.
 39070303\Cl,-5.88425801,3.64804214,-0.68286835\Cl,-4.81177744,1.291647
 08,-1.90411102\C,-1.59246127,0.98387146,-4.09026184\H,-1.92315821,1.29
 88825,-5.10128917\H,-2.14664076,1.53055444,-3.29584033\Cl,0.14686962,1
 .30247304,-3.91811768\Cl,-1.83511935,-0.75676704,-3.89835026\C,-1.4123
 6092,5.89470798,0.75789571\H,-1.04920058,6.12200402,-0.26807559\H,-2.2
 9288708,6.51732571,1.01972141\Cl,-0.10493938,6.19839771,1.91725852\Cl,
 -1.84098084,4.17886794,0.88823182\C,1.10932185,0.33263474,4.9447552\H,
 0.73246284,1.33329988,4.64299289\H,1.95577756,0.42503403,5.65459585\Cl
 ,1.63214884,-0.5620905,3.51201639\Cl,-0.20011342,-0.58410599,5.7067658
 9\C,1.06686688,-2.17015661,-3.02845594\H,0.19043292,-2.76358424,-3.355
 727\H,0.74801663,-1.16401741,-2.67670018\Cl,2.21102932,-2.00826079,-4.
 36669932\Cl,1.90265829,-3.02652981,-1.71897359\C,1.87140209,3.9263488,
 -5.94902111\H,2.84163867,3.8163697,-6.47564971\H,1.77672857,3.15872696
 ,-5.15388372\Cl,1.76868352,5.54660067,-5.23138823\Cl,0.53632947,3.7692
 0579,-7.09283479\C,-1.52034928,4.62889326,-3.68241912\H,-0.53809553,4.
 22939119,-4.0113235\H,-1.53563366,5.73701999,-3.74165714\Cl,-2.8095783
 1,3.9640855,-4.69408911\Cl,-1.83426556,4.12309379,-2.00884146\C,2.1552
 1113,5.97408553,-1.62402658\H,2.77189075,5.93352854,-2.54527541\H,2.79
 473909,5.93865082,-0.71835346\Cl,1.18320482,7.4505186,-1.62138642\Cl,1
 .01981672,4.61027664,-1.60922712\C,-4.37730883,6.88165242,-1.68625445\
 H,-5.3495207,6.93947071,-2.21574965\H,-4.07842745,5.82300964,-1.528250
 31\Cl,-3.14101602,7.72174249,-2.634401\Cl,-4.50422538,7.70555925,-0.12
 656394\\Version=ES64L-G16RevC.01\HF=0.0860145\S2=0.872284\S2-1=0.\S2A=
 1.131481\RMSD=7.882e-09\RMSF=5.950e-03\Dipole=-0.0886867,0.0150021,0.1
 600219\PG=C01 [X(C23H38Cl30)]\\@
 The archive entry for this job was punched.


 There ain't no surer way to find out whether you
 like people or hate them than to travel with them.
                                     -- Mark Twain
 Job cpu time:       0 days  0 hours 20 minutes 44.5 seconds.
 Elapsed time:       0 days  0 hours  0 minutes 49.1 seconds.
 File lengths (MBytes):  RWF=    173 Int=      0 D2E=      0 Chk=     37 Scr=      1
 Normal termination of Gaussian 16 at Fri Jul 12 22:49:35 2024.
