 Entering Gaussian System, Link 0=g16
 Input=JOBS/8_A.gjf
 Output=JOBS/8_A.log
 Initial command:
 /data/app/gaussian/C01-avx2//g16/l1.exe "/tmp/Gau-1770135.inp" -scrdir="/tmp/"
 Entering Link 1 = /data/app/gaussian/C01-avx2//g16/l1.exe PID=   1770136.
  
 Copyright (c) 1988-2019, Gaussian, Inc.  All Rights Reserved.
  
 This is part of the Gaussian(R) 16 program.  It is based on
 the Gaussian(R) 09 system (copyright 2009, Gaussian, Inc.),
 the Gaussian(R) 03 system (copyright 2003, Gaussian, Inc.),
 the Gaussian(R) 98 system (copyright 1998, Gaussian, Inc.),
 the Gaussian(R) 94 system (copyright 1995, Gaussian, Inc.),
 the Gaussian 92(TM) system (copyright 1992, Gaussian, Inc.),
 the Gaussian 90(TM) system (copyright 1990, Gaussian, Inc.),
 the Gaussian 88(TM) system (copyright 1988, Gaussian, Inc.),
 the Gaussian 86(TM) system (copyright 1986, Carnegie Mellon
 University), and the Gaussian 82(TM) system (copyright 1983,
 Carnegie Mellon University). Gaussian is a federally registered
 trademark of Gaussian, Inc.
  
 This software contains proprietary and confidential information,
 including trade secrets, belonging to Gaussian, Inc.
  
 This software is provided under written license and may be
 used, copied, transmitted, or stored only in accord with that
 written license.
  
 The following legend is applicable only to US Government
 contracts under FAR:
  
                    RESTRICTED RIGHTS LEGEND
  
 Use, reproduction and disclosure by the US Government is
 subject to restrictions as set forth in subparagraphs (a)
 and (c) of the Commercial Computer Software - Restricted
 Rights clause in FAR 52.227-19.
  
 Gaussian, Inc.
 340 Quinnipiac St., Bldg. 40, Wallingford CT 06492
  
  
 ---------------------------------------------------------------
 Warning -- This program may not be used in any manner that
 competes with the business of Gaussian, Inc. or will provide
 assistance to any competitor of Gaussian, Inc.  The licensee
 of this program is prohibited from giving any competitor of
 Gaussian, Inc. access to this program.  By using this program,
 the user acknowledges that Gaussian, Inc. is engaged in the
 business of creating and licensing software in the field of
 computational chemistry and represents and warrants to the
 licensee that it is not a competitor of Gaussian, Inc. and that
 it will not use this program in any manner prohibited above.
 ---------------------------------------------------------------
  

 Cite this work as:
 Gaussian 16, Revision C.01,
 M. J. Frisch, G. W. Trucks, H. B. Schlegel, G. E. Scuseria, 
 M. A. Robb, J. R. Cheeseman, G. Scalmani, V. Barone, 
 G. A. Petersson, H. Nakatsuji, X. Li, M. Caricato, A. V. Marenich, 
 J. Bloino, B. G. Janesko, R. Gomperts, B. Mennucci, H. P. Hratchian, 
 J. V. Ortiz, A. F. Izmaylov, J. L. Sonnenberg, D. Williams-Young, 
 F. Ding, F. Lipparini, F. Egidi, J. Goings, B. Peng, A. Petrone, 
 T. Henderson, D. Ranasinghe, V. G. Zakrzewski, J. Gao, N. Rega, 
 G. Zheng, W. Liang, M. Hada, M. Ehara, K. Toyota, R. Fukuda, 
 J. Hasegawa, M. Ishida, T. Nakajima, Y. Honda, O. Kitao, H. Nakai, 
 T. Vreven, K. Throssell, J. A. Montgomery, Jr., J. E. Peralta, 
 F. Ogliaro, M. J. Bearpark, J. J. Heyd, E. N. Brothers, K. N. Kudin, 
 V. N. Staroverov, T. A. Keith, R. Kobayashi, J. Normand, 
 K. Raghavachari, A. P. Rendell, J. C. Burant, S. S. Iyengar, 
 J. Tomasi, M. Cossi, J. M. Millam, M. Klene, C. Adamo, R. Cammi, 
 J. W. Ochterski, R. L. Martin, K. Morokuma, O. Farkas, 
 J. B. Foresman, and D. J. Fox, Gaussian, Inc., Wallingford CT, 2019.
 
 ******************************************
 Gaussian 16:  ES64L-G16RevC.01  3-Jul-2019
                12-Jul-2024 
 ******************************************
 %chk=a.chk
 %nprocshared=28
 Will use up to   28 processors via shared memory.
 %mem=48gb
 ----------------------------------------------------------------------
 # scf=(xqc,maxcycle=64) force guess=read oniom(td/b3lyp/em=gd3bj/6-31g
 (d):pm6) nosymm
 ----------------------------------------------------------------------
 1/10=7,30=1,38=1,52=2/1,3;
 2/12=2,15=1,17=6,18=5,40=1/2;
 1/10=7,30=1,38=1,52=2,53=3172/20;
 3/5=2,25=1,41=3900000,71=1,116=-2/1,2,3;
 4/5=1,35=1/1;
 5/5=2,7=64,8=3,13=1,35=1,38=6/2,8;
 6/7=2,8=2,9=2,10=2,28=1/1;
 7/7=1,30=1,33=-1/1,2,3,16;
 1/10=7,30=1,52=2,53=2032/20;
 3/5=1,6=6,7=1,11=9,25=1,30=1,71=1,74=-5,116=-2,124=41/1,2,3,8;
 4/5=1/1;
 5/5=2,7=64,8=3,13=1,38=6/2,8;
 8/6=1,10=2/1;
 9/15=2,42=1,70=2/14;
 10/5=4,31=1/2;
 6/7=2,8=2,9=2,10=2,18=1/1;
 7/7=1,12=6,13=5,30=1,33=-1/1,2,3,16;
 1/10=7,30=1,52=2,53=1022/20;
 3/5=2,25=1,41=3900000,71=1,116=-2/1,2,3;
 4/5=1,35=1/1;
 5/5=2,7=64,8=3,13=1,35=1,38=6/2,8;
 6/7=2,8=2,9=2,10=2,28=1/1;
 7/7=1,30=1,33=-1/1,2,3,16;
 1/10=7,30=1,52=2,53=3015/20;
 7/9=1,29=1,44=-1,126=2/16;
 1/10=7,30=1,52=2/3;
 99//99;
 ONIOM: restoring gridpoint  3 on chk file.
 ----------
 Title Card
 ----------
 Symbolic Z-matrix:
 Charge =  0 Multiplicity = 1 for low   level calculation on real  system.
 Charge =  0 Multiplicity = 1 for high  level calculation on model system.
 Charge =  0 Multiplicity = 1 for low   level calculation on model system.
 c                     0.55367  -0.17624  -0.18092  h 
 c                    -0.08486  -1.29436   0.41493  h 
 c                    -0.26926   0.87965  -0.65145  h 
 c                    -1.45692  -1.35756   0.52677  h 
 h                     0.53721  -2.1101    0.77826  h 
 c                     1.97409  -0.14692  -0.30875  h 
 c                    -1.64673   0.81541  -0.51511  h 
 h                     0.18419   1.75107  -1.11805  h 
 c                    -2.25472  -0.30356   0.05653  h 
 h                    -1.91773  -2.22505   0.99066  h 
 c                     2.68599   0.89122  -1.00401  h 
 h                     2.52574  -0.99479   0.10373  h 
 h                    -2.26053   1.64677  -0.8563   h 
 h                    -3.337    -0.36039   0.13475  h 
 h                     3.61813   1.30496  -0.62826  h 
 h                     2.3309    1.28459  -1.95489  h 
 c                     4.97597   0.55644   1.99302  l 
 h                     5.25968   1.14561   1.0957   l 
 h                     3.97882   0.86198   2.37301  l 
 cl                    6.18785   0.77236   3.25409  l 
 cl                    4.93592  -1.16971   1.57015  l 
 c                     5.727    -1.06744  -1.56108  l 
 h                     4.64964  -1.11555  -1.29362  l 
 h                     6.33712  -1.67096  -0.85799  l 
 cl                    6.27637   0.61801  -1.51677  l 
 cl                    5.95855  -1.65528  -3.2116   l 
 c                     2.10907   3.18383   1.54386  l 
 h                     1.83573   2.14462   1.25548  l 
 h                     1.36062   3.90791   1.15485  l 
 cl                    3.71387   3.58131   0.90478  l 
 cl                    2.20893   3.31343   3.30719  l 
 c                    -2.2578    0.81267   3.48157  l 
 h                    -1.88843  -0.23372   3.51564  l 
 h                    -2.20227   1.29132   4.48216  l 
 cl                   -3.93344   0.82867   2.90543  l 
 cl                   -1.28691   1.73486   2.32155  l 
 c                    -1.04755   4.55708   4.57663  l 
 h                    -0.37865   5.43179   4.70026  l 
 h                    -0.87962   4.07121   3.59197  l 
 cl                   -2.73204   5.06097   4.71905  l 
 cl                   -0.7294    3.38555   5.87474  l 
 c                     4.43424   1.08377  -4.44463  l 
 h                     3.87861   0.27222  -3.92763  l 
 h                     5.52917   0.91124  -4.37509  l 
 cl                    4.03632   2.64913  -3.7055   l 
 cl                    3.9359    1.16816  -6.1384   l 
 c                    -5.42589   1.96639  -0.38805  l 
 h                    -6.32038   1.39475  -0.06865  l 
 h                    -4.63155   1.92805   0.38756  l 
 cl                   -5.88164   3.65055  -0.68315  l 
 cl                   -4.81712   1.2912   -1.90584  l 
 c                    -1.59192   0.98295  -4.08899  l 
 h                    -1.92168   1.29853  -5.10014  l 
 h                    -2.14708   1.52929  -3.29503  l 
 cl                    0.14718   1.30195  -3.91504  l 
 cl                   -1.83457  -0.75773  -3.898    l 
 c                    -1.41047   5.89419   0.75898  l 
 h                    -1.04747   6.12096  -0.26712  l 
 h                    -2.29178   6.51578   1.02056  l 
 cl                   -0.1039    6.19964   1.91882  l 
 cl                   -1.83782   4.17817   0.88902  l 
 c                     1.10964   0.33203   4.94369  l 
 h                     0.733     1.33221   4.64014  l 
 h                     1.95576   0.42565   5.6538   l 
 cl                    1.63329  -0.56492   3.51265  l 
 cl                   -0.20021  -0.58352   5.70632  l 
 c                     1.06706  -2.17037  -3.02825  l 
 h                     0.18997  -2.76282  -3.35557  l 
 h                     0.74911  -1.16454  -2.67486  l 
 cl                    2.21001  -2.00703  -4.36735  l 
 cl                    1.90371  -3.02859  -1.72051  l 
 c                     1.87121   3.92664  -5.95051  l 
 h                     2.84143   3.81673  -6.47726  l 
 h                     1.77674   3.15931  -5.15505  l 
 cl                    1.76803   5.54704  -5.23326  l 
 cl                    0.53599   3.76863  -7.09405  l 
 c                    -1.5217    4.62642  -3.6829   l 
 h                    -0.54001   4.22471  -4.01092  l 
 h                    -1.53418   5.73478  -3.73874  l 
 cl                   -2.81057   3.96795  -4.69902  l 
 cl                   -1.8394    4.11789  -2.0108   l 
 c                     2.15627   5.9728   -1.62394  l 
 h                     2.77287   5.93235  -2.5453   l 
 h                     2.79628   5.93747  -0.71854  l 
 cl                    1.18365   7.44876  -1.62079  l 
 cl                    1.02112   4.60848  -1.60894  l 
 c                    -4.37736   6.88049  -1.68632  l 
 h                    -5.34952   6.93827  -2.2159   l 
 h                    -4.07732   5.82185  -1.5306   l 
 cl                   -3.14163   7.72374  -2.63238  l 
 cl                   -4.50565   7.70068  -0.12479  l 
 

 GradGradGradGradGradGradGradGradGradGradGradGradGradGradGradGradGradGrad
 Berny optimization.
 Initialization pass.
 Trust Radius=3.00D-01 FncErr=1.00D-07 GrdErr=1.00D-07 EigMax=2.50D+02 EigMin=1.00D-04
 Number of steps in this run=      2 maximum allowed number of steps=      2.
 GradGradGradGradGradGradGradGradGradGradGradGradGradGradGradGradGradGrad

 Symmetry turned off by external request.
 Stoichiometry    C23H38Cl30
 Framework group  C1[X(C23H38Cl30)]
 Deg. of freedom   267
 Full point group                 C1      NOp   1
                          Input orientation:                          
 ---------------------------------------------------------------------
 Center     Atomic      Atomic             Coordinates (Angstroms)
 Number     Number       Type             X           Y           Z
 ---------------------------------------------------------------------
      1          6           0        0.553670   -0.176240   -0.180924
      2          6           0       -0.084860   -1.294362    0.414931
      3          6           0       -0.269256    0.879646   -0.651454
      4          6           0       -1.456923   -1.357559    0.526769
      5          1           0        0.537213   -2.110103    0.778256
      6          6           0        1.974089   -0.146924   -0.308748
      7          6           0       -1.646735    0.815409   -0.515106
      8          1           0        0.184187    1.751069   -1.118053
      9          6           0       -2.254724   -0.303561    0.056532
     10          1           0       -1.917731   -2.225053    0.990656
     11          6           0        2.685995    0.891223   -1.004007
     12          1           0        2.525740   -0.994790    0.103728
     13          1           0       -2.260527    1.646770   -0.856303
     14          1           0       -3.337002   -0.360390    0.134745
     15          1           0        3.618135    1.304963   -0.628258
     16          1           0        2.330900    1.284586   -1.954892
     17          6           0        4.975973    0.556438    1.993024
     18          1           0        5.259680    1.145609    1.095697
     19          1           0        3.978818    0.861984    2.373008
     20         17           0        6.187855    0.772362    3.254094
     21         17           0        4.935916   -1.169712    1.570151
     22          6           0        5.726999   -1.067436   -1.561081
     23          1           0        4.649638   -1.115549   -1.293615
     24          1           0        6.337121   -1.670957   -0.857995
     25         17           0        6.276373    0.618010   -1.516775
     26         17           0        5.958546   -1.655284   -3.211605
     27          6           0        2.109074    3.183832    1.543864
     28          1           0        1.835726    2.144621    1.255477
     29          1           0        1.360617    3.907905    1.154853
     30         17           0        3.713871    3.581309    0.904779
     31         17           0        2.208926    3.313431    3.307193
     32          6           0       -2.257800    0.812665    3.481575
     33          1           0       -1.888428   -0.233724    3.515638
     34          1           0       -2.202274    1.291316    4.482162
     35         17           0       -3.933438    0.828669    2.905431
     36         17           0       -1.286905    1.734856    2.321547
     37          6           0       -1.047546    4.557084    4.576630
     38          1           0       -0.378652    5.431786    4.700260
     39          1           0       -0.879623    4.071212    3.591972
     40         17           0       -2.732036    5.060969    4.719050
     41         17           0       -0.729402    3.385553    5.874738
     42          6           0        4.434241    1.083769   -4.444627
     43          1           0        3.878613    0.272215   -3.927631
     44          1           0        5.529169    0.911237   -4.375092
     45         17           0        4.036317    2.649126   -3.705502
     46         17           0        3.935903    1.168165   -6.138399
     47          6           0       -5.425894    1.966389   -0.388045
     48          1           0       -6.320382    1.394748   -0.068651
     49          1           0       -4.631548    1.928052    0.387557
     50         17           0       -5.881635    3.650551   -0.683153
     51         17           0       -4.817117    1.291196   -1.905837
     52          6           0       -1.591920    0.982953   -4.088988
     53          1           0       -1.921684    1.298532   -5.100136
     54          1           0       -2.147078    1.529293   -3.295030
     55         17           0        0.147178    1.301947   -3.915043
     56         17           0       -1.834575   -0.757729   -3.898000
     57          6           0       -1.410471    5.894188    0.758979
     58          1           0       -1.047470    6.120957   -0.267116
     59          1           0       -2.291784    6.515777    1.020563
     60         17           0       -0.103897    6.199641    1.918818
     61         17           0       -1.837824    4.178170    0.889020
     62          6           0        1.109645    0.332034    4.943690
     63          1           0        0.733001    1.332214    4.640136
     64          1           0        1.955762    0.425645    5.653803
     65         17           0        1.633287   -0.564917    3.512651
     66         17           0       -0.200206   -0.583519    5.706323
     67          6           0        1.067064   -2.170368   -3.028246
     68          1           0        0.189969   -2.762818   -3.355570
     69          1           0        0.749114   -1.164541   -2.674863
     70         17           0        2.210006   -2.007026   -4.367347
     71         17           0        1.903705   -3.028591   -1.720510
     72          6           0        1.871208    3.926635   -5.950512
     73          1           0        2.841429    3.816731   -6.477260
     74          1           0        1.776737    3.159310   -5.155053
     75         17           0        1.768026    5.547044   -5.233259
     76         17           0        0.535989    3.768632   -7.094053
     77          6           0       -1.521696    4.626422   -3.682901
     78          1           0       -0.540005    4.224705   -4.010920
     79          1           0       -1.534180    5.734782   -3.738744
     80         17           0       -2.810566    3.967950   -4.699024
     81         17           0       -1.839404    4.117887   -2.010805
     82          6           0        2.156273    5.972802   -1.623935
     83          1           0        2.772866    5.932354   -2.545297
     84          1           0        2.796285    5.937474   -0.718539
     85         17           0        1.183646    7.448755   -1.620792
     86         17           0        1.021124    4.608475   -1.608937
     87          6           0       -4.377355    6.880486   -1.686319
     88          1           0       -5.349517    6.938272   -2.215900
     89          1           0       -4.077321    5.821851   -1.530601
     90         17           0       -3.141634    7.723738   -2.632379
     91         17           0       -4.505653    7.700677   -0.124787
 ---------------------------------------------------------------------
 Rotational constants (GHZ):           0.0226025           0.0200416           0.0153312
 ONIOM: saving gridpoint 17
 ONIOM: restoring gridpoint  3 on chk file.
 ONIOM: generating point  3 -- low level on real system.
 Standard basis: VSTO-6G (5D, 7F)
   400 basis functions,  2580 primitive gaussians,   430 cartesian basis functions
   170 alpha electrons      170 beta electrons
       nuclear repulsion energy      5299.0881832854 Hartrees.
 Integral buffers will be    131072 words long.
 Regular integral format.
 Two-electron integral symmetry is turned off.
 Do NDO integrals.
 One-electron integrals computed using PRISM.
 NBasis=   400 RedAO= F EigKep=  0.00D+00  NBF=   400
 NBsUse=   400 1.00D-04 EigRej=  0.00D+00 NBFU=   400
 Initial guess from the checkpoint file:  "a.chk"
 B after Tr=    -0.000307   -0.000350   -0.000547
         Rot=    1.000000   -0.000021    0.000014   -0.000010 Ang=  -0.00 deg.
 Initial guess <Sx>= 0.0000 <Sy>= 0.0000 <Sz>= 0.0000 <S**2>=-0.0000 S=-0.0000
 Keep J ints in memory in canonical form, NReq=3161508.
 Overlap will be assumed to be unity.
 Requested convergence on RMS density matrix=1.00D-08 within  64 cycles.
 Requested convergence on MAX density matrix=1.00D-06.
 Requested convergence on             energy=1.00D-06.
 No special actions if energy rises.
 SCF Done:  E(UPM6) = -0.404474660022     A.U. after   13 cycles
            NFock= 12  Conv=0.53D-08     -V/T= 0.9994
 <Sx>= 0.0000 <Sy>= 0.0000 <Sz>= 0.0000 <S**2>=-0.0000 S=-0.0000
 <L.S>=  0.00000000000    
 Annihilation of the first spin contaminant:
 S**2 before annihilation     0.0000,   after    -0.0000
 QCSCF skips out because SCF is already converged.

 **********************************************************************

            Population analysis using the SCF Density.

 **********************************************************************

 Alpha  occ. eigenvalues --   -1.11222  -1.05626  -1.05318  -1.05268  -1.05179
 Alpha  occ. eigenvalues --   -1.05139  -1.05130  -1.04943  -1.04877  -1.04791
 Alpha  occ. eigenvalues --   -1.04751  -1.04703  -1.04477  -1.04460  -1.04343
 Alpha  occ. eigenvalues --   -1.04100  -1.01759  -0.98600  -0.98287  -0.98203
 Alpha  occ. eigenvalues --   -0.98149  -0.98101  -0.97959  -0.97944  -0.97809
 Alpha  occ. eigenvalues --   -0.97772  -0.97755  -0.97636  -0.97404  -0.97345
 Alpha  occ. eigenvalues --   -0.97246  -0.97231  -0.96992  -0.92275  -0.88775
 Alpha  occ. eigenvalues --   -0.88690  -0.88583  -0.88395  -0.88361  -0.88257
 Alpha  occ. eigenvalues --   -0.88213  -0.88124  -0.88092  -0.88015  -0.87889
 Alpha  occ. eigenvalues --   -0.87660  -0.87556  -0.87509  -0.87207  -0.82622
 Alpha  occ. eigenvalues --   -0.79187  -0.72909  -0.65425  -0.62710  -0.62379
 Alpha  occ. eigenvalues --   -0.62116  -0.61859  -0.61659  -0.61538  -0.61492
 Alpha  occ. eigenvalues --   -0.61311  -0.61258  -0.61154  -0.61056  -0.60906
 Alpha  occ. eigenvalues --   -0.60372  -0.60300  -0.60122  -0.60047  -0.59999
 Alpha  occ. eigenvalues --   -0.59770  -0.59609  -0.59528  -0.59453  -0.59365
 Alpha  occ. eigenvalues --   -0.59265  -0.59203  -0.59108  -0.58989  -0.58942
 Alpha  occ. eigenvalues --   -0.58740  -0.58599  -0.58560  -0.58488  -0.58328
 Alpha  occ. eigenvalues --   -0.58250  -0.58046  -0.57778  -0.57727  -0.57706
 Alpha  occ. eigenvalues --   -0.57662  -0.57583  -0.57515  -0.57504  -0.57413
 Alpha  occ. eigenvalues --   -0.57238  -0.57098  -0.57061  -0.56888  -0.56771
 Alpha  occ. eigenvalues --   -0.55196  -0.53403  -0.52245  -0.51030  -0.49668
 Alpha  occ. eigenvalues --   -0.46192  -0.45313  -0.45078  -0.44787  -0.44262
 Alpha  occ. eigenvalues --   -0.44238  -0.44098  -0.43996  -0.43933  -0.43842
 Alpha  occ. eigenvalues --   -0.43757  -0.43698  -0.43595  -0.43487  -0.43460
 Alpha  occ. eigenvalues --   -0.43422  -0.43409  -0.43387  -0.43315  -0.43286
 Alpha  occ. eigenvalues --   -0.43225  -0.43147  -0.43120  -0.43046  -0.42974
 Alpha  occ. eigenvalues --   -0.42895  -0.42866  -0.42797  -0.42754  -0.42626
 Alpha  occ. eigenvalues --   -0.42585  -0.42472  -0.42397  -0.42323  -0.42112
 Alpha  occ. eigenvalues --   -0.42006  -0.41898  -0.41892  -0.41785  -0.41780
 Alpha  occ. eigenvalues --   -0.41709  -0.41686  -0.41622  -0.41601  -0.41474
 Alpha  occ. eigenvalues --   -0.41351  -0.41290  -0.41278  -0.41231  -0.41209
 Alpha  occ. eigenvalues --   -0.41151  -0.41130  -0.41050  -0.41033  -0.40896
 Alpha  occ. eigenvalues --   -0.40867  -0.40752  -0.40602  -0.40578  -0.40514
 Alpha  occ. eigenvalues --   -0.40366  -0.40319  -0.39605  -0.36938  -0.32862
 Alpha virt. eigenvalues --   -0.03660  -0.01287  -0.00965  -0.00930  -0.00873
 Alpha virt. eigenvalues --   -0.00655  -0.00632  -0.00581  -0.00533  -0.00475
 Alpha virt. eigenvalues --   -0.00457  -0.00454  -0.00390  -0.00365  -0.00271
 Alpha virt. eigenvalues --   -0.00248  -0.00236  -0.00233  -0.00201  -0.00192
 Alpha virt. eigenvalues --   -0.00162  -0.00126  -0.00062  -0.00009   0.00049
 Alpha virt. eigenvalues --    0.00361   0.00395   0.00458   0.00462   0.00502
 Alpha virt. eigenvalues --    0.00605   0.00700   0.02630   0.08919   0.14213
 Alpha virt. eigenvalues --    0.14283   0.14448   0.14566   0.14696   0.14778
 Alpha virt. eigenvalues --    0.14868   0.14953   0.14991   0.15033   0.15077
 Alpha virt. eigenvalues --    0.15125   0.15154   0.15163   0.15259   0.15363
 Alpha virt. eigenvalues --    0.15424   0.15440   0.15506   0.15577   0.15618
 Alpha virt. eigenvalues --    0.15737   0.15781   0.15861   0.15920   0.15935
 Alpha virt. eigenvalues --    0.15971   0.15979   0.16098   0.16358   0.16405
 Alpha virt. eigenvalues --    0.16414   0.16726   0.17022   0.17231   0.17952
 Alpha virt. eigenvalues --    0.18570   0.19312   0.19837   0.20410   0.21128
 Alpha virt. eigenvalues --    0.21303   0.21607   0.21816   0.22173   0.22308
 Alpha virt. eigenvalues --    3.16365   3.16805   3.17325   3.17931   3.18110
 Alpha virt. eigenvalues --    3.18354   3.18626   3.18715   3.18962   3.19087
 Alpha virt. eigenvalues --    3.19093   3.19272   3.19318   3.19538   3.19631
 Alpha virt. eigenvalues --    3.19640   3.19696   3.19832   3.19903   3.19992
 Alpha virt. eigenvalues --    3.20019   3.20181   3.20271   3.20304   3.20434
 Alpha virt. eigenvalues --    3.20475   3.20543   3.20554   3.20621   3.20665
 Alpha virt. eigenvalues --    3.20705   3.20827   3.20874   3.20969   3.21004
 Alpha virt. eigenvalues --    3.21061   3.21111   3.21161   3.21187   3.21234
 Alpha virt. eigenvalues --    3.21412   3.21450   3.21565   3.21721   3.21840
 Alpha virt. eigenvalues --    3.21975   3.22063   3.22133   3.22171   3.22317
 Alpha virt. eigenvalues --    3.22439   3.22504   3.22523   3.22599   3.22736
 Alpha virt. eigenvalues --    3.22795   3.22945   3.23000   3.23142   3.23179
 Alpha virt. eigenvalues --    3.23188   3.23298   3.23373   3.23422   3.23482
 Alpha virt. eigenvalues --    3.23507   3.23578   3.23657   3.23745   3.23791
 Alpha virt. eigenvalues --    3.23852   3.23953   3.23973   3.24001   3.24095
 Alpha virt. eigenvalues --    3.24136   3.24149   3.24241   3.24281   3.24316
 Alpha virt. eigenvalues --    3.24378   3.24482   3.24487   3.24542   3.24644
 Alpha virt. eigenvalues --    3.24665   3.24725   3.24812   3.24859   3.24945
 Alpha virt. eigenvalues --    3.24963   3.25032   3.25066   3.25084   3.25111
 Alpha virt. eigenvalues --    3.25147   3.25305   3.25387   3.25461   3.25516
 Alpha virt. eigenvalues --    3.25548   3.25685   3.25741   3.25766   3.25861
 Alpha virt. eigenvalues --    3.25887   3.25927   3.25997   3.26115   3.26221
 Alpha virt. eigenvalues --    3.26295   3.26335   3.26424   3.26462   3.26789
 Alpha virt. eigenvalues --    3.26845   3.26906   3.27010   3.27033   3.27162
 Alpha virt. eigenvalues --    3.27249   3.27338   3.27390   3.27398   3.27474
 Alpha virt. eigenvalues --    3.27545   3.27638   3.27736   3.27756   3.27839
 Alpha virt. eigenvalues --    3.27869   3.27955   3.28153   3.28163   3.28213
 Alpha virt. eigenvalues --    3.28282   3.28388   3.28477   3.28556   3.28594
 Alpha virt. eigenvalues --    3.28645   3.28687   3.28736   3.28838   3.28934
 Alpha virt. eigenvalues --    3.29146   3.29269   3.29357   3.29708   3.29957
  Beta  occ. eigenvalues --   -1.11222  -1.05626  -1.05318  -1.05268  -1.05179
  Beta  occ. eigenvalues --   -1.05139  -1.05130  -1.04943  -1.04877  -1.04791
  Beta  occ. eigenvalues --   -1.04751  -1.04703  -1.04477  -1.04460  -1.04343
  Beta  occ. eigenvalues --   -1.04100  -1.01759  -0.98600  -0.98287  -0.98203
  Beta  occ. eigenvalues --   -0.98149  -0.98101  -0.97959  -0.97944  -0.97809
  Beta  occ. eigenvalues --   -0.97772  -0.97755  -0.97636  -0.97404  -0.97345
  Beta  occ. eigenvalues --   -0.97246  -0.97231  -0.96992  -0.92275  -0.88775
  Beta  occ. eigenvalues --   -0.88690  -0.88583  -0.88395  -0.88361  -0.88257
  Beta  occ. eigenvalues --   -0.88213  -0.88124  -0.88092  -0.88015  -0.87889
  Beta  occ. eigenvalues --   -0.87660  -0.87556  -0.87509  -0.87207  -0.82622
  Beta  occ. eigenvalues --   -0.79187  -0.72909  -0.65425  -0.62710  -0.62379
  Beta  occ. eigenvalues --   -0.62116  -0.61859  -0.61659  -0.61538  -0.61492
  Beta  occ. eigenvalues --   -0.61311  -0.61258  -0.61154  -0.61056  -0.60906
  Beta  occ. eigenvalues --   -0.60372  -0.60300  -0.60122  -0.60047  -0.59999
  Beta  occ. eigenvalues --   -0.59770  -0.59609  -0.59528  -0.59453  -0.59365
  Beta  occ. eigenvalues --   -0.59265  -0.59203  -0.59108  -0.58989  -0.58942
  Beta  occ. eigenvalues --   -0.58740  -0.58599  -0.58560  -0.58488  -0.58328
  Beta  occ. eigenvalues --   -0.58250  -0.58046  -0.57778  -0.57727  -0.57706
  Beta  occ. eigenvalues --   -0.57662  -0.57583  -0.57515  -0.57504  -0.57413
  Beta  occ. eigenvalues --   -0.57238  -0.57098  -0.57061  -0.56888  -0.56771
  Beta  occ. eigenvalues --   -0.55196  -0.53403  -0.52245  -0.51030  -0.49668
  Beta  occ. eigenvalues --   -0.46192  -0.45313  -0.45078  -0.44787  -0.44262
  Beta  occ. eigenvalues --   -0.44238  -0.44098  -0.43996  -0.43933  -0.43842
  Beta  occ. eigenvalues --   -0.43757  -0.43698  -0.43595  -0.43487  -0.43460
  Beta  occ. eigenvalues --   -0.43422  -0.43409  -0.43387  -0.43315  -0.43286
  Beta  occ. eigenvalues --   -0.43225  -0.43147  -0.43120  -0.43046  -0.42974
  Beta  occ. eigenvalues --   -0.42895  -0.42866  -0.42797  -0.42754  -0.42626
  Beta  occ. eigenvalues --   -0.42585  -0.42472  -0.42397  -0.42323  -0.42112
  Beta  occ. eigenvalues --   -0.42006  -0.41898  -0.41892  -0.41785  -0.41780
  Beta  occ. eigenvalues --   -0.41709  -0.41686  -0.41622  -0.41601  -0.41474
  Beta  occ. eigenvalues --   -0.41351  -0.41290  -0.41278  -0.41231  -0.41209
  Beta  occ. eigenvalues --   -0.41151  -0.41130  -0.41050  -0.41033  -0.40896
  Beta  occ. eigenvalues --   -0.40867  -0.40752  -0.40602  -0.40578  -0.40514
  Beta  occ. eigenvalues --   -0.40366  -0.40319  -0.39605  -0.36938  -0.32862
  Beta virt. eigenvalues --   -0.03660  -0.01287  -0.00965  -0.00930  -0.00873
  Beta virt. eigenvalues --   -0.00655  -0.00632  -0.00581  -0.00533  -0.00475
  Beta virt. eigenvalues --   -0.00457  -0.00454  -0.00390  -0.00365  -0.00271
  Beta virt. eigenvalues --   -0.00248  -0.00236  -0.00233  -0.00201  -0.00192
  Beta virt. eigenvalues --   -0.00162  -0.00126  -0.00062  -0.00009   0.00049
  Beta virt. eigenvalues --    0.00361   0.00395   0.00458   0.00462   0.00502
  Beta virt. eigenvalues --    0.00605   0.00700   0.02630   0.08919   0.14213
  Beta virt. eigenvalues --    0.14283   0.14448   0.14566   0.14696   0.14778
  Beta virt. eigenvalues --    0.14868   0.14953   0.14991   0.15033   0.15077
  Beta virt. eigenvalues --    0.15125   0.15154   0.15163   0.15259   0.15363
  Beta virt. eigenvalues --    0.15424   0.15440   0.15506   0.15577   0.15618
  Beta virt. eigenvalues --    0.15737   0.15781   0.15861   0.15920   0.15935
  Beta virt. eigenvalues --    0.15971   0.15979   0.16098   0.16358   0.16405
  Beta virt. eigenvalues --    0.16414   0.16726   0.17022   0.17231   0.17952
  Beta virt. eigenvalues --    0.18570   0.19312   0.19837   0.20410   0.21128
  Beta virt. eigenvalues --    0.21303   0.21607   0.21816   0.22173   0.22308
  Beta virt. eigenvalues --    3.16365   3.16805   3.17325   3.17931   3.18110
  Beta virt. eigenvalues --    3.18354   3.18626   3.18715   3.18962   3.19087
  Beta virt. eigenvalues --    3.19093   3.19272   3.19318   3.19538   3.19631
  Beta virt. eigenvalues --    3.19640   3.19696   3.19832   3.19903   3.19992
  Beta virt. eigenvalues --    3.20019   3.20181   3.20271   3.20304   3.20434
  Beta virt. eigenvalues --    3.20475   3.20543   3.20554   3.20621   3.20665
  Beta virt. eigenvalues --    3.20705   3.20827   3.20874   3.20969   3.21004
  Beta virt. eigenvalues --    3.21061   3.21111   3.21161   3.21187   3.21234
  Beta virt. eigenvalues --    3.21412   3.21450   3.21565   3.21721   3.21840
  Beta virt. eigenvalues --    3.21975   3.22063   3.22133   3.22171   3.22317
  Beta virt. eigenvalues --    3.22439   3.22504   3.22523   3.22599   3.22736
  Beta virt. eigenvalues --    3.22795   3.22945   3.23000   3.23142   3.23179
  Beta virt. eigenvalues --    3.23188   3.23298   3.23373   3.23422   3.23482
  Beta virt. eigenvalues --    3.23507   3.23578   3.23657   3.23745   3.23791
  Beta virt. eigenvalues --    3.23852   3.23953   3.23973   3.24001   3.24095
  Beta virt. eigenvalues --    3.24136   3.24149   3.24241   3.24281   3.24316
  Beta virt. eigenvalues --    3.24378   3.24482   3.24487   3.24542   3.24644
  Beta virt. eigenvalues --    3.24665   3.24725   3.24812   3.24859   3.24945
  Beta virt. eigenvalues --    3.24963   3.25032   3.25066   3.25084   3.25111
  Beta virt. eigenvalues --    3.25147   3.25305   3.25387   3.25461   3.25516
  Beta virt. eigenvalues --    3.25548   3.25685   3.25741   3.25766   3.25861
  Beta virt. eigenvalues --    3.25887   3.25927   3.25997   3.26115   3.26221
  Beta virt. eigenvalues --    3.26295   3.26335   3.26424   3.26462   3.26789
  Beta virt. eigenvalues --    3.26845   3.26906   3.27010   3.27033   3.27162
  Beta virt. eigenvalues --    3.27249   3.27338   3.27390   3.27398   3.27474
  Beta virt. eigenvalues --    3.27545   3.27638   3.27736   3.27756   3.27839
  Beta virt. eigenvalues --    3.27869   3.27955   3.28153   3.28163   3.28213
  Beta virt. eigenvalues --    3.28282   3.28388   3.28477   3.28556   3.28594
  Beta virt. eigenvalues --    3.28645   3.28687   3.28736   3.28838   3.28934
  Beta virt. eigenvalues --    3.29146   3.29269   3.29357   3.29708   3.29957
          Condensed to atoms (all electrons):
          Atomic-Atomic Spin Densities.
 Mulliken charges and spin densities:
               1          2
     1  C   -0.015569   0.000000
     2  C   -0.142110   0.000000
     3  C   -0.148820   0.000000
     4  C   -0.156631   0.000000
     5  H    0.153350   0.000000
     6  C   -0.128177   0.000000
     7  C   -0.152184   0.000000
     8  H    0.155111   0.000000
     9  C   -0.117131   0.000000
    10  H    0.149129   0.000000
    11  C   -0.367521   0.000000
    12  H    0.156921   0.000000
    13  H    0.150953   0.000000
    14  H    0.145547   0.000000
    15  H    0.157674   0.000000
    16  H    0.162173   0.000000
    17  C   -0.139293   0.000000
    18  H    0.187917   0.000000
    19  H    0.186203   0.000000
    20  Cl  -0.094829   0.000000
    21  Cl  -0.140469   0.000000
    22  C   -0.144579   0.000000
    23  H    0.192856   0.000000
    24  H    0.191624   0.000000
    25  Cl  -0.127726   0.000000
    26  Cl  -0.111441   0.000000
    27  C   -0.143402   0.000000
    28  H    0.198292   0.000000
    29  H    0.196928   0.000000
    30  Cl  -0.126317   0.000000
    31  Cl  -0.126360   0.000000
    32  C   -0.128640   0.000000
    33  H    0.192328   0.000000
    34  H    0.191958   0.000000
    35  Cl  -0.130357   0.000000
    36  Cl  -0.123474   0.000000
    37  C   -0.137419   0.000000
    38  H    0.184811   0.000000
    39  H    0.194321   0.000000
    40  Cl  -0.101007   0.000000
    41  Cl  -0.142390   0.000000
    42  C   -0.132942   0.000000
    43  H    0.194025   0.000000
    44  H    0.195170   0.000000
    45  Cl  -0.141447   0.000000
    46  Cl  -0.114728   0.000000
    47  C   -0.141894   0.000000
    48  H    0.182999   0.000000
    49  H    0.191579   0.000000
    50  Cl  -0.117468   0.000000
    51  Cl  -0.114920   0.000000
    52  C   -0.126797   0.000000
    53  H    0.190331   0.000000
    54  H    0.195677   0.000000
    55  Cl  -0.142003   0.000000
    56  Cl  -0.116961   0.000000
    57  C   -0.138879   0.000000
    58  H    0.199034   0.000000
    59  H    0.193766   0.000000
    60  Cl  -0.134735   0.000000
    61  Cl  -0.113305   0.000000
    62  C   -0.145429   0.000000
    63  H    0.191349   0.000000
    64  H    0.186396   0.000000
    65  Cl  -0.112403   0.000000
    66  Cl  -0.120583   0.000000
    67  C   -0.132831   0.000000
    68  H    0.183901   0.000000
    69  H    0.198593   0.000000
    70  Cl  -0.116905   0.000000
    71  Cl  -0.133606   0.000000
    72  C   -0.139023   0.000000
    73  H    0.191392   0.000000
    74  H    0.189722   0.000000
    75  Cl  -0.137056   0.000000
    76  Cl  -0.106381   0.000000
    77  C   -0.143133   0.000000
    78  H    0.193015   0.000000
    79  H    0.194066   0.000000
    80  Cl  -0.120218   0.000000
    81  Cl  -0.126700   0.000000
    82  C   -0.144124   0.000000
    83  H    0.188841   0.000000
    84  H    0.188202   0.000000
    85  Cl  -0.107147   0.000000
    86  Cl  -0.129937   0.000000
    87  C   -0.149187   0.000000
    88  H    0.186210   0.000000
    89  H    0.193225   0.000000
    90  Cl  -0.116905   0.000000
    91  Cl  -0.112093   0.000000
 Sum of Mulliken charges =  -0.00000   0.00000
 Mulliken charges and spin densities with hydrogens summed into heavy atoms:
               1          2
     1  C   -0.015569   0.000000
     2  C    0.011240   0.000000
     3  C    0.006291   0.000000
     4  C   -0.007502   0.000000
     6  C    0.028744   0.000000
     7  C   -0.001231   0.000000
     9  C    0.028417   0.000000
    11  C   -0.047674   0.000000
    17  C    0.234827   0.000000
    20  Cl  -0.094829   0.000000
    21  Cl  -0.140469   0.000000
    22  C    0.239902   0.000000
    25  Cl  -0.127726   0.000000
    26  Cl  -0.111441   0.000000
    27  C    0.251817   0.000000
    30  Cl  -0.126317   0.000000
    31  Cl  -0.126360   0.000000
    32  C    0.255646   0.000000
    35  Cl  -0.130357   0.000000
    36  Cl  -0.123474   0.000000
    37  C    0.241713   0.000000
    40  Cl  -0.101007   0.000000
    41  Cl  -0.142390   0.000000
    42  C    0.256252   0.000000
    45  Cl  -0.141447   0.000000
    46  Cl  -0.114728   0.000000
    47  C    0.232684   0.000000
    50  Cl  -0.117468   0.000000
    51  Cl  -0.114920   0.000000
    52  C    0.259211   0.000000
    55  Cl  -0.142003   0.000000
    56  Cl  -0.116961   0.000000
    57  C    0.253921   0.000000
    60  Cl  -0.134735   0.000000
    61  Cl  -0.113305   0.000000
    62  C    0.232316   0.000000
    65  Cl  -0.112403   0.000000
    66  Cl  -0.120583   0.000000
    67  C    0.249663   0.000000
    70  Cl  -0.116905   0.000000
    71  Cl  -0.133606   0.000000
    72  C    0.242091   0.000000
    75  Cl  -0.137056   0.000000
    76  Cl  -0.106381   0.000000
    77  C    0.243948   0.000000
    80  Cl  -0.120218   0.000000
    81  Cl  -0.126700   0.000000
    82  C    0.232918   0.000000
    85  Cl  -0.107147   0.000000
    86  Cl  -0.129937   0.000000
    87  C    0.230248   0.000000
    90  Cl  -0.116905   0.000000
    91  Cl  -0.112093   0.000000
 Charge=              0.0000 electrons
 Dipole moment (field-independent basis, Debye):
    X=             -0.8994    Y=             -0.1904    Z=              0.4985  Tot=              1.0458
 N-N= 5.299088183285D+03 E-N=-9.743363372928D+03  KE=-6.384490844010D+02
 Calling FoFJK, ICntrl=      2127 FMM=F ISym2X=0 I1Cent= 0 IOpClX= 1 NMat=1 NMatS=1 NMatT=0.
 Cartesian Forces:  Max     0.064475475 RMS     0.008677956
 SvSCFP is copying densities from files   528 and   530 to   603.
 ONIOM: saving gridpoint  3
 ONIOM: restoring gridpoint 17
 ONIOM: restoring gridpoint  2 on chk file.
 ONIOM: generating point  2 -- high level on model system.
 Standard basis: 6-31G(d) (6D, 7F)
   136 basis functions,   256 primitive gaussians,   136 cartesian basis functions
    28 alpha electrons       28 beta electrons
       nuclear repulsion energy       319.1626846016 Hartrees.
 NAtoms=   91 NActive=   16 NUniq=   16 SFac= 1.00D+00 NAtFMM=   60 NAOKFM=F Big=F
 Integral buffers will be    131072 words long.
 Regular integral format.
 Two-electron integral symmetry is turned off.
 Nuclear repulsion after empirical dispersion term =      319.1350540950 Hartrees.
 One-electron integrals computed using PRISM.
 NBasis=   136 RedAO= T EigKep=  4.73D-04  NBF=   136
 NBsUse=   136 1.00D-06 EigRej= -1.00D+00 NBFU=   136
 Initial guess from the checkpoint file:  "a.chk"
 B after Tr=     0.001370   -0.000200    0.000892
         Rot=    1.000000   -0.000228   -0.000189    0.000176 Ang=  -0.04 deg.
 Initial guess <Sx>= 0.0000 <Sy>= 0.0000 <Sz>= 0.0000 <S**2>=-0.0000 S=-0.0000
 Requested convergence on RMS density matrix=1.00D-08 within  64 cycles.
 Requested convergence on MAX density matrix=1.00D-06.
 Requested convergence on             energy=1.00D-06.
 No special actions if energy rises.
 SCF Done:  E(UB3LYP) =  -309.636413950     A.U. after    9 cycles
            NFock=  9  Conv=0.70D-08     -V/T= 2.0105
 <Sx>= 0.0000 <Sy>= 0.0000 <Sz>= 0.0000 <S**2>=-0.0000 S=-0.0000
 <L.S>=  0.00000000000    
 Annihilation of the first spin contaminant:
 S**2 before annihilation    -0.0000,   after     0.0000
 QCSCF skips out because SCF is already converged.
 DoSCS=F DFT=T ScalE2(SS,OS)=  1.000000  1.000000
 ExpMin= 1.61D-01 ExpMax= 3.05D+03 ExpMxC= 4.57D+02 IAcc=3 IRadAn=         5 AccDes= 0.00D+00
 HarFok:  IExCor=  205 AccDes= 0.00D+00 IRadAn=         5 IDoV=-2 UseB2=F ITyADJ=14
 ICtDFT= 12500011 ScaDFX=  1.000000  1.000000  1.000000  1.000000
 Range of M.O.s used for correlation:     9   136
 NBasis=   136 NAE=    28 NBE=    28 NFC=     8 NFV=     0
 NROrb=    128 NOA=    20 NOB=    20 NVA=   108 NVB=   108
 Keep R1, R2, and R3 ints in memory in canonical form, NReq=183338682.
    12 initial guesses have been made.
 Convergence on wavefunction:    0.000001000000000
 Iteration     1 Dimension    12 NMult     0 NNew     12
 CISAX will form    12 AO SS matrices at one time.
 New state      1 was old state      2
 New state      2 was old state      3
 New state      3 was old state      7
 Iteration     2 Dimension    18 NMult    12 NNew      6
 New state      2 was old state      3
 New state      3 was old state      2
 Iteration     3 Dimension    24 NMult    18 NNew      6
 Iteration     4 Dimension    30 NMult    24 NNew      6
 Iteration     5 Dimension    36 NMult    30 NNew      6
 Iteration     6 Dimension    42 NMult    36 NNew      6
 Iteration     7 Dimension    48 NMult    42 NNew      6
 Iteration     8 Dimension    54 NMult    48 NNew      6
 Iteration     9 Dimension    58 NMult    54 NNew      4
 ***********************************************************************
 Excited states from <AA,BB:AA,BB> singles matrix:
 ***********************************************************************
 
 ExtSpn:  IState=     1 X2= 1.369 Y2= 0.369 X2-Y2-1=-1.11D-16
          S2Grnd= -0.000 Ra=  0.500 Rb=  0.500 T=  1.000 S2Ext=  2.000 S2=  2.000
 ExtSpn:  IState=     2 X2= 1.026 Y2= 0.026 X2-Y2-1= 4.44D-16
          S2Grnd= -0.000 Ra=  0.500 Rb=  0.500 T=  1.000 S2Ext=  2.000 S2=  2.000
 ExtSpn:  IState=     3 X2= 1.008 Y2= 0.008 X2-Y2-1=-5.55D-16
          S2Grnd= -0.000 Ra=  0.500 Rb=  0.500 T=  1.000 S2Ext=  2.000 S2=  2.000
 Ground to excited state transition densities written to RWF  633
 Ground to excited state transition electric dipole moments (Au):
       state          X           Y           Z        Dip. S.      Osc.
         1         0.0000     -0.0000      0.0000      0.0000      0.0000
         2        -0.0000      0.0000     -0.0000      0.0000      0.0000
         3        -0.0000      0.0000     -0.0000      0.0000      0.0000
 Ground to excited state transition velocity dipole moments (Au):
       state          X           Y           Z        Dip. S.      Osc.
         1         0.0000      0.0000     -0.0000      0.0000      0.0000
         2         0.0000      0.0000     -0.0000      0.0000      0.0000
         3         0.0000     -0.0000      0.0000      0.0000      0.0000
 Ground to excited state transition magnetic dipole moments (Au):
       state          X           Y           Z
         1         0.0000      0.0000      0.0000
         2         0.0000     -0.0000      0.0000
         3        -0.0000     -0.0000     -0.0000
 Ground to excited state transition velocity quadrupole moments (Au):
       state          XX          YY          ZZ          XY          XZ          YZ
         1         0.0000      0.0000      0.0000      0.0000     -0.0000     -0.0000
         2         0.0000     -0.0000     -0.0000      0.0000     -0.0000      0.0000
         3         0.0000     -0.0000     -0.0000     -0.0000      0.0000      0.0000
 <0|del|b> * <b|rxdel|0> + <0|del|b> * <b|delr+rdel|0>
 Rotatory Strengths (R) in cgs (10**-40 erg-esu-cm/Gauss)
       state          XX          YY          ZZ    R(velocity)    E-M Angle
         1        -0.0000     -0.0000      0.0000      0.0000       90.00
         2        -0.0000      0.0000     -0.0000      0.0000       90.00
         3        -0.0000     -0.0000      0.0000     -0.0000       90.00
 1/2[<0|r|b>*<b|rxdel|0> + (<0|rxdel|b>*<b|r|0>)*]
 Rotatory Strengths (R) in cgs (10**-40 erg-esu-cm/Gauss)
       state          XX          YY          ZZ     R(length)
         1        -0.0000      0.0000     -0.0000      0.0000
         2         0.0000      0.0000      0.0000      0.0000
         3        -0.0000      0.0000     -0.0000      0.0000
  1/2[<0|del|b>*<b|r|0> + (<0|r|b>*<b|del|0>)*] (Au)
       state          X           Y           Z        Dip. S.   Osc.(frdel)
         1         0.0000     -0.0000     -0.0000      0.0000      0.0000
         2        -0.0000      0.0000      0.0000      0.0000      0.0000
         3        -0.0000     -0.0000     -0.0000      0.0000      0.0000

 Excitation energies and oscillator strengths:
 
 Excited state symmetry could not be determined.
 Excited State   1:  3.000-?Sym    0.8720 eV 1421.86 nm  f=0.0000  <S**2>=2.000
     26A -> 29A       -0.14483
     26A -> 31A       -0.12761
     28A -> 29A        0.78225
     28A -> 31A        0.12733
     26B -> 29B        0.14483
     26B -> 31B        0.12761
     28B -> 29B       -0.78225
     28B -> 31B       -0.12733
     28A <- 29A        0.38539
     28B <- 29B       -0.38539
 This state for optimization and/or second-order correction.
 Total Energy, E(TD-HF/TD-DFT) =  -309.604369107    
 Copying the excited state density for this state as the 1-particle RhoCI density.
 
 Excited state symmetry could not be determined.
 Excited State   2:  3.000-?Sym    3.7340 eV  332.04 nm  f=0.0000  <S**2>=2.000
     26A -> 29A        0.45531
     27A -> 29A       -0.29692
     27A -> 30A        0.27625
     28A -> 31A       -0.31753
     26B -> 29B       -0.45531
     27B -> 29B        0.29692
     27B -> 30B       -0.27625
     28B -> 31B        0.31753
 
 Excited state symmetry could not be determined.
 Excited State   3:  3.000-?Sym    3.8727 eV  320.15 nm  f=0.0000  <S**2>=2.000
     26A -> 29A        0.23527
     27A -> 29A        0.54197
     27A -> 30A        0.11271
     28A -> 30A        0.31777
     28A -> 31A       -0.14981
     26B -> 29B       -0.23527
     27B -> 29B       -0.54197
     27B -> 30B       -0.11271
     28B -> 30B       -0.31777
     28B -> 31B        0.14981
 SavETr:  write IOETrn=   770 NScale= 10 NData=  16 NLR=1 NState=    3 LETran=      64.
          IDoAtm=11111111111111110000000000000000000000000000000000
          IDoAtm=00000000000000000000000000000000000000000
          Differentiating once with respect to electric field.
                with respect to dipole field.
          Differentiating once with respect to nuclear coordinates.
 Keep R1 and R2 ints in memory in canonical form, NReq=114009024.
          There are     1 degrees of freedom in the 1st order CPHF.  IDoFFX=0 NUNeed=     1.
 LinEq1:  Iter=  0 NonCon=     1 RMS=2.34D-03 Max=4.62D-02 NDo=     1
 AX will form     1 AO Fock derivatives at one time.
 LinEq1:  Iter=  1 NonCon=     1 RMS=2.94D-03 Max=1.29D-01 NDo=     1
 LinEq1:  Iter=  2 NonCon=     1 RMS=1.13D-03 Max=1.41D-02 NDo=     1
 LinEq1:  Iter=  3 NonCon=     1 RMS=5.68D-04 Max=1.15D-02 NDo=     1
 LinEq1:  Iter=  4 NonCon=     1 RMS=3.22D-04 Max=9.00D-03 NDo=     1
 LinEq1:  Iter=  5 NonCon=     1 RMS=2.11D-04 Max=4.50D-03 NDo=     1
 LinEq1:  Iter=  6 NonCon=     1 RMS=9.80D-05 Max=1.44D-03 NDo=     1
 LinEq1:  Iter=  7 NonCon=     1 RMS=4.79D-05 Max=9.54D-04 NDo=     1
 LinEq1:  Iter=  8 NonCon=     1 RMS=2.77D-05 Max=5.70D-04 NDo=     1
 LinEq1:  Iter=  9 NonCon=     1 RMS=1.89D-05 Max=3.38D-04 NDo=     1
 LinEq1:  Iter= 10 NonCon=     1 RMS=1.00D-05 Max=1.71D-04 NDo=     1
 LinEq1:  Iter= 11 NonCon=     1 RMS=5.02D-06 Max=5.97D-05 NDo=     1
 LinEq1:  Iter= 12 NonCon=     1 RMS=1.51D-06 Max=1.85D-05 NDo=     1
 LinEq1:  Iter= 13 NonCon=     1 RMS=4.73D-07 Max=8.53D-06 NDo=     1
 LinEq1:  Iter= 14 NonCon=     1 RMS=2.33D-07 Max=3.75D-06 NDo=     1
 LinEq1:  Iter= 15 NonCon=     1 RMS=9.37D-08 Max=1.24D-06 NDo=     1
 LinEq1:  Iter= 16 NonCon=     1 RMS=1.96D-08 Max=2.40D-07 NDo=     1
 LinEq1:  Iter= 17 NonCon=     1 RMS=4.62D-09 Max=4.06D-08 NDo=     1
 LinEq1:  Iter= 18 NonCon=     1 RMS=1.56D-09 Max=2.77D-08 NDo=     1
 LinEq1:  Iter= 19 NonCon=     1 RMS=8.31D-10 Max=1.29D-08 NDo=     1
 LinEq1:  Iter= 20 NonCon=     1 RMS=1.86D-10 Max=1.96D-09 NDo=     1
 LinEq1:  Iter= 21 NonCon=     0 RMS=3.57D-11 Max=2.65D-10 NDo=     1
 Linear equations converged to 1.000D-10 1.000D-09 after    21 iterations.
 End of Minotr F.D. properties file   721 does not exist.
 End of Minotr F.D. properties file   722 does not exist.
 End of Minotr F.D. properties file   788 does not exist.

 **********************************************************************

            Population analysis using the SCF Density.

 **********************************************************************

 Alpha  occ. eigenvalues --  -10.20164 -10.19608 -10.19136 -10.19042 -10.18934
 Alpha  occ. eigenvalues --  -10.18873 -10.18863 -10.18754  -0.85512  -0.78148
 Alpha  occ. eigenvalues --   -0.74537  -0.70777  -0.62593  -0.59984  -0.55864
 Alpha  occ. eigenvalues --   -0.50836  -0.46727  -0.45092  -0.43088  -0.41916
 Alpha  occ. eigenvalues --   -0.40112  -0.38948  -0.36599  -0.34977  -0.33494
 Alpha  occ. eigenvalues --   -0.28035  -0.25146  -0.19764
 Alpha virt. eigenvalues --   -0.05879   0.00386   0.04263   0.09762   0.12109
 Alpha virt. eigenvalues --    0.13354   0.16032   0.16261   0.17303   0.18398
 Alpha virt. eigenvalues --    0.19896   0.21598   0.26768   0.28260   0.30680
 Alpha virt. eigenvalues --    0.33624   0.36443   0.37649   0.46207   0.52017
 Alpha virt. eigenvalues --    0.52765   0.54267   0.55007   0.56568   0.57421
 Alpha virt. eigenvalues --    0.58873   0.59110   0.59686   0.61237   0.62059
 Alpha virt. eigenvalues --    0.62267   0.63591   0.65016   0.65989   0.68955
 Alpha virt. eigenvalues --    0.71968   0.77267   0.82675   0.83662   0.83937
 Alpha virt. eigenvalues --    0.85055   0.85490   0.88941   0.90683   0.92775
 Alpha virt. eigenvalues --    0.93686   0.94012   0.95674   0.99301   1.01469
 Alpha virt. eigenvalues --    1.04818   1.08718   1.14643   1.16689   1.18281
 Alpha virt. eigenvalues --    1.25936   1.29345   1.33357   1.39440   1.44042
 Alpha virt. eigenvalues --    1.44753   1.45579   1.48576   1.49518   1.51382
 Alpha virt. eigenvalues --    1.64812   1.71817   1.77642   1.80213   1.85399
 Alpha virt. eigenvalues --    1.88496   1.89946   1.91725   1.95096   1.97222
 Alpha virt. eigenvalues --    1.98494   2.05033   2.11081   2.11278   2.14665
 Alpha virt. eigenvalues --    2.14985   2.17897   2.22522   2.26793   2.32228
 Alpha virt. eigenvalues --    2.33205   2.35635   2.47930   2.51077   2.57331
 Alpha virt. eigenvalues --    2.59618   2.62457   2.65946   2.74031   2.75491
 Alpha virt. eigenvalues --    2.76942   2.86037   2.91866   3.13777   3.41598
 Alpha virt. eigenvalues --    4.07423   4.09595   4.12232   4.13935   4.25037
 Alpha virt. eigenvalues --    4.32819   4.42445   4.71099
  Beta  occ. eigenvalues --  -10.20164 -10.19608 -10.19136 -10.19042 -10.18934
  Beta  occ. eigenvalues --  -10.18873 -10.18863 -10.18754  -0.85512  -0.78148
  Beta  occ. eigenvalues --   -0.74537  -0.70777  -0.62593  -0.59984  -0.55864
  Beta  occ. eigenvalues --   -0.50836  -0.46727  -0.45092  -0.43088  -0.41916
  Beta  occ. eigenvalues --   -0.40112  -0.38948  -0.36599  -0.34977  -0.33494
  Beta  occ. eigenvalues --   -0.28035  -0.25146  -0.19764
  Beta virt. eigenvalues --   -0.05879   0.00386   0.04263   0.09762   0.12109
  Beta virt. eigenvalues --    0.13354   0.16032   0.16261   0.17303   0.18398
  Beta virt. eigenvalues --    0.19896   0.21598   0.26768   0.28260   0.30680
  Beta virt. eigenvalues --    0.33624   0.36443   0.37649   0.46207   0.52017
  Beta virt. eigenvalues --    0.52765   0.54267   0.55007   0.56568   0.57421
  Beta virt. eigenvalues --    0.58873   0.59110   0.59686   0.61237   0.62059
  Beta virt. eigenvalues --    0.62267   0.63591   0.65016   0.65989   0.68955
  Beta virt. eigenvalues --    0.71968   0.77267   0.82675   0.83662   0.83937
  Beta virt. eigenvalues --    0.85055   0.85490   0.88941   0.90683   0.92775
  Beta virt. eigenvalues --    0.93686   0.94012   0.95674   0.99301   1.01469
  Beta virt. eigenvalues --    1.04818   1.08718   1.14643   1.16689   1.18281
  Beta virt. eigenvalues --    1.25936   1.29345   1.33357   1.39440   1.44042
  Beta virt. eigenvalues --    1.44753   1.45579   1.48576   1.49518   1.51382
  Beta virt. eigenvalues --    1.64812   1.71817   1.77642   1.80213   1.85399
  Beta virt. eigenvalues --    1.88496   1.89946   1.91725   1.95096   1.97222
  Beta virt. eigenvalues --    1.98494   2.05033   2.11081   2.11278   2.14665
  Beta virt. eigenvalues --    2.14985   2.17897   2.22522   2.26793   2.32228
  Beta virt. eigenvalues --    2.33205   2.35635   2.47930   2.51077   2.57331
  Beta virt. eigenvalues --    2.59618   2.62457   2.65946   2.74031   2.75491
  Beta virt. eigenvalues --    2.76942   2.86037   2.91866   3.13777   3.41598
  Beta virt. eigenvalues --    4.07423   4.09595   4.12232   4.13935   4.25037
  Beta virt. eigenvalues --    4.32819   4.42445   4.71099
          Condensed to atoms (all electrons):
          Atomic-Atomic Spin Densities.
 Mulliken charges and spin densities:
               1          2
     1  C    0.186332  -0.000000
     2  C   -0.187624  -0.000000
     3  C   -0.175328   0.000000
     4  C   -0.127793   0.000000
     5  H    0.127122  -0.000000
     6  C   -0.161194   0.000000
     7  C   -0.127396   0.000000
     8  H    0.129391   0.000000
     9  C   -0.130922  -0.000000
    10  H    0.130101   0.000000
    11  C   -0.369688   0.000000
    12  H    0.138830  -0.000000
    13  H    0.129939   0.000000
    14  H    0.130481  -0.000000
    15  H    0.152718  -0.000000
    16  H    0.155030   0.000000
    17  C    0.000000   0.000000
    18  H    0.000000   0.000000
    19  H    0.000000   0.000000
    20  Cl   0.000000   0.000000
    21  Cl   0.000000   0.000000
    22  C    0.000000   0.000000
    23  H    0.000000   0.000000
    24  H    0.000000   0.000000
    25  Cl   0.000000   0.000000
    26  Cl   0.000000   0.000000
    27  C    0.000000   0.000000
    28  H    0.000000   0.000000
    29  H    0.000000   0.000000
    30  Cl   0.000000   0.000000
    31  Cl   0.000000   0.000000
    32  C    0.000000   0.000000
    33  H    0.000000   0.000000
    34  H    0.000000   0.000000
    35  Cl   0.000000   0.000000
    36  Cl   0.000000   0.000000
    37  C    0.000000   0.000000
    38  H    0.000000   0.000000
    39  H    0.000000   0.000000
    40  Cl   0.000000   0.000000
    41  Cl   0.000000   0.000000
    42  C    0.000000   0.000000
    43  H    0.000000   0.000000
    44  H    0.000000   0.000000
    45  Cl   0.000000   0.000000
    46  Cl   0.000000   0.000000
    47  C    0.000000   0.000000
    48  H    0.000000   0.000000
    49  H    0.000000   0.000000
    50  Cl   0.000000   0.000000
    51  Cl   0.000000   0.000000
    52  C    0.000000   0.000000
    53  H    0.000000   0.000000
    54  H    0.000000   0.000000
    55  Cl   0.000000   0.000000
    56  Cl   0.000000   0.000000
    57  C    0.000000   0.000000
    58  H    0.000000   0.000000
    59  H    0.000000   0.000000
    60  Cl   0.000000   0.000000
    61  Cl   0.000000   0.000000
    62  C    0.000000   0.000000
    63  H    0.000000   0.000000
    64  H    0.000000   0.000000
    65  Cl   0.000000   0.000000
    66  Cl   0.000000   0.000000
    67  C    0.000000   0.000000
    68  H    0.000000   0.000000
    69  H    0.000000   0.000000
    70  Cl   0.000000   0.000000
    71  Cl   0.000000   0.000000
    72  C    0.000000   0.000000
    73  H    0.000000   0.000000
    74  H    0.000000   0.000000
    75  Cl   0.000000   0.000000
    76  Cl   0.000000   0.000000
    77  C    0.000000   0.000000
    78  H    0.000000   0.000000
    79  H    0.000000   0.000000
    80  Cl   0.000000   0.000000
    81  Cl   0.000000   0.000000
    82  C    0.000000   0.000000
    83  H    0.000000   0.000000
    84  H    0.000000   0.000000
    85  Cl   0.000000   0.000000
    86  Cl   0.000000   0.000000
    87  C    0.000000   0.000000
    88  H    0.000000   0.000000
    89  H    0.000000   0.000000
    90  Cl   0.000000   0.000000
    91  Cl   0.000000   0.000000
 Sum of Mulliken charges =  -0.00000   0.00000
 Mulliken charges and spin densities with hydrogens summed into heavy atoms:
               1          2
     1  C    0.186332  -0.000000
     2  C   -0.060502  -0.000000
     3  C   -0.045937   0.000000
     4  C    0.002308   0.000000
     6  C   -0.022364   0.000000
     7  C    0.002543   0.000000
     9  C   -0.000441  -0.000000
    11  C   -0.061939  -0.000000
    17  C    0.000000   0.000000
    20  Cl   0.000000   0.000000
    21  Cl   0.000000   0.000000
    22  C    0.000000   0.000000
    25  Cl   0.000000   0.000000
    26  Cl   0.000000   0.000000
    27  C    0.000000   0.000000
    30  Cl   0.000000   0.000000
    31  Cl   0.000000   0.000000
    32  C    0.000000   0.000000
    35  Cl   0.000000   0.000000
    36  Cl   0.000000   0.000000
    37  C    0.000000   0.000000
    40  Cl   0.000000   0.000000
    41  Cl   0.000000   0.000000
    42  C    0.000000   0.000000
    45  Cl   0.000000   0.000000
    46  Cl   0.000000   0.000000
    47  C    0.000000   0.000000
    50  Cl   0.000000   0.000000
    51  Cl   0.000000   0.000000
    52  C    0.000000   0.000000
    55  Cl   0.000000   0.000000
    56  Cl   0.000000   0.000000
    57  C    0.000000   0.000000
    60  Cl   0.000000   0.000000
    61  Cl   0.000000   0.000000
    62  C    0.000000   0.000000
    65  Cl   0.000000   0.000000
    66  Cl   0.000000   0.000000
    67  C    0.000000   0.000000
    70  Cl   0.000000   0.000000
    71  Cl   0.000000   0.000000
    72  C    0.000000   0.000000
    75  Cl   0.000000   0.000000
    76  Cl   0.000000   0.000000
    77  C    0.000000   0.000000
    80  Cl   0.000000   0.000000
    81  Cl   0.000000   0.000000
    82  C    0.000000   0.000000
    85  Cl   0.000000   0.000000
    86  Cl   0.000000   0.000000
    87  C    0.000000   0.000000
    90  Cl   0.000000   0.000000
    91  Cl   0.000000   0.000000
 Electronic spatial extent (au):  <R**2>=            994.5783
 Charge=             -0.0000 electrons
 Dipole moment (field-independent basis, Debye):
    X=             -0.2790    Y=             -0.1105    Z=              0.0161  Tot=              0.3005
 Quadrupole moment (field-independent basis, Debye-Ang):
   XX=            -43.1124   YY=            -44.2553   ZZ=            -48.7890
   XY=              0.0536   XZ=              0.0844   YZ=             -3.6634
 Traceless Quadrupole moment (field-independent basis, Debye-Ang):
   XX=              2.2732   YY=              1.1303   ZZ=             -3.4034
   XY=              0.0536   XZ=              0.0844   YZ=             -3.6634
 Octapole moment (field-independent basis, Debye-Ang**2):
  XXX=             -5.4914  YYY=              6.9540  ZZZ=             30.5180  XYY=              0.6479
  XXY=              5.1163  XXZ=             13.2595  XZZ=              1.9326  YZZ=              5.7588
  YYZ=             11.2021  XYZ=              0.2703
 Hexadecapole moment (field-independent basis, Debye-Ang**3):
 XXXX=           -854.8457 YYYY=           -304.9089 ZZZZ=           -155.4304 XXXY=            -49.1675
 XXXZ=             75.0112 YYYX=            -64.4942 YYYZ=             58.3770 ZZZX=             65.2606
 ZZZY=             67.3136 XXYY=           -188.3467 XXZZ=           -186.4367 YYZZ=            -73.8087
 XXYZ=             10.6930 YYXZ=             19.5357 ZZXY=            -17.2449
 N-N= 3.191350540950D+02 E-N=-1.354519261472D+03  KE= 3.064338703090D+02
                          Isotropic Fermi Contact Couplings
        Atom                 a.u.       MegaHertz       Gauss      10(-4) cm-1
     1  C(13)             -0.00000      -0.00000      -0.00000      -0.00000
     2  C(13)              0.00000       0.00000       0.00000       0.00000
     3  C(13)              0.00000       0.00000       0.00000       0.00000
     4  C(13)              0.00000       0.00000       0.00000       0.00000
     5  H(1)               0.00000       0.00000       0.00000       0.00000
     6  C(13)             -0.00000      -0.00000      -0.00000      -0.00000
     7  C(13)             -0.00000      -0.00000      -0.00000      -0.00000
     8  H(1)               0.00000       0.00000       0.00000       0.00000
     9  C(13)             -0.00000      -0.00000      -0.00000      -0.00000
    10  H(1)              -0.00000      -0.00000      -0.00000      -0.00000
    11  C(13)             -0.00000      -0.00000      -0.00000      -0.00000
    12  H(1)              -0.00000      -0.00000      -0.00000      -0.00000
    13  H(1)               0.00000       0.00000       0.00000       0.00000
    14  H(1)              -0.00000      -0.00000      -0.00000      -0.00000
    15  H(1)               0.00000       0.00000       0.00000       0.00000
    16  H(1)               0.00000       0.00000       0.00000       0.00000
 --------------------------------------------------------
       Center         ----  Spin Dipole Couplings  ----
                      3XX-RR        3YY-RR        3ZZ-RR
 --------------------------------------------------------
     1   Atom        0.000000      0.000000      0.000000
     2   Atom        0.000000      0.000000      0.000000
     3   Atom        0.000000      0.000000      0.000000
     4   Atom        0.000000      0.000000      0.000000
     5   Atom        0.000000      0.000000      0.000000
     6   Atom        0.000000      0.000000      0.000000
     7   Atom        0.000000      0.000000      0.000000
     8   Atom        0.000000      0.000000      0.000000
     9   Atom        0.000000      0.000000      0.000000
    10   Atom        0.000000      0.000000      0.000000
    11   Atom        0.000000      0.000000      0.000000
    12   Atom        0.000000      0.000000      0.000000
    13   Atom        0.000000      0.000000      0.000000
    14   Atom        0.000000      0.000000      0.000000
    15   Atom        0.000000      0.000000      0.000000
    16   Atom        0.000000      0.000000      0.000000
 --------------------------------------------------------
                        XY            XZ            YZ
 --------------------------------------------------------
     1   Atom        0.000000      0.000000      0.000000
     2   Atom        0.000000      0.000000      0.000000
     3   Atom        0.000000      0.000000      0.000000
     4   Atom        0.000000      0.000000      0.000000
     5   Atom        0.000000      0.000000      0.000000
     6   Atom        0.000000      0.000000      0.000000
     7   Atom        0.000000      0.000000      0.000000
     8   Atom        0.000000      0.000000      0.000000
     9   Atom        0.000000      0.000000      0.000000
    10   Atom        0.000000      0.000000      0.000000
    11   Atom        0.000000      0.000000      0.000000
    12   Atom        0.000000      0.000000      0.000000
    13   Atom        0.000000      0.000000      0.000000
    14   Atom        0.000000      0.000000      0.000000
    15   Atom        0.000000      0.000000      0.000000
    16   Atom        0.000000      0.000000      0.000000
 --------------------------------------------------------


 ---------------------------------------------------------------------------------
              Anisotropic Spin Dipole Couplings in Principal Axis System
 ---------------------------------------------------------------------------------

       Atom             a.u.   MegaHertz   Gauss  10(-4) cm-1        Axes

              Baa     0.0000     0.000     0.000     0.000  1.0000  0.0000  0.0000
     1 C(13)  Bbb     0.0000     0.000     0.000     0.000 -0.0000  1.0000  0.0000
              Bcc     0.0000     0.000     0.000     0.000  0.0000  0.0000  1.0000
 
              Baa     0.0000     0.000     0.000     0.000  1.0000  0.0000  0.0000
     2 C(13)  Bbb     0.0000     0.000     0.000     0.000 -0.0000  1.0000  0.0000
              Bcc     0.0000     0.000     0.000     0.000  0.0000  0.0000  1.0000
 
              Baa     0.0000     0.000     0.000     0.000  1.0000  0.0000  0.0000
     3 C(13)  Bbb     0.0000     0.000     0.000     0.000 -0.0000  1.0000  0.0000
              Bcc     0.0000     0.000     0.000     0.000  0.0000  0.0000  1.0000
 
              Baa     0.0000     0.000     0.000     0.000  1.0000  0.0000  0.0000
     4 C(13)  Bbb     0.0000     0.000     0.000     0.000 -0.0000  1.0000  0.0000
              Bcc     0.0000     0.000     0.000     0.000  0.0000  0.0000  1.0000
 
              Baa     0.0000     0.000     0.000     0.000  1.0000  0.0000  0.0000
     5 H(1)   Bbb     0.0000     0.000     0.000     0.000 -0.0000  1.0000  0.0000
              Bcc     0.0000     0.000     0.000     0.000  0.0000  0.0000  1.0000
 
              Baa     0.0000     0.000     0.000     0.000  1.0000  0.0000  0.0000
     6 C(13)  Bbb     0.0000     0.000     0.000     0.000 -0.0000  1.0000  0.0000
              Bcc     0.0000     0.000     0.000     0.000  0.0000  0.0000  1.0000
 
              Baa     0.0000     0.000     0.000     0.000  1.0000  0.0000  0.0000
     7 C(13)  Bbb     0.0000     0.000     0.000     0.000 -0.0000  1.0000  0.0000
              Bcc     0.0000     0.000     0.000     0.000  0.0000  0.0000  1.0000
 
              Baa     0.0000     0.000     0.000     0.000  1.0000  0.0000  0.0000
     8 H(1)   Bbb     0.0000     0.000     0.000     0.000 -0.0000  1.0000  0.0000
              Bcc     0.0000     0.000     0.000     0.000  0.0000  0.0000  1.0000
 
              Baa     0.0000     0.000     0.000     0.000  1.0000  0.0000  0.0000
     9 C(13)  Bbb     0.0000     0.000     0.000     0.000 -0.0000  1.0000  0.0000
              Bcc     0.0000     0.000     0.000     0.000  0.0000  0.0000  1.0000
 
              Baa     0.0000     0.000     0.000     0.000  1.0000  0.0000  0.0000
    10 H(1)   Bbb     0.0000     0.000     0.000     0.000 -0.0000  1.0000  0.0000
              Bcc     0.0000     0.000     0.000     0.000  0.0000  0.0000  1.0000
 
              Baa     0.0000     0.000     0.000     0.000  1.0000  0.0000  0.0000
    11 C(13)  Bbb     0.0000     0.000     0.000     0.000 -0.0000  1.0000  0.0000
              Bcc     0.0000     0.000     0.000     0.000  0.0000  0.0000  1.0000
 
              Baa     0.0000     0.000     0.000     0.000  1.0000  0.0000  0.0000
    12 H(1)   Bbb     0.0000     0.000     0.000     0.000 -0.0000  1.0000  0.0000
              Bcc     0.0000     0.000     0.000     0.000  0.0000  0.0000  1.0000
 
              Baa     0.0000     0.000     0.000     0.000  1.0000  0.0000  0.0000
    13 H(1)   Bbb     0.0000     0.000     0.000     0.000 -0.0000  1.0000  0.0000
              Bcc     0.0000     0.000     0.000     0.000  0.0000  0.0000  1.0000
 
              Baa     0.0000     0.000     0.000     0.000  1.0000  0.0000  0.0000
    14 H(1)   Bbb     0.0000     0.000     0.000     0.000 -0.0000  1.0000  0.0000
              Bcc     0.0000     0.000     0.000     0.000  0.0000  0.0000  1.0000
 
              Baa     0.0000     0.000     0.000     0.000  1.0000  0.0000  0.0000
    15 H(1)   Bbb     0.0000     0.000     0.000     0.000 -0.0000  1.0000  0.0000
              Bcc     0.0000     0.000     0.000     0.000  0.0000  0.0000  1.0000
 
              Baa     0.0000     0.000     0.000     0.000  1.0000  0.0000  0.0000
    16 H(1)   Bbb     0.0000     0.000     0.000     0.000 -0.0000  1.0000  0.0000
              Bcc     0.0000     0.000     0.000     0.000  0.0000  0.0000  1.0000
 

 ---------------------------------------------------------------------------------

 Calling FoFJK, ICntrl=  10005127 FMM=F ISym2X=0 I1Cent= 0 IOpClX= 1 NMat=1 NMatS=1 NMatT=0.
 Cartesian Forces:  Max     0.078990159 RMS     0.010559218
 SvSCFP is copying densities from files   528 and   530 to   603.
 ONIOM: saving gridpoint  2
 ONIOM: restoring gridpoint 17
 ONIOM: restoring gridpoint  1 on chk file.
 ONIOM: generating point  1 -- low level on model system.
 Standard basis: VSTO-6G (5D, 7F)
    40 basis functions,   240 primitive gaussians,    40 cartesian basis functions
    20 alpha electrons       20 beta electrons
       nuclear repulsion energy       184.5563483041 Hartrees.
 Integral buffers will be    131072 words long.
 Regular integral format.
 Two-electron integral symmetry is turned off.
 Do NDO integrals.
 One-electron integrals computed using PRISM.
 NBasis=    40 RedAO= F EigKep=  0.00D+00  NBF=    40
 NBsUse=    40 1.00D-04 EigRej=  0.00D+00 NBFU=    40
 Initial guess from the checkpoint file:  "a.chk"
 B after Tr=     0.001370   -0.000200    0.000892
         Rot=    1.000000   -0.000228   -0.000189    0.000176 Ang=  -0.04 deg.
 Initial guess <Sx>= 0.0000 <Sy>= 0.0000 <Sz>= 0.0000 <S**2>= 0.8723 S= 0.5594
 Keep J ints in memory in canonical form, NReq=867663.
 Overlap will be assumed to be unity.
 Requested convergence on RMS density matrix=1.00D-08 within  64 cycles.
 Requested convergence on MAX density matrix=1.00D-06.
 Requested convergence on             energy=1.00D-06.
 No special actions if energy rises.
 SCF Done:  E(UPM6) =  0.859665412759E-01 A.U. after   16 cycles
            NFock= 15  Conv=0.82D-08     -V/T= 1.0014
 <Sx>= 0.0000 <Sy>= 0.0000 <Sz>= 0.0000 <S**2>= 0.8704 S= 0.5585
 <L.S>=  0.00000000000    
 Annihilation of the first spin contaminant:
 S**2 before annihilation     0.8704,   after     1.1267
 QCSCF skips out because SCF is already converged.

 **********************************************************************

            Population analysis using the SCF Density.

 **********************************************************************

 Alpha  occ. eigenvalues --   -1.09775  -1.00221  -0.95869  -0.90557  -0.81222
 Alpha  occ. eigenvalues --   -0.77831  -0.71401  -0.63774  -0.58683  -0.56648
 Alpha  occ. eigenvalues --   -0.54050  -0.52327  -0.50828  -0.49730  -0.48186
 Alpha  occ. eigenvalues --   -0.44844  -0.43217  -0.39569  -0.36791  -0.32086
 Alpha virt. eigenvalues --    0.00626   0.01805   0.04427   0.10001   0.15574
 Alpha virt. eigenvalues --    0.15655   0.17706   0.18314   0.18541   0.19260
 Alpha virt. eigenvalues --    0.19826   0.20421   0.21131   0.21557   0.22344
 Alpha virt. eigenvalues --    0.22670   0.22834   0.22946   0.23423   0.23459
  Beta  occ. eigenvalues --   -1.09715  -1.00144  -0.95821  -0.90695  -0.81257
  Beta  occ. eigenvalues --   -0.77841  -0.71492  -0.63598  -0.58596  -0.56713
  Beta  occ. eigenvalues --   -0.54181  -0.52285  -0.50838  -0.49527  -0.48040
  Beta  occ. eigenvalues --   -0.44724  -0.43223  -0.38734  -0.36158  -0.34113
  Beta virt. eigenvalues --   -0.01178   0.02392   0.05197   0.10525   0.15519
  Beta virt. eigenvalues --    0.15817   0.17685   0.18387   0.18611   0.19266
  Beta virt. eigenvalues --    0.19879   0.20610   0.21081   0.21502   0.22296
  Beta virt. eigenvalues --    0.22409   0.22739   0.23014   0.23405   0.23516
          Condensed to atoms (all electrons):
          Atomic-Atomic Spin Densities.
 Mulliken charges and spin densities:
               1          2
     1  C    0.029649  -0.394609
     2  C   -0.172099   0.382214
     3  C   -0.157953   0.392417
     4  C   -0.135465  -0.322750
     5  H    0.147479  -0.013387
     6  C   -0.150009   0.706456
     7  C   -0.141622  -0.323960
     8  H    0.150941  -0.013465
     9  C   -0.146542   0.383989
    10  H    0.144453   0.011249
    11  C   -0.309960  -0.843813
    12  H    0.149729  -0.033928
    13  H    0.144631   0.011344
    14  H    0.144918  -0.013214
    15  H    0.150602   0.035100
    16  H    0.151248   0.036358
    17  C    0.000000   0.000000
    18  H    0.000000   0.000000
    19  H    0.000000   0.000000
    20  Cl   0.000000   0.000000
    21  Cl   0.000000   0.000000
    22  C    0.000000   0.000000
    23  H    0.000000   0.000000
    24  H    0.000000   0.000000
    25  Cl   0.000000   0.000000
    26  Cl   0.000000   0.000000
    27  C    0.000000   0.000000
    28  H    0.000000   0.000000
    29  H    0.000000   0.000000
    30  Cl   0.000000   0.000000
    31  Cl   0.000000   0.000000
    32  C    0.000000   0.000000
    33  H    0.000000   0.000000
    34  H    0.000000   0.000000
    35  Cl   0.000000   0.000000
    36  Cl   0.000000   0.000000
    37  C    0.000000   0.000000
    38  H    0.000000   0.000000
    39  H    0.000000   0.000000
    40  Cl   0.000000   0.000000
    41  Cl   0.000000   0.000000
    42  C    0.000000   0.000000
    43  H    0.000000   0.000000
    44  H    0.000000   0.000000
    45  Cl   0.000000   0.000000
    46  Cl   0.000000   0.000000
    47  C    0.000000   0.000000
    48  H    0.000000   0.000000
    49  H    0.000000   0.000000
    50  Cl   0.000000   0.000000
    51  Cl   0.000000   0.000000
    52  C    0.000000   0.000000
    53  H    0.000000   0.000000
    54  H    0.000000   0.000000
    55  Cl   0.000000   0.000000
    56  Cl   0.000000   0.000000
    57  C    0.000000   0.000000
    58  H    0.000000   0.000000
    59  H    0.000000   0.000000
    60  Cl   0.000000   0.000000
    61  Cl   0.000000   0.000000
    62  C    0.000000   0.000000
    63  H    0.000000   0.000000
    64  H    0.000000   0.000000
    65  Cl   0.000000   0.000000
    66  Cl   0.000000   0.000000
    67  C    0.000000   0.000000
    68  H    0.000000   0.000000
    69  H    0.000000   0.000000
    70  Cl   0.000000   0.000000
    71  Cl   0.000000   0.000000
    72  C    0.000000   0.000000
    73  H    0.000000   0.000000
    74  H    0.000000   0.000000
    75  Cl   0.000000   0.000000
    76  Cl   0.000000   0.000000
    77  C    0.000000   0.000000
    78  H    0.000000   0.000000
    79  H    0.000000   0.000000
    80  Cl   0.000000   0.000000
    81  Cl   0.000000   0.000000
    82  C    0.000000   0.000000
    83  H    0.000000   0.000000
    84  H    0.000000   0.000000
    85  Cl   0.000000   0.000000
    86  Cl   0.000000   0.000000
    87  C    0.000000   0.000000
    88  H    0.000000   0.000000
    89  H    0.000000   0.000000
    90  Cl   0.000000   0.000000
    91  Cl   0.000000   0.000000
 Sum of Mulliken charges =  -0.00000  -0.00000
 Mulliken charges and spin densities with hydrogens summed into heavy atoms:
               1          2
     1  C    0.029649  -0.394609
     2  C   -0.024620   0.368826
     3  C   -0.007012   0.378952
     4  C    0.008989  -0.311501
     6  C   -0.000281   0.672527
     7  C    0.003009  -0.312616
     9  C   -0.001625   0.370775
    11  C   -0.008110  -0.772355
    17  C    0.000000   0.000000
    20  Cl   0.000000   0.000000
    21  Cl   0.000000   0.000000
    22  C    0.000000   0.000000
    25  Cl   0.000000   0.000000
    26  Cl   0.000000   0.000000
    27  C    0.000000   0.000000
    30  Cl   0.000000   0.000000
    31  Cl   0.000000   0.000000
    32  C    0.000000   0.000000
    35  Cl   0.000000   0.000000
    36  Cl   0.000000   0.000000
    37  C    0.000000   0.000000
    40  Cl   0.000000   0.000000
    41  Cl   0.000000   0.000000
    42  C    0.000000   0.000000
    45  Cl   0.000000   0.000000
    46  Cl   0.000000   0.000000
    47  C    0.000000   0.000000
    50  Cl   0.000000   0.000000
    51  Cl   0.000000   0.000000
    52  C    0.000000   0.000000
    55  Cl   0.000000   0.000000
    56  Cl   0.000000   0.000000
    57  C    0.000000   0.000000
    60  Cl   0.000000   0.000000
    61  Cl   0.000000   0.000000
    62  C    0.000000   0.000000
    65  Cl   0.000000   0.000000
    66  Cl   0.000000   0.000000
    67  C    0.000000   0.000000
    70  Cl   0.000000   0.000000
    71  Cl   0.000000   0.000000
    72  C    0.000000   0.000000
    75  Cl   0.000000   0.000000
    76  Cl   0.000000   0.000000
    77  C    0.000000   0.000000
    80  Cl   0.000000   0.000000
    81  Cl   0.000000   0.000000
    82  C    0.000000   0.000000
    85  Cl   0.000000   0.000000
    86  Cl   0.000000   0.000000
    87  C    0.000000   0.000000
    90  Cl   0.000000   0.000000
    91  Cl   0.000000   0.000000
 Charge=             -0.0000 electrons
 Dipole moment (field-independent basis, Debye):
    X=              0.0182    Y=             -0.0237    Z=             -0.0982  Tot=              0.1027
 N-N= 1.845563483041D+02 E-N=-2.805612508658D+02  KE=-6.322646637354D+01
 Calling FoFJK, ICntrl=      2127 FMM=F ISym2X=0 I1Cent= 0 IOpClX= 1 NMat=1 NMatS=1 NMatT=0.
 Cartesian Forces:  Max     0.031590992 RMS     0.004391722
 SvSCFP is copying densities from files   528 and   530 to   603.
 ONIOM: saving gridpoint  1
 ONIOM: restoring gridpoint  3
 ONIOM: calculating energy.
 ONIOM: gridpoint  1 method:  low   system:  model energy:     0.085966541276
 ONIOM: gridpoint  2 method:  high  system:  model energy:  -309.604369106678
 ONIOM: gridpoint  3 method:  low   system:  real  energy:    -0.404474660022
 ONIOM: extrapolated energy =    -310.094810307976
 ONIOM: calculating first derivatives.
 ONIOM: calculating electric field derivatives.
 ONIOM: Integrating ONIOM file  4 number   619
 ONIOM: Dipole        =-8.80171049D-02 1.69444798D-02 1.62585853D-01
 ONIOM: Dipole moment (Debye):
    X=    -0.2237    Y=     0.0431    Z=     0.4133  Tot=     0.4719
 ONIOM: Integrating ONIOM file  5 number   695
 Anisotropic Hyperfine tensors: 
                 1             2             3             4             5 
      1   0.000000D+00  0.000000D+00  0.000000D+00  0.000000D+00  0.000000D+00
      2   0.000000D+00  0.000000D+00  0.000000D+00  0.000000D+00  0.000000D+00
      3   0.000000D+00  0.000000D+00  0.000000D+00  0.000000D+00  0.000000D+00
      4   0.000000D+00  0.000000D+00  0.000000D+00  0.000000D+00  0.000000D+00
      5   0.000000D+00  0.000000D+00  0.000000D+00  0.000000D+00  0.000000D+00
      6   0.000000D+00  0.000000D+00  0.000000D+00  0.000000D+00  0.000000D+00
                 6             7             8             9            10 
      1   0.000000D+00  0.000000D+00  0.000000D+00  0.000000D+00  0.000000D+00
      2   0.000000D+00  0.000000D+00  0.000000D+00  0.000000D+00  0.000000D+00
      3   0.000000D+00  0.000000D+00  0.000000D+00  0.000000D+00  0.000000D+00
      4   0.000000D+00  0.000000D+00  0.000000D+00  0.000000D+00  0.000000D+00
      5   0.000000D+00  0.000000D+00  0.000000D+00  0.000000D+00  0.000000D+00
      6   0.000000D+00  0.000000D+00  0.000000D+00  0.000000D+00  0.000000D+00
                11            12            13            14            15 
      1   0.000000D+00  0.000000D+00  0.000000D+00  0.000000D+00  0.000000D+00
      2   0.000000D+00  0.000000D+00  0.000000D+00  0.000000D+00  0.000000D+00
      3   0.000000D+00  0.000000D+00  0.000000D+00  0.000000D+00  0.000000D+00
      4   0.000000D+00  0.000000D+00  0.000000D+00  0.000000D+00  0.000000D+00
      5   0.000000D+00  0.000000D+00  0.000000D+00  0.000000D+00  0.000000D+00
      6   0.000000D+00  0.000000D+00  0.000000D+00  0.000000D+00  0.000000D+00
                16            17            18            19            20 
      1   0.000000D+00  0.000000D+00  0.000000D+00  0.000000D+00  0.000000D+00
      2   0.000000D+00  0.000000D+00  0.000000D+00  0.000000D+00  0.000000D+00
      3   0.000000D+00  0.000000D+00  0.000000D+00  0.000000D+00  0.000000D+00
      4   0.000000D+00  0.000000D+00  0.000000D+00  0.000000D+00  0.000000D+00
      5   0.000000D+00  0.000000D+00  0.000000D+00  0.000000D+00  0.000000D+00
      6   0.000000D+00  0.000000D+00  0.000000D+00  0.000000D+00  0.000000D+00
                21            22            23            24            25 
      1   0.000000D+00  0.000000D+00  0.000000D+00  0.000000D+00  0.000000D+00
      2   0.000000D+00  0.000000D+00  0.000000D+00  0.000000D+00  0.000000D+00
      3   0.000000D+00  0.000000D+00  0.000000D+00  0.000000D+00  0.000000D+00
      4   0.000000D+00  0.000000D+00  0.000000D+00  0.000000D+00  0.000000D+00
      5   0.000000D+00  0.000000D+00  0.000000D+00  0.000000D+00  0.000000D+00
      6   0.000000D+00  0.000000D+00  0.000000D+00  0.000000D+00  0.000000D+00
                26            27            28            29            30 
      1   0.000000D+00  0.000000D+00  0.000000D+00  0.000000D+00  0.000000D+00
      2   0.000000D+00  0.000000D+00  0.000000D+00  0.000000D+00  0.000000D+00
      3   0.000000D+00  0.000000D+00  0.000000D+00  0.000000D+00  0.000000D+00
      4   0.000000D+00  0.000000D+00  0.000000D+00  0.000000D+00  0.000000D+00
      5   0.000000D+00  0.000000D+00  0.000000D+00  0.000000D+00  0.000000D+00
      6   0.000000D+00  0.000000D+00  0.000000D+00  0.000000D+00  0.000000D+00
[...]
   X21        9.32753   0.00001   0.00000   0.00019   0.00024   9.32777
   Y21       -2.21043  -0.00001   0.00000  -0.00070  -0.00017  -2.21061
   Z21        2.96716  -0.00000   0.00000  -0.00143  -0.00033   2.96683
   X22       10.82246   0.00004   0.00000   0.00055   0.00051  10.82297
   Y22       -2.01716   0.00001   0.00000  -0.00028  -0.00003  -2.01719
   Z22       -2.95002  -0.00001   0.00000  -0.00109  -0.00002  -2.95003
   X23        8.78654   0.00005   0.00000   0.00054   0.00050   8.78704
   Y23       -2.10808   0.00003   0.00000   0.00041   0.00066  -2.10743
   Z23       -2.44458   0.00000   0.00000  -0.00104   0.00007  -2.44451
   X24       11.97542  -0.00006   0.00000  -0.00047  -0.00049  11.97493
   Y24       -3.15765  -0.00008   0.00000  -0.00135  -0.00103  -3.15868
   Z24       -1.62137  -0.00001   0.00000  -0.00112  -0.00001  -1.62138
   X25       11.86063   0.00015   0.00000   0.00215   0.00206  11.86269
   Y25        1.16787  -0.00004   0.00000  -0.00085  -0.00058   1.16729
   Z25       -2.86629   0.00011   0.00000   0.00035   0.00125  -2.86504
   X26       11.26002   0.00005   0.00000   0.00064   0.00056  11.26058
   Y26       -3.12803   0.00010   0.00000   0.00115   0.00125  -3.12678
   Z26       -6.06905  -0.00004   0.00000  -0.00171  -0.00059  -6.06964
   X27        3.98557  -0.00007   0.00000  -0.00102  -0.00107   3.98450
   Y27        6.01657   0.00002   0.00000  -0.00004   0.00042   6.01699
   Z27        2.91748   0.00000   0.00000  -0.00099  -0.00021   2.91727
   X28        3.46902  -0.00027   0.00000  -0.00278  -0.00282   3.46620
   Y28        4.05275   0.00012   0.00000   0.00087   0.00129   4.05404
   Z28        2.37251  -0.00013   0.00000  -0.00228  -0.00140   2.37111
   X29        2.57119  -0.00004   0.00000  -0.00067  -0.00075   2.57045
   Y29        7.38487   0.00001   0.00000   0.00076   0.00116   7.38603
   Z29        2.18236   0.00001   0.00000   0.00015   0.00089   2.18324
   X30        7.01820  -0.00008   0.00000  -0.00103  -0.00111   7.01709
   Y30        6.76769   0.00010   0.00000   0.00027   0.00070   6.76839
   Z30        1.70978   0.00006   0.00000  -0.00078  -0.00008   1.70971
   X31        4.17426   0.00010   0.00000   0.00077   0.00077   4.17504
   Y31        6.26148  -0.00011   0.00000  -0.00249  -0.00187   6.25961
   Z31        6.24969  -0.00001   0.00000  -0.00099  -0.00022   6.24947
   X32       -4.26662  -0.00006   0.00000  -0.00086  -0.00080  -4.26743
   Y32        1.53571  -0.00004   0.00000  -0.00081  -0.00026   1.53545
   Z32        6.57922  -0.00005   0.00000  -0.00206  -0.00093   6.57830
   X33       -3.56861  -0.00011   0.00000  -0.00120  -0.00112  -3.56973
   Y33       -0.44167  -0.00006   0.00000  -0.00096  -0.00041  -0.44208
   Z33        6.64359  -0.00025   0.00000  -0.00287  -0.00165   6.64194
   X34       -4.16169   0.00000   0.00000  -0.00016  -0.00008  -4.16177
   Y34        2.44023   0.00015   0.00000   0.00028   0.00092   2.44115
   Z34        8.47006  -0.00015   0.00000  -0.00251  -0.00142   8.46864
   X35       -7.43312  -0.00008   0.00000  -0.00121  -0.00117  -7.43429
   Y35        1.56596  -0.00010   0.00000  -0.00148  -0.00103   1.56493
   Z35        5.49047   0.00009   0.00000  -0.00094   0.00024   5.49071
   X36       -2.43190  -0.00001   0.00000  -0.00056  -0.00056  -2.43246
   Y36        3.27840  -0.00005   0.00000  -0.00120  -0.00075   3.27765
   Z36        4.38709   0.00003   0.00000  -0.00194  -0.00092   4.38617
   X37       -1.97957  -0.00009   0.00000  -0.00126  -0.00125  -1.98082
   Y37        8.61164   0.00007   0.00000   0.00030   0.00098   8.61262
   Z37        8.64858   0.00013   0.00000   0.00102   0.00177   8.65035
   X38       -0.71555  -0.00014   0.00000  -0.00180  -0.00181  -0.71736
   Y38       10.26459   0.00009   0.00000   0.00050   0.00120  10.26579
   Z38        8.88220   0.00023   0.00000   0.00295   0.00360   8.88580
   X39       -1.66225  -0.00001   0.00000  -0.00007  -0.00009  -1.66233
   Y39        7.69348   0.00015   0.00000   0.00180   0.00238   7.69586
   Z39        6.78784   0.00011   0.00000   0.00059   0.00138   6.78922
   X40       -5.16280  -0.00010   0.00000  -0.00157  -0.00157  -5.16437
   Y40        9.56385   0.00003   0.00000  -0.00055   0.00009   9.56394
   Z40        8.91771   0.00007   0.00000  -0.00004   0.00071   8.91843
   X41       -1.37837  -0.00016   0.00000  -0.00225  -0.00218  -1.38055
   Y41        6.39777  -0.00007   0.00000  -0.00202  -0.00122   6.39655
   Z41       11.10165   0.00001   0.00000  -0.00086  -0.00001  11.10164
   X42        8.37950  -0.00005   0.00000  -0.00035  -0.00053   8.37897
   Y42        2.04803   0.00013   0.00000   0.00176   0.00171   2.04974
   Z42       -8.39913  -0.00001   0.00000  -0.00120  -0.00029  -8.39941
   X43        7.32952  -0.00007   0.00000  -0.00096  -0.00111   7.32841
   Y43        0.51441   0.00011   0.00000   0.00191   0.00189   0.51631
   Z43       -7.42215  -0.00006   0.00000  -0.00148  -0.00048  -7.42263
   X44       10.44861  -0.00007   0.00000  -0.00054  -0.00072  10.44790
   Y44        1.72199   0.00011   0.00000   0.00123   0.00121   1.72320
   Z44       -8.26773   0.00000   0.00000  -0.00057   0.00033  -8.26740
   X45        7.62753   0.00008   0.00000   0.00108   0.00089   7.62842
   Y45        5.00612   0.00016   0.00000   0.00221   0.00222   5.00834
   Z45       -7.00238  -0.00003   0.00000  -0.00142  -0.00064  -7.00303
   X46        7.43778   0.00004   0.00000   0.00084   0.00061   7.43839
   Y46        2.20751   0.00015   0.00000   0.00235   0.00213   2.20964
   Z46      -11.59989  -0.00003   0.00000  -0.00156  -0.00065 -11.60054
   X47      -10.25345   0.00003   0.00000   0.00113   0.00105 -10.25241
   Y47        3.71594   0.00015   0.00000   0.00202   0.00214   3.71807
   Z47       -0.73330   0.00002   0.00000  -0.00095   0.00016  -0.73313
   X48      -11.94379   0.00006   0.00000   0.00105   0.00099 -11.94280
   Y48        2.63569   0.00025   0.00000   0.00372   0.00385   2.63954
   Z48       -0.12973   0.00027   0.00000   0.00228   0.00348  -0.12626
   X49       -8.75236   0.00022   0.00000   0.00311   0.00305  -8.74931
   Y49        3.64349   0.00010   0.00000   0.00145   0.00165   3.64514
   Z49        0.73238  -0.00023   0.00000  -0.00317  -0.00207   0.73030
   X50      -11.11468   0.00033   0.00000   0.00432   0.00419 -11.11049
   Y50        6.89854   0.00022   0.00000   0.00274   0.00281   6.90136
   Z50       -1.29097  -0.00005   0.00000  -0.00188  -0.00091  -1.29188
   X51       -9.10303  -0.00014   0.00000  -0.00224  -0.00235  -9.10538
   Y51        2.44001   0.00002   0.00000  -0.00007  -0.00008   2.43992
   Z51       -3.60151   0.00004   0.00000  -0.00133  -0.00017  -3.60168
   X52       -3.00829   0.00002   0.00000   0.00035   0.00018  -3.00811
   Y52        1.85751  -0.00001   0.00000   0.00014  -0.00001   1.85750
   Z52       -7.72707   0.00007   0.00000  -0.00000   0.00109  -7.72597
   X53       -3.63146   0.00006   0.00000   0.00091   0.00070  -3.63075
   Y53        2.45387   0.00005   0.00000   0.00075   0.00050   2.45437
   Z53       -9.63786   0.00008   0.00000   0.00009   0.00116  -9.63670
   X54       -4.05739  -0.00007   0.00000  -0.00072  -0.00088  -4.05827
   Y54        2.88995  -0.00006   0.00000  -0.00075  -0.00084   2.88910
   Z54       -6.22670   0.00002   0.00000  -0.00015   0.00091  -6.22579
   X55        0.27813  -0.00001   0.00000   0.00009  -0.00008   0.27805
   Y55        2.46032   0.00004   0.00000   0.00080   0.00071   2.46103
   Z55       -7.39836   0.00022   0.00000   0.00151   0.00253  -7.39583
   X56       -3.46684   0.00006   0.00000   0.00104   0.00092  -3.46592
   Y56       -1.43190  -0.00001   0.00000  -0.00005  -0.00019  -1.43209
   Z56       -7.36615   0.00006   0.00000  -0.00117   0.00010  -7.36606
   X57       -2.66540   0.00016   0.00000   0.00193   0.00179  -2.66361
   Y57       11.13840   0.00004   0.00000   0.00023   0.00054  11.13894
   Z57        1.43426  -0.00006   0.00000  -0.00149  -0.00085   1.43341
   X58       -1.97943   0.00015   0.00000   0.00245   0.00228  -1.97716
   Y58       11.56693  -0.00003   0.00000   0.00055   0.00077  11.56770
   Z58       -0.50478  -0.00007   0.00000  -0.00118  -0.00057  -0.50535
   X59       -4.33084   0.00021   0.00000   0.00237   0.00223  -4.32861
   Y59       12.31303   0.00004   0.00000   0.00043   0.00074  12.31377
   Z59        1.92858   0.00003   0.00000  -0.00073  -0.00013   1.92845
   X60       -0.19634  -0.00001   0.00000   0.00054   0.00043  -0.19591
   Y60       11.71562   0.00004   0.00000  -0.00091  -0.00046  11.71516
   Z60        3.62604   0.00010   0.00000   0.00035   0.00091   3.62695
   X61       -3.47298   0.00001   0.00000   0.00048   0.00039  -3.47260
   Y61        7.89560   0.00009   0.00000   0.00040   0.00071   7.89631
   Z61        1.68000  -0.00036   0.00000  -0.00517  -0.00436   1.67564
   X62        2.09692  -0.00004   0.00000  -0.00050  -0.00039   2.09653
   Y62        0.62745   0.00000   0.00000  -0.00069   0.00006   0.62751
   Z62        9.34222  -0.00010   0.00000  -0.00262  -0.00154   9.34068
   X63        1.38517   0.00004   0.00000   0.00028   0.00036   1.38553
   Y63        2.51752  -0.00001   0.00000  -0.00065   0.00007   2.51759
   Z63        8.76859  -0.00021   0.00000  -0.00346  -0.00247   8.76612
   X64        3.69585  -0.00007   0.00000  -0.00101  -0.00088   3.69498
   Y64        0.80435   0.00003   0.00000  -0.00040   0.00044   0.80479
   Z64       10.68414  -0.00008   0.00000  -0.00198  -0.00094  10.68320
   X65        3.08647  -0.00001   0.00000  -0.00016  -0.00007   3.08640
   Y65       -1.06754  -0.00007   0.00000  -0.00173  -0.00110  -1.06863
   Z65        6.63795  -0.00004   0.00000  -0.00193  -0.00079   6.63716
   X66       -0.37833  -0.00008   0.00000  -0.00132  -0.00116  -0.37950
   Y66       -1.10269   0.00009   0.00000   0.00024   0.00103  -1.10166
   Z66       10.78339  -0.00007   0.00000  -0.00284  -0.00163  10.78175
   X67        2.01646   0.00004   0.00000   0.00079   0.00072   2.01718
   Y67       -4.10140  -0.00006   0.00000  -0.00037  -0.00036  -4.10176
   Z67       -5.72255   0.00003   0.00000  -0.00106   0.00025  -5.72230
   X68        0.35899   0.00007   0.00000   0.00055   0.00049   0.35948
   Y68       -5.22097  -0.00003   0.00000   0.00018   0.00014  -5.22083
   Z68       -6.34111  -0.00011   0.00000  -0.00154  -0.00015  -6.34126
   X69        1.41562   0.00026   0.00000   0.00231   0.00223   1.41785
   Y69       -2.20066  -0.00009   0.00000  -0.00095  -0.00092  -2.20158
   Z69       -5.05476   0.00025   0.00000   0.00173   0.00296  -5.05180
   X70        4.17631  -0.00018   0.00000  -0.00162  -0.00173   4.17457
   Y70       -3.79273   0.00018   0.00000   0.00221   0.00211  -3.79061
   Z70       -8.25309  -0.00013   0.00000  -0.00285  -0.00159  -8.25468
   X71        3.59748   0.00001   0.00000   0.00114   0.00113   3.59861
   Y71       -5.72321  -0.00001   0.00000  -0.00131  -0.00116  -5.72437
   Z71       -3.25129   0.00005   0.00000  -0.00203  -0.00067  -3.25196
   X72        3.53607  -0.00002   0.00000  -0.00019  -0.00048   3.53559
   Y72        7.42027   0.00000   0.00000   0.00026   0.00002   7.42028
   Z72      -11.24484  -0.00013   0.00000  -0.00226  -0.00154 -11.24638
   X73        5.36952  -0.00000   0.00000   0.00005  -0.00025   5.36927
   Y73        7.21258   0.00003   0.00000   0.00065   0.00037   7.21295
   Z73      -12.24025  -0.00011   0.00000  -0.00191  -0.00121 -12.24145
   X74        3.35755  -0.00004   0.00000  -0.00023  -0.00047   3.35707
   Y74        5.97023   0.00004   0.00000   0.00038   0.00021   5.97044
   Z74       -9.74164  -0.00012   0.00000  -0.00219  -0.00140  -9.74303
   X75        3.34109  -0.00015   0.00000  -0.00151  -0.00181   3.33928
   Y75       10.48239  -0.00004   0.00000  -0.00005  -0.00023  10.48216
   Z75       -9.88943  -0.00007   0.00000  -0.00188  -0.00131  -9.89074
   X76        1.01287  -0.00004   0.00000  -0.00004  -0.00035   1.01252
   Y76        7.12168  -0.00006   0.00000  -0.00031  -0.00069   7.12099
   Z76      -13.40582  -0.00007   0.00000  -0.00234  -0.00156 -13.40738
   X77       -2.87559   0.00026   0.00000   0.00286   0.00262  -2.87297
   Y77        8.74267  -0.00008   0.00000  -0.00080  -0.00091   8.74176
   Z77       -6.95967   0.00003   0.00000  -0.00042   0.00034  -6.95934
   X78       -1.02046   0.00026   0.00000   0.00253   0.00229  -1.01817
   Y78        7.98354   0.00017   0.00000  -0.00017  -0.00029   7.98324
   Z78       -7.57954  -0.00027   0.00000  -0.00262  -0.00185  -7.58140
   X79       -2.89918   0.00050   0.00000   0.00491   0.00465  -2.89453
   Y79       10.83717  -0.00012   0.00000  -0.00094  -0.00106  10.83611
   Z79       -7.06520  -0.00004   0.00000  -0.00083  -0.00018  -7.06538
   X80       -5.31120  -0.00019   0.00000  -0.00133  -0.00158  -5.31278
   Y80        7.49834  -0.00021   0.00000  -0.00135  -0.00158   7.49676
   Z80       -8.87987   0.00074   0.00000   0.00560   0.00645  -8.87342
   X81       -3.47597  -0.00028   0.00000  -0.00029  -0.00047  -3.47644
   Y81        7.78168  -0.00008   0.00000  -0.00046  -0.00042   7.78126
   Z81       -3.79987  -0.00012   0.00000  -0.00113  -0.00032  -3.80019
   X82        4.07477  -0.00015   0.00000  -0.00186  -0.00207   4.07270
   Y82       11.28696  -0.00015   0.00000  -0.00273  -0.00256  11.28440
   Z82       -3.06879  -0.00009   0.00000  -0.00143  -0.00091  -3.06970
   X83        5.23996  -0.00035   0.00000  -0.00273  -0.00296   5.23700
   Y83       11.21052  -0.00023   0.00000  -0.00315  -0.00306  11.20747
   Z83       -4.80991  -0.00021   0.00000  -0.00196  -0.00146  -4.81137
   X84        5.28421  -0.00045   0.00000  -0.00374  -0.00391   5.28030
   Y84       11.22020  -0.00041   0.00000  -0.00527  -0.00501  11.21519
   Z84       -1.35784   0.00009   0.00000  -0.00030   0.00021  -1.35763
   X85        2.23677   0.00035   0.00000   0.00319   0.00295   2.23972
   Y85       14.07611   0.00014   0.00000   0.00057   0.00071  14.07682
   Z85       -3.06285   0.00003   0.00000  -0.00023   0.00018  -3.06268
   X86        1.92964   0.00002   0.00000  -0.00175  -0.00192   1.92772
   Y86        8.70876  -0.00026   0.00000  -0.00263  -0.00249   8.70627
   Z86       -3.04045  -0.00009   0.00000  -0.00256  -0.00188  -3.04233
   X87       -8.27200   0.00001   0.00000   0.00033   0.00010  -8.27190
   Y87       13.00223  -0.00012   0.00000  -0.00193  -0.00192  13.00031
   Z87       -3.18668  -0.00001   0.00000  -0.00081  -0.00018  -3.18686
   X88      -10.10912   0.00002   0.00000   0.00045   0.00021 -10.10892
   Y88       13.11143  -0.00011   0.00000  -0.00131  -0.00136  13.11007
   Z88       -4.18744  -0.00002   0.00000  -0.00094  -0.00029  -4.18773
   X89       -7.70502   0.00005   0.00000   0.00077   0.00057  -7.70445
   Y89       11.00170  -0.00012   0.00000  -0.00206  -0.00203  10.99968
   Z89       -2.89242  -0.00020   0.00000  -0.00315  -0.00243  -2.89485
   X90       -5.93683   0.00004   0.00000   0.00074   0.00046  -5.93637
   Y90       14.59575   0.00001   0.00000   0.00047   0.00042  14.59617
   Z90       -4.97447   0.00018   0.00000   0.00182   0.00233  -4.97214
   X91       -8.51445  -0.00009   0.00000  -0.00090  -0.00110  -8.51555
   Y91       14.55217  -0.00045   0.00000  -0.00608  -0.00592  14.54625
   Z91       -0.23581   0.00014   0.00000   0.00119   0.00175  -0.23407
         Item               Value     Threshold  Converged?
 Maximum Force            0.045769     0.000450     NO 
 RMS     Force            0.005984     0.000300     NO 
 Maximum Displacement     0.145869     0.001800     NO 
 RMS     Displacement     0.018151     0.001200     NO 
 Predicted change in Energy=-1.114414D-02
 GradGradGradGradGradGradGradGradGradGradGradGradGradGradGradGradGradGrad

 Unable to Open any file for archive entry.
 1\1\GINC-X10P1N23\Force\ONIOM(B3LYP TD-FC/6-31G(d):PM6)\Mixed\C23H38Cl
 30\MAYUMIAO\12-Jul-2024\0\\# scf=(xqc,maxcycle=64) force guess=read on
 iom(td/b3lyp/em=gd3bj/6-31g(d):pm6) nosymm\\Title Card\\0,1\C,0.553670
 39,-0.17624041,-0.18092402\C,-0.08485967,-1.29436166,0.41493091\C,-0.2
 6925561,0.87964632,-0.65145428\C,-1.45692315,-1.35755927,0.52676903\H,
 0.53721277,-2.11010287,0.77825598\C,1.9740886,-0.14692398,-0.30874813\
 C,-1.64673463,0.81540862,-0.51510627\H,0.1841867,1.75106947,-1.1180525
 8\C,-2.25472433,-0.30356122,0.05653195\H,-1.91773058,-2.22505332,0.990
 65589\C,2.68599495,0.89122313,-1.0040069\H,2.5257404,-0.99479018,0.103
 72769\H,-2.2605272,1.6467703,-0.85630264\H,-3.33700216,-0.36038962,0.1
 3474511\H,3.61813492,1.30496321,-0.62825782\H,2.33089991,1.28458606,-1
 .95489161\C,4.97597321,0.55643759,1.9930243\H,5.25968024,1.14560881,1.
 095697\H,3.97881794,0.86198423,2.37300807\Cl,6.18785484,0.77236207,3.2
 5409379\Cl,4.9359158,-1.16971169,1.57015147\C,5.72699904,-1.06743626,-
 1.56108142\H,4.64963836,-1.11554863,-1.2936153\H,6.33712119,-1.6709567
 9,-0.85799461\Cl,6.2763726,0.61800989,-1.51677479\Cl,5.95854561,-1.655
 28408,-3.21160472\C,2.10907386,3.18383171,1.5438641\H,1.83572579,2.144
 62051,1.25547693\H,1.36061656,3.9079053,1.15485305\Cl,3.71387054,3.581
 30859,0.90477905\Cl,2.20892588,3.31343087,3.30719309\C,-2.2578001,0.81
 266513,3.48157483\H,-1.88842794,-0.23372408,3.51563824\H,-2.20227368,1
 .29131625,4.48216206\Cl,-3.93343836,0.82866948,2.90543125\Cl,-1.286905
 04,1.73485628,2.32154664\C,-1.04754572,4.55708411,4.57663027\H,-0.3786
 5197,5.43178637,4.70026011\H,-0.87962333,4.07121218,3.59197223\Cl,-2.7
 3203622,5.0609693,4.71905042\Cl,-0.72940206,3.38555302,5.87473812\C,4.
 43424064,1.08376936,-4.44462666\H,3.8786134,0.27221536,-3.92763117\H,5
 .52916888,0.91123717,-4.37509202\Cl,4.0363168,2.64912649,-3.70550175\C
 l,3.93590346,1.16816473,-6.13839876\C,-5.42589364,1.96638904,-0.388045
 02\H,-6.32038184,1.39474835,-0.06865079\H,-4.63154828,1.92805168,0.387
 55709\Cl,-5.88163548,3.65055089,-0.68315327\Cl,-4.81711673,1.2911958,-
 1.90583712\C,-1.59192001,0.98295292,-4.08898818\H,-1.92168425,1.298532
 05,-5.10013606\H,-2.14707796,1.52929349,-3.29503012\Cl,0.14717802,1.30
 194694,-3.91504325\Cl,-1.83457493,-0.7577286,-3.89799975\C,-1.41047141
 ,5.89418763,0.75897932\H,-1.04747032,6.12095653,-0.26711632\H,-2.29178
 422,6.51577698,1.02056314\Cl,-0.10389684,6.19964126,1.9188178\Cl,-1.83
 782417,4.17816995,0.88901957\C,1.10964459,0.3320339,4.94369049\H,0.733
 00148,1.33221374,4.64013613\H,1.95576209,0.42564544,5.65380328\Cl,1.63
 32871,-0.56491678,3.51265063\Cl,-0.2002056,-0.58351889,5.70632319\C,1.
 06706385,-2.1703685,-3.02824553\H,0.18996887,-2.76281781,-3.35557019\H
 ,0.74911397,-1.16454132,-2.67486266\Cl,2.21000606,-2.00702587,-4.36734
 732\Cl,1.90370515,-3.0285908,-1.72050982\C,1.871208,3.92663538,-5.9505
 1197\H,2.84142858,3.81673125,-6.47726041\H,1.77673737,3.15930967,-5.15
 505262\Cl,1.76802641,5.54704439,-5.23325857\Cl,0.53598865,3.76863207,-
 7.09405314\C,-1.52169564,4.62642194,-3.68290133\H,-0.54000503,4.224705
 12,-4.01092022\H,-1.53417952,5.7347817,-3.73874381\Cl,-2.810566,3.9679
 4996,-4.69902399\Cl,-1.839404,4.11788665,-2.01080462\C,2.15627281,5.97
 280155,-1.62393549\H,2.77286593,5.93235428,-2.54529712\H,2.79628459,5.
 93747379,-0.71853948\Cl,1.18364636,7.44875518,-1.62079205\Cl,1.0211239
 4,4.60847534,-1.60893733\C,-4.37735508,6.8804857,-1.68631866\H,-5.3495
 1745,6.93827205,-2.21589957\H,-4.07732088,5.82185054,-1.53060102\Cl,-3
 .14163442,7.723738,-2.63237876\Cl,-4.50565276,7.70067728,-0.12478707\\
 Version=ES64L-G16RevC.01\HF=0.0859665\S2=0.870424\S2-1=0.\S2A=1.12671\
 RMSD=8.175e-09\RMSF=5.984e-03\Dipole=-0.0880171,0.0169445,0.1625859\PG
 =C01 [X(C23H38Cl30)]\\@
 The archive entry for this job was punched.


 TO ERR IS HUMAN - AND TO BLAME IT ON A COMPUTER IS EVEN MORE SO.
 Job cpu time:       0 days  0 hours 19 minutes  9.2 seconds.
 Elapsed time:       0 days  0 hours  0 minutes 45.9 seconds.
 File lengths (MBytes):  RWF=    173 Int=      0 D2E=      0 Chk=     37 Scr=      1
 Normal termination of Gaussian 16 at Fri Jul 12 22:50:38 2024.
