 Entering Gaussian System, Link 0=g16
 Input=JOBS/8_B.gjf
 Output=JOBS/8_B.log
 Initial command:
 /data/app/gaussian/C01-avx2//g16/l1.exe "/tmp/Gau-1768945.inp" -scrdir="/tmp/"
 Entering Link 1 = /data/app/gaussian/C01-avx2//g16/l1.exe PID=   1768946.
  
 Copyright (c) 1988-2019, Gaussian, Inc.  All Rights Reserved.
  
 This is part of the Gaussian(R) 16 program.  It is based on
 the Gaussian(R) 09 system (copyright 2009, Gaussian, Inc.),
 the Gaussian(R) 03 system (copyright 2003, Gaussian, Inc.),
 the Gaussian(R) 98 system (copyright 1998, Gaussian, Inc.),
 the Gaussian(R) 94 system (copyright 1995, Gaussian, Inc.),
 the Gaussian 92(TM) system (copyright 1992, Gaussian, Inc.),
 the Gaussian 90(TM) system (copyright 1990, Gaussian, Inc.),
 the Gaussian 88(TM) system (copyright 1988, Gaussian, Inc.),
 the Gaussian 86(TM) system (copyright 1986, Carnegie Mellon
 University), and the Gaussian 82(TM) system (copyright 1983,
 Carnegie Mellon University). Gaussian is a federally registered
 trademark of Gaussian, Inc.
  
 This software contains proprietary and confidential information,
 including trade secrets, belonging to Gaussian, Inc.
  
 This software is provided under written license and may be
 used, copied, transmitted, or stored only in accord with that
 written license.
  
 The following legend is applicable only to US Government
 contracts under FAR:
  
                    RESTRICTED RIGHTS LEGEND
  
 Use, reproduction and disclosure by the US Government is
 subject to restrictions as set forth in subparagraphs (a)
 and (c) of the Commercial Computer Software - Restricted
 Rights clause in FAR 52.227-19.
  
 Gaussian, Inc.
 340 Quinnipiac St., Bldg. 40, Wallingford CT 06492
  
  
 ---------------------------------------------------------------
 Warning -- This program may not be used in any manner that
 competes with the business of Gaussian, Inc. or will provide
 assistance to any competitor of Gaussian, Inc.  The licensee
 of this program is prohibited from giving any competitor of
 Gaussian, Inc. access to this program.  By using this program,
 the user acknowledges that Gaussian, Inc. is engaged in the
 business of creating and licensing software in the field of
 computational chemistry and represents and warrants to the
 licensee that it is not a competitor of Gaussian, Inc. and that
 it will not use this program in any manner prohibited above.
 ---------------------------------------------------------------
  

 Cite this work as:
 Gaussian 16, Revision C.01,
 M. J. Frisch, G. W. Trucks, H. B. Schlegel, G. E. Scuseria, 
 M. A. Robb, J. R. Cheeseman, G. Scalmani, V. Barone, 
 G. A. Petersson, H. Nakatsuji, X. Li, M. Caricato, A. V. Marenich, 
 J. Bloino, B. G. Janesko, R. Gomperts, B. Mennucci, H. P. Hratchian, 
 J. V. Ortiz, A. F. Izmaylov, J. L. Sonnenberg, D. Williams-Young, 
 F. Ding, F. Lipparini, F. Egidi, J. Goings, B. Peng, A. Petrone, 
 T. Henderson, D. Ranasinghe, V. G. Zakrzewski, J. Gao, N. Rega, 
 G. Zheng, W. Liang, M. Hada, M. Ehara, K. Toyota, R. Fukuda, 
 J. Hasegawa, M. Ishida, T. Nakajima, Y. Honda, O. Kitao, H. Nakai, 
 T. Vreven, K. Throssell, J. A. Montgomery, Jr., J. E. Peralta, 
 F. Ogliaro, M. J. Bearpark, J. J. Heyd, E. N. Brothers, K. N. Kudin, 
 V. N. Staroverov, T. A. Keith, R. Kobayashi, J. Normand, 
 K. Raghavachari, A. P. Rendell, J. C. Burant, S. S. Iyengar, 
 J. Tomasi, M. Cossi, J. M. Millam, M. Klene, C. Adamo, R. Cammi, 
 J. W. Ochterski, R. L. Martin, K. Morokuma, O. Farkas, 
 J. B. Foresman, and D. J. Fox, Gaussian, Inc., Wallingford CT, 2019.
 
 ******************************************
 Gaussian 16:  ES64L-G16RevC.01  3-Jul-2019
                12-Jul-2024 
 ******************************************
 %chk=b.chk
 %nprocshared=28
 Will use up to   28 processors via shared memory.
 %mem=48gb
 ----------------------------------------------------------------------
 # scf=(xqc,maxcycle=64) force guess=read oniom(b3lyp/em=gd3bj/6-31g(d)
 :pm6) nosymm
 ----------------------------------------------------------------------
 1/10=7,30=1,38=1,52=2/1,3;
 2/12=2,15=1,17=6,18=5,40=1/2;
 1/10=7,30=1,38=1,52=2,53=3172/20;
 3/5=2,25=1,41=3900000,71=1,116=-2/1,2,3;
 4/5=1,35=1/1;
 5/5=2,7=64,8=3,13=1,35=1,38=6/2,8;
 6/7=2,8=2,9=2,10=2,28=1/1;
 7/7=1,30=1,33=-1/1,2,3,16;
 1/10=7,30=1,52=2,53=2032/20;
 3/5=1,6=6,7=1,11=2,25=1,30=1,71=1,74=-5,116=-2,124=41/1,2,3;
 4/5=1/1;
 5/5=2,7=64,8=3,13=1,38=6/2,8;
 6/7=2,8=2,9=2,10=2,28=1/1;
 7/7=1,30=1,33=-1/1,2,3,16;
 1/10=7,30=1,52=2,53=1022/20;
 3/5=2,25=1,41=3900000,71=1,116=-2/1,2,3;
 4/5=1,35=1/1;
 5/5=2,7=64,8=3,13=1,35=1,38=6/2,8;
 6/7=2,8=2,9=2,10=2,28=1/1;
 7/7=1,30=1,33=-1/1,2,3,16;
 1/10=7,30=1,52=2,53=3015/20;
 7/9=1,29=1,44=-1,126=2/16;
 1/10=7,30=1,52=2/3;
 99//99;
 ONIOM: restoring gridpoint  3 on chk file.
 ----------
 Title Card
 ----------
 Symbolic Z-matrix:
 Charge =  0 Multiplicity = 1 for low   level calculation on real  system.
 Charge =  0 Multiplicity = 3 for high  level calculation on model system.
 Charge =  0 Multiplicity = 3 for low   level calculation on model system.
 c                     0.55367  -0.17624  -0.18092  h 
 c                    -0.08486  -1.29436   0.41493  h 
 c                    -0.26926   0.87965  -0.65145  h 
 c                    -1.45692  -1.35756   0.52677  h 
 h                     0.53721  -2.1101    0.77826  h 
 c                     1.97409  -0.14692  -0.30875  h 
 c                    -1.64673   0.81541  -0.51511  h 
 h                     0.18419   1.75107  -1.11805  h 
 c                    -2.25472  -0.30356   0.05653  h 
 h                    -1.91773  -2.22505   0.99066  h 
 c                     2.68599   0.89122  -1.00401  h 
 h                     2.52574  -0.99479   0.10373  h 
 h                    -2.26053   1.64677  -0.8563   h 
 h                    -3.337    -0.36039   0.13475  h 
 h                     3.61813   1.30496  -0.62826  h 
 h                     2.3309    1.28459  -1.95489  h 
 c                     4.97597   0.55644   1.99302  l 
 h                     5.25968   1.14561   1.0957   l 
 h                     3.97882   0.86198   2.37301  l 
 cl                    6.18785   0.77236   3.25409  l 
 cl                    4.93592  -1.16971   1.57015  l 
 c                     5.727    -1.06744  -1.56108  l 
 h                     4.64964  -1.11555  -1.29362  l 
 h                     6.33712  -1.67096  -0.85799  l 
 cl                    6.27637   0.61801  -1.51677  l 
 cl                    5.95855  -1.65528  -3.2116   l 
 c                     2.10907   3.18383   1.54386  l 
 h                     1.83573   2.14462   1.25548  l 
 h                     1.36062   3.90791   1.15485  l 
 cl                    3.71387   3.58131   0.90478  l 
 cl                    2.20893   3.31343   3.30719  l 
 c                    -2.2578    0.81267   3.48157  l 
 h                    -1.88843  -0.23372   3.51564  l 
 h                    -2.20227   1.29132   4.48216  l 
 cl                   -3.93344   0.82867   2.90543  l 
 cl                   -1.28691   1.73486   2.32155  l 
 c                    -1.04755   4.55708   4.57663  l 
 h                    -0.37865   5.43179   4.70026  l 
 h                    -0.87962   4.07121   3.59197  l 
 cl                   -2.73204   5.06097   4.71905  l 
 cl                   -0.7294    3.38555   5.87474  l 
 c                     4.43424   1.08377  -4.44463  l 
 h                     3.87861   0.27222  -3.92763  l 
 h                     5.52917   0.91124  -4.37509  l 
 cl                    4.03632   2.64913  -3.7055   l 
 cl                    3.9359    1.16816  -6.1384   l 
 c                    -5.42589   1.96639  -0.38805  l 
 h                    -6.32038   1.39475  -0.06865  l 
 h                    -4.63155   1.92805   0.38756  l 
 cl                   -5.88164   3.65055  -0.68315  l 
 cl                   -4.81712   1.2912   -1.90584  l 
 c                    -1.59192   0.98295  -4.08899  l 
 h                    -1.92168   1.29853  -5.10014  l 
 h                    -2.14708   1.52929  -3.29503  l 
 cl                    0.14718   1.30195  -3.91504  l 
 cl                   -1.83457  -0.75773  -3.898    l 
 c                    -1.41047   5.89419   0.75898  l 
 h                    -1.04747   6.12096  -0.26712  l 
 h                    -2.29178   6.51578   1.02056  l 
 cl                   -0.1039    6.19964   1.91882  l 
 cl                   -1.83782   4.17817   0.88902  l 
 c                     1.10964   0.33203   4.94369  l 
 h                     0.733     1.33221   4.64014  l 
 h                     1.95576   0.42565   5.6538   l 
 cl                    1.63329  -0.56492   3.51265  l 
 cl                   -0.20021  -0.58352   5.70632  l 
 c                     1.06706  -2.17037  -3.02825  l 
 h                     0.18997  -2.76282  -3.35557  l 
 h                     0.74911  -1.16454  -2.67486  l 
 cl                    2.21001  -2.00703  -4.36735  l 
 cl                    1.90371  -3.02859  -1.72051  l 
 c                     1.87121   3.92664  -5.95051  l 
 h                     2.84143   3.81673  -6.47726  l 
 h                     1.77674   3.15931  -5.15505  l 
 cl                    1.76803   5.54704  -5.23326  l 
 cl                    0.53599   3.76863  -7.09405  l 
 c                    -1.5217    4.62642  -3.6829   l 
 h                    -0.54001   4.22471  -4.01092  l 
 h                    -1.53418   5.73478  -3.73874  l 
 cl                   -2.81057   3.96795  -4.69902  l 
 cl                   -1.8394    4.11789  -2.0108   l 
 c                     2.15627   5.9728   -1.62394  l 
 h                     2.77287   5.93235  -2.5453   l 
 h                     2.79628   5.93747  -0.71854  l 
 cl                    1.18365   7.44876  -1.62079  l 
 cl                    1.02112   4.60848  -1.60894  l 
 c                    -4.37736   6.88049  -1.68632  l 
 h                    -5.34952   6.93827  -2.2159   l 
 h                    -4.07732   5.82185  -1.5306   l 
 cl                   -3.14163   7.72374  -2.63238  l 
 cl                   -4.50565   7.70068  -0.12479  l 
 

 GradGradGradGradGradGradGradGradGradGradGradGradGradGradGradGradGradGrad
 Berny optimization.
 Initialization pass.
 Trust Radius=3.00D-01 FncErr=1.00D-07 GrdErr=1.00D-07 EigMax=2.50D+02 EigMin=1.00D-04
 Number of steps in this run=      2 maximum allowed number of steps=      2.
 GradGradGradGradGradGradGradGradGradGradGradGradGradGradGradGradGradGrad

 Symmetry turned off by external request.
 Stoichiometry    C23H38Cl30
 Framework group  C1[X(C23H38Cl30)]
 Deg. of freedom   267
 Full point group                 C1      NOp   1
                          Input orientation:                          
 ---------------------------------------------------------------------
 Center     Atomic      Atomic             Coordinates (Angstroms)
 Number     Number       Type             X           Y           Z
 ---------------------------------------------------------------------
      1          6           0        0.553670   -0.176240   -0.180924
      2          6           0       -0.084860   -1.294362    0.414931
      3          6           0       -0.269256    0.879646   -0.651454
      4          6           0       -1.456923   -1.357559    0.526769
      5          1           0        0.537213   -2.110103    0.778256
      6          6           0        1.974089   -0.146924   -0.308748
      7          6           0       -1.646735    0.815409   -0.515106
      8          1           0        0.184187    1.751069   -1.118053
      9          6           0       -2.254724   -0.303561    0.056532
     10          1           0       -1.917731   -2.225053    0.990656
     11          6           0        2.685995    0.891223   -1.004007
     12          1           0        2.525740   -0.994790    0.103728
     13          1           0       -2.260527    1.646770   -0.856303
     14          1           0       -3.337002   -0.360390    0.134745
     15          1           0        3.618135    1.304963   -0.628258
     16          1           0        2.330900    1.284586   -1.954892
     17          6           0        4.975973    0.556438    1.993024
     18          1           0        5.259680    1.145609    1.095697
     19          1           0        3.978818    0.861984    2.373008
     20         17           0        6.187855    0.772362    3.254094
     21         17           0        4.935916   -1.169712    1.570151
     22          6           0        5.726999   -1.067436   -1.561081
     23          1           0        4.649638   -1.115549   -1.293615
     24          1           0        6.337121   -1.670957   -0.857995
     25         17           0        6.276373    0.618010   -1.516775
     26         17           0        5.958546   -1.655284   -3.211605
     27          6           0        2.109074    3.183832    1.543864
     28          1           0        1.835726    2.144621    1.255477
     29          1           0        1.360617    3.907905    1.154853
     30         17           0        3.713871    3.581309    0.904779
     31         17           0        2.208926    3.313431    3.307193
     32          6           0       -2.257800    0.812665    3.481575
     33          1           0       -1.888428   -0.233724    3.515638
     34          1           0       -2.202274    1.291316    4.482162
     35         17           0       -3.933438    0.828669    2.905431
     36         17           0       -1.286905    1.734856    2.321547
     37          6           0       -1.047546    4.557084    4.576630
     38          1           0       -0.378652    5.431786    4.700260
     39          1           0       -0.879623    4.071212    3.591972
     40         17           0       -2.732036    5.060969    4.719050
     41         17           0       -0.729402    3.385553    5.874738
     42          6           0        4.434241    1.083769   -4.444627
     43          1           0        3.878613    0.272215   -3.927631
     44          1           0        5.529169    0.911237   -4.375092
     45         17           0        4.036317    2.649126   -3.705502
     46         17           0        3.935903    1.168165   -6.138399
     47          6           0       -5.425894    1.966389   -0.388045
     48          1           0       -6.320382    1.394748   -0.068651
     49          1           0       -4.631548    1.928052    0.387557
     50         17           0       -5.881635    3.650551   -0.683153
     51         17           0       -4.817117    1.291196   -1.905837
     52          6           0       -1.591920    0.982953   -4.088988
     53          1           0       -1.921684    1.298532   -5.100136
     54          1           0       -2.147078    1.529293   -3.295030
     55         17           0        0.147178    1.301947   -3.915043
     56         17           0       -1.834575   -0.757729   -3.898000
     57          6           0       -1.410471    5.894188    0.758979
     58          1           0       -1.047470    6.120957   -0.267116
     59          1           0       -2.291784    6.515777    1.020563
     60         17           0       -0.103897    6.199641    1.918818
     61         17           0       -1.837824    4.178170    0.889020
     62          6           0        1.109645    0.332034    4.943690
     63          1           0        0.733001    1.332214    4.640136
     64          1           0        1.955762    0.425645    5.653803
     65         17           0        1.633287   -0.564917    3.512651
     66         17           0       -0.200206   -0.583519    5.706323
     67          6           0        1.067064   -2.170368   -3.028246
     68          1           0        0.189969   -2.762818   -3.355570
     69          1           0        0.749114   -1.164541   -2.674863
     70         17           0        2.210006   -2.007026   -4.367347
     71         17           0        1.903705   -3.028591   -1.720510
     72          6           0        1.871208    3.926635   -5.950512
     73          1           0        2.841429    3.816731   -6.477260
     74          1           0        1.776737    3.159310   -5.155053
     75         17           0        1.768026    5.547044   -5.233259
     76         17           0        0.535989    3.768632   -7.094053
     77          6           0       -1.521696    4.626422   -3.682901
     78          1           0       -0.540005    4.224705   -4.010920
     79          1           0       -1.534180    5.734782   -3.738744
     80         17           0       -2.810566    3.967950   -4.699024
     81         17           0       -1.839404    4.117887   -2.010805
     82          6           0        2.156273    5.972802   -1.623935
     83          1           0        2.772866    5.932354   -2.545297
     84          1           0        2.796285    5.937474   -0.718539
     85         17           0        1.183646    7.448755   -1.620792
     86         17           0        1.021124    4.608475   -1.608937
     87          6           0       -4.377355    6.880486   -1.686319
     88          1           0       -5.349517    6.938272   -2.215900
     89          1           0       -4.077321    5.821851   -1.530601
     90         17           0       -3.141634    7.723738   -2.632379
     91         17           0       -4.505653    7.700677   -0.124787
 ---------------------------------------------------------------------
 Rotational constants (GHZ):           0.0226025           0.0200416           0.0153312
 ONIOM: saving gridpoint 17
 ONIOM: restoring gridpoint  3 on chk file.
 ONIOM: generating point  3 -- low level on real system.
 Standard basis: VSTO-6G (5D, 7F)
   400 basis functions,  2580 primitive gaussians,   430 cartesian basis functions
   170 alpha electrons      170 beta electrons
       nuclear repulsion energy      5299.0881832854 Hartrees.
 Integral buffers will be    131072 words long.
 Regular integral format.
 Two-electron integral symmetry is turned off.
 Do NDO integrals.
 One-electron integrals computed using PRISM.
 NBasis=   400 RedAO= F EigKep=  0.00D+00  NBF=   400
 NBsUse=   400 1.00D-04 EigRej=  0.00D+00 NBFU=   400
 Initial guess from the checkpoint file:  "b.chk"
 B after Tr=    -0.000307   -0.000350   -0.000547
         Rot=    1.000000   -0.000021    0.000014   -0.000010 Ang=  -0.00 deg.
 Initial guess <Sx>= 0.0000 <Sy>= 0.0000 <Sz>= 0.0000 <S**2>=-0.0000 S=-0.0000
 Keep J ints in memory in canonical form, NReq=3161508.
 Overlap will be assumed to be unity.
 Requested convergence on RMS density matrix=1.00D-08 within  64 cycles.
 Requested convergence on MAX density matrix=1.00D-06.
 Requested convergence on             energy=1.00D-06.
 No special actions if energy rises.
 SCF Done:  E(UPM6) = -0.404474660022     A.U. after   13 cycles
            NFock= 12  Conv=0.53D-08     -V/T= 0.9994
 <Sx>= 0.0000 <Sy>= 0.0000 <Sz>= 0.0000 <S**2>=-0.0000 S=-0.0000
 <L.S>=  0.00000000000    
 Annihilation of the first spin contaminant:
 S**2 before annihilation     0.0000,   after    -0.0000
 QCSCF skips out because SCF is already converged.

 **********************************************************************

            Population analysis using the SCF Density.

 **********************************************************************

 Alpha  occ. eigenvalues --   -1.11222  -1.05626  -1.05318  -1.05268  -1.05179
 Alpha  occ. eigenvalues --   -1.05139  -1.05130  -1.04943  -1.04877  -1.04791
 Alpha  occ. eigenvalues --   -1.04751  -1.04703  -1.04477  -1.04460  -1.04343
 Alpha  occ. eigenvalues --   -1.04100  -1.01759  -0.98600  -0.98287  -0.98203
 Alpha  occ. eigenvalues --   -0.98149  -0.98101  -0.97959  -0.97944  -0.97809
 Alpha  occ. eigenvalues --   -0.97772  -0.97755  -0.97636  -0.97404  -0.97345
 Alpha  occ. eigenvalues --   -0.97246  -0.97231  -0.96992  -0.92275  -0.88775
 Alpha  occ. eigenvalues --   -0.88690  -0.88583  -0.88395  -0.88361  -0.88257
 Alpha  occ. eigenvalues --   -0.88213  -0.88124  -0.88092  -0.88015  -0.87889
 Alpha  occ. eigenvalues --   -0.87660  -0.87556  -0.87509  -0.87207  -0.82622
 Alpha  occ. eigenvalues --   -0.79187  -0.72909  -0.65425  -0.62710  -0.62379
 Alpha  occ. eigenvalues --   -0.62116  -0.61859  -0.61659  -0.61538  -0.61492
 Alpha  occ. eigenvalues --   -0.61311  -0.61258  -0.61154  -0.61056  -0.60906
 Alpha  occ. eigenvalues --   -0.60372  -0.60300  -0.60122  -0.60047  -0.59999
 Alpha  occ. eigenvalues --   -0.59770  -0.59609  -0.59528  -0.59453  -0.59365
 Alpha  occ. eigenvalues --   -0.59265  -0.59203  -0.59108  -0.58989  -0.58942
 Alpha  occ. eigenvalues --   -0.58740  -0.58599  -0.58560  -0.58488  -0.58328
 Alpha  occ. eigenvalues --   -0.58250  -0.58046  -0.57778  -0.57727  -0.57706
 Alpha  occ. eigenvalues --   -0.57662  -0.57583  -0.57515  -0.57504  -0.57413
 Alpha  occ. eigenvalues --   -0.57238  -0.57098  -0.57061  -0.56888  -0.56771
 Alpha  occ. eigenvalues --   -0.55196  -0.53403  -0.52245  -0.51030  -0.49668
 Alpha  occ. eigenvalues --   -0.46192  -0.45313  -0.45078  -0.44787  -0.44262
 Alpha  occ. eigenvalues --   -0.44238  -0.44098  -0.43996  -0.43933  -0.43842
 Alpha  occ. eigenvalues --   -0.43757  -0.43698  -0.43595  -0.43487  -0.43460
 Alpha  occ. eigenvalues --   -0.43422  -0.43409  -0.43387  -0.43315  -0.43286
 Alpha  occ. eigenvalues --   -0.43225  -0.43147  -0.43120  -0.43046  -0.42974
 Alpha  occ. eigenvalues --   -0.42895  -0.42866  -0.42797  -0.42754  -0.42626
 Alpha  occ. eigenvalues --   -0.42585  -0.42472  -0.42397  -0.42323  -0.42112
 Alpha  occ. eigenvalues --   -0.42006  -0.41898  -0.41892  -0.41785  -0.41780
 Alpha  occ. eigenvalues --   -0.41709  -0.41686  -0.41622  -0.41601  -0.41474
 Alpha  occ. eigenvalues --   -0.41351  -0.41290  -0.41278  -0.41231  -0.41209
 Alpha  occ. eigenvalues --   -0.41151  -0.41130  -0.41050  -0.41033  -0.40896
 Alpha  occ. eigenvalues --   -0.40867  -0.40752  -0.40602  -0.40578  -0.40514
 Alpha  occ. eigenvalues --   -0.40366  -0.40319  -0.39605  -0.36938  -0.32862
 Alpha virt. eigenvalues --   -0.03660  -0.01287  -0.00965  -0.00930  -0.00873
 Alpha virt. eigenvalues --   -0.00655  -0.00632  -0.00581  -0.00533  -0.00475
 Alpha virt. eigenvalues --   -0.00457  -0.00454  -0.00390  -0.00365  -0.00271
 Alpha virt. eigenvalues --   -0.00248  -0.00236  -0.00233  -0.00201  -0.00192
 Alpha virt. eigenvalues --   -0.00162  -0.00126  -0.00062  -0.00009   0.00049
 Alpha virt. eigenvalues --    0.00361   0.00395   0.00458   0.00462   0.00502
 Alpha virt. eigenvalues --    0.00605   0.00700   0.02630   0.08919   0.14213
 Alpha virt. eigenvalues --    0.14283   0.14448   0.14566   0.14696   0.14778
 Alpha virt. eigenvalues --    0.14868   0.14953   0.14991   0.15033   0.15077
 Alpha virt. eigenvalues --    0.15125   0.15154   0.15163   0.15259   0.15363
 Alpha virt. eigenvalues --    0.15424   0.15440   0.15506   0.15577   0.15618
 Alpha virt. eigenvalues --    0.15737   0.15781   0.15861   0.15920   0.15935
 Alpha virt. eigenvalues --    0.15971   0.15979   0.16098   0.16358   0.16405
 Alpha virt. eigenvalues --    0.16414   0.16726   0.17022   0.17231   0.17952
 Alpha virt. eigenvalues --    0.18570   0.19312   0.19837   0.20410   0.21128
 Alpha virt. eigenvalues --    0.21303   0.21607   0.21816   0.22173   0.22308
 Alpha virt. eigenvalues --    3.16365   3.16805   3.17325   3.17931   3.18110
 Alpha virt. eigenvalues --    3.18354   3.18626   3.18715   3.18962   3.19087
 Alpha virt. eigenvalues --    3.19093   3.19272   3.19318   3.19538   3.19631
 Alpha virt. eigenvalues --    3.19640   3.19696   3.19832   3.19903   3.19992
 Alpha virt. eigenvalues --    3.20019   3.20181   3.20271   3.20304   3.20434
 Alpha virt. eigenvalues --    3.20475   3.20543   3.20554   3.20621   3.20665
 Alpha virt. eigenvalues --    3.20705   3.20827   3.20874   3.20969   3.21004
 Alpha virt. eigenvalues --    3.21061   3.21111   3.21161   3.21187   3.21234
 Alpha virt. eigenvalues --    3.21412   3.21450   3.21565   3.21721   3.21840
 Alpha virt. eigenvalues --    3.21975   3.22063   3.22133   3.22171   3.22317
 Alpha virt. eigenvalues --    3.22439   3.22504   3.22523   3.22599   3.22736
 Alpha virt. eigenvalues --    3.22795   3.22945   3.23000   3.23142   3.23179
 Alpha virt. eigenvalues --    3.23188   3.23298   3.23373   3.23422   3.23482
 Alpha virt. eigenvalues --    3.23507   3.23578   3.23657   3.23745   3.23791
 Alpha virt. eigenvalues --    3.23852   3.23953   3.23973   3.24001   3.24095
 Alpha virt. eigenvalues --    3.24136   3.24149   3.24241   3.24281   3.24316
 Alpha virt. eigenvalues --    3.24378   3.24482   3.24487   3.24542   3.24644
 Alpha virt. eigenvalues --    3.24665   3.24725   3.24812   3.24859   3.24945
 Alpha virt. eigenvalues --    3.24963   3.25032   3.25066   3.25084   3.25111
 Alpha virt. eigenvalues --    3.25147   3.25305   3.25387   3.25461   3.25516
 Alpha virt. eigenvalues --    3.25548   3.25685   3.25741   3.25766   3.25861
 Alpha virt. eigenvalues --    3.25887   3.25927   3.25997   3.26115   3.26221
 Alpha virt. eigenvalues --    3.26295   3.26335   3.26424   3.26462   3.26789
 Alpha virt. eigenvalues --    3.26845   3.26906   3.27010   3.27033   3.27162
 Alpha virt. eigenvalues --    3.27249   3.27338   3.27390   3.27398   3.27474
 Alpha virt. eigenvalues --    3.27545   3.27638   3.27736   3.27756   3.27839
 Alpha virt. eigenvalues --    3.27869   3.27955   3.28153   3.28163   3.28213
 Alpha virt. eigenvalues --    3.28282   3.28388   3.28477   3.28556   3.28594
 Alpha virt. eigenvalues --    3.28645   3.28687   3.28736   3.28838   3.28934
 Alpha virt. eigenvalues --    3.29146   3.29269   3.29357   3.29708   3.29957
  Beta  occ. eigenvalues --   -1.11222  -1.05626  -1.05318  -1.05268  -1.05179
  Beta  occ. eigenvalues --   -1.05139  -1.05130  -1.04943  -1.04877  -1.04791
  Beta  occ. eigenvalues --   -1.04751  -1.04703  -1.04477  -1.04460  -1.04343
  Beta  occ. eigenvalues --   -1.04100  -1.01759  -0.98600  -0.98287  -0.98203
  Beta  occ. eigenvalues --   -0.98149  -0.98101  -0.97959  -0.97944  -0.97809
  Beta  occ. eigenvalues --   -0.97772  -0.97755  -0.97636  -0.97404  -0.97345
  Beta  occ. eigenvalues --   -0.97246  -0.97231  -0.96992  -0.92275  -0.88775
  Beta  occ. eigenvalues --   -0.88690  -0.88583  -0.88395  -0.88361  -0.88257
  Beta  occ. eigenvalues --   -0.88213  -0.88124  -0.88092  -0.88015  -0.87889
  Beta  occ. eigenvalues --   -0.87660  -0.87556  -0.87509  -0.87207  -0.82622
  Beta  occ. eigenvalues --   -0.79187  -0.72909  -0.65425  -0.62710  -0.62379
  Beta  occ. eigenvalues --   -0.62116  -0.61859  -0.61659  -0.61538  -0.61492
  Beta  occ. eigenvalues --   -0.61311  -0.61258  -0.61154  -0.61056  -0.60906
  Beta  occ. eigenvalues --   -0.60372  -0.60300  -0.60122  -0.60047  -0.59999
  Beta  occ. eigenvalues --   -0.59770  -0.59609  -0.59528  -0.59453  -0.59365
  Beta  occ. eigenvalues --   -0.59265  -0.59203  -0.59108  -0.58989  -0.58942
  Beta  occ. eigenvalues --   -0.58740  -0.58599  -0.58560  -0.58488  -0.58328
  Beta  occ. eigenvalues --   -0.58250  -0.58046  -0.57778  -0.57727  -0.57706
  Beta  occ. eigenvalues --   -0.57662  -0.57583  -0.57515  -0.57504  -0.57413
  Beta  occ. eigenvalues --   -0.57238  -0.57098  -0.57061  -0.56888  -0.56771
  Beta  occ. eigenvalues --   -0.55196  -0.53403  -0.52245  -0.51030  -0.49668
  Beta  occ. eigenvalues --   -0.46192  -0.45313  -0.45078  -0.44787  -0.44262
  Beta  occ. eigenvalues --   -0.44238  -0.44098  -0.43996  -0.43933  -0.43842
  Beta  occ. eigenvalues --   -0.43757  -0.43698  -0.43595  -0.43487  -0.43460
  Beta  occ. eigenvalues --   -0.43422  -0.43409  -0.43387  -0.43315  -0.43286
  Beta  occ. eigenvalues --   -0.43225  -0.43147  -0.43120  -0.43046  -0.42974
  Beta  occ. eigenvalues --   -0.42895  -0.42866  -0.42797  -0.42754  -0.42626
  Beta  occ. eigenvalues --   -0.42585  -0.42472  -0.42397  -0.42323  -0.42112
  Beta  occ. eigenvalues --   -0.42006  -0.41898  -0.41892  -0.41785  -0.41780
  Beta  occ. eigenvalues --   -0.41709  -0.41686  -0.41622  -0.41601  -0.41474
  Beta  occ. eigenvalues --   -0.41351  -0.41290  -0.41278  -0.41231  -0.41209
  Beta  occ. eigenvalues --   -0.41151  -0.41130  -0.41050  -0.41033  -0.40896
  Beta  occ. eigenvalues --   -0.40867  -0.40752  -0.40602  -0.40578  -0.40514
  Beta  occ. eigenvalues --   -0.40366  -0.40319  -0.39605  -0.36938  -0.32862
  Beta virt. eigenvalues --   -0.03660  -0.01287  -0.00965  -0.00930  -0.00873
  Beta virt. eigenvalues --   -0.00655  -0.00632  -0.00581  -0.00533  -0.00475
  Beta virt. eigenvalues --   -0.00457  -0.00454  -0.00390  -0.00365  -0.00271
  Beta virt. eigenvalues --   -0.00248  -0.00236  -0.00233  -0.00201  -0.00192
  Beta virt. eigenvalues --   -0.00162  -0.00126  -0.00062  -0.00009   0.00049
  Beta virt. eigenvalues --    0.00361   0.00395   0.00458   0.00462   0.00502
  Beta virt. eigenvalues --    0.00605   0.00700   0.02630   0.08919   0.14213
  Beta virt. eigenvalues --    0.14283   0.14448   0.14566   0.14696   0.14778
  Beta virt. eigenvalues --    0.14868   0.14953   0.14991   0.15033   0.15077
  Beta virt. eigenvalues --    0.15125   0.15154   0.15163   0.15259   0.15363
  Beta virt. eigenvalues --    0.15424   0.15440   0.15506   0.15577   0.15618
  Beta virt. eigenvalues --    0.15737   0.15781   0.15861   0.15920   0.15935
  Beta virt. eigenvalues --    0.15971   0.15979   0.16098   0.16358   0.16405
  Beta virt. eigenvalues --    0.16414   0.16726   0.17022   0.17231   0.17952
  Beta virt. eigenvalues --    0.18570   0.19312   0.19837   0.20410   0.21128
  Beta virt. eigenvalues --    0.21303   0.21607   0.21816   0.22173   0.22308
  Beta virt. eigenvalues --    3.16365   3.16805   3.17325   3.17931   3.18110
  Beta virt. eigenvalues --    3.18354   3.18626   3.18715   3.18962   3.19087
  Beta virt. eigenvalues --    3.19093   3.19272   3.19318   3.19538   3.19631
  Beta virt. eigenvalues --    3.19640   3.19696   3.19832   3.19903   3.19992
  Beta virt. eigenvalues --    3.20019   3.20181   3.20271   3.20304   3.20434
  Beta virt. eigenvalues --    3.20475   3.20543   3.20554   3.20621   3.20665
  Beta virt. eigenvalues --    3.20705   3.20827   3.20874   3.20969   3.21004
  Beta virt. eigenvalues --    3.21061   3.21111   3.21161   3.21187   3.21234
  Beta virt. eigenvalues --    3.21412   3.21450   3.21565   3.21721   3.21840
  Beta virt. eigenvalues --    3.21975   3.22063   3.22133   3.22171   3.22317
  Beta virt. eigenvalues --    3.22439   3.22504   3.22523   3.22599   3.22736
  Beta virt. eigenvalues --    3.22795   3.22945   3.23000   3.23142   3.23179
  Beta virt. eigenvalues --    3.23188   3.23298   3.23373   3.23422   3.23482
  Beta virt. eigenvalues --    3.23507   3.23578   3.23657   3.23745   3.23791
  Beta virt. eigenvalues --    3.23852   3.23953   3.23973   3.24001   3.24095
  Beta virt. eigenvalues --    3.24136   3.24149   3.24241   3.24281   3.24316
  Beta virt. eigenvalues --    3.24378   3.24482   3.24487   3.24542   3.24644
  Beta virt. eigenvalues --    3.24665   3.24725   3.24812   3.24859   3.24945
  Beta virt. eigenvalues --    3.24963   3.25032   3.25066   3.25084   3.25111
  Beta virt. eigenvalues --    3.25147   3.25305   3.25387   3.25461   3.25516
  Beta virt. eigenvalues --    3.25548   3.25685   3.25741   3.25766   3.25861
  Beta virt. eigenvalues --    3.25887   3.25927   3.25997   3.26115   3.26221
  Beta virt. eigenvalues --    3.26295   3.26335   3.26424   3.26462   3.26789
  Beta virt. eigenvalues --    3.26845   3.26906   3.27010   3.27033   3.27162
  Beta virt. eigenvalues --    3.27249   3.27338   3.27390   3.27398   3.27474
  Beta virt. eigenvalues --    3.27545   3.27638   3.27736   3.27756   3.27839
  Beta virt. eigenvalues --    3.27869   3.27955   3.28153   3.28163   3.28213
  Beta virt. eigenvalues --    3.28282   3.28388   3.28477   3.28556   3.28594
  Beta virt. eigenvalues --    3.28645   3.28687   3.28736   3.28838   3.28934
  Beta virt. eigenvalues --    3.29146   3.29269   3.29357   3.29708   3.29957
          Condensed to atoms (all electrons):
          Atomic-Atomic Spin Densities.
 Mulliken charges and spin densities:
               1          2
     1  C   -0.015569   0.000000
     2  C   -0.142110   0.000000
     3  C   -0.148820   0.000000
     4  C   -0.156631   0.000000
     5  H    0.153350   0.000000
     6  C   -0.128177   0.000000
     7  C   -0.152184   0.000000
     8  H    0.155111   0.000000
     9  C   -0.117131   0.000000
    10  H    0.149129   0.000000
    11  C   -0.367521   0.000000
    12  H    0.156921   0.000000
    13  H    0.150953   0.000000
    14  H    0.145547   0.000000
    15  H    0.157674   0.000000
    16  H    0.162173   0.000000
    17  C   -0.139293   0.000000
    18  H    0.187917   0.000000
    19  H    0.186203   0.000000
    20  Cl  -0.094829   0.000000
    21  Cl  -0.140469   0.000000
    22  C   -0.144579   0.000000
    23  H    0.192856   0.000000
    24  H    0.191624   0.000000
    25  Cl  -0.127726   0.000000
    26  Cl  -0.111441   0.000000
    27  C   -0.143402   0.000000
    28  H    0.198292   0.000000
    29  H    0.196928   0.000000
    30  Cl  -0.126317   0.000000
    31  Cl  -0.126360   0.000000
    32  C   -0.128640   0.000000
    33  H    0.192328   0.000000
    34  H    0.191958   0.000000
    35  Cl  -0.130357   0.000000
    36  Cl  -0.123474   0.000000
    37  C   -0.137419   0.000000
    38  H    0.184811   0.000000
    39  H    0.194321   0.000000
    40  Cl  -0.101007   0.000000
    41  Cl  -0.142390   0.000000
    42  C   -0.132942   0.000000
    43  H    0.194025   0.000000
    44  H    0.195170   0.000000
    45  Cl  -0.141447   0.000000
    46  Cl  -0.114728   0.000000
    47  C   -0.141894   0.000000
    48  H    0.182999   0.000000
    49  H    0.191579   0.000000
    50  Cl  -0.117468   0.000000
    51  Cl  -0.114920   0.000000
    52  C   -0.126797   0.000000
    53  H    0.190331   0.000000
    54  H    0.195677   0.000000
    55  Cl  -0.142003   0.000000
    56  Cl  -0.116961   0.000000
    57  C   -0.138879   0.000000
    58  H    0.199034   0.000000
    59  H    0.193766   0.000000
    60  Cl  -0.134735   0.000000
    61  Cl  -0.113305   0.000000
    62  C   -0.145429   0.000000
    63  H    0.191349   0.000000
    64  H    0.186396   0.000000
    65  Cl  -0.112403   0.000000
    66  Cl  -0.120583   0.000000
    67  C   -0.132831   0.000000
    68  H    0.183901   0.000000
    69  H    0.198593   0.000000
    70  Cl  -0.116905   0.000000
    71  Cl  -0.133606   0.000000
    72  C   -0.139023   0.000000
    73  H    0.191392   0.000000
    74  H    0.189722   0.000000
    75  Cl  -0.137056   0.000000
    76  Cl  -0.106381   0.000000
    77  C   -0.143133   0.000000
    78  H    0.193015   0.000000
    79  H    0.194066   0.000000
    80  Cl  -0.120218   0.000000
    81  Cl  -0.126700   0.000000
    82  C   -0.144124   0.000000
    83  H    0.188841   0.000000
    84  H    0.188202   0.000000
    85  Cl  -0.107147   0.000000
    86  Cl  -0.129937   0.000000
    87  C   -0.149187   0.000000
    88  H    0.186210   0.000000
    89  H    0.193225   0.000000
    90  Cl  -0.116905   0.000000
    91  Cl  -0.112093   0.000000
 Sum of Mulliken charges =  -0.00000   0.00000
 Mulliken charges and spin densities with hydrogens summed into heavy atoms:
               1          2
     1  C   -0.015569   0.000000
     2  C    0.011240   0.000000
     3  C    0.006291   0.000000
     4  C   -0.007502   0.000000
     6  C    0.028744   0.000000
     7  C   -0.001231   0.000000
     9  C    0.028417   0.000000
    11  C   -0.047674   0.000000
    17  C    0.234827   0.000000
    20  Cl  -0.094829   0.000000
    21  Cl  -0.140469   0.000000
    22  C    0.239902   0.000000
    25  Cl  -0.127726   0.000000
    26  Cl  -0.111441   0.000000
    27  C    0.251817   0.000000
    30  Cl  -0.126317   0.000000
    31  Cl  -0.126360   0.000000
    32  C    0.255646   0.000000
    35  Cl  -0.130357   0.000000
    36  Cl  -0.123474   0.000000
    37  C    0.241713   0.000000
    40  Cl  -0.101007   0.000000
    41  Cl  -0.142390   0.000000
    42  C    0.256252   0.000000
    45  Cl  -0.141447   0.000000
    46  Cl  -0.114728   0.000000
    47  C    0.232684   0.000000
    50  Cl  -0.117468   0.000000
    51  Cl  -0.114920   0.000000
    52  C    0.259211   0.000000
    55  Cl  -0.142003   0.000000
    56  Cl  -0.116961   0.000000
    57  C    0.253921   0.000000
    60  Cl  -0.134735   0.000000
    61  Cl  -0.113305   0.000000
    62  C    0.232316   0.000000
    65  Cl  -0.112403   0.000000
    66  Cl  -0.120583   0.000000
    67  C    0.249663   0.000000
    70  Cl  -0.116905   0.000000
    71  Cl  -0.133606   0.000000
    72  C    0.242091   0.000000
    75  Cl  -0.137056   0.000000
    76  Cl  -0.106381   0.000000
    77  C    0.243948   0.000000
    80  Cl  -0.120218   0.000000
    81  Cl  -0.126700   0.000000
    82  C    0.232918   0.000000
    85  Cl  -0.107147   0.000000
    86  Cl  -0.129937   0.000000
    87  C    0.230248   0.000000
    90  Cl  -0.116905   0.000000
    91  Cl  -0.112093   0.000000
 Charge=              0.0000 electrons
 Dipole moment (field-independent basis, Debye):
    X=             -0.8994    Y=             -0.1904    Z=              0.4985  Tot=              1.0458
 N-N= 5.299088183285D+03 E-N=-9.743363372928D+03  KE=-6.384490844010D+02
 Calling FoFJK, ICntrl=      2127 FMM=F ISym2X=0 I1Cent= 0 IOpClX= 1 NMat=1 NMatS=1 NMatT=0.
 Cartesian Forces:  Max     0.064475475 RMS     0.008677956
 SvSCFP is copying densities from files   528 and   530 to   603.
 ONIOM: saving gridpoint  3
 ONIOM: restoring gridpoint 17
 ONIOM: restoring gridpoint  2 on chk file.
 ONIOM: generating point  2 -- high level on model system.
 Standard basis: 6-31G(d) (6D, 7F)
   136 basis functions,   256 primitive gaussians,   136 cartesian basis functions
    29 alpha electrons       27 beta electrons
       nuclear repulsion energy       319.1626846016 Hartrees.
 NAtoms=   91 NActive=   16 NUniq=   16 SFac= 1.00D+00 NAtFMM=   60 NAOKFM=F Big=F
 Integral buffers will be    131072 words long.
 Raffenetti 2 integral format.
 Two-electron integral symmetry is turned off.
 Nuclear repulsion after empirical dispersion term =      319.1350540950 Hartrees.
 One-electron integrals computed using PRISM.
 NBasis=   136 RedAO= T EigKep=  4.73D-04  NBF=   136
 NBsUse=   136 1.00D-06 EigRej= -1.00D+00 NBFU=   136
 Initial guess from the checkpoint file:  "b.chk"
 B after Tr=     0.001370   -0.000200    0.000892
         Rot=    1.000000   -0.000228   -0.000189    0.000176 Ang=  -0.04 deg.
 Initial guess <Sx>= 0.0000 <Sy>= 0.0000 <Sz>= 1.0000 <S**2>= 2.0292 S= 1.0097
 Requested convergence on RMS density matrix=1.00D-08 within  64 cycles.
 Requested convergence on MAX density matrix=1.00D-06.
 Requested convergence on             energy=1.00D-06.
 No special actions if energy rises.
 SCF Done:  E(UB3LYP) =  -309.578867660     A.U. after   12 cycles
            NFock= 12  Conv=0.33D-08     -V/T= 2.0096
 <Sx>= 0.0000 <Sy>= 0.0000 <Sz>= 1.0000 <S**2>= 2.0292 S= 1.0097
 <L.S>=  0.00000000000    
 Annihilation of the first spin contaminant:
 S**2 before annihilation     2.0292,   after     2.0004
 QCSCF skips out because SCF is already converged.

 **********************************************************************

            Population analysis using the SCF Density.

 **********************************************************************

 Alpha  occ. eigenvalues --  -10.19787 -10.19678 -10.19500 -10.18869 -10.18753
 Alpha  occ. eigenvalues --  -10.18699 -10.18600 -10.18564  -0.85669  -0.79061
 Alpha  occ. eigenvalues --   -0.74492  -0.72163  -0.63250  -0.60018  -0.56293
 Alpha  occ. eigenvalues --   -0.51004  -0.46942  -0.45229  -0.43616  -0.41810
 Alpha  occ. eigenvalues --   -0.40821  -0.39663  -0.37060  -0.34972  -0.33501
 Alpha  occ. eigenvalues --   -0.29792  -0.25544  -0.23537  -0.13973
 Alpha virt. eigenvalues --    0.00215   0.02729   0.09789   0.11765   0.12763
 Alpha virt. eigenvalues --    0.15898   0.16081   0.16831   0.18167   0.19721
 Alpha virt. eigenvalues --    0.21116   0.26352   0.27898   0.30811   0.33568
 Alpha virt. eigenvalues --    0.35993   0.37326   0.46031   0.51377   0.52420
 Alpha virt. eigenvalues --    0.53685   0.54831   0.55328   0.57162   0.58069
 Alpha virt. eigenvalues --    0.58588   0.59659   0.60116   0.62005   0.62043
 Alpha virt. eigenvalues --    0.63314   0.64411   0.65096   0.68242   0.71572
 Alpha virt. eigenvalues --    0.77153   0.82436   0.83660   0.83909   0.84590
 Alpha virt. eigenvalues --    0.85496   0.88669   0.90592   0.92233   0.93132
 Alpha virt. eigenvalues --    0.93568   0.95414   0.98867   1.01468   1.04140
 Alpha virt. eigenvalues --    1.08528   1.14368   1.16607   1.18160   1.25811
 Alpha virt. eigenvalues --    1.28865   1.32773   1.38834   1.43971   1.44484
 Alpha virt. eigenvalues --    1.45531   1.48356   1.49244   1.51365   1.62324
 Alpha virt. eigenvalues --    1.69787   1.76783   1.80158   1.84250   1.87414
 Alpha virt. eigenvalues --    1.89414   1.91348   1.94065   1.96864   1.98039
 Alpha virt. eigenvalues --    2.04737   2.08853   2.10454   2.14354   2.14886
 Alpha virt. eigenvalues --    2.17795   2.21968   2.26374   2.32024   2.32414
 Alpha virt. eigenvalues --    2.34707   2.47038   2.50363   2.56765   2.59581
 Alpha virt. eigenvalues --    2.61879   2.65773   2.73974   2.75575   2.76935
 Alpha virt. eigenvalues --    2.85980   2.91704   3.13714   3.41720   4.06616
 Alpha virt. eigenvalues --    4.09425   4.12334   4.13157   4.24167   4.32890
 Alpha virt. eigenvalues --    4.42190   4.71073
  Beta  occ. eigenvalues --  -10.19586 -10.18933 -10.18790 -10.18732 -10.18442
  Beta  occ. eigenvalues --  -10.18425 -10.18371 -10.18321  -0.85063  -0.77238
  Beta  occ. eigenvalues --   -0.74120  -0.69830  -0.61538  -0.59627  -0.55113
  Beta  occ. eigenvalues --   -0.50412  -0.46281  -0.44757  -0.42805  -0.41664
  Beta  occ. eigenvalues --   -0.39755  -0.38412  -0.35795  -0.34514  -0.33269
  Beta  occ. eigenvalues --   -0.26151  -0.24526
  Beta virt. eigenvalues --   -0.11494  -0.02255   0.01134   0.06085   0.10046
  Beta virt. eigenvalues --    0.12489   0.13821   0.16376   0.16529   0.18047
  Beta virt. eigenvalues --    0.18744   0.20324   0.21984   0.27235   0.28848
  Beta virt. eigenvalues --    0.30887   0.33945   0.36815   0.37949   0.46466
  Beta virt. eigenvalues --    0.52756   0.53099   0.54724   0.55356   0.57680
  Beta virt. eigenvalues --    0.58239   0.59413   0.59650   0.60115   0.61966
  Beta virt. eigenvalues --    0.62484   0.63810   0.64102   0.65833   0.67036
  Beta virt. eigenvalues --    0.69901   0.72910   0.77634   0.83048   0.83979
  Beta virt. eigenvalues --    0.84212   0.85470   0.85731   0.89419   0.91006
  Beta virt. eigenvalues --    0.93130   0.94031   0.94705   0.95943   0.99894
  Beta virt. eigenvalues --    1.01834   1.05440   1.09158   1.15018   1.17019
  Beta virt. eigenvalues --    1.18643   1.26452   1.29973   1.34204   1.40151
  Beta virt. eigenvalues --    1.44527   1.45235   1.45904   1.49120   1.50263
  Beta virt. eigenvalues --    1.51803   1.66747   1.73371   1.78530   1.80605
  Beta virt. eigenvalues --    1.86345   1.89245   1.90839   1.92563   1.96073
  Beta virt. eigenvalues --    1.97608   1.99507   2.05525   2.11994   2.13076
  Beta virt. eigenvalues --    2.15183   2.15450   2.18524   2.23263   2.27517
  Beta virt. eigenvalues --    2.32732   2.34378   2.36807   2.48921   2.51959
  Beta virt. eigenvalues --    2.57929   2.60032   2.63358   2.66574   2.74433
  Beta virt. eigenvalues --    2.75800   2.77304   2.86378   2.92338   3.14118
  Beta virt. eigenvalues --    3.41929   4.08169   4.10180   4.12592   4.14756
  Beta virt. eigenvalues --    4.26244   4.33157   4.43107   4.71555
          Condensed to atoms (all electrons):
          Atomic-Atomic Spin Densities.
 Mulliken charges and spin densities:
               1          2
     1  C    0.191996  -0.102708
     2  C   -0.182372   0.238158
     3  C   -0.185479   0.279181
     4  C   -0.129675  -0.128509
     5  H    0.125541  -0.010590
     6  C   -0.175706   0.616501
     7  C   -0.126438  -0.144908
     8  H    0.125935  -0.010749
     9  C   -0.134048   0.320289
    10  H    0.128857   0.004836
    11  C   -0.342838   1.020266
    12  H    0.136158  -0.008303
    13  H    0.128682   0.005495
    14  H    0.128708  -0.015488
    15  H    0.154112  -0.034962
    16  H    0.156568  -0.028510
    17  C    0.000000   0.000000
    18  H    0.000000   0.000000
    19  H    0.000000   0.000000
    20  Cl   0.000000   0.000000
    21  Cl   0.000000   0.000000
    22  C    0.000000   0.000000
    23  H    0.000000   0.000000
    24  H    0.000000   0.000000
    25  Cl   0.000000   0.000000
    26  Cl   0.000000   0.000000
    27  C    0.000000   0.000000
    28  H    0.000000   0.000000
    29  H    0.000000   0.000000
    30  Cl   0.000000   0.000000
    31  Cl   0.000000   0.000000
    32  C    0.000000   0.000000
    33  H    0.000000   0.000000
    34  H    0.000000   0.000000
    35  Cl   0.000000   0.000000
    36  Cl   0.000000   0.000000
    37  C    0.000000   0.000000
    38  H    0.000000   0.000000
    39  H    0.000000   0.000000
    40  Cl   0.000000   0.000000
    41  Cl   0.000000   0.000000
    42  C    0.000000   0.000000
    43  H    0.000000   0.000000
    44  H    0.000000   0.000000
    45  Cl   0.000000   0.000000
    46  Cl   0.000000   0.000000
    47  C    0.000000   0.000000
    48  H    0.000000   0.000000
    49  H    0.000000   0.000000
    50  Cl   0.000000   0.000000
    51  Cl   0.000000   0.000000
    52  C    0.000000   0.000000
    53  H    0.000000   0.000000
    54  H    0.000000   0.000000
    55  Cl   0.000000   0.000000
    56  Cl   0.000000   0.000000
    57  C    0.000000   0.000000
    58  H    0.000000   0.000000
    59  H    0.000000   0.000000
    60  Cl   0.000000   0.000000
    61  Cl   0.000000   0.000000
    62  C    0.000000   0.000000
    63  H    0.000000   0.000000
    64  H    0.000000   0.000000
    65  Cl   0.000000   0.000000
    66  Cl   0.000000   0.000000
    67  C    0.000000   0.000000
    68  H    0.000000   0.000000
    69  H    0.000000   0.000000
    70  Cl   0.000000   0.000000
    71  Cl   0.000000   0.000000
    72  C    0.000000   0.000000
    73  H    0.000000   0.000000
    74  H    0.000000   0.000000
    75  Cl   0.000000   0.000000
    76  Cl   0.000000   0.000000
    77  C    0.000000   0.000000
    78  H    0.000000   0.000000
    79  H    0.000000   0.000000
    80  Cl   0.000000   0.000000
    81  Cl   0.000000   0.000000
    82  C    0.000000   0.000000
    83  H    0.000000   0.000000
    84  H    0.000000   0.000000
    85  Cl   0.000000   0.000000
    86  Cl   0.000000   0.000000
    87  C    0.000000   0.000000
    88  H    0.000000   0.000000
    89  H    0.000000   0.000000
    90  Cl   0.000000   0.000000
    91  Cl   0.000000   0.000000
 Sum of Mulliken charges =  -0.00000   2.00000
 Mulliken charges and spin densities with hydrogens summed into heavy atoms:
               1          2
     1  C    0.191996  -0.102708
     2  C   -0.056831   0.227568
     3  C   -0.059544   0.268433
     4  C   -0.000818  -0.123673
     6  C   -0.039548   0.608199
     7  C    0.002244  -0.139413
     9  C   -0.005340   0.304802
    11  C   -0.032158   0.956794
    17  C    0.000000   0.000000
    20  Cl   0.000000   0.000000
    21  Cl   0.000000   0.000000
    22  C    0.000000   0.000000
    25  Cl   0.000000   0.000000
    26  Cl   0.000000   0.000000
    27  C    0.000000   0.000000
    30  Cl   0.000000   0.000000
    31  Cl   0.000000   0.000000
    32  C    0.000000   0.000000
    35  Cl   0.000000   0.000000
    36  Cl   0.000000   0.000000
    37  C    0.000000   0.000000
    40  Cl   0.000000   0.000000
    41  Cl   0.000000   0.000000
    42  C    0.000000   0.000000
    45  Cl   0.000000   0.000000
    46  Cl   0.000000   0.000000
    47  C    0.000000   0.000000
    50  Cl   0.000000   0.000000
    51  Cl   0.000000   0.000000
    52  C    0.000000   0.000000
    55  Cl   0.000000   0.000000
    56  Cl   0.000000   0.000000
    57  C    0.000000   0.000000
    60  Cl   0.000000   0.000000
    61  Cl   0.000000   0.000000
    62  C    0.000000   0.000000
    65  Cl   0.000000   0.000000
    66  Cl   0.000000   0.000000
    67  C    0.000000   0.000000
    70  Cl   0.000000   0.000000
    71  Cl   0.000000   0.000000
    72  C    0.000000   0.000000
    75  Cl   0.000000   0.000000
    76  Cl   0.000000   0.000000
    77  C    0.000000   0.000000
    80  Cl   0.000000   0.000000
    81  Cl   0.000000   0.000000
    82  C    0.000000   0.000000
    85  Cl   0.000000   0.000000
    86  Cl   0.000000   0.000000
    87  C    0.000000   0.000000
    90  Cl   0.000000   0.000000
    91  Cl   0.000000   0.000000
 Electronic spatial extent (au):  <R**2>=            994.4665
 Charge=             -0.0000 electrons
 Dipole moment (field-independent basis, Debye):
    X=              0.0669    Y=             -0.0143    Z=             -0.0342  Tot=              0.0765
 Quadrupole moment (field-independent basis, Debye-Ang):
   XX=            -42.3550   YY=            -44.7565   ZZ=            -48.8950
   XY=              0.0695   XZ=             -0.0950   YZ=             -3.4661
 Traceless Quadrupole moment (field-independent basis, Debye-Ang):
   XX=              2.9805   YY=              0.5790   ZZ=             -3.5595
   XY=              0.0695   XZ=             -0.0950   YZ=             -3.4661
 Octapole moment (field-independent basis, Debye-Ang**2):
  XXX=             -1.3223  YYY=              7.1865  ZZZ=             31.0155  XYY=             -0.1235
  XXY=              4.4914  XXZ=             12.7985  XZZ=              2.0427  YZZ=              5.4057
  YYZ=             11.3810  XYZ=              0.6141
 Hexadecapole moment (field-independent basis, Debye-Ang**3):
 XXXX=           -843.7638 YYYY=           -307.5002 ZZZZ=           -157.5559 XXXY=            -52.1902
 XXXZ=             72.8803 YYYX=            -65.3288 YYYZ=             58.2874 ZZZX=             66.4410
 ZZZY=             68.4309 XXYY=           -191.7731 XXZZ=           -186.5632 YYZZ=            -74.0032
 XXYZ=             12.2749 YYXZ=             20.1561 ZZXY=            -18.2465
 N-N= 3.191350540950D+02 E-N=-1.354666603230D+03  KE= 3.066234279914D+02
                          Isotropic Fermi Contact Couplings
        Atom                 a.u.       MegaHertz       Gauss      10(-4) cm-1
     1  C(13)             -0.00446      -2.50421      -0.89356      -0.83531
     2  C(13)              0.02482      13.95300       4.97878       4.65422
     3  C(13)              0.03108      17.46872       6.23327       5.82694
     4  C(13)             -0.01955     -10.98841      -3.92094      -3.66534
     5  H(1)              -0.00370      -8.26641      -2.94966      -2.75738
     6  C(13)              0.04592      25.81396       9.21106       8.61061
     7  C(13)             -0.02167     -12.17965      -4.34600      -4.06269
     8  H(1)              -0.00408      -9.11702      -3.25318      -3.04111
     9  C(13)              0.03492      19.62972       7.00437       6.54777
    10  H(1)               0.00153       3.40990       1.21674       1.13742
    11  C(13)              0.08610      48.39432      17.26830      16.14261
    12  H(1)               0.00293       6.55740       2.33984       2.18731
    13  H(1)               0.00174       3.88864       1.38756       1.29711
    14  H(1)              -0.00480     -10.72274      -3.82614      -3.57672
    15  H(1)              -0.00729     -16.29661      -5.81504      -5.43596
    16  H(1)              -0.00602     -13.44774      -4.79849      -4.48568
 --------------------------------------------------------
       Center         ----  Spin Dipole Couplings  ----
                      3XX-RR        3YY-RR        3ZZ-RR
 --------------------------------------------------------
     1   Atom        0.073850     -0.005549     -0.068301
     2   Atom       -0.118300     -0.048642      0.166942
     3   Atom       -0.123245     -0.052523      0.175767
     4   Atom        0.055664      0.014937     -0.070600
     5   Atom       -0.005268      0.008752     -0.003484
     6   Atom       -0.346408     -0.111437      0.457846
     7   Atom        0.063395      0.021393     -0.084788
     8   Atom        0.004120      0.004269     -0.008389
     9   Atom       -0.148001     -0.076950      0.224952
    10   Atom        0.005241     -0.000993     -0.004249
    11   Atom       -0.074427      0.257873     -0.183446
    12   Atom       -0.026821      0.032832     -0.006011
    13   Atom        0.006415     -0.001974     -0.004440
    14   Atom        0.024307     -0.018404     -0.005904
    15   Atom        0.055703     -0.014213     -0.041490
    16   Atom       -0.039932     -0.020202      0.060134
 --------------------------------------------------------
                        XY            XZ            YZ
 --------------------------------------------------------
     1   Atom        0.037409      0.042556     -0.027340
     2   Atom        0.010744      0.008846      0.137619
     3   Atom        0.018168      0.027386      0.156831
     4   Atom       -0.006832     -0.009414     -0.058484
     5   Atom       -0.006884      0.003473     -0.008480
     6   Atom        0.073502      0.105817      0.438039
     7   Atom        0.001065     -0.012425     -0.062823
     8   Atom        0.003905     -0.001544     -0.010271
     9   Atom        0.009350      0.014828      0.184912
    10   Atom       -0.001306     -0.000094     -0.001707
    11   Atom       -0.594999     -0.406124      0.521882
    12   Atom       -0.033460      0.018858     -0.020793
    13   Atom        0.002568     -0.001959     -0.002070
    14   Atom        0.003183     -0.002760      0.007404
    15   Atom        0.032867      0.025811      0.040179
    16   Atom       -0.037312      0.020868     -0.030442
 --------------------------------------------------------


 ---------------------------------------------------------------------------------
              Anisotropic Spin Dipole Couplings in Principal Axis System
 ---------------------------------------------------------------------------------

       Atom             a.u.   MegaHertz   Gauss  10(-4) cm-1        Axes

              Baa    -0.0955   -12.817    -4.573    -4.275 -0.3046  0.3906  0.8687
     1 C(13)  Bbb     0.0010     0.128     0.046     0.043 -0.1814  0.8716 -0.4555
              Bcc     0.0946    12.689     4.528     4.233  0.9351  0.2963  0.1946
 
              Baa    -0.1232   -16.531    -5.899    -5.514  0.7928 -0.5597  0.2413
     2 C(13)  Bbb    -0.1112   -14.925    -5.326    -4.978  0.6085  0.7034 -0.3674
              Bcc     0.2344    31.456    11.224    10.493  0.0359  0.4381  0.8982
 
              Baa    -0.1341   -17.995    -6.421    -6.002 -0.4207  0.8239 -0.3798
     3 C(13)  Bbb    -0.1243   -16.678    -5.951    -5.563  0.9032  0.3411 -0.2607
              Bcc     0.2584    34.673    12.372    11.566  0.0852  0.4527  0.8876
 
              Baa    -0.1011   -13.570    -4.842    -4.527  0.0731  0.4522  0.8889
     4 C(13)  Bbb     0.0443     5.951     2.123     1.985  0.1481  0.8765 -0.4581
              Bcc     0.0568     7.619     2.719     2.542  0.9863 -0.1651  0.0029
 
              Baa    -0.0081    -4.313    -1.539    -1.439  0.9284  0.3713 -0.0165
     5 H(1)   Bbb    -0.0078    -4.170    -1.488    -1.391 -0.1448  0.4025  0.9039
              Bcc     0.0159     8.483     3.027     2.830 -0.3423  0.8368 -0.4274
 
              Baa    -0.3710   -49.778   -17.762   -16.604  0.8346 -0.5239  0.1703
     6 C(13)  Bbb    -0.3402   -45.646   -16.288   -15.226  0.5376  0.7071 -0.4594
              Bcc     0.7111    95.425    34.050    31.830  0.1202  0.4750  0.8717
 
              Baa    -0.1146   -15.379    -5.488    -5.130  0.0608  0.4182  0.9063
     7 C(13)  Bbb     0.0481     6.461     2.305     2.155 -0.3617  0.8555 -0.3705
              Bcc     0.0665     8.918     3.182     2.975  0.9303  0.3053 -0.2032
 
              Baa    -0.0141    -7.546    -2.692    -2.517 -0.0317  0.4921  0.8700
     8 H(1)   Bbb     0.0020     1.056     0.377     0.352  0.8873 -0.3869  0.2511
              Bcc     0.0122     6.489     2.315     2.165  0.4602  0.7799 -0.4243
 
              Baa    -0.1650   -22.137    -7.899    -7.384 -0.1269  0.8981 -0.4211
     9 C(13)  Bbb    -0.1484   -19.913    -7.105    -6.642  0.9912  0.0987 -0.0883
              Bcc     0.3134    42.050    15.004    14.026  0.0377  0.4286  0.9027
 
              Baa    -0.0050    -2.676    -0.955    -0.893  0.0601  0.4063  0.9117
    10 H(1)   Bbb    -0.0005    -0.264    -0.094    -0.088  0.1961  0.8908 -0.4099
              Bcc     0.0055     2.940     1.049     0.981  0.9787 -0.2034  0.0261
 
              Baa    -0.5387   -72.293   -25.796   -24.114  0.6339 -0.0327  0.7727
    11 C(13)  Bbb    -0.5221   -70.066   -25.001   -23.372  0.5578  0.7115 -0.4275
              Bcc     1.0609   142.360    50.797    47.486 -0.5358  0.7020  0.4693
 
              Baa    -0.0443   -23.635    -8.434    -7.884  0.9072  0.3199 -0.2731
    12 H(1)   Bbb    -0.0146    -7.805    -2.785    -2.603  0.1035  0.4595  0.8822
              Bcc     0.0589    31.440    11.218    10.487 -0.4077  0.8286 -0.3837
 
              Baa    -0.0056    -3.007    -1.073    -1.003  0.0437  0.4683  0.8825
    13 H(1)   Bbb    -0.0020    -1.071    -0.382    -0.357 -0.3530  0.8336 -0.4248
              Bcc     0.0076     4.077     1.455     1.360  0.9346  0.2930 -0.2017
 
              Baa    -0.0222   -11.843    -4.226    -3.950 -0.0869  0.9013 -0.4243
    14 H(1)   Bbb    -0.0025    -1.341    -0.478    -0.447  0.0419  0.4289  0.9024
              Bcc     0.0247    13.184     4.704     4.398  0.9953  0.0606 -0.0751
 
              Baa    -0.0703   -37.516   -13.387   -12.514 -0.0174 -0.5754  0.8177
    15 H(1)   Bbb    -0.0114    -6.073    -2.167    -2.026 -0.5280  0.6998  0.4812
              Bcc     0.0817    43.589    15.554    14.540  0.8491  0.4233  0.3160
 
              Baa    -0.0687   -36.654   -13.079   -12.227  0.7868  0.6169  0.0183
    16 H(1)   Bbb    -0.0106    -5.678    -2.026    -1.894 -0.5540  0.6930  0.4614
              Bcc     0.0793    42.332    15.105    14.120  0.2719 -0.3732  0.8870
 

 ---------------------------------------------------------------------------------

 Calling FoFJK, ICntrl=      2127 FMM=F ISym2X=0 I1Cent= 0 IOpClX= 1 NMat=1 NMatS=1 NMatT=0.
 Cartesian Forces:  Max     0.032266810 RMS     0.003596818
 SvSCFP is copying densities from files   528 and   530 to   603.
 ONIOM: saving gridpoint  2
 ONIOM: restoring gridpoint 17
 ONIOM: restoring gridpoint  1 on chk file.
 ONIOM: generating point  1 -- low level on model system.
 Standard basis: VSTO-6G (5D, 7F)
    40 basis functions,   240 primitive gaussians,    40 cartesian basis functions
    21 alpha electrons       19 beta electrons
       nuclear repulsion energy       184.5563483041 Hartrees.
 Integral buffers will be    131072 words long.
 Regular integral format.
 Two-electron integral symmetry is turned off.
 Do NDO integrals.
 One-electron integrals computed using PRISM.
 NBasis=    40 RedAO= F EigKep=  0.00D+00  NBF=    40
 NBsUse=    40 1.00D-04 EigRej=  0.00D+00 NBFU=    40
 Initial guess from the checkpoint file:  "b.chk"
 B after Tr=     0.001370   -0.000200    0.000892
         Rot=    1.000000   -0.000228   -0.000189    0.000176 Ang=  -0.04 deg.
 Initial guess <Sx>= 0.0000 <Sy>= 0.0000 <Sz>= 1.0000 <S**2>= 2.3246 S= 1.1046
 Keep J ints in memory in canonical form, NReq=867663.
 Overlap will be assumed to be unity.
 Requested convergence on RMS density matrix=1.00D-08 within  64 cycles.
 Requested convergence on MAX density matrix=1.00D-06.
 Requested convergence on             energy=1.00D-06.
 No special actions if energy rises.
 SCF Done:  E(UPM6) =  0.111499144868     A.U. after   14 cycles
            NFock= 13  Conv=0.10D-07     -V/T= 1.0018
 <Sx>= 0.0000 <Sy>= 0.0000 <Sz>= 1.0000 <S**2>= 2.3246 S= 1.1046
 <L.S>=  0.00000000000    
 Annihilation of the first spin contaminant:
 S**2 before annihilation     2.3246,   after     2.0542
 QCSCF skips out because SCF is already converged.

 **********************************************************************

            Population analysis using the SCF Density.

 **********************************************************************

 Alpha  occ. eigenvalues --   -1.09832  -1.00410  -0.95923  -0.91001  -0.81618
 Alpha  occ. eigenvalues --   -0.77959  -0.71773  -0.63958  -0.58940  -0.56865
 Alpha  occ. eigenvalues --   -0.54597  -0.52394  -0.51382  -0.50319  -0.48611
 Alpha  occ. eigenvalues --   -0.45100  -0.43339  -0.40871  -0.37165  -0.35902
 Alpha  occ. eigenvalues --   -0.29955
 Alpha virt. eigenvalues --    0.01865   0.02554   0.09669   0.15213   0.15613
 Alpha virt. eigenvalues --    0.17193   0.18201   0.18339   0.18956   0.19629
 Alpha virt. eigenvalues --    0.20337   0.20878   0.21471   0.22052   0.22270
 Alpha virt. eigenvalues --    0.22494   0.22805   0.23156   0.23396
  Beta  occ. eigenvalues --   -1.09702  -0.99738  -0.95816  -0.89944  -0.80925
  Beta  occ. eigenvalues --   -0.77726  -0.71075  -0.63360  -0.58297  -0.56487
  Beta  occ. eigenvalues --   -0.53626  -0.52264  -0.50152  -0.48876  -0.47643
  Beta  occ. eigenvalues --   -0.44562  -0.43113  -0.36819  -0.36275
  Beta virt. eigenvalues --   -0.03399   0.02207   0.02688   0.07025   0.10835
  Beta virt. eigenvalues --    0.15674   0.15959   0.17905   0.18465   0.18869
  Beta virt. eigenvalues --    0.19451   0.20208   0.20688   0.21341   0.21785
  Beta virt. eigenvalues --    0.22354   0.22891   0.22962   0.23212   0.23503
  Beta virt. eigenvalues --    0.23801
          Condensed to atoms (all electrons):
          Atomic-Atomic Spin Densities.
 Mulliken charges and spin densities:
               1          2
     1  C    0.041762  -0.376542
     2  C   -0.173735   0.444338
     3  C   -0.160336   0.460884
     4  C   -0.134624  -0.364273
     5  H    0.148124  -0.015562
     6  C   -0.171689   0.790032
     7  C   -0.140789  -0.367180
     8  H    0.150930  -0.016229
     9  C   -0.146720   0.450221
    10  H    0.144590   0.012664
    11  C   -0.304922   1.038690
    12  H    0.153115  -0.010850
    13  H    0.144710   0.012841
    14  H    0.145107  -0.015485
    15  H    0.151691  -0.022584
    16  H    0.152787  -0.020964
    17  C    0.000000   0.000000
    18  H    0.000000   0.000000
    19  H    0.000000   0.000000
    20  Cl   0.000000   0.000000
    21  Cl   0.000000   0.000000
    22  C    0.000000   0.000000
    23  H    0.000000   0.000000
    24  H    0.000000   0.000000
    25  Cl   0.000000   0.000000
    26  Cl   0.000000   0.000000
    27  C    0.000000   0.000000
    28  H    0.000000   0.000000
    29  H    0.000000   0.000000
    30  Cl   0.000000   0.000000
    31  Cl   0.000000   0.000000
    32  C    0.000000   0.000000
    33  H    0.000000   0.000000
    34  H    0.000000   0.000000
    35  Cl   0.000000   0.000000
    36  Cl   0.000000   0.000000
    37  C    0.000000   0.000000
    38  H    0.000000   0.000000
    39  H    0.000000   0.000000
    40  Cl   0.000000   0.000000
    41  Cl   0.000000   0.000000
    42  C    0.000000   0.000000
    43  H    0.000000   0.000000
    44  H    0.000000   0.000000
    45  Cl   0.000000   0.000000
    46  Cl   0.000000   0.000000
    47  C    0.000000   0.000000
    48  H    0.000000   0.000000
    49  H    0.000000   0.000000
    50  Cl   0.000000   0.000000
    51  Cl   0.000000   0.000000
    52  C    0.000000   0.000000
    53  H    0.000000   0.000000
    54  H    0.000000   0.000000
    55  Cl   0.000000   0.000000
    56  Cl   0.000000   0.000000
    57  C    0.000000   0.000000
    58  H    0.000000   0.000000
    59  H    0.000000   0.000000
    60  Cl   0.000000   0.000000
    61  Cl   0.000000   0.000000
    62  C    0.000000   0.000000
    63  H    0.000000   0.000000
    64  H    0.000000   0.000000
    65  Cl   0.000000   0.000000
    66  Cl   0.000000   0.000000
    67  C    0.000000   0.000000
    68  H    0.000000   0.000000
    69  H    0.000000   0.000000
    70  Cl   0.000000   0.000000
    71  Cl   0.000000   0.000000
    72  C    0.000000   0.000000
    73  H    0.000000   0.000000
    74  H    0.000000   0.000000
    75  Cl   0.000000   0.000000
    76  Cl   0.000000   0.000000
    77  C    0.000000   0.000000
    78  H    0.000000   0.000000
    79  H    0.000000   0.000000
    80  Cl   0.000000   0.000000
    81  Cl   0.000000   0.000000
    82  C    0.000000   0.000000
    83  H    0.000000   0.000000
    84  H    0.000000   0.000000
    85  Cl   0.000000   0.000000
    86  Cl   0.000000   0.000000
    87  C    0.000000   0.000000
    88  H    0.000000   0.000000
    89  H    0.000000   0.000000
    90  Cl   0.000000   0.000000
    91  Cl   0.000000   0.000000
 Sum of Mulliken charges =  -0.00000   2.00000
 Mulliken charges and spin densities with hydrogens summed into heavy atoms:
               1          2
     1  C    0.041762  -0.376542
     2  C   -0.025611   0.428776
     3  C   -0.009407   0.444654
     4  C    0.009966  -0.351608
     6  C   -0.018574   0.779181
     7  C    0.003921  -0.354339
     9  C   -0.001613   0.434736
    11  C   -0.000445   0.995141
    17  C    0.000000   0.000000
    20  Cl   0.000000   0.000000
    21  Cl   0.000000   0.000000
    22  C    0.000000   0.000000
    25  Cl   0.000000   0.000000
    26  Cl   0.000000   0.000000
    27  C    0.000000   0.000000
    30  Cl   0.000000   0.000000
    31  Cl   0.000000   0.000000
    32  C    0.000000   0.000000
    35  Cl   0.000000   0.000000
    36  Cl   0.000000   0.000000
    37  C    0.000000   0.000000
    40  Cl   0.000000   0.000000
    41  Cl   0.000000   0.000000
    42  C    0.000000   0.000000
    45  Cl   0.000000   0.000000
    46  Cl   0.000000   0.000000
    47  C    0.000000   0.000000
    50  Cl   0.000000   0.000000
    51  Cl   0.000000   0.000000
    52  C    0.000000   0.000000
    55  Cl   0.000000   0.000000
    56  Cl   0.000000   0.000000
    57  C    0.000000   0.000000
    60  Cl   0.000000   0.000000
    61  Cl   0.000000   0.000000
    62  C    0.000000   0.000000
    65  Cl   0.000000   0.000000
    66  Cl   0.000000   0.000000
    67  C    0.000000   0.000000
    70  Cl   0.000000   0.000000
    71  Cl   0.000000   0.000000
    72  C    0.000000   0.000000
    75  Cl   0.000000   0.000000
    76  Cl   0.000000   0.000000
    77  C    0.000000   0.000000
    80  Cl   0.000000   0.000000
    81  Cl   0.000000   0.000000
    82  C    0.000000   0.000000
    85  Cl   0.000000   0.000000
    86  Cl   0.000000   0.000000
    87  C    0.000000   0.000000
    90  Cl   0.000000   0.000000
    91  Cl   0.000000   0.000000
 Charge=              0.0000 electrons
 Dipole moment (field-independent basis, Debye):
    X=             -0.0082    Y=              0.0168    Z=             -0.0696  Tot=              0.0721
 N-N= 1.845563483041D+02 E-N=-2.805557006836D+02  KE=-6.319083246111D+01
 Calling FoFJK, ICntrl=      2127 FMM=F ISym2X=0 I1Cent= 0 IOpClX= 1 NMat=1 NMatS=1 NMatT=0.
 Cartesian Forces:  Max     0.021401060 RMS     0.002868329
 SvSCFP is copying densities from files   528 and   530 to   603.
 ONIOM: saving gridpoint  1
 ONIOM: restoring gridpoint  3
 ONIOM: calculating energy.
 ONIOM: gridpoint  1 method:  low   system:  model energy:     0.111499144868
 ONIOM: gridpoint  2 method:  high  system:  model energy:  -309.578867660252
 ONIOM: gridpoint  3 method:  low   system:  real  energy:    -0.404474660022
 ONIOM: extrapolated energy =    -310.094841465142
 ONIOM: calculating first derivatives.
 ONIOM: calculating electric field derivatives.
 ONIOM: Integrating ONIOM file  4 number   619
 ONIOM: Dipole        =-3.24305938D-01-8.71559023D-02 2.10047551D-01
 ONIOM: Dipole moment (Debye):
    X=    -0.8243    Y=    -0.2215    Z=     0.5339  Tot=     1.0068
 ONIOM: Integrating ONIOM file  5 number   695
 Anisotropic Hyperfine tensors: 
                 1             2             3             4             5 
      1   0.738505D-01 -0.118300D+00 -0.123245D+00  0.556635D-01 -0.526782D-02
      2   0.374086D-01  0.107435D-01  0.181680D-01 -0.683204D-02 -0.688372D-02
      3  -0.554944D-02 -0.486425D-01 -0.525226D-01  0.149369D-01  0.875168D-02
      4   0.425561D-01  0.884604D-02  0.273862D-01 -0.941376D-02  0.347342D-02
      5  -0.273399D-01  0.137619D+00  0.156831D+00 -0.584838D-01 -0.848013D-02
      6  -0.683010D-01  0.166942D+00  0.175767D+00 -0.706004D-01 -0.348386D-02
                 6             7             8             9            10 
      1  -0.346408D+00  0.633955D-01  0.412005D-02 -0.148001D+00  0.524144D-02
      2   0.735024D-01  0.106516D-02  0.390530D-02  0.935042D-02 -0.130617D-02
      3  -0.111437D+00  0.213926D-01  0.426866D-02 -0.769502D-01 -0.992765D-03
      4   0.105817D+00 -0.124251D-01 -0.154408D-02  0.148282D-01 -0.941671D-04
      5   0.438039D+00 -0.628225D-01 -0.102713D-01  0.184912D+00 -0.170662D-02
      6   0.457846D+00 -0.847881D-01 -0.838870D-02  0.224952D+00 -0.424868D-02
                11            12            13            14            15 
      1  -0.744275D-01 -0.268213D-01  0.641462D-02  0.243071D-01  0.557028D-01
      2  -0.594999D+00 -0.334596D-01  0.256768D-02  0.318330D-02  0.328672D-01
      3   0.257873D+00  0.328320D-01 -0.197413D-02 -0.184036D-01 -0.142133D-01
      4  -0.406124D+00  0.188576D-01 -0.195854D-02 -0.275959D-02  0.258114D-01
      5   0.521882D+00 -0.207928D-01 -0.206977D-02  0.740371D-02  0.401787D-01
      6  -0.183446D+00 -0.601067D-02 -0.444049D-02 -0.590352D-02 -0.414896D-01
                16            17            18            19            20 
      1  -0.399318D-01  0.000000D+00  0.000000D+00  0.000000D+00  0.000000D+00
      2  -0.373121D-01  0.000000D+00  0.000000D+00  0.000000D+00  0.000000D+00
      3  -0.202018D-01  0.000000D+00  0.000000D+00  0.000000D+00  0.000000D+00
      4   0.208679D-01  0.000000D+00  0.000000D+00  0.000000D+00  0.000000D+00
      5  -0.304424D-01  0.000000D+00  0.000000D+00  0.000000D+00  0.000000D+00
      6   0.601336D-01  0.000000D+00  0.000000D+00  0.000000D+00  0.000000D+00
                21            22            23            24            25 
      1   0.000000D+00  0.000000D+00  0.000000D+00  0.000000D+00  0.000000D+00
      2   0.000000D+00  0.000000D+00  0.000000D+00  0.000000D+00  0.000000D+00
      3   0.000000D+00  0.000000D+00  0.000000D+00  0.000000D+00  0.000000D+00
      4   0.000000D+00  0.000000D+00  0.000000D+00  0.000000D+00  0.000000D+00
      5   0.000000D+00  0.000000D+00  0.000000D+00  0.000000D+00  0.000000D+00
      6   0.000000D+00  0.000000D+00  0.000000D+00  0.000000D+00  0.000000D+00
                26            27            28            29            30 
      1   0.000000D+00  0.000000D+00  0.000000D+00  0.000000D+00  0.000000D+00
      2   0.000000D+00  0.000000D+00  0.000000D+00  0.000000D+00  0.000000D+00
      3   0.000000D+00  0.000000D+00  0.000000D+00  0.000000D+00  0.000000D+00
      4   0.000000D+00  0.000000D+00  0.000000D+00  0.000000D+00  0.000000D+00
      5   0.000000D+00  0.000000D+00  0.000000D+00  0.000000D+00  0.000000D+00
      6   0.000000D+00  0.000000D+00  0.000000D+00  0.000000D+00  0.000000D+00
                31            32            33            34            35 
      1   0.000000D+00  0.000000D+00  0.000000D+00  0.000000D+00  0.000000D+00
      2   0.000000D+00  0.000000D+00  0.000000D+00  0.000000D+00  0.000000D+00
      3   0.000000D+00  0.000000D+00  0.000000D+00  0.000000D+00  0.000000D+00
      4   0.000000D+00  0.000000D+00  0.000000D+00  0.000000D+00  0.000000D+00
      5   0.000000D+00  0.000000D+00  0.000000D+00  0.000000D+00  0.000000D+00
      6   0.000000D+00  0.000000D+00  0.000000D+00  0.000000D+00  0.000000D+00
                36            37            38            39            40 
      1   0.000000D+00  0.000000D+00  0.000000D+00  0.000000D+00  0.000000D+00
      2   0.000000D+00  0.000000D+00  0.000000D+00  0.000000D+00  0.000000D+00
      3   0.000000D+00  0.000000D+00  0.000000D+00  0.000000D+00  0.000000D+00
      4   0.000000D+00  0.000000D+00  0.000000D+00  0.000000D+00  0.000000D+00
      5   0.000000D+00  0.000000D+00  0.000000D+00  0.000000D+00  0.000000D+00
      6   0.000000D+00  0.000000D+00  0.000000D+00  0.000000D+00  0.000000D+00
                41            42            43            44            45 
      1   0.000000D+00  0.000000D+00  0.000000D+00  0.000000D+00  0.000000D+00
      2   0.000000D+00  0.000000D+00  0.000000D+00  0.000000D+00  0.000000D+00
      3   0.000000D+00  0.000000D+00  0.000000D+00  0.000000D+00  0.000000D+00
      4   0.000000D+00  0.000000D+00  0.000000D+00  0.000000D+00  0.000000D+00
      5   0.000000D+00  0.000000D+00  0.000000D+00  0.000000D+00  0.000000D+00
      6   0.000000D+00  0.000000D+00  0.000000D+00  0.000000D+00  0.000000D+00
                46            47            48            49            50 
      1   0.000000D+00  0.000000D+00  0.000000D+00  0.000000D+00  0.000000D+00
      2   0.000000D+00  0.000000D+00  0.000000D+00  0.000000D+00  0.000000D+00
      3   0.000000D+00  0.000000D+00  0.000000D+00  0.000000D+00  0.000000D+00
      4   0.000000D+00  0.000000D+00  0.000000D+00  0.000000D+00  0.000000D+00
      5   0.000000D+00  0.000000D+00  0.000000D+00  0.000000D+00  0.000000D+00
      6   0.000000D+00  0.000000D+00  0.000000D+00  0.000000D+00  0.000000D+00
                51            52            53            54            55 
      1   0.000000D+00  0.000000D+00  0.000000D+00  0.000000D+00  0.000000D+00
      2   0.000000D+00  0.000000D+00  0.000000D+00  0.000000D+00  0.000000D+00
      3   0.000000D+00  0.000000D+00  0.000000D+00  0.000000D+00  0.000000D+00
      4   0.000000D+00  0.000000D+00  0.000000D+00  0.000000D+00  0.000000D+00
      5   0.000000D+00  0.000000D+00  0.000000D+00  0.000000D+00  0.000000D+00
      6   0.000000D+00  0.000000D+00  0.000000D+00  0.000000D+00  0.000000D+00
                56            57            58            59            60 
      1   0.000000D+00  0.000000D+00  0.000000D+00  0.000000D+00  0.000000D+00
      2   0.000000D+00  0.000000D+00  0.000000D+00  0.000000D+00  0.000000D+00
      3   0.000000D+00  0.000000D+00  0.000000D+00  0.000000D+00  0.000000D+00
      4   0.000000D+00  0.000000D+00  0.000000D+00  0.000000D+00  0.000000D+00
      5   0.000000D+00  0.000000D+00  0.000000D+00  0.000000D+00  0.000000D+00
      6   0.000000D+00  0.000000D+00  0.000000D+00  0.000000D+00  0.000000D+00
                61            62            63            64            65 
      1   0.000000D+00  0.000000D+00  0.000000D+00  0.000000D+00  0.000000D+00
      2   0.000000D+00  0.000000D+00  0.000000D+00  0.000000D+00  0.000000D+00
      3   0.000000D+00  0.000000D+00  0.000000D+00  0.000000D+00  0.000000D+00
      4   0.000000D+00  0.000000D+00  0.000000D+00  0.000000D+00  0.000000D+00
      5   0.000000D+00  0.000000D+00  0.000000D+00  0.000000D+00  0.000000D+00
      6   0.000000D+00  0.000000D+00  0.000000D+00  0.000000D+00  0.000000D+00
                66            67            68            69            70 
      1   0.000000D+00  0.000000D+00  0.000000D+00  0.000000D+00  0.000000D+00
      2   0.000000D+00  0.000000D+00  0.000000D+00  0.000000D+00  0.000000D+00
      3   0.000000D+00  0.000000D+00  0.000000D+00  0.000000D+00  0.000000D+00
      4   0.000000D+00  0.000000D+00  0.000000D+00  0.000000D+00  0.000000D+00
      5   0.000000D+00  0.000000D+00  0.000000D+00  0.000000D+00  0.000000D+00
      6   0.000000D+00  0.000000D+00  0.000000D+00  0.000000D+00  0.000000D+00
                71            72            73            74            75 
      1   0.000000D+00  0.000000D+00  0.000000D+00  0.000000D+00  0.000000D+00
      2   0.000000D+00  0.000000D+00  0.000000D+00  0.000000D+00  0.000000D+00
      3   0.000000D+00  0.000000D+00  0.000000D+00  0.000000D+00  0.000000D+00
      4   0.000000D+00  0.000000D+00  0.000000D+00  0.000000D+00  0.000000D+00
      5   0.000000D+00  0.000000D+00  0.000000D+00  0.000000D+00  0.000000D+00
      6   0.000000D+00  0.000000D+00  0.000000D+00  0.000000D+00  0.000000D+00
                76            77            78            79            80 
      1   0.000000D+00  0.000000D+00  0.000000D+00  0.000000D+00  0.000000D+00
      2   0.000000D+00  0.000000D+00  0.000000D+00  0.000000D+00  0.000000D+00
      3   0.000000D+00  0.000000D+00  0.000000D+00  0.000000D+00  0.000000D+00
      4   0.000000D+00  0.000000D+00  0.000000D+00  0.000000D+00  0.000000D+00
      5   0.000000D+00  0.000000D+00  0.000000D+00  0.000000D+00  0.000000D+00
      6   0.000000D+00  0.000000D+00  0.000000D+00  0.000000D+00  0.000000D+00
                81            82            83            84            85 
      1   0.000000D+00  0.000000D+00  0.000000D+00  0.000000D+00  0.000000D+00
      2   0.000000D+00  0.000000D+00  0.000000D+00  0.000000D+00  0.000000D+00
      3   0.000000D+00  0.000000D+00  0.000000D+00  0.000000D+00  0.000000D+00
      4   0.000000D+00  0.000000D+00  0.000000D+00  0.000000D+00  0.000000D+00
      5   0.000000D+00  0.000000D+00  0.000000D+00  0.000000D+00  0.000000D+00
      6   0.000000D+00  0.000000D+00  0.000000D+00  0.000000D+00  0.000000D+00
                86            87            88            89            90 
      1   0.000000D+00  0.000000D+00  0.000000D+00  0.000000D+00  0.000000D+00
      2   0.000000D+00  0.000000D+00  0.000000D+00  0.000000D+00  0.000000D+00
      3   0.000000D+00  0.000000D+00  0.000000D+00  0.000000D+00  0.000000D+00
      4   0.000000D+00  0.000000D+00  0.000000D+00  0.000000D+00  0.000000D+00
      5   0.000000D+00  0.000000D+00  0.000000D+00  0.000000D+00  0.000000D+00
      6   0.000000D+00  0.000000D+00  0.000000D+00  0.000000D+00  0.000000D+00
                91 
      1   0.000000D+00
      2   0.000000D+00
      3   0.000000D+00
      4   0.000000D+00
      5   0.000000D+00
      6   0.000000D+00
 ONIOM Fermi contact: 
               1
     1  C   -0.004455
     2  C    0.024823
     3  C    0.031078
     4  C   -0.019549
     5  H   -0.003699
     6  C    0.045925
     7  C   -0.021668
     8  H   -0.004079
     9  C    0.034922
    10  H    0.001526
    11  C    0.086096
    12  H    0.002934
    13  H    0.001740
    14  H   -0.004798
    15  H   -0.007292
    16  H   -0.006017
    17  C    0.000000
    18  H    0.000000
    19  H    0.000000
    20  Cl   0.000000
    21  Cl   0.000000
    22  C    0.000000
    23  H    0.000000
    24  H    0.000000
    25  Cl   0.000000
    26  Cl   0.000000
    27  C    0.000000
    28  H    0.000000
    29  H    0.000000
    30  Cl   0.000000
    31  Cl   0.000000
    32  C    0.000000
    33  H    0.000000
    34  H    0.000000
    35  Cl   0.000000
    36  Cl   0.000000
    37  C    0.000000
    38  H    0.000000
    39  H    0.000000
    40  Cl   0.000000
    41  Cl   0.000000
    42  C    0.000000
    43  H    0.000000
    44  H    0.000000
    45  Cl   0.000000
    46  Cl   0.000000
    47  C    0.000000
    48  H    0.000000
    49  H    0.000000
    50  Cl   0.000000
    51  Cl   0.000000
    52  C    0.000000
    53  H    0.000000
    54  H    0.000000
    55  Cl   0.000000
    56  Cl   0.000000
    57  C    0.000000
    58  H    0.000000
    59  H    0.000000
    60  Cl   0.000000
    61  Cl   0.000000
    62  C    0.000000
    63  H    0.000000
    64  H    0.000000
    65  Cl   0.000000
    66  Cl   0.000000
    67  C    0.000000
    68  H    0.000000
    69  H    0.000000
    70  Cl   0.000000
    71  Cl   0.000000
    72  C    0.000000
    73  H    0.000000
    74  H    0.000000
    75  Cl   0.000000
    76  Cl   0.000000
    77  C    0.000000
    78  H    0.000000
    79  H    0.000000
    80  Cl   0.000000
[...]
   X22       10.82246   0.00004   0.00000   0.00032   0.00043  10.82289
   Y22       -2.01716   0.00001   0.00000   0.00000   0.00003  -2.01713
   Z22       -2.95002  -0.00001   0.00000   0.00096   0.00004  -2.94997
   X23        8.78654   0.00005   0.00000   0.00027   0.00037   8.78692
   Y23       -2.10808   0.00003   0.00000   0.00049   0.00047  -2.10761
   Z23       -2.44458   0.00000   0.00000   0.00058  -0.00036  -2.44494
   X24       11.97542  -0.00006   0.00000  -0.00055  -0.00044  11.97498
   Y24       -3.15765  -0.00008   0.00000  -0.00109  -0.00113  -3.15878
   Z24       -1.62137  -0.00001   0.00000   0.00065  -0.00033  -1.62171
   X25       11.86063   0.00015   0.00000   0.00172   0.00179  11.86241
   Y25        1.16787  -0.00004   0.00000  -0.00050  -0.00046   1.16741
   Z25       -2.86629   0.00011   0.00000   0.00244   0.00171  -2.86458
   X26       11.26002   0.00005   0.00000   0.00043   0.00057  11.26059
   Y26       -3.12803   0.00010   0.00000   0.00093   0.00114  -3.12689
   Z26       -6.06905  -0.00004   0.00000   0.00072  -0.00027  -6.06932
   X27        3.98557  -0.00007   0.00000  -0.00094  -0.00096   3.98461
   Y27        6.01657   0.00002   0.00000   0.00072   0.00033   6.01690
   Z27        2.91748   0.00000   0.00000   0.00039  -0.00010   2.91738
   X28        3.46902  -0.00027   0.00000  -0.00238  -0.00237   3.46665
   Y28        4.05275   0.00012   0.00000   0.00143   0.00107   4.05381
   Z28        2.37251  -0.00013   0.00000  -0.00087  -0.00148   2.37103
   X29        2.57119  -0.00004   0.00000  -0.00062  -0.00065   2.57054
   Y29        7.38487   0.00001   0.00000   0.00114   0.00077   7.38564
   Z29        2.18236   0.00001   0.00000   0.00088   0.00046   2.18281
   X30        7.01820  -0.00008   0.00000  -0.00093  -0.00096   7.01724
   Y30        6.76769   0.00010   0.00000   0.00123   0.00094   6.76864
   Z30        1.70978   0.00006   0.00000   0.00083   0.00039   1.71017
   X31        4.17426   0.00010   0.00000   0.00060   0.00056   4.17483
   Y31        6.26148  -0.00011   0.00000  -0.00070  -0.00128   6.26020
   Z31        6.24969  -0.00001   0.00000   0.00045  -0.00003   6.24966
   X32       -4.26662  -0.00006   0.00000  -0.00070  -0.00068  -4.26730
   Y32        1.53571  -0.00004   0.00000   0.00030  -0.00040   1.53531
   Z32        6.57922  -0.00005   0.00000  -0.00009  -0.00088   6.57834
   X33       -3.56861  -0.00011   0.00000  -0.00114  -0.00110  -3.56971
   Y33       -0.44167  -0.00006   0.00000   0.00003  -0.00067  -0.44234
   Z33        6.64359  -0.00025   0.00000  -0.00139  -0.00229   6.64130
   X34       -4.16169   0.00000   0.00000   0.00010   0.00010  -4.16160
   Y34        2.44023   0.00015   0.00000   0.00110   0.00029   2.44053
   Z34        8.47006  -0.00015   0.00000  -0.00059  -0.00133   8.46873
   X35       -7.43312  -0.00008   0.00000  -0.00120  -0.00118  -7.43430
   Y35        1.56596  -0.00010   0.00000   0.00024  -0.00044   1.56551
   Z35        5.49047   0.00009   0.00000   0.00169   0.00088   5.49135
   X36       -2.43190  -0.00001   0.00000  -0.00047  -0.00047  -2.43237
   Y36        3.27840  -0.00005   0.00000   0.00039  -0.00017   3.27824
   Z36        4.38709   0.00003   0.00000   0.00043  -0.00025   4.38683
   X37       -1.97957  -0.00009   0.00000  -0.00108  -0.00116  -1.98073
   Y37        8.61164   0.00007   0.00000   0.00160   0.00081   8.61245
   Z37        8.64858   0.00013   0.00000   0.00190   0.00152   8.65010
   X38       -0.71555  -0.00014   0.00000  -0.00135  -0.00146  -0.71701
   Y38       10.26459   0.00009   0.00000   0.00158   0.00079  10.26538
   Z38        8.88220   0.00023   0.00000   0.00305   0.00278   8.88498
   X39       -1.66225  -0.00001   0.00000  -0.00024  -0.00030  -1.66255
   Y39        7.69348   0.00015   0.00000   0.00237   0.00169   7.69516
   Z39        6.78784   0.00011   0.00000   0.00163   0.00120   6.78905
   X40       -5.16280  -0.00010   0.00000  -0.00115  -0.00124  -5.16404
   Y40        9.56385   0.00003   0.00000   0.00153   0.00068   9.56453
   Z40        8.91771   0.00007   0.00000   0.00136   0.00102   8.91873
   X41       -1.37837  -0.00016   0.00000  -0.00182  -0.00189  -1.38026
   Y41        6.39777  -0.00007   0.00000   0.00047  -0.00045   6.39732
   Z41       11.10165   0.00001   0.00000   0.00102   0.00052  11.10217
   X42        8.37950  -0.00005   0.00000  -0.00051  -0.00043   8.37907
   Y42        2.04803   0.00013   0.00000   0.00126   0.00157   2.04960
   Z42       -8.39913  -0.00001   0.00000   0.00050  -0.00020  -8.39932
   X43        7.32952  -0.00007   0.00000  -0.00095  -0.00085   7.32866
   Y43        0.51441   0.00011   0.00000   0.00131   0.00155   0.51596
   Z43       -7.42215  -0.00006   0.00000   0.00005  -0.00074  -7.42289
   X44       10.44861  -0.00007   0.00000  -0.00065  -0.00056  10.44805
   Y44        1.72199   0.00011   0.00000   0.00089   0.00122   1.72321
   Z44       -8.26773   0.00000   0.00000   0.00057  -0.00014  -8.26787
   X45        7.62753   0.00008   0.00000   0.00069   0.00073   7.62826
   Y45        5.00612   0.00016   0.00000   0.00161   0.00182   5.00795
   Z45       -7.00238  -0.00003   0.00000   0.00045  -0.00009  -7.00247
   X46        7.43778   0.00004   0.00000   0.00016   0.00025   7.43803
   Y46        2.20751   0.00015   0.00000   0.00135   0.00183   2.20934
   Z46      -11.59989  -0.00003   0.00000   0.00040  -0.00029 -11.60019
   X47      -10.25345   0.00003   0.00000   0.00080   0.00083 -10.25263
   Y47        3.71594   0.00015   0.00000   0.00230   0.00194   3.71787
   Z47       -0.73330   0.00002   0.00000   0.00091   0.00021  -0.73309
   X48      -11.94379   0.00006   0.00000   0.00078   0.00081 -11.94298
   Y48        2.63569   0.00025   0.00000   0.00364   0.00322   2.63891
   Z48       -0.12973   0.00027   0.00000   0.00348   0.00271  -0.12702
   X49       -8.75236   0.00022   0.00000   0.00274   0.00276  -8.74960
   Y49        3.64349   0.00010   0.00000   0.00163   0.00120   3.64469
   Z49        0.73238  -0.00023   0.00000  -0.00140  -0.00209   0.73029
   X50      -11.11468   0.00033   0.00000   0.00375   0.00374 -11.11094
   Y50        6.89854   0.00022   0.00000   0.00301   0.00267   6.90121
   Z50       -1.29097  -0.00005   0.00000   0.00028  -0.00024  -1.29122
   X51       -9.10303  -0.00014   0.00000  -0.00206  -0.00201  -9.10504
   Y51        2.44001   0.00002   0.00000   0.00024   0.00005   2.44006
   Z51       -3.60151   0.00004   0.00000   0.00090   0.00013  -3.60138
   X52       -3.00829   0.00002   0.00000   0.00008   0.00016  -3.00813
   Y52        1.85751  -0.00001   0.00000  -0.00017  -0.00005   1.85747
   Z52       -7.72707   0.00007   0.00000   0.00164   0.00087  -7.72619
   X53       -3.63146   0.00006   0.00000   0.00085   0.00093  -3.63052
   Y53        2.45387   0.00005   0.00000   0.00008   0.00031   2.45418
   Z53       -9.63786   0.00008   0.00000   0.00141   0.00068  -9.63719
   X54       -4.05739  -0.00007   0.00000  -0.00099  -0.00093  -4.05832
   Y54        2.88995  -0.00006   0.00000  -0.00055  -0.00052   2.88943
   Z54       -6.22670   0.00002   0.00000   0.00102   0.00030  -6.22640
   X55        0.27813  -0.00001   0.00000  -0.00022  -0.00015   0.27797
   Y55        2.46032   0.00004   0.00000   0.00039   0.00054   2.46086
   Z55       -7.39836   0.00022   0.00000   0.00366   0.00294  -7.39542
   X56       -3.46684   0.00006   0.00000   0.00055   0.00067  -3.46617
   Y56       -1.43190  -0.00001   0.00000  -0.00023  -0.00012  -1.43202
   Z56       -7.36615   0.00006   0.00000   0.00188   0.00093  -7.36523
   X57       -2.66540   0.00016   0.00000   0.00178   0.00170  -2.66371
   Y57       11.13840   0.00004   0.00000   0.00092   0.00053  11.13893
   Z57        1.43426  -0.00006   0.00000  -0.00050  -0.00074   1.43352
   X58       -1.97943   0.00015   0.00000   0.00216   0.00208  -1.97735
   Y58       11.56693  -0.00003   0.00000   0.00067   0.00040  11.56733
   Z58       -0.50478  -0.00007   0.00000  -0.00042  -0.00063  -0.50541
   X59       -4.33084   0.00021   0.00000   0.00207   0.00198  -4.32887
   Y59       12.31303   0.00004   0.00000   0.00101   0.00057  12.31360
   Z59        1.92858   0.00003   0.00000  -0.00016  -0.00034   1.92825
   X60       -0.19634  -0.00001   0.00000   0.00037   0.00028  -0.19606
   Y60       11.71562   0.00004   0.00000   0.00054   0.00006  11.71568
   Z60        3.62604   0.00010   0.00000   0.00122   0.00103   3.62707
   X61       -3.47298   0.00001   0.00000   0.00039   0.00035  -3.47263
   Y61        7.89560   0.00009   0.00000   0.00121   0.00080   7.89640
   Z61        1.68000  -0.00036   0.00000  -0.00297  -0.00339   1.67661
   X62        2.09692  -0.00004   0.00000  -0.00043  -0.00042   2.09651
   Y62        0.62745   0.00000   0.00000   0.00087   0.00009   0.62754
   Z62        9.34222  -0.00010   0.00000  -0.00043  -0.00125   9.34098
   X63        1.38517   0.00004   0.00000   0.00034   0.00033   1.38551
   Y63        2.51752  -0.00001   0.00000   0.00063  -0.00013   2.51739
   Z63        8.76859  -0.00021   0.00000  -0.00192  -0.00262   8.76596
   X64        3.69585  -0.00007   0.00000  -0.00063  -0.00062   3.69523
   Y64        0.80435   0.00003   0.00000   0.00101   0.00018   0.80453
   Z64       10.68414  -0.00008   0.00000  -0.00034  -0.00113  10.68301
   X65        3.08647  -0.00001   0.00000  -0.00016  -0.00011   3.08635
   Y65       -1.06754  -0.00007   0.00000  -0.00039  -0.00100  -1.06854
   Z65        6.63795  -0.00004   0.00000   0.00061  -0.00030   6.63765
   X66       -0.37833  -0.00008   0.00000  -0.00107  -0.00104  -0.37937
   Y66       -1.10269   0.00009   0.00000   0.00239   0.00149  -1.10120
   Z66       10.78339  -0.00007   0.00000   0.00030  -0.00062  10.78277
   X67        2.01646   0.00004   0.00000   0.00045   0.00060   2.01706
   Y67       -4.10140  -0.00006   0.00000  -0.00053  -0.00045  -4.10185
   Z67       -5.72255   0.00003   0.00000   0.00147   0.00039  -5.72217
   X68        0.35899   0.00007   0.00000   0.00044   0.00060   0.35959
   Y68       -5.22097  -0.00003   0.00000  -0.00001   0.00008  -5.22089
   Z68       -6.34111  -0.00011   0.00000   0.00036  -0.00080  -6.34191
   X69        1.41562   0.00026   0.00000   0.00183   0.00195   1.41757
   Y69       -2.20066  -0.00009   0.00000  -0.00080  -0.00077  -2.20144
   Z69       -5.05476   0.00025   0.00000   0.00309   0.00211  -5.05265
   X70        4.17631  -0.00018   0.00000  -0.00140  -0.00124   4.17506
   Y70       -3.79273   0.00018   0.00000   0.00147   0.00172  -3.79101
   Z70       -8.25309  -0.00013   0.00000   0.00030  -0.00075  -8.25385
   X71        3.59748   0.00001   0.00000   0.00040   0.00056   3.59804
   Y71       -5.72321  -0.00001   0.00000  -0.00071  -0.00075  -5.72396
   Z71       -3.25129   0.00005   0.00000   0.00144   0.00028  -3.25102
   X72        3.53607  -0.00002   0.00000  -0.00039  -0.00036   3.53571
   Y72        7.42027   0.00000   0.00000  -0.00036   0.00005   7.42031
   Z72      -11.24484  -0.00013   0.00000  -0.00103  -0.00145 -11.24629
   X73        5.36952  -0.00000   0.00000  -0.00027  -0.00023   5.36929
   Y73        7.21258   0.00003   0.00000   0.00015   0.00064   7.21322
   Z73      -12.24025  -0.00011   0.00000  -0.00101  -0.00143 -12.24168
   X74        3.35755  -0.00004   0.00000  -0.00021  -0.00017   3.35738
   Y74        5.97023   0.00004   0.00000  -0.00017   0.00016   5.97039
   Z74       -9.74164  -0.00012   0.00000  -0.00099  -0.00149  -9.74313
   X75        3.34109  -0.00015   0.00000  -0.00176  -0.00178   3.33931
   Y75       10.48239  -0.00004   0.00000  -0.00072  -0.00039  10.48201
   Z75       -9.88943  -0.00007   0.00000  -0.00059  -0.00084  -9.89026
   X76        1.01287  -0.00004   0.00000  -0.00062  -0.00058   1.01230
   Y76        7.12168  -0.00006   0.00000  -0.00141  -0.00091   7.12077
   Z76      -13.40582  -0.00007   0.00000  -0.00053  -0.00098 -13.40680
   X77       -2.87559   0.00026   0.00000   0.00242   0.00241  -2.87318
   Y77        8.74267  -0.00008   0.00000  -0.00089  -0.00081   8.74186
   Z77       -6.95967   0.00003   0.00000   0.00078   0.00041  -6.95927
   X78       -1.02046   0.00026   0.00000   0.00208   0.00208  -1.01838
   Y78        7.98354   0.00017   0.00000  -0.00024  -0.00010   7.98344
   Z78       -7.57954  -0.00027   0.00000  -0.00156  -0.00197  -7.58151
   X79       -2.89918   0.00050   0.00000   0.00430   0.00426  -2.89492
   Y79       10.83717  -0.00012   0.00000  -0.00104  -0.00095  10.83622
   Z79       -7.06520  -0.00004   0.00000  -0.00013  -0.00038  -7.06559
   X80       -5.31120  -0.00019   0.00000  -0.00165  -0.00164  -5.31284
   Y80        7.49834  -0.00021   0.00000  -0.00182  -0.00166   7.49668
   Z80       -8.87987   0.00074   0.00000   0.00691   0.00645  -8.87342
   X81       -3.47597  -0.00028   0.00000  -0.00046  -0.00047  -3.47644
   Y81        7.78168  -0.00008   0.00000  -0.00012  -0.00022   7.78146
   Z81       -3.79987  -0.00012   0.00000   0.00036  -0.00007  -3.79994
   X82        4.07477  -0.00015   0.00000  -0.00181  -0.00187   4.07290
   Y82       11.28696  -0.00015   0.00000  -0.00220  -0.00225  11.28471
   Z82       -3.06879  -0.00009   0.00000  -0.00067  -0.00086  -3.06966
   X83        5.23996  -0.00035   0.00000  -0.00278  -0.00283   5.23713
   Y83       11.21052  -0.00023   0.00000  -0.00281  -0.00275  11.20778
   Z83       -4.80991  -0.00021   0.00000  -0.00132  -0.00152  -4.81143
   X84        5.28421  -0.00045   0.00000  -0.00340  -0.00347   5.28075
   Y84       11.22020  -0.00041   0.00000  -0.00444  -0.00457  11.21563
   Z84       -1.35784   0.00009   0.00000   0.00025   0.00005  -1.35779
   X85        2.23677   0.00035   0.00000   0.00283   0.00274   2.23951
   Y85       14.07611   0.00014   0.00000   0.00084   0.00077  14.07688
   Z85       -3.06285   0.00003   0.00000   0.00041   0.00036  -3.06249
   X86        1.92964   0.00002   0.00000  -0.00164  -0.00167   1.92797
   Y86        8.70876  -0.00026   0.00000  -0.00214  -0.00221   8.70654
   Z86       -3.04045  -0.00009   0.00000  -0.00092  -0.00127  -3.04172
   X87       -8.27200   0.00001   0.00000   0.00014   0.00006  -8.27194
   Y87       13.00223  -0.00012   0.00000  -0.00149  -0.00168  13.00055
   Z87       -3.18668  -0.00001   0.00000   0.00004  -0.00012  -3.18680
   X88      -10.10912   0.00002   0.00000   0.00032   0.00024 -10.10888
   Y88       13.11143  -0.00011   0.00000  -0.00105  -0.00121  13.11022
   Z88       -4.18744  -0.00002   0.00000  -0.00025  -0.00041  -4.18786
   X89       -7.70502   0.00005   0.00000   0.00059   0.00053  -7.70449
   Y89       11.00170  -0.00012   0.00000  -0.00161  -0.00181  10.99989
   Z89       -2.89242  -0.00020   0.00000  -0.00212  -0.00239  -2.89481
   X90       -5.93683   0.00004   0.00000   0.00052   0.00043  -5.93640
   Y90       14.59575   0.00001   0.00000   0.00051   0.00044  14.59619
   Z90       -4.97447   0.00018   0.00000   0.00234   0.00228  -4.97219
   X91       -8.51445  -0.00009   0.00000  -0.00094  -0.00106  -8.51551
   Y91       14.55217  -0.00045   0.00000  -0.00488  -0.00525  14.54692
   Z91       -0.23581   0.00014   0.00000   0.00174   0.00167  -0.23414
         Item               Value     Threshold  Converged?
 Maximum Force            0.056417     0.000450     NO 
 RMS     Force            0.007235     0.000300     NO 
 Maximum Displacement     0.144065     0.001800     NO 
 RMS     Displacement     0.018162     0.001200     NO 
 Predicted change in Energy=-1.354660D-02
 GradGradGradGradGradGradGradGradGradGradGradGradGradGradGradGradGradGrad

 Unable to Open any file for archive entry.
 1\1\GINC-X10P1N23\Force\ONIOM(B3LYP/6-31G(d):PM6)\Mixed\C23H38Cl30\MAY
 UMIAO\12-Jul-2024\0\\# scf=(xqc,maxcycle=64) force guess=read oniom(b3
 lyp/em=gd3bj/6-31g(d):pm6) nosymm\\Title Card\\0,1\C,0.55367039,-0.176
 24041,-0.18092402\C,-0.08485967,-1.29436166,0.41493091\C,-0.26925561,0
 .87964632,-0.65145428\C,-1.45692315,-1.35755927,0.52676903\H,0.5372127
 7,-2.11010287,0.77825598\C,1.9740886,-0.14692398,-0.30874813\C,-1.6467
 3463,0.81540862,-0.51510627\H,0.1841867,1.75106947,-1.11805258\C,-2.25
 472433,-0.30356122,0.05653195\H,-1.91773058,-2.22505332,0.99065589\C,2
 .68599495,0.89122313,-1.0040069\H,2.5257404,-0.99479018,0.10372769\H,-
 2.2605272,1.6467703,-0.85630264\H,-3.33700216,-0.36038962,0.13474511\H
 ,3.61813492,1.30496321,-0.62825782\H,2.33089991,1.28458606,-1.95489161
 \C,4.97597321,0.55643759,1.9930243\H,5.25968024,1.14560881,1.095697\H,
 3.97881794,0.86198423,2.37300807\Cl,6.18785484,0.77236207,3.25409379\C
 l,4.9359158,-1.16971169,1.57015147\C,5.72699904,-1.06743626,-1.5610814
 2\H,4.64963836,-1.11554863,-1.2936153\H,6.33712119,-1.67095679,-0.8579
 9461\Cl,6.2763726,0.61800989,-1.51677479\Cl,5.95854561,-1.65528408,-3.
 21160472\C,2.10907386,3.18383171,1.5438641\H,1.83572579,2.14462051,1.2
 5547693\H,1.36061656,3.9079053,1.15485305\Cl,3.71387054,3.58130859,0.9
 0477905\Cl,2.20892588,3.31343087,3.30719309\C,-2.2578001,0.81266513,3.
 48157483\H,-1.88842794,-0.23372408,3.51563824\H,-2.20227368,1.29131625
 ,4.48216206\Cl,-3.93343836,0.82866948,2.90543125\Cl,-1.28690504,1.7348
 5628,2.32154664\C,-1.04754572,4.55708411,4.57663027\H,-0.37865197,5.43
 178637,4.70026011\H,-0.87962333,4.07121218,3.59197223\Cl,-2.73203622,5
 .0609693,4.71905042\Cl,-0.72940206,3.38555302,5.87473812\C,4.43424064,
 1.08376936,-4.44462666\H,3.8786134,0.27221536,-3.92763117\H,5.52916888
 ,0.91123717,-4.37509202\Cl,4.0363168,2.64912649,-3.70550175\Cl,3.93590
 346,1.16816473,-6.13839876\C,-5.42589364,1.96638904,-0.38804502\H,-6.3
 2038184,1.39474835,-0.06865079\H,-4.63154828,1.92805168,0.38755709\Cl,
 -5.88163548,3.65055089,-0.68315327\Cl,-4.81711673,1.2911958,-1.9058371
 2\C,-1.59192001,0.98295292,-4.08898818\H,-1.92168425,1.29853205,-5.100
 13606\H,-2.14707796,1.52929349,-3.29503012\Cl,0.14717802,1.30194694,-3
 .91504325\Cl,-1.83457493,-0.7577286,-3.89799975\C,-1.41047141,5.894187
 63,0.75897932\H,-1.04747032,6.12095653,-0.26711632\H,-2.29178422,6.515
 77698,1.02056314\Cl,-0.10389684,6.19964126,1.9188178\Cl,-1.83782417,4.
 17816995,0.88901957\C,1.10964459,0.3320339,4.94369049\H,0.73300148,1.3
 3221374,4.64013613\H,1.95576209,0.42564544,5.65380328\Cl,1.6332871,-0.
 56491678,3.51265063\Cl,-0.2002056,-0.58351889,5.70632319\C,1.06706385,
 -2.1703685,-3.02824553\H,0.18996887,-2.76281781,-3.35557019\H,0.749113
 97,-1.16454132,-2.67486266\Cl,2.21000606,-2.00702587,-4.36734732\Cl,1.
 90370515,-3.0285908,-1.72050982\C,1.871208,3.92663538,-5.95051197\H,2.
 84142858,3.81673125,-6.47726041\H,1.77673737,3.15930967,-5.15505262\Cl
 ,1.76802641,5.54704439,-5.23325857\Cl,0.53598865,3.76863207,-7.0940531
 4\C,-1.52169564,4.62642194,-3.68290133\H,-0.54000503,4.22470512,-4.010
 92022\H,-1.53417952,5.7347817,-3.73874381\Cl,-2.810566,3.96794996,-4.6
 9902399\Cl,-1.839404,4.11788665,-2.01080462\C,2.15627281,5.97280155,-1
 .62393549\H,2.77286593,5.93235428,-2.54529712\H,2.79628459,5.93747379,
 -0.71853948\Cl,1.18364636,7.44875518,-1.62079205\Cl,1.02112394,4.60847
 534,-1.60893733\C,-4.37735508,6.8804857,-1.68631866\H,-5.34951745,6.93
 827205,-2.21589957\H,-4.07732088,5.82185054,-1.53060102\Cl,-3.14163442
 ,7.723738,-2.63237876\Cl,-4.50565276,7.70067728,-0.12478707\\Version=E
 S64L-G16RevC.01\HF=0.1114991\S2=2.324622\S2-1=0.\S2A=2.054166\RMSD=9.9
 93e-09\RMSF=7.235e-03\Dipole=-0.3243059,-0.0871559,0.2100476\Quadrupol
 e=2.2159296,0.4304806,-2.6464102,0.0516402,-0.070617,-2.5769804\PG=C01
  [X(C23H38Cl30)]\\@
 The archive entry for this job was punched.


 Boundary, n.  In political geography, an imaginary
 line between two nations, separating the imaginary
 rights of one from the imaginary rights of another.
                               -- Ambrose Bierce
 Job cpu time:       0 days  0 hours  5 minutes  1.2 seconds.
 Elapsed time:       0 days  0 hours  0 minutes 12.2 seconds.
 File lengths (MBytes):  RWF=    104 Int=      0 D2E=      0 Chk=     34 Scr=      1
 Normal termination of Gaussian 16 at Fri Jul 12 22:49:49 2024.
