 Entering Gaussian System, Link 0=g16
 Input=JOBS/10_B.gjf
 Output=JOBS/10_B.log
 Initial command:
 /data/app/gaussian/C01-avx2//g16/l1.exe "/tmp/Gau-2523611.inp" -scrdir="/tmp/"
 Entering Link 1 = /data/app/gaussian/C01-avx2//g16/l1.exe PID=   2523612.
  
 Copyright (c) 1988-2019, Gaussian, Inc.  All Rights Reserved.
  
 This is part of the Gaussian(R) 16 program.  It is based on
 the Gaussian(R) 09 system (copyright 2009, Gaussian, Inc.),
 the Gaussian(R) 03 system (copyright 2003, Gaussian, Inc.),
 the Gaussian(R) 98 system (copyright 1998, Gaussian, Inc.),
 the Gaussian(R) 94 system (copyright 1995, Gaussian, Inc.),
 the Gaussian 92(TM) system (copyright 1992, Gaussian, Inc.),
 the Gaussian 90(TM) system (copyright 1990, Gaussian, Inc.),
 the Gaussian 88(TM) system (copyright 1988, Gaussian, Inc.),
 the Gaussian 86(TM) system (copyright 1986, Carnegie Mellon
 University), and the Gaussian 82(TM) system (copyright 1983,
 Carnegie Mellon University). Gaussian is a federally registered
 trademark of Gaussian, Inc.
  
 This software contains proprietary and confidential information,
 including trade secrets, belonging to Gaussian, Inc.
  
 This software is provided under written license and may be
 used, copied, transmitted, or stored only in accord with that
 written license.
  
 The following legend is applicable only to US Government
 contracts under FAR:
  
                    RESTRICTED RIGHTS LEGEND
  
 Use, reproduction and disclosure by the US Government is
 subject to restrictions as set forth in subparagraphs (a)
 and (c) of the Commercial Computer Software - Restricted
 Rights clause in FAR 52.227-19.
  
 Gaussian, Inc.
 340 Quinnipiac St., Bldg. 40, Wallingford CT 06492
  
  
 ---------------------------------------------------------------
 Warning -- This program may not be used in any manner that
 competes with the business of Gaussian, Inc. or will provide
 assistance to any competitor of Gaussian, Inc.  The licensee
 of this program is prohibited from giving any competitor of
 Gaussian, Inc. access to this program.  By using this program,
 the user acknowledges that Gaussian, Inc. is engaged in the
 business of creating and licensing software in the field of
 computational chemistry and represents and warrants to the
 licensee that it is not a competitor of Gaussian, Inc. and that
 it will not use this program in any manner prohibited above.
 ---------------------------------------------------------------
  

 Cite this work as:
 Gaussian 16, Revision C.01,
 M. J. Frisch, G. W. Trucks, H. B. Schlegel, G. E. Scuseria, 
 M. A. Robb, J. R. Cheeseman, G. Scalmani, V. Barone, 
 G. A. Petersson, H. Nakatsuji, X. Li, M. Caricato, A. V. Marenich, 
 J. Bloino, B. G. Janesko, R. Gomperts, B. Mennucci, H. P. Hratchian, 
 J. V. Ortiz, A. F. Izmaylov, J. L. Sonnenberg, D. Williams-Young, 
 F. Ding, F. Lipparini, F. Egidi, J. Goings, B. Peng, A. Petrone, 
 T. Henderson, D. Ranasinghe, V. G. Zakrzewski, J. Gao, N. Rega, 
 G. Zheng, W. Liang, M. Hada, M. Ehara, K. Toyota, R. Fukuda, 
 J. Hasegawa, M. Ishida, T. Nakajima, Y. Honda, O. Kitao, H. Nakai, 
 T. Vreven, K. Throssell, J. A. Montgomery, Jr., J. E. Peralta, 
 F. Ogliaro, M. J. Bearpark, J. J. Heyd, E. N. Brothers, K. N. Kudin, 
 V. N. Staroverov, T. A. Keith, R. Kobayashi, J. Normand, 
 K. Raghavachari, A. P. Rendell, J. C. Burant, S. S. Iyengar, 
 J. Tomasi, M. Cossi, J. M. Millam, M. Klene, C. Adamo, R. Cammi, 
 J. W. Ochterski, R. L. Martin, K. Morokuma, O. Farkas, 
 J. B. Foresman, and D. J. Fox, Gaussian, Inc., Wallingford CT, 2019.
 
 ******************************************
 Gaussian 16:  ES64L-G16RevC.01  3-Jul-2019
                11-Oct-2024 
 ******************************************
 %chk=b.chk
 %nprocshared=28
 Will use up to   28 processors via shared memory.
 %mem=48gb
 ----------------------------------------------------------------------
 # wb97xd def2svp scrf=(smd,solvent=acetonitrile) g09default scf=(xqc,m
 axcycle=64) force guess=read nosymm
 ----------------------------------------------------------------------
 1/10=7,30=1,38=1,158=3,167=1/1,3;
 2/12=2,15=1,17=6,18=5,40=1/2;
 3/5=43,7=101,11=2,25=1,27=10,30=1,70=32201,71=1,72=2,74=-58,75=-4,116=-2,158=3/1,2,3;
 4/5=1,60=-1/1;
 5/5=2,7=64,8=3,13=1,38=6,53=2,87=10/2,8;
 6/7=2,8=2,9=2,10=2,28=1,87=10/1;
 7/29=1,30=1,87=10/1,2,3,16;
 1/10=7,30=1,158=3,167=1/3;
 99//99;
 Using 2006 physical constants.
 ----------
 Title Card
 ----------
 Symbolic Z-matrix:
 Charge = -1 Multiplicity = 2
 6                    -8.9379   -0.8967    1.11291 
 6                    -8.93825   0.53329   1.25523 
 6                    -8.22458  -2.12522   0.97945 
 6                    -6.97999  -2.83822   0.89798 
 6                    -9.65494  -2.12779   0.9936 
 6                    -10.90215  -2.84128   0.93503 
 6                    -10.16921   1.20455   1.33775 
 7                    -11.21339   1.74351   1.40652 
 6                    -7.70242   1.20815   1.32177 
 7                    -6.66615   1.74148   1.3746 
 6                    -5.78142  -2.10982   0.95212 
 7                    -4.78946  -1.47661   1.00081 
 6                    -7.01107  -4.23186   0.74623 
 7                    -7.06003  -5.4076    0.61855 
 6                    -10.87007  -4.24953   0.81898 
 7                    -10.81916  -5.40604   0.7284 
 6                    -12.10101  -2.11066   0.99918 
 7                    -13.08869  -1.47982   1.0497 
 

 GradGradGradGradGradGradGradGradGradGradGradGradGradGradGradGradGradGrad
 Berny optimization.
 Initialization pass.
 Trust Radius=3.00D-01 FncErr=1.00D-07 GrdErr=1.00D-07 EigMax=2.50D+02 EigMin=1.00D-04
 Number of steps in this run=      2 maximum allowed number of steps=      2.
 GradGradGradGradGradGradGradGradGradGradGradGradGradGradGradGradGradGrad

                          Input orientation:                          
 ---------------------------------------------------------------------
 Center     Atomic      Atomic             Coordinates (Angstroms)
 Number     Number       Type             X           Y           Z
 ---------------------------------------------------------------------
      1          6           0       -8.937897   -0.896704    1.112912
      2          6           0       -8.938253    0.533293    1.255228
      3          6           0       -8.224582   -2.125217    0.979448
      4          6           0       -6.979993   -2.838225    0.897977
      5          6           0       -9.654938   -2.127787    0.993602
      6          6           0      -10.902152   -2.841275    0.935026
      7          6           0      -10.169212    1.204552    1.337755
      8          7           0      -11.213393    1.743509    1.406517
      9          6           0       -7.702419    1.208151    1.321766
     10          7           0       -6.666151    1.741479    1.374599
     11          6           0       -5.781415   -2.109824    0.952122
     12          7           0       -4.789459   -1.476612    1.000808
     13          6           0       -7.011070   -4.231858    0.746234
     14          7           0       -7.060031   -5.407604    0.618555
     15          6           0      -10.870068   -4.249532    0.818978
     16          7           0      -10.819156   -5.406040    0.728398
     17          6           0      -12.101013   -2.110661    0.999181
     18          7           0      -13.088694   -1.479823    1.049699
 ---------------------------------------------------------------------
                    Distance matrix (angstroms):
                    1          2          3          4          5
     1  C    0.000000
     2  C    1.437062   0.000000
     3  C    1.426840   2.766415   0.000000
     4  C    2.765698   3.915296   1.436670   0.000000
     5  C    1.429667   2.768290   1.430428   2.769332   0.000000
     6  C    2.769711   3.917543   2.772020   3.922336   1.438068
     7  C    2.445807   1.404514   3.872638   5.168033   3.389307
     8  N    3.497830   2.581429   4.907384   6.258800   4.193592
     9  C    2.449580   1.409662   3.391339   4.132149   3.879241
    10  N    3.491321   2.576123   4.187623   4.615122   4.904001
    11  C    3.385393   4.128386   2.443368   1.403598   3.873786
    12  N    4.190274   4.617028   3.495886   2.581279   4.908866
    13  C    3.869156   5.165247   2.442323   1.402214   3.387971
    14  N    4.911108   6.263172   3.501498   2.585767   4.198976
    15  C    3.880868   5.176644   3.396625   4.138927   2.451293
    16  N    4.901132   6.252281   4.190303   4.621862   3.488937
    17  C    3.389975   4.130267   3.876509   5.173436   2.446141
    18  N    4.192033   4.617471   4.907245   6.259752   3.494808
                    6          7          8          9         10
     6  C    0.000000
     7  C    4.131357   0.000000
     8  N    4.619461   1.177080   0.000000
     9  C    5.175492   2.466848   3.552567   0.000000
    10  N    6.256083   3.544162   4.547355   1.166654   0.000000
    11  C    5.172742   5.512401   6.675405   3.851734   3.974140
    12  N    6.263518   6.020292   7.197271   3.974457   3.744036
    13  C    4.136410   6.314928   7.334883   5.513883   6.016192
    14  N    4.631208   7.341993   8.307209   6.683965   7.199732
    15  C    1.413395   5.523348   6.031552   6.330332   7.339881
    16  N    2.574413   6.670358   7.192449   7.335780   8.291686
    17  C    1.405411   3.851900   3.975981   5.519621   6.672155
    18  N    2.578307   3.976458   3.746190   6.025876   7.192455
                   11         12         13         14         15
    11  C    0.000000
    12  N    1.177840   0.000000
    13  C    2.461192   3.548484   0.000000
    14  N    3.552671   4.555690   1.183671   0.000000
    15  C    5.521817   6.685503   3.859724   3.987189   0.000000
    16  N    6.024444   7.202212   3.985040   3.760729   1.161166
    17  C    6.319773   7.338995   5.520053   6.035412   2.474362
    18  N    7.335035   8.299380   6.678570   7.208198   3.556237
                   16         17         18
    16  N    0.000000
    17  C    3.546266   0.000000
    18  N    4.546341   1.173039   0.000000
 Symmetry turned off by external request.
 Stoichiometry    C12N6(1-,2)
 Framework group  C1[X(C12N6)]
 Deg. of freedom    48
 Full point group                 C1      NOp   1
 Rotational constants (GHZ):           0.4229600           0.4224772           0.2113760
 Standard basis: def2SVP (5D, 7F)
   252 basis functions,   450 primitive gaussians,   270 cartesian basis functions
    58 alpha electrons       57 beta electrons
       nuclear repulsion energy       957.1826232754 Hartrees.
 NAtoms=   18 NActive=   18 NUniq=   18 SFac= 1.00D+00 NAtFMM=   60 NAOKFM=F Big=F
 Integral buffers will be    131072 words long.
 Raffenetti 2 integral format.
 Two-electron integral symmetry is turned off.
 Nuclear repulsion after empirical dispersion term =      957.1711257597 Hartrees.
 Force PCM accuracy= 1.00D-10.
 ------------------------------------------------------------------------------
 Polarizable Continuum Model (PCM)
 =================================
 Model                : PCM (using non-symmetric T matrix).
 Atomic radii         : SMD-Coulomb.
 Polarization charges : Total charges.
 Charge compensation  : None.
 Solution method      : On-the-fly selection.
 Cavity type          : VdW (van der Waals Surface) (Alpha=1.000).
 Cavity algorithm     : GePol (No added spheres)
                        Default sphere list used, NSphG=   18.
                        Lebedev-Laikov grids with approx.  5.0 points / Ang**2.
                        Smoothing algorithm: York/Karplus (Gamma=1.0000).
                        Polarization charges: spherical gaussians, with
                                              point-specific exponents (IZeta= 3).
                        Self-potential: point-specific (ISelfS= 7).
                        Self-field    : sphere-specific E.n sum rule (ISelfD= 2).
 1st derivatives      : Analytical E(r).r(x)/FMM algorithm (CHGder, D1EAlg=3).
                        Cavity 1st derivative terms included.
 Solvent              : Acetonitrile, Eps=  35.688000 Eps(inf)=   1.806874
 ------------------------------------------------------------------------------
 Spheres list:
 ISph  on   Nord     Re0    Alpha      Xe            Ye            Ze
    1   C      1    1.8500  1.000     -8.937897     -0.896704      1.112912
    2   C      2    1.8500  1.000     -8.938253      0.533293      1.255228
    3   C      3    1.8500  1.000     -8.224582     -2.125217      0.979448
    4   C      4    1.8500  1.000     -6.979993     -2.838225      0.897977
    5   C      5    1.8500  1.000     -9.654938     -2.127787      0.993602
    6   C      6    1.8500  1.000    -10.902152     -2.841275      0.935026
    7   C      7    1.8500  1.000    -10.169212      1.204552      1.337755
    8   N      8    1.8900  1.000    -11.213393      1.743509      1.406517
    9   C      9    1.8500  1.000     -7.702419      1.208151      1.321766
   10   N     10    1.8900  1.000     -6.666151      1.741479      1.374599
   11   C     11    1.8500  1.000     -5.781415     -2.109824      0.952122
   12   N     12    1.8900  1.000     -4.789459     -1.476612      1.000808
   13   C     13    1.8500  1.000     -7.011070     -4.231858      0.746234
   14   N     14    1.8900  1.000     -7.060031     -5.407604      0.618555
   15   C     15    1.8500  1.000    -10.870068     -4.249532      0.818978
   16   N     16    1.8900  1.000    -10.819156     -5.406040      0.728398
   17   C     17    1.8500  1.000    -12.101013     -2.110661      0.999181
   18   N     18    1.8900  1.000    -13.088694     -1.479823      1.049699
 ------------------------------------------------------------------------------
 ------------------------------------------------------------------------------
 Atomic radii for non-electrostatic terms: SMD-CDS.
 ------------------------------------------------------------------------------
 Nuclear repulsion after PCM non-electrostatic terms =      957.1797869203 Hartrees.
 One-electron integrals computed using PRISM.
   1 Symmetry operations used in ECPInt.
 ECPInt:  NShTT=    5886 NPrTT=   23670 LenC2=    5400 LenP2D=   14897.
 LDataN:  DoStor=T MaxTD1= 4 Len=   56
 NBasis=   252 RedAO= T EigKep=  2.08D-04  NBF=   252
 NBsUse=   252 1.00D-06 EigRej= -1.00D+00 NBFU=   252
 Initial guess from the checkpoint file:  "b.chk"
 B after Tr=     0.000011   -0.000024   -0.000133
         Rot=    1.000000    0.000013   -0.000002   -0.000002 Ang=   0.00 deg.
 Initial guess <Sx>= 0.0000 <Sy>= 0.0000 <Sz>= 0.5000 <S**2>= 0.7886 S= 0.5191
 Requested convergence on RMS density matrix=1.00D-08 within  64 cycles.
 Requested convergence on MAX density matrix=1.00D-06.
 Requested convergence on             energy=1.00D-06.
 No special actions if energy rises.
 Inv3:  Mode=1 IEnd=    19461627.
 Iteration    1 A*A^-1 deviation from unit magnitude is 3.77D-15 for   1660.
 Iteration    1 A*A^-1 deviation from orthogonality  is 3.61D-15 for   1810    197.
 Iteration    1 A^-1*A deviation from unit magnitude is 3.22D-15 for   1888.
 Iteration    1 A^-1*A deviation from orthogonality  is 8.75D-12 for   2082   1961.
 Error on total polarization charges =  0.01987
 SCF Done:  E(UwB97XD) =  -784.847268752     A.U. after   19 cycles
            NFock= 19  Conv=0.97D-08     -V/T= 2.0106
 <Sx>= 0.0000 <Sy>= 0.0000 <Sz>= 0.5000 <S**2>= 0.7943 S= 0.5219
 <L.S>=  0.00000000000    
 SMD-CDS (non-electrostatic) energy       (kcal/mol) =       5.43
 (included in total energy above)
 Annihilation of the first spin contaminant:
 S**2 before annihilation     0.7943,   after     0.7516
 QCSCF skips out because SCF is already converged.

 **********************************************************************

            Population analysis using the SCF Density.

 **********************************************************************

 Alpha  occ. eigenvalues --  -14.46441 -14.46326 -14.46304 -14.46219 -14.46102
 Alpha  occ. eigenvalues --  -14.45990 -10.39483 -10.39439 -10.39416 -10.38531
 Alpha  occ. eigenvalues --  -10.38477 -10.38413 -10.36582 -10.36473 -10.36451
 Alpha  occ. eigenvalues --  -10.36376 -10.36273 -10.36183  -1.04905  -1.01866
 Alpha  occ. eigenvalues --   -1.01647  -1.01106  -1.00595  -1.00418  -1.00101
 Alpha  occ. eigenvalues --   -0.91910  -0.91859  -0.89944  -0.71971  -0.71887
 Alpha  occ. eigenvalues --   -0.69442  -0.69068  -0.69012  -0.66680  -0.54814
 Alpha  occ. eigenvalues --   -0.50929  -0.50886  -0.49631  -0.49524  -0.47744
 Alpha  occ. eigenvalues --   -0.47643  -0.47604  -0.47102  -0.46923  -0.46867
 Alpha  occ. eigenvalues --   -0.46226  -0.44824  -0.44789  -0.44681  -0.44442
 Alpha  occ. eigenvalues --   -0.44312  -0.44200  -0.42847  -0.42413  -0.42286
 Alpha  occ. eigenvalues --   -0.34960  -0.34889  -0.28417
 Alpha virt. eigenvalues --    0.03845   0.03910   0.05962   0.06201   0.06440
 Alpha virt. eigenvalues --    0.09372   0.09687   0.09705   0.10054   0.11516
 Alpha virt. eigenvalues --    0.11856   0.14267   0.19459   0.19506   0.20967
 Alpha virt. eigenvalues --    0.24372   0.24411   0.24553   0.26261   0.26289
 Alpha virt. eigenvalues --    0.27505   0.30829   0.30997   0.31322   0.31907
 Alpha virt. eigenvalues --    0.31953   0.33928   0.45843   0.45890   0.48880
 Alpha virt. eigenvalues --    0.49200   0.53063   0.53201   0.53231   0.53379
 Alpha virt. eigenvalues --    0.54886   0.55008   0.55726   0.56380   0.59774
 Alpha virt. eigenvalues --    0.60156   0.60257   0.60762   0.60932   0.62941
 Alpha virt. eigenvalues --    0.63955   0.66601   0.69351   0.69414   0.69885
 Alpha virt. eigenvalues --    0.69958   0.72294   0.72345   0.72893   0.72950
 Alpha virt. eigenvalues --    0.72964   0.73254   0.73982   0.74012   0.75391
 Alpha virt. eigenvalues --    0.78497   0.79070   0.79134   0.80672   0.80694
 Alpha virt. eigenvalues --    0.84696   0.84825   0.85718   0.86290   0.92059
 Alpha virt. eigenvalues --    0.92222   0.92797   0.92814   0.93840   0.93910
 Alpha virt. eigenvalues --    0.95282   0.98287   0.98325   0.98709   0.98870
 Alpha virt. eigenvalues --    0.99913   0.99963   1.01446   1.01524   1.02580
 Alpha virt. eigenvalues --    1.05056   1.05175   1.06034   1.06795   1.09012
 Alpha virt. eigenvalues --    1.09939   1.14391   1.16270   1.16816   1.17066
 Alpha virt. eigenvalues --    1.19847   1.21510   1.21784   1.23565   1.32442
 Alpha virt. eigenvalues --    1.35026   1.35195   1.38056   1.38175   1.40653
 Alpha virt. eigenvalues --    1.42684   1.42845   1.46051   1.46657   1.53201
 Alpha virt. eigenvalues --    1.58077   1.65575   1.68207   1.68254   1.68507
 Alpha virt. eigenvalues --    1.68773   1.68853   1.75542   1.75645   1.75698
 Alpha virt. eigenvalues --    1.75766   1.77520   1.79035   1.79305   1.79566
 Alpha virt. eigenvalues --    1.80831   1.80959   1.84441   1.91088   1.91580
 Alpha virt. eigenvalues --    1.92455   1.97250   1.98568   1.98653   2.02835
 Alpha virt. eigenvalues --    2.03126   2.03524   2.06962   2.13251   2.13418
 Alpha virt. eigenvalues --    2.16755   2.17034   2.20244   2.20340   2.22117
 Alpha virt. eigenvalues --    2.22274   2.24490   2.26202   2.32182   2.32355
 Alpha virt. eigenvalues --    2.32550   2.32600   2.33175   2.33572   2.33833
 Alpha virt. eigenvalues --    2.34600   2.34647   2.34711   2.35194   2.35304
 Alpha virt. eigenvalues --    2.36281   2.36471   2.51180   2.56723   2.56818
 Alpha virt. eigenvalues --    2.63661   2.63901   2.90539   2.92552   2.93043
 Alpha virt. eigenvalues --    2.93754   2.96515   2.96677   2.96900   3.00217
 Alpha virt. eigenvalues --    3.01890   3.02597   3.03728   3.04170   3.11193
 Alpha virt. eigenvalues --    3.11996   3.12597   3.20393   3.20997   3.26483
 Alpha virt. eigenvalues --    3.35864   3.36299   3.38866   3.53689   3.56444
 Alpha virt. eigenvalues --    3.57332   3.57961   3.59202   3.68263
  Beta  occ. eigenvalues --  -14.46222 -14.46115 -14.46089 -14.46008 -14.45902
  Beta  occ. eigenvalues --  -14.45797 -10.39531 -10.39488 -10.39465 -10.38171
  Beta  occ. eigenvalues --  -10.38119 -10.38062 -10.36685 -10.36573 -10.36553
  Beta  occ. eigenvalues --  -10.36475 -10.36369 -10.36276  -1.04580  -1.01503
  Beta  occ. eigenvalues --   -1.01274  -1.00740  -1.00241  -1.00057  -0.99733
  Beta  occ. eigenvalues --   -0.91130  -0.91070  -0.88964  -0.71842  -0.71766
  Beta  occ. eigenvalues --   -0.69195  -0.68890  -0.68831  -0.66546  -0.54072
  Beta  occ. eigenvalues --   -0.49626  -0.49577  -0.49517  -0.49409  -0.47355
  Beta  occ. eigenvalues --   -0.47248  -0.47225  -0.46717  -0.46613  -0.46565
  Beta  occ. eigenvalues --   -0.45110  -0.44682  -0.44164  -0.44049  -0.43858
  Beta  occ. eigenvalues --   -0.43721  -0.43489  -0.42690  -0.42271  -0.42131
  Beta  occ. eigenvalues --   -0.31856  -0.31763
  Beta virt. eigenvalues --   -0.11275   0.04444   0.04495   0.06071   0.06305
  Beta virt. eigenvalues --    0.06535   0.09703   0.10425   0.10747   0.10937
  Beta virt. eigenvalues --    0.11568   0.11906   0.14538   0.19660   0.19701
  Beta virt. eigenvalues --    0.22513   0.24332   0.25948   0.26028   0.26420
  Beta virt. eigenvalues --    0.26443   0.27736   0.31037   0.31203   0.31937
  Beta virt. eigenvalues --    0.32287   0.32339   0.34036   0.45945   0.45992
  Beta virt. eigenvalues --    0.48989   0.49255   0.53099   0.53140   0.53210
  Beta virt. eigenvalues --    0.53482   0.55002   0.55116   0.55865   0.56504
  Beta virt. eigenvalues --    0.59676   0.60026   0.60118   0.60806   0.60974
  Beta virt. eigenvalues --    0.62995   0.63809   0.66976   0.69467   0.69534
  Beta virt. eigenvalues --    0.69987   0.70055   0.72462   0.72516   0.73074
  Beta virt. eigenvalues --    0.73154   0.73165   0.73353   0.74110   0.74143
  Beta virt. eigenvalues --    0.75439   0.79061   0.79123   0.79492   0.81446
  Beta virt. eigenvalues --    0.81478   0.84810   0.84940   0.86006   0.86391
  Beta virt. eigenvalues --    0.92236   0.92409   0.93459   0.93480   0.94095
  Beta virt. eigenvalues --    0.94553   0.96023   0.98917   0.98952   0.99005
  Beta virt. eigenvalues --    0.99119   1.00078   1.00128   1.01535   1.01617
  Beta virt. eigenvalues --    1.02753   1.05205   1.05418   1.06372   1.07141
  Beta virt. eigenvalues --    1.09142   1.10069   1.14611   1.16585   1.17035
  Beta virt. eigenvalues --    1.17305   1.20109   1.21775   1.22054   1.24044
  Beta virt. eigenvalues --    1.32601   1.35200   1.35376   1.38615   1.38727
  Beta virt. eigenvalues --    1.41406   1.43377   1.43545   1.46105   1.46731
  Beta virt. eigenvalues --    1.53269   1.58124   1.65397   1.67970   1.68020
  Beta virt. eigenvalues --    1.68259   1.68526   1.68589   1.75525   1.75581
  Beta virt. eigenvalues --    1.75693   1.75841   1.77377   1.79182   1.79274
  Beta virt. eigenvalues --    1.79430   1.80719   1.80829   1.84324   1.91111
  Beta virt. eigenvalues --    1.91604   1.92573   1.97397   1.99136   1.99226
  Beta virt. eigenvalues --    2.03175   2.03467   2.04053   2.06949   2.13730
  Beta virt. eigenvalues --    2.13904   2.17245   2.17965   2.21223   2.21321
  Beta virt. eigenvalues --    2.22666   2.22816   2.25233   2.26811   2.32940
  Beta virt. eigenvalues --    2.33086   2.33273   2.33291   2.33941   2.34309
  Beta virt. eigenvalues --    2.34547   2.35023   2.35052   2.35443   2.35852
  Beta virt. eigenvalues --    2.35989   2.37042   2.37216   2.51611   2.56796
  Beta virt. eigenvalues --    2.56895   2.64048   2.64289   2.90627   2.92680
  Beta virt. eigenvalues --    2.93187   2.93960   2.96660   2.96820   2.97030
  Beta virt. eigenvalues --    3.00746   3.02428   3.03127   3.03912   3.04353
  Beta virt. eigenvalues --    3.11723   3.12519   3.13115   3.20652   3.21252
  Beta virt. eigenvalues --    3.26684   3.36075   3.36507   3.39065   3.53874
  Beta virt. eigenvalues --    3.56630   3.57524   3.58157   3.59400   3.68426
          Condensed to atoms (all electrons):
               1          2          3          4          5          6
     1  C    4.899522   0.519674   0.294569  -0.072010   0.296663  -0.070524
     2  C    0.519674   5.271097  -0.072065  -0.004787  -0.070933  -0.004738
     3  C    0.294569  -0.072065   4.898451   0.519261   0.296408  -0.070562
     4  C   -0.072010  -0.004787   0.519261   5.273793  -0.070946  -0.004734
     5  C    0.296663  -0.070933   0.296408  -0.070946   4.898146   0.521195
     6  C   -0.070524  -0.004738  -0.070562  -0.004734   0.521195   5.267412
     7  C    0.006710   0.392509   0.006500  -0.000308  -0.019048   0.001808
     8  N   -0.001361  -0.031321  -0.000013  -0.000001  -0.000323   0.000118
     9  C    0.005535   0.390968  -0.019090   0.001783   0.006466  -0.000304
    10  N   -0.001416  -0.030389  -0.000346   0.000121  -0.000012  -0.000001
    11  C   -0.019675   0.001826   0.006175   0.390366   0.006554  -0.000304
    12  N   -0.000341   0.000122  -0.001445  -0.031308  -0.000012  -0.000001
    13  C    0.006611  -0.000311   0.006848   0.390355  -0.019418   0.001797
    14  N   -0.000014  -0.000001  -0.001398  -0.031766  -0.000325   0.000116
    15  C    0.006504  -0.000301  -0.018603   0.001747   0.005118   0.390897
    16  N   -0.000014  -0.000001  -0.000343   0.000114  -0.001456  -0.029771
    17  C   -0.019083   0.001805   0.006444  -0.000306   0.006399   0.393465
    18  N   -0.000334   0.000119  -0.000014  -0.000001  -0.001406  -0.031021
               7          8          9         10         11         12
     1  C    0.006710  -0.001361   0.005535  -0.001416  -0.019675  -0.000341
     2  C    0.392509  -0.031321   0.390968  -0.030389   0.001826   0.000122
     3  C    0.006500  -0.000013  -0.019090  -0.000346   0.006175  -0.001445
     4  C   -0.000308  -0.000001   0.001783   0.000121   0.390366  -0.031308
     5  C   -0.019048  -0.000323   0.006466  -0.000012   0.006554  -0.000012
     6  C    0.001808   0.000118  -0.000304  -0.000001  -0.000304  -0.000001
     7  C    4.826782   0.888911  -0.048133   0.002037   0.000091   0.000002
     8  N    0.888911   6.146407   0.001997   0.000056   0.000000   0.000000
     9  C   -0.048133   0.001997   4.824293   0.901069  -0.000140   0.000259
    10  N    0.002037   0.000056   0.901069   6.120649   0.000180  -0.000743
    11  C    0.000091   0.000000  -0.000140   0.000180   4.829944   0.888519
    12  N    0.000002   0.000000   0.000259  -0.000743   0.888519   6.146207
    13  C   -0.000009  -0.000000   0.000090   0.000002  -0.048909   0.002180
    14  N   -0.000000  -0.000000   0.000000   0.000000   0.002158   0.000058
    15  C    0.000087   0.000002  -0.000009  -0.000000   0.000087   0.000000
    16  N    0.000000   0.000000  -0.000000  -0.000000   0.000002   0.000000
    17  C   -0.000124   0.000233   0.000089   0.000000  -0.000009  -0.000000
    18  N    0.000196  -0.000735   0.000002   0.000000  -0.000000  -0.000000
              13         14         15         16         17         18
     1  C    0.006611  -0.000014   0.006504  -0.000014  -0.019083  -0.000334
     2  C   -0.000311  -0.000001  -0.000301  -0.000001   0.001805   0.000119
     3  C    0.006848  -0.001398  -0.018603  -0.000343   0.006444  -0.000014
     4  C    0.390355  -0.031766   0.001747   0.000114  -0.000306  -0.000001
     5  C   -0.019418  -0.000325   0.005118  -0.001456   0.006399  -0.001406
     6  C    0.001797   0.000116   0.390897  -0.029771   0.393465  -0.031021
     7  C   -0.000009  -0.000000   0.000087   0.000000  -0.000124   0.000196
     8  N   -0.000000  -0.000000   0.000002   0.000000   0.000233  -0.000735
     9  C    0.000090   0.000000  -0.000009  -0.000000   0.000089   0.000002
    10  N    0.000002   0.000000  -0.000000  -0.000000   0.000000   0.000000
    11  C   -0.048909   0.002158   0.000087   0.000002  -0.000009  -0.000000
    12  N    0.002180   0.000058   0.000000   0.000000  -0.000000  -0.000000
    13  C    4.831291   0.882220  -0.000113   0.000135   0.000091   0.000000
    14  N    0.882220   6.160578   0.000292  -0.000723   0.000002   0.000000
    15  C   -0.000113   0.000292   4.822033   0.907513  -0.048825   0.001886
    16  N    0.000135  -0.000723   0.907513   6.107695   0.001941   0.000054
    17  C    0.000091   0.000002  -0.048825   0.001941   4.825670   0.892971
    18  N    0.000000   0.000000   0.001886   0.000054   0.892971   6.137220
          Atomic-Atomic Spin Densities.
               1          2          3          4          5          6
     1  C   -0.054255  -0.063469   0.033917  -0.004707   0.033300  -0.004663
     2  C   -0.063469   0.378889  -0.004832   0.000771  -0.004599   0.000779
     3  C    0.033917  -0.004832  -0.049831  -0.064120   0.033585  -0.004748
     4  C   -0.004707   0.000771  -0.064120   0.371964  -0.004587   0.000761
     5  C    0.033300  -0.004599   0.033585  -0.004587  -0.057229  -0.062858
     6  C   -0.004663   0.000779  -0.004748   0.000761  -0.062858   0.380057
     7  C    0.001274   0.003837  -0.000132  -0.000011   0.000297  -0.000055
     8  N    0.000554  -0.005647   0.000009  -0.000000   0.000029  -0.000025
     9  C    0.001155   0.003114   0.000280  -0.000055  -0.000125  -0.000011
    10  N    0.000539  -0.005538   0.000030  -0.000024   0.000008  -0.000000
    11  C    0.000279  -0.000058   0.001362   0.003602  -0.000126  -0.000011
    12  N    0.000029  -0.000025   0.000557  -0.005572   0.000008  -0.000000
    13  C   -0.000134  -0.000012   0.001438   0.004015   0.000285  -0.000056
    14  N    0.000008  -0.000000   0.000560  -0.005602   0.000029  -0.000024
    15  C   -0.000130  -0.000011   0.000277  -0.000052   0.001063   0.002881
    16  N    0.000008  -0.000000   0.000029  -0.000023   0.000527  -0.005460
    17  C    0.000297  -0.000056  -0.000130  -0.000011   0.001181   0.003714
    18  N    0.000030  -0.000024   0.000008  -0.000000   0.000548  -0.005624
               7          8          9         10         11         12
     1  C    0.001274   0.000554   0.001155   0.000539   0.000279   0.000029
     2  C    0.003837  -0.005647   0.003114  -0.005538  -0.000058  -0.000025
     3  C   -0.000132   0.000009   0.000280   0.000030   0.001362   0.000557
     4  C   -0.000011  -0.000000  -0.000055  -0.000024   0.003602  -0.005572
     5  C    0.000297   0.000029  -0.000125   0.000008  -0.000126   0.000008
     6  C   -0.000055  -0.000025  -0.000011  -0.000000  -0.000011  -0.000000
     7  C   -0.082917  -0.001726  -0.000268   0.000163  -0.000002   0.000000
     8  N   -0.001726   0.131521   0.000165   0.000009  -0.000000   0.000000
     9  C   -0.000268   0.000165  -0.077801  -0.001266   0.000009   0.000018
    10  N    0.000163   0.000009  -0.001266   0.122352   0.000019   0.000045
    11  C   -0.000002  -0.000000   0.000009   0.000019  -0.081483  -0.001667
    12  N    0.000000   0.000000   0.000018   0.000045  -0.001667   0.129101
    13  C    0.000000  -0.000000  -0.000002   0.000000  -0.000126   0.000175
    14  N   -0.000000   0.000000  -0.000000   0.000000   0.000179   0.000009
    15  C   -0.000002   0.000000   0.000000  -0.000000  -0.000002  -0.000000
    16  N   -0.000000   0.000000  -0.000000   0.000000   0.000000   0.000000
    17  C    0.000011   0.000018  -0.000002  -0.000000   0.000000  -0.000000
    18  N    0.000019   0.000046   0.000000   0.000000  -0.000000   0.000000
              13         14         15         16         17         18
     1  C   -0.000134   0.000008  -0.000130   0.000008   0.000297   0.000030
     2  C   -0.000012  -0.000000  -0.000011  -0.000000  -0.000056  -0.000024
     3  C    0.001438   0.000560   0.000277   0.000029  -0.000130   0.000008
     4  C    0.004015  -0.005602  -0.000052  -0.000023  -0.000011  -0.000000
     5  C    0.000285   0.000029   0.001063   0.000527   0.001181   0.000548
     6  C   -0.000056  -0.000024   0.002881  -0.005460   0.003714  -0.005624
     7  C    0.000000  -0.000000  -0.000002  -0.000000   0.000011   0.000019
     8  N   -0.000000   0.000000   0.000000   0.000000   0.000018   0.000046
     9  C   -0.000002  -0.000000   0.000000  -0.000000  -0.000002   0.000000
    10  N    0.000000   0.000000  -0.000000   0.000000  -0.000000   0.000000
    11  C   -0.000126   0.000179  -0.000002   0.000000   0.000000  -0.000000
    12  N    0.000175   0.000009  -0.000000   0.000000  -0.000000   0.000000
    13  C   -0.084162  -0.001924   0.000009   0.000018  -0.000002  -0.000000
    14  N   -0.001924   0.133677   0.000017   0.000042   0.000000   0.000000
    15  C    0.000009   0.000017  -0.075434  -0.001078  -0.000279   0.000158
    16  N    0.000018   0.000042  -0.001078   0.117997   0.000157   0.000008
    17  C   -0.000002   0.000000  -0.000279   0.000157  -0.081481  -0.001599
    18  N   -0.000000   0.000000   0.000158   0.000008  -0.001599   0.129085
 Mulliken charges and spin densities:
               1          2
     1  C    0.148983  -0.055969
     2  C   -0.363274   0.303120
     3  C    0.149225  -0.051742
     4  C   -0.361374   0.296348
     5  C    0.146930  -0.058664
     6  C   -0.364851   0.304657
     7  C   -0.058011  -0.079513
     8  N   -0.003970   0.124953
     9  C   -0.064876  -0.074789
    10  N    0.008795   0.116335
    11  C   -0.056866  -0.078024
    12  N   -0.003496   0.122678
    13  C   -0.052860  -0.080477
    14  N   -0.011196   0.126971
    15  C   -0.068314  -0.072584
    16  N    0.014853   0.112226
    17  C   -0.060761  -0.078182
    18  N    0.001063   0.122655
 Sum of Mulliken charges =  -1.00000   1.00000
 Mulliken charges and spin densities with hydrogens summed into heavy atoms:
               1          2
     1  C    0.148983  -0.055969
     2  C   -0.363274   0.303120
     3  C    0.149225  -0.051742
     4  C   -0.361374   0.296348
     5  C    0.146930  -0.058664
     6  C   -0.364851   0.304657
     7  C   -0.058011  -0.079513
     8  N   -0.003970   0.124953
     9  C   -0.064876  -0.074789
    10  N    0.008795   0.116335
    11  C   -0.056866  -0.078024
    12  N   -0.003496   0.122678
    13  C   -0.052860  -0.080477
    14  N   -0.011196   0.126971
    15  C   -0.068314  -0.072584
    16  N    0.014853   0.112226
    17  C   -0.060761  -0.078182
    18  N    0.001063   0.122655
 Electronic spatial extent (au):  <R**2>=          39058.0891
 Charge=             -1.0000 electrons
 Dipole moment (field-independent basis, Debye):
    X=             42.8901    Y=              8.2290    Z=             -4.9496  Tot=             43.9520
 Quadrupole moment (field-independent basis, Debye-Ang):
   XX=           -554.7683   YY=           -185.0038   ZZ=           -104.6403
   XY=            -73.1572   XZ=             44.8552   YZ=              1.3341
 Traceless Quadrupole moment (field-independent basis, Debye-Ang):
   XX=           -273.2975   YY=             96.4670   ZZ=            176.8305
   XY=            -73.1572   XZ=             44.8552   YZ=              1.3341
 Octapole moment (field-independent basis, Debye-Ang**2):
  XXX=           8025.8635  YYY=            977.3735  ZZZ=           -312.5941  XYY=           1652.1470
  XXY=            870.8294  XXZ=           -589.3766  XZZ=            936.5211  YZZ=            165.2526
  YYZ=           -159.8875  XYZ=            -13.1156
 Hexadecapole moment (field-independent basis, Debye-Ang**3):
 XXXX=        -117253.1445 YYYY=          -7885.3996 ZZZZ=           -767.5601 XXXY=         -11691.0758
 XXXZ=           8609.7437 YYYX=          -8729.2021 YYYZ=            641.2190 ZZZX=           2810.7926
 ZZZY=            361.9537 XXYY=         -16456.3248 XXZZ=          -9128.7843 YYZZ=           -982.0072
 XXYZ=            274.5972 YYXZ=           1443.1642 ZZXY=          -1478.1635
 N-N= 9.571797869203D+02 E-N=-3.749114298452D+03  KE= 7.766326577428D+02
                          Isotropic Fermi Contact Couplings
        Atom                 a.u.       MegaHertz       Gauss      10(-4) cm-1
     1  C(13)             -0.02008     -22.57025      -8.05363      -7.52863
     2  C(13)              0.05194      58.38740      20.83407      19.47594
     3  C(13)             -0.01925     -21.63822      -7.72105      -7.21773
     4  C(13)              0.05074      57.04687      20.35574      19.02879
     5  C(13)             -0.02064     -23.19900      -8.27798      -7.73835
     6  C(13)              0.05233      58.82455      20.99006      19.62176
     7  C(13)             -0.03439     -38.66566     -13.79687     -12.89748
     8  N(14)              0.02926       9.45479       3.37370       3.15378
     9  C(13)             -0.03325     -37.37530     -13.33643     -12.46706
    10  N(14)              0.02705       8.74081       3.11894       2.91562
    11  C(13)             -0.03389     -38.09575     -13.59351     -12.70737
    12  N(14)              0.02874       9.28702       3.31384       3.09782
    13  C(13)             -0.03455     -38.83578     -13.85757     -12.95422
    14  N(14)              0.02985       9.64608       3.44196       3.21759
    15  C(13)             -0.03278     -36.85648     -13.15131     -12.29400
    16  N(14)              0.02599       8.39823       2.99670       2.80135
    17  C(13)             -0.03406     -38.28757     -13.66196     -12.77136
    18  N(14)              0.02866       9.25864       3.30371       3.08835
 --------------------------------------------------------
       Center         ----  Spin Dipole Couplings  ----
                      3XX-RR        3YY-RR        3ZZ-RR
 --------------------------------------------------------
     1   Atom        0.006528      0.025831     -0.032359
     2   Atom       -0.161424     -0.157374      0.318798
     3   Atom        0.019362      0.009450     -0.028812
     4   Atom       -0.158800     -0.153182      0.311982
     5   Atom        0.022638      0.011967     -0.034606
     6   Atom       -0.163218     -0.159054      0.322272
     7   Atom        0.043425      0.008049     -0.051473
     8   Atom       -0.126482     -0.098924      0.225406
     9   Atom        0.040829      0.007510     -0.048339
    10   Atom       -0.118283     -0.093187      0.211469
    11   Atom        0.036943      0.013762     -0.050705
    12   Atom       -0.121305     -0.100227      0.221531
    13   Atom       -0.002830      0.054525     -0.051695
    14   Atom       -0.094019     -0.133313      0.227331
    15   Atom       -0.002623      0.049340     -0.046717
    16   Atom       -0.085926     -0.120220      0.206146
    17   Atom        0.036877      0.013948     -0.050825
    18   Atom       -0.121557     -0.101994      0.223551
 --------------------------------------------------------
                        XY            XZ            YZ
 --------------------------------------------------------
     1   Atom        0.000131     -0.001315      0.004854
     2   Atom       -0.000285      0.003071     -0.050314
     3   Atom       -0.008265      0.000096      0.003675
     4   Atom       -0.000250      0.006548     -0.049399
     5   Atom        0.008707      0.000393      0.004850
     6   Atom       -0.000581      0.001407     -0.041016
     7   Atom       -0.023208     -0.003321      0.006507
     8   Atom        0.016861      0.006340     -0.034999
     9   Atom        0.021828      0.001923      0.005874
    10   Atom       -0.015735     -0.000751     -0.032590
    11   Atom        0.026231      0.001312      0.006277
    12   Atom       -0.019289      0.003883     -0.032737
    13   Atom        0.003313     -0.000202      0.011521
    14   Atom       -0.001971      0.003443     -0.040365
    15   Atom       -0.003132     -0.000194      0.007931
    16   Atom        0.001360     -0.000187     -0.025013
    17   Atom       -0.026300     -0.002402      0.005374
    18   Atom        0.018506      0.001092     -0.025775
 --------------------------------------------------------


 ---------------------------------------------------------------------------------
              Anisotropic Spin Dipole Couplings in Principal Axis System
 ---------------------------------------------------------------------------------

       Atom             a.u.   MegaHertz   Gauss  10(-4) cm-1        Axes

              Baa    -0.0328    -4.402    -1.571    -1.468  0.0336 -0.0825  0.9960
     1 C(13)  Bbb     0.0066     0.882     0.315     0.294  0.9994  0.0017 -0.0335
              Bcc     0.0262     3.520     1.256     1.174  0.0011  0.9966  0.0825
 
              Baa    -0.1626   -21.824    -7.787    -7.280 -0.0303  0.9941  0.1041
     2 C(13)  Bbb    -0.1614   -21.664    -7.730    -7.226  0.9995  0.0308 -0.0032
              Bcc     0.3241    43.488    15.518    14.506  0.0064 -0.1039  0.9946
 
              Baa    -0.0292    -3.915    -1.397    -1.306 -0.0188 -0.0987  0.9949
     3 C(13)  Bbb     0.0051     0.682     0.243     0.227  0.4981  0.8619  0.0949
              Bcc     0.0241     3.234     1.154     1.079  0.8669 -0.4974 -0.0330
 
              Baa    -0.1591   -21.355    -7.620    -7.123  0.8695 -0.4898 -0.0634
     4 C(13)  Bbb    -0.1581   -21.219    -7.571    -7.078  0.4937  0.8656  0.0841
              Bcc     0.3173    42.573    15.191    14.201  0.0137 -0.1044  0.9944
 
              Baa    -0.0351    -4.711    -1.681    -1.572  0.0089 -0.1041  0.9945
     5 C(13)  Bbb     0.0075     1.003     0.358     0.335 -0.4976  0.8622  0.0947
              Bcc     0.0276     3.708     1.323     1.237  0.8674  0.4957  0.0441
 
              Baa    -0.1635   -21.933    -7.826    -7.316  0.8957  0.4434  0.0348
     6 C(13)  Bbb    -0.1623   -21.779    -7.771    -7.265 -0.4447  0.8924  0.0768
              Bcc     0.3257    43.712    15.598    14.581  0.0030 -0.0843  0.9964
 
              Baa    -0.0522    -7.003    -2.499    -2.336  0.0093 -0.1038  0.9945
     7 C(13)  Bbb    -0.0031    -0.410    -0.146    -0.137  0.4500  0.8886  0.0886
              Bcc     0.0552     7.413     2.645     2.473  0.8930 -0.4467 -0.0550
 
              Baa    -0.1357    -5.235    -1.868    -1.746  0.8845 -0.4626 -0.0604
     8 N(14)  Bbb    -0.0935    -3.605    -1.286    -1.202  0.4663  0.8803  0.0873
              Bcc     0.2292     8.840     3.154     2.949  0.0127 -0.1054  0.9943
 
              Baa    -0.0490    -6.569    -2.344    -2.191  0.0043 -0.1051  0.9945
     9 C(13)  Bbb    -0.0029    -0.384    -0.137    -0.128 -0.4482  0.8888  0.0958
              Bcc     0.0518     6.953     2.481     2.319  0.8939  0.4461  0.0433
 
              Baa    -0.1266    -4.881    -1.742    -1.628  0.8852  0.4630  0.0466
    10 N(14)  Bbb    -0.0884    -3.408    -1.216    -1.137 -0.4653  0.8801  0.0945
              Bcc     0.2149     8.289     2.958     2.765  0.0027 -0.1053  0.9944
 
              Baa    -0.0513    -6.888    -2.458    -2.298  0.0156 -0.1022  0.9946
    11 C(13)  Bbb    -0.0029    -0.389    -0.139    -0.130 -0.5496  0.8301  0.0939
              Bcc     0.0542     7.277     2.596     2.427  0.8353  0.5482  0.0432
 
              Baa    -0.1333    -5.140    -1.834    -1.715  0.8453  0.5328  0.0399
    12 N(14)  Bbb    -0.0916    -3.535    -1.261    -1.179 -0.5340  0.8402  0.0944
              Bcc     0.2249     8.675     3.095     2.894  0.0168 -0.1011  0.9947
 
              Baa    -0.0529    -7.104    -2.535    -2.369  0.0111 -0.1069  0.9942
    13 C(13)  Bbb    -0.0030    -0.403    -0.144    -0.135  0.9984 -0.0541 -0.0169
              Bcc     0.0559     7.507     2.679     2.504  0.0556  0.9928  0.1062
 
              Baa    -0.1378    -5.316    -1.897    -1.773  0.0361  0.9933  0.1095
    14 N(14)  Bbb    -0.0940    -3.625    -1.294    -1.209  0.9993 -0.0347 -0.0151
              Bcc     0.2318     8.941     3.190     2.983  0.0112 -0.1099  0.9939
 
              Baa    -0.0474    -6.356    -2.268    -2.120 -0.0014 -0.0818  0.9966
    15 C(13)  Bbb    -0.0028    -0.377    -0.135    -0.126  0.9982  0.0590  0.0062
              Bcc     0.0502     6.733     2.403     2.246 -0.0593  0.9949  0.0816
 
              Baa    -0.1222    -4.712    -1.681    -1.572 -0.0370  0.9964  0.0759
    16 N(14)  Bbb    -0.0859    -3.312    -1.182    -1.105  0.9993  0.0368  0.0038
              Bcc     0.2081     8.024     2.863     2.677 -0.0010 -0.0760  0.9971
 
              Baa    -0.0513    -6.880    -2.455    -2.295  0.0030 -0.0809  0.9967
    17 C(13)  Bbb    -0.0031    -0.412    -0.147    -0.137  0.5515  0.8316  0.0658
              Bcc     0.0543     7.291     2.602     2.432  0.8342 -0.5495 -0.0471
 
              Baa    -0.1333    -5.141    -1.834    -1.715  0.8449 -0.5334 -0.0411
    18 N(14)  Bbb    -0.0923    -3.559    -1.270    -1.187  0.5350  0.8422  0.0669
              Bcc     0.2256     8.700     3.104     2.902 -0.0010 -0.0785  0.9969
 

 ---------------------------------------------------------------------------------

   1 Symmetry operations used in ECPInt.
 ECPInt:  NShTT=    5886 NPrTT=   23670 LenC2=    5400 LenP2D=   14897.
 LDataN:  DoStor=T MaxTD1= 5 Len=  102
 D1PCM: PCM CHGder 1st derivatives, ID1Alg=3 FixD1E=F DoIter=F DoCFld=F I1PDM=0.
 Calling FoFJK, ICntrl=      2127 FMM=F ISym2X=0 I1Cent= 0 IOpClX= 1 NMat=1 NMatS=1 NMatT=0.
 -------------------------------------------------------------------
 Center     Atomic                   Forces (Hartrees/Bohr)
 Number     Number              X              Y              Z
 -------------------------------------------------------------------
      1        6          -0.000733521    0.002351417   -0.000851904
      2        6           0.002679286   -0.056129560   -0.005247328
      3        6          -0.000143198   -0.001284834    0.001011542
      4        6          -0.050724048    0.029650831    0.002625595
      5        6          -0.001360509   -0.001076781    0.000021966
      6        6           0.051776164    0.024425478    0.002075813
      7        6          -0.042416409    0.024275566    0.003157382
      8        7           0.033198575   -0.017221003   -0.002220171
      9        6           0.019804939    0.012311423    0.001128395
     10        7          -0.013281002   -0.006827515   -0.000636972
     11        6           0.045084072    0.025938859    0.002230669
     12        7          -0.033156428   -0.021018067   -0.001707335
     13        6          -0.000056279   -0.064313225   -0.006761573
     14        7           0.001837100    0.050935005    0.005410708
     15        6          -0.002246975   -0.007984133   -0.000707838
     16        7           0.000109921    0.002417790    0.000142212
     17        6          -0.034680787    0.018842531    0.001477952
     18        7           0.024309101   -0.015293779   -0.001149114
 -------------------------------------------------------------------
 Cartesian Forces:  Max     0.064313225 RMS     0.022784664

 GradGradGradGradGradGradGradGradGradGradGradGradGradGradGradGradGradGrad
 Berny optimization.
 Search for a local minimum.
 Step number   1 out of a maximum of    2
 All quantities printed in internal units (Hartrees-Bohrs-Radians)
 Second derivative matrix not updated -- first step.
 ITU=  0
     Eigenvalues ---    0.00070   0.00081   0.00142   0.00298   0.00298
     Eigenvalues ---    0.00709   0.01492   0.01631   0.01939   0.01952
     Eigenvalues ---    0.03571   0.03846   0.05138   0.05172   0.09899
     Eigenvalues ---    0.14439   0.20997   0.21207   0.24502   0.24837
     Eigenvalues ---    0.25189   0.25520   0.29099   0.29136   0.47667
     Eigenvalues ---    0.67911   0.71357   0.76664   0.77271   0.78668
     Eigenvalues ---    1.03336   1.03425   1.11362   1.42924   1.43154
     Eigenvalues ---    1.79616   2.57441   2.65067   2.67385   2.69599
     Eigenvalues ---    2.78347   2.84281  62.28394  77.53378  79.94451
     Eigenvalues ---   85.56617 100.13859 118.84245
 Quadratic step=4.865D-01 exceeds max=3.000D-01 adjusted using Lamda=-2.402D-02.
 Angle between NR and scaled steps=  21.56 degrees.
 Angle between quadratic step and forces=  62.68 degrees.
 Linear search not attempted -- first point.
 B after Tr=     0.000028    0.000028    0.000095
         Rot=    1.000000    0.000002    0.000003   -0.000001 Ang=   0.00 deg.
 Variable       Old X    -DE/DX   Delta X   Delta X   Delta X     New X
                                 (Linear)    (Quad)   (Total)
    X1      -16.89018  -0.00073   0.00000  -0.00218  -0.00216 -16.89234
    Y1       -1.69453   0.00235   0.00000  -0.02586  -0.02587  -1.72039
    Z1        2.10310  -0.00085   0.00000  -0.00365  -0.00365   2.09945
    X2      -16.89085   0.00268   0.00000  -0.00185  -0.00184 -16.89269
    Y2        1.00778  -0.05613   0.00000  -0.11492  -0.11492   0.89286
    Z2        2.37204  -0.00525   0.00000  -0.01036  -0.01037   2.36166
    X3      -15.54221  -0.00014   0.00000  -0.02563  -0.02561 -15.56781
    Y3       -4.01608  -0.00128   0.00000   0.01228   0.01228  -4.00380
    Z3        1.85089   0.00101   0.00000   0.00186   0.00188   1.85277
    X4      -13.19027  -0.05072   0.00000  -0.10072  -0.10069 -13.29097
    Y4       -5.36347   0.02965   0.00000   0.05532   0.05532  -5.30814
    Z4        1.69693   0.00263   0.00000   0.00313   0.00316   1.70009
    X5      -18.24519  -0.00136   0.00000   0.02342   0.02344 -18.22174
    Y5       -4.02093  -0.00108   0.00000   0.01397   0.01396  -4.00697
    Z5        1.87764   0.00002   0.00000   0.00175   0.00175   1.87939
    X6      -20.60208   0.05178   0.00000   0.10419   0.10422 -20.49786
    Y6       -5.36923   0.02443   0.00000   0.05960   0.05958  -5.30965
    Z6        1.76694   0.00208   0.00000   0.00593   0.00592   1.77286
    X7      -19.21703  -0.04242   0.00000  -0.00896  -0.00896 -19.22598
    Y7        2.27627   0.02428   0.00000  -0.06611  -0.06612   2.21015
    Z7        2.52799   0.00316   0.00000  -0.00597  -0.00600   2.52199
    X8      -21.19024   0.03320   0.00000   0.03766   0.03767 -21.15257
    Y8        3.29475  -0.01722   0.00000  -0.04325  -0.04326   3.25149
    Z8        2.65793  -0.00222   0.00000  -0.00538  -0.00542   2.65251
    X9      -14.55546   0.01980   0.00000   0.00017   0.00018 -14.55528
    Y9        2.28308   0.01231   0.00000  -0.07039  -0.07039   2.21269
    Z9        2.49778   0.00113   0.00000  -0.00714  -0.00714   2.49064
   X10      -12.59720  -0.01328   0.00000  -0.02897  -0.02897 -12.62617
   Y10        3.29092  -0.00683   0.00000  -0.03858  -0.03857   3.25235
   Z10        2.59762  -0.00064   0.00000  -0.00506  -0.00505   2.59257
   X11      -10.92529   0.04508   0.00000  -0.05242  -0.05239 -10.97768
   Y11       -3.98699   0.02594   0.00000   0.03865   0.03866  -3.94833
   Z11        1.79925   0.00223   0.00000   0.00416   0.00420   1.80345
   X12       -9.05077  -0.03316   0.00000  -0.05795  -0.05792  -9.10869
   Y12       -2.79039  -0.02102   0.00000  -0.01295  -0.01294  -2.80333
   Z12        1.89125  -0.00171   0.00000   0.00170   0.00175   1.89300
   X13      -13.24900  -0.00006   0.00000  -0.06103  -0.06099 -13.30999
   Y13       -7.99705  -0.06431   0.00000   0.02042   0.02042  -7.97663
   Z13        1.41018  -0.00676   0.00000   0.00194   0.00199   1.41216
   X14      -13.34153   0.00184   0.00000  -0.01993  -0.01989 -13.36141
   Y14      -10.21889   0.05094   0.00000   0.06214   0.06214 -10.15675
   Z14        1.16890   0.00541   0.00000   0.00859   0.00864   1.17754
   X15      -20.54145  -0.00225   0.00000   0.06173   0.06176 -20.47969
   Y15       -8.03045  -0.00798   0.00000   0.04153   0.04151  -7.98894
   Z15        1.54764  -0.00071   0.00000   0.00375   0.00375   1.55140
   X16      -20.44524   0.00011   0.00000   0.02056   0.02060 -20.42464
   Y16      -10.21594   0.00242   0.00000   0.04100   0.04098 -10.17495
   Z16        1.37647   0.00014   0.00000   0.00201   0.00202   1.37849
   X17      -22.86760  -0.03468   0.00000   0.05738   0.05741 -22.81019
   Y17       -3.98857   0.01884   0.00000   0.03744   0.03741  -3.95116
   Z17        1.88818   0.00148   0.00000   0.00314   0.00311   1.89129
   X18      -24.73405   0.02431   0.00000   0.05411   0.05413 -24.67992
   Y18       -2.79646  -0.01529   0.00000  -0.01017  -0.01020  -2.80666
   Z18        1.98364  -0.00115   0.00000  -0.00051  -0.00055   1.98309
         Item               Value     Threshold  Converged?
 Maximum Force            0.064313     0.000450     NO 
 RMS     Force            0.022785     0.000300     NO 
 Maximum Displacement     0.114922     0.001800     NO 
 RMS     Displacement     0.040834     0.001200     NO 
 Predicted change in Energy=-1.261238D-02
 GradGradGradGradGradGradGradGradGradGradGradGradGradGradGradGradGradGrad

 Unable to Open any file for archive entry.
 1\1\GINC-X10P1N4\Force\UwB97XD\def2SVP\C12N6(1-,2)\MAYUMIAO\11-Oct-202
 4\0\\# wb97xd def2svp scrf=(smd,solvent=acetonitrile) g09default scf=(
 xqc,maxcycle=64) force guess=read nosymm\\Title Card\\-1,2\C,-8.937896
 78,-0.89670445,1.11291185\C,-8.93825313,0.53329302,1.25522779\C,-8.224
 58205,-2.12521657,0.97944848\C,-6.9799927,-2.83822467,0.89797703\C,-9.
 65493816,-2.12778677,0.99360192\C,-10.90215216,-2.84127544,0.93502638\
 C,-10.16921176,1.20455224,1.33775474\N,-11.21339317,1.74350924,1.40651
 655\C,-7.70241863,1.20815133,1.32176609\N,-6.66615113,1.74147949,1.374
 59888\C,-5.78141542,-2.10982438,0.9521219\N,-4.78945871,-1.47661241,1.
 0008085\C,-7.01106951,-4.23185789,0.7462339\N,-7.06003141,-5.40760372,
 0.61855494\C,-10.87006779,-4.24953238,0.81897774\N,-10.81915589,-5.406
 04015,0.72839758\C,-12.10101312,-2.1106614,0.99918133\N,-13.08869361,-
 1.47982323,1.04969937\\Version=ES64L-G16RevC.01\HF=-784.8472688\S2=0.7
 94297\S2-1=0.\S2A=0.751615\RMSD=9.657e-09\RMSF=2.278e-02\Dipole=-0.018
 8226,-0.0032779,-0.0020298\Quadrupole=-203.1900202,71.7208462,131.4691
 74,-54.3905762,33.3487489,0.9918374\PG=C01 [X(C12N6)]\\@
 The archive entry for this job was punched.


 HAPPINESS IS NOT HAVING WHAT YOU WANT --
 HAPPINESS IS WANTING WHAT YOU HAVE!

              -- FROM MRS. SEVERN'S DESK
 Job cpu time:       0 days  0 hours 14 minutes 15.8 seconds.
 Elapsed time:       0 days  0 hours  0 minutes 32.0 seconds.
 File lengths (MBytes):  RWF=    174 Int=      0 D2E=      0 Chk=      9 Scr=      1
 Normal termination of Gaussian 16 at Fri Oct 11 15:36:45 2024.
