 Entering Gaussian System, Link 0=g16
 Input=JOBS/11_B.gjf
 Output=JOBS/11_B.log
 Initial command:
 /data/app/gaussian/C01-avx2//g16/l1.exe "/tmp/Gau-2524537.inp" -scrdir="/tmp/"
 Entering Link 1 = /data/app/gaussian/C01-avx2//g16/l1.exe PID=   2524538.
  
 Copyright (c) 1988-2019, Gaussian, Inc.  All Rights Reserved.
  
 This is part of the Gaussian(R) 16 program.  It is based on
 the Gaussian(R) 09 system (copyright 2009, Gaussian, Inc.),
 the Gaussian(R) 03 system (copyright 2003, Gaussian, Inc.),
 the Gaussian(R) 98 system (copyright 1998, Gaussian, Inc.),
 the Gaussian(R) 94 system (copyright 1995, Gaussian, Inc.),
 the Gaussian 92(TM) system (copyright 1992, Gaussian, Inc.),
 the Gaussian 90(TM) system (copyright 1990, Gaussian, Inc.),
 the Gaussian 88(TM) system (copyright 1988, Gaussian, Inc.),
 the Gaussian 86(TM) system (copyright 1986, Carnegie Mellon
 University), and the Gaussian 82(TM) system (copyright 1983,
 Carnegie Mellon University). Gaussian is a federally registered
 trademark of Gaussian, Inc.
  
 This software contains proprietary and confidential information,
 including trade secrets, belonging to Gaussian, Inc.
  
 This software is provided under written license and may be
 used, copied, transmitted, or stored only in accord with that
 written license.
  
 The following legend is applicable only to US Government
 contracts under FAR:
  
                    RESTRICTED RIGHTS LEGEND
  
 Use, reproduction and disclosure by the US Government is
 subject to restrictions as set forth in subparagraphs (a)
 and (c) of the Commercial Computer Software - Restricted
 Rights clause in FAR 52.227-19.
  
 Gaussian, Inc.
 340 Quinnipiac St., Bldg. 40, Wallingford CT 06492
  
  
 ---------------------------------------------------------------
 Warning -- This program may not be used in any manner that
 competes with the business of Gaussian, Inc. or will provide
 assistance to any competitor of Gaussian, Inc.  The licensee
 of this program is prohibited from giving any competitor of
 Gaussian, Inc. access to this program.  By using this program,
 the user acknowledges that Gaussian, Inc. is engaged in the
 business of creating and licensing software in the field of
 computational chemistry and represents and warrants to the
 licensee that it is not a competitor of Gaussian, Inc. and that
 it will not use this program in any manner prohibited above.
 ---------------------------------------------------------------
  

 Cite this work as:
 Gaussian 16, Revision C.01,
 M. J. Frisch, G. W. Trucks, H. B. Schlegel, G. E. Scuseria, 
 M. A. Robb, J. R. Cheeseman, G. Scalmani, V. Barone, 
 G. A. Petersson, H. Nakatsuji, X. Li, M. Caricato, A. V. Marenich, 
 J. Bloino, B. G. Janesko, R. Gomperts, B. Mennucci, H. P. Hratchian, 
 J. V. Ortiz, A. F. Izmaylov, J. L. Sonnenberg, D. Williams-Young, 
 F. Ding, F. Lipparini, F. Egidi, J. Goings, B. Peng, A. Petrone, 
 T. Henderson, D. Ranasinghe, V. G. Zakrzewski, J. Gao, N. Rega, 
 G. Zheng, W. Liang, M. Hada, M. Ehara, K. Toyota, R. Fukuda, 
 J. Hasegawa, M. Ishida, T. Nakajima, Y. Honda, O. Kitao, H. Nakai, 
 T. Vreven, K. Throssell, J. A. Montgomery, Jr., J. E. Peralta, 
 F. Ogliaro, M. J. Bearpark, J. J. Heyd, E. N. Brothers, K. N. Kudin, 
 V. N. Staroverov, T. A. Keith, R. Kobayashi, J. Normand, 
 K. Raghavachari, A. P. Rendell, J. C. Burant, S. S. Iyengar, 
 J. Tomasi, M. Cossi, J. M. Millam, M. Klene, C. Adamo, R. Cammi, 
 J. W. Ochterski, R. L. Martin, K. Morokuma, O. Farkas, 
 J. B. Foresman, and D. J. Fox, Gaussian, Inc., Wallingford CT, 2019.
 
 ******************************************
 Gaussian 16:  ES64L-G16RevC.01  3-Jul-2019
                11-Oct-2024 
 ******************************************
 %chk=b.chk
 %nprocshared=28
 Will use up to   28 processors via shared memory.
 %mem=48gb
 ----------------------------------------------------------------------
 # wb97xd def2svp scrf=(smd,solvent=acetonitrile) g09default scf=(xqc,m
 axcycle=64) force guess=read nosymm
 ----------------------------------------------------------------------
 1/10=7,30=1,38=1,158=3,167=1/1,3;
 2/12=2,15=1,17=6,18=5,40=1/2;
 3/5=43,7=101,11=2,25=1,27=10,30=1,70=32201,71=1,72=2,74=-58,75=-4,116=-2,158=3/1,2,3;
 4/5=1,60=-1/1;
 5/5=2,7=64,8=3,13=1,38=6,53=2,87=10/2,8;
 6/7=2,8=2,9=2,10=2,28=1,87=10/1;
 7/29=1,30=1,87=10/1,2,3,16;
 1/10=7,30=1,158=3,167=1/3;
 99//99;
 Using 2006 physical constants.
 ----------
 Title Card
 ----------
 Symbolic Z-matrix:
 Charge = -1 Multiplicity = 2
 6                    -8.93851  -0.90829   1.11217 
 6                    -8.9375    0.55991   1.25749 
 6                    -8.23532  -2.11918   0.97932 
 6                    -6.95757  -2.85083   0.89742 
 6                    -9.64374  -2.12113   0.99461 
 6                    -10.92454  -2.85542   0.93409 
 6                    -10.16904   1.22023   1.33957 
 7                    -11.21962   1.7435    1.40731 
 6                    -7.70785   1.2216    1.32274 
 7                    -6.65536   1.74345   1.37549 
 6                    -5.76767  -2.11847   0.95135 
 7                    -4.78626  -1.47122   1.00042 
 6                    -6.99814  -4.24352   0.74442 
 7                    -7.06275  -5.40958   0.61681 
 6                    -10.88519  -4.2469    0.82048 
 7                    -10.81494  -5.42037   0.7287 
 6                    -12.11229  -2.12101   0.99707 
 7                    -13.0936  -1.47295   1.04934 
 

 GradGradGradGradGradGradGradGradGradGradGradGradGradGradGradGradGradGrad
 Berny optimization.
 Initialization pass.
 Trust Radius=3.00D-01 FncErr=1.00D-07 GrdErr=1.00D-07 EigMax=2.50D+02 EigMin=1.00D-04
 Number of steps in this run=      2 maximum allowed number of steps=      2.
 GradGradGradGradGradGradGradGradGradGradGradGradGradGradGradGradGradGrad

                          Input orientation:                          
 ---------------------------------------------------------------------
 Center     Atomic      Atomic             Coordinates (Angstroms)
 Number     Number       Type             X           Y           Z
 ---------------------------------------------------------------------
      1          6           0       -8.938509   -0.908291    1.112170
      2          6           0       -8.937496    0.559906    1.257491
      3          6           0       -8.235316   -2.119179    0.979323
      4          6           0       -6.957569   -2.850831    0.897422
      5          6           0       -9.643743   -2.121131    0.994608
      6          6           0      -10.924544   -2.855420    0.934089
      7          6           0      -10.169044    1.220235    1.339573
      8          7           0      -11.219624    1.743498    1.407310
      9          6           0       -7.707848    1.221599    1.322743
     10          7           0       -6.655362    1.743452    1.375488
     11          6           0       -5.767670   -2.118465    0.951352
     12          7           0       -4.786256   -1.471218    1.000418
     13          6           0       -6.998135   -4.243524    0.744424
     14          7           0       -7.062748   -5.409583    0.616806
     15          6           0      -10.885193   -4.246897    0.820478
     16          7           0      -10.814944   -5.420370    0.728703
     17          6           0      -12.112294   -2.121010    0.997072
     18          7           0      -13.093600   -1.472947    1.049337
 ---------------------------------------------------------------------
                    Distance matrix (angstroms):
                    1          2          3          4          5
     1  C    0.000000
     2  C    1.475372   0.000000
     3  C    1.406548   2.783510   0.000000
     4  C    2.782750   3.960163   1.474673   0.000000
     5  C    1.407891   2.784933   1.408511   2.785217   0.000000
     6  C    2.786998   3.964517   2.788555   3.967146   1.477597
     7  C    2.469120   1.399815   3.875663   5.204099   3.399951
     8  N    3.510353   2.575159   4.899953   6.287524   4.193934
     9  C    2.468866   1.397901   3.399552   4.162752   3.876751
    10  N    3.509108   2.573488   4.192030   4.628964   4.900050
    11  C    3.397735   4.161153   2.467805   1.398260   3.876315
    12  N    4.191728   4.628644   3.509461   2.574596   4.900776
    13  C    3.876088   5.205506   2.469541   1.401658   3.400938
    14  N    4.901580   6.289671   3.511851   2.576241   4.197402
    15  C    3.875687   5.204792   3.402097   4.169070   2.467874
    16  N    4.901726   6.290321   4.197042   4.637924   3.511040
    17  C    3.399536   4.163469   3.877019   5.207087   2.468552
    18  N    4.193753   4.631309   4.901575   6.290669   3.510649
                    6          7          8          9         10
     6  C    0.000000
     7  C    4.164872   0.000000
     8  N    4.632608   1.175632   0.000000
     9  C    5.207712   2.461254   3.551352   0.000000
    10  N    6.290498   3.552606   4.564374   1.175943   0.000000
    11  C    5.209295   5.538026   6.696751   3.880497   3.985259
    12  N    6.292773   6.027715   7.203346   3.986334   3.737423
    13  C    4.168871   6.345197   7.355597   5.541273   6.029893
    14  N    4.640893   7.357034   8.310901   6.699781   7.204684
    15  C    1.396662   5.538218   6.028354   6.344465   7.354168
    16  N    2.575493   6.699850   7.207307   7.356812   8.309080
    17  C    1.397882   3.880392   3.987427   5.538794   6.697416
    18  N    2.574747   3.986288   3.739712   6.028403   7.204340
                   11         12         13         14         15
    11  C    0.000000
    12  N    1.176652   0.000000
    13  C    2.464293   3.555788   0.000000
    14  N    3.552549   4.565117   1.174800   0.000000
    15  C    5.544041   6.703269   3.887803   4.000551   0.000000
    16  N    6.035489   7.212123   3.994151   3.753880   1.179151
    17  C    6.344790   7.354799   5.542879   6.037982   2.460967
    18  N    7.354968   8.307489   6.702519   7.214941   3.553061
                   16         17         18
    16  N    0.000000
    17  C    3.555406   0.000000
    18  N    4.569161   1.177149   0.000000
 Symmetry turned off by external request.
 Stoichiometry    C12N6(1-,2)
 Framework group  C1[X(C12N6)]
 Deg. of freedom    48
 Full point group                 C1      NOp   1
 Rotational constants (GHZ):           0.4206243           0.4202083           0.2102259
 Standard basis: def2SVP (5D, 7F)
   252 basis functions,   450 primitive gaussians,   270 cartesian basis functions
    58 alpha electrons       57 beta electrons
       nuclear repulsion energy       954.8293175137 Hartrees.
 NAtoms=   18 NActive=   18 NUniq=   18 SFac= 1.00D+00 NAtFMM=   60 NAOKFM=F Big=F
 Integral buffers will be    131072 words long.
 Raffenetti 2 integral format.
 Two-electron integral symmetry is turned off.
 Nuclear repulsion after empirical dispersion term =      954.8178967697 Hartrees.
 Force PCM accuracy= 1.00D-10.
 ------------------------------------------------------------------------------
 Polarizable Continuum Model (PCM)
 =================================
 Model                : PCM (using non-symmetric T matrix).
 Atomic radii         : SMD-Coulomb.
 Polarization charges : Total charges.
 Charge compensation  : None.
 Solution method      : On-the-fly selection.
 Cavity type          : VdW (van der Waals Surface) (Alpha=1.000).
 Cavity algorithm     : GePol (No added spheres)
                        Default sphere list used, NSphG=   18.
                        Lebedev-Laikov grids with approx.  5.0 points / Ang**2.
                        Smoothing algorithm: York/Karplus (Gamma=1.0000).
                        Polarization charges: spherical gaussians, with
                                              point-specific exponents (IZeta= 3).
                        Self-potential: point-specific (ISelfS= 7).
                        Self-field    : sphere-specific E.n sum rule (ISelfD= 2).
 1st derivatives      : Analytical E(r).r(x)/FMM algorithm (CHGder, D1EAlg=3).
                        Cavity 1st derivative terms included.
 Solvent              : Acetonitrile, Eps=  35.688000 Eps(inf)=   1.806874
 ------------------------------------------------------------------------------
 Spheres list:
 ISph  on   Nord     Re0    Alpha      Xe            Ye            Ze
    1   C      1    1.8500  1.000     -8.938509     -0.908291      1.112170
    2   C      2    1.8500  1.000     -8.937496      0.559906      1.257491
    3   C      3    1.8500  1.000     -8.235316     -2.119179      0.979323
    4   C      4    1.8500  1.000     -6.957569     -2.850831      0.897422
    5   C      5    1.8500  1.000     -9.643743     -2.121131      0.994608
    6   C      6    1.8500  1.000    -10.924544     -2.855420      0.934089
    7   C      7    1.8500  1.000    -10.169044      1.220235      1.339573
    8   N      8    1.8900  1.000    -11.219624      1.743498      1.407310
    9   C      9    1.8500  1.000     -7.707848      1.221599      1.322743
   10   N     10    1.8900  1.000     -6.655362      1.743452      1.375488
   11   C     11    1.8500  1.000     -5.767670     -2.118465      0.951352
   12   N     12    1.8900  1.000     -4.786256     -1.471218      1.000418
   13   C     13    1.8500  1.000     -6.998135     -4.243524      0.744424
   14   N     14    1.8900  1.000     -7.062748     -5.409583      0.616806
   15   C     15    1.8500  1.000    -10.885193     -4.246897      0.820478
   16   N     16    1.8900  1.000    -10.814944     -5.420370      0.728703
   17   C     17    1.8500  1.000    -12.112294     -2.121010      0.997072
   18   N     18    1.8900  1.000    -13.093600     -1.472947      1.049337
 ------------------------------------------------------------------------------
 ------------------------------------------------------------------------------
 Atomic radii for non-electrostatic terms: SMD-CDS.
 ------------------------------------------------------------------------------
 Nuclear repulsion after PCM non-electrostatic terms =      954.8264963082 Hartrees.
 One-electron integrals computed using PRISM.
   1 Symmetry operations used in ECPInt.
 ECPInt:  NShTT=    5886 NPrTT=   23670 LenC2=    5404 LenP2D=   14866.
 LDataN:  DoStor=T MaxTD1= 4 Len=   56
 NBasis=   252 RedAO= T EigKep=  2.15D-04  NBF=   252
 NBsUse=   252 1.00D-06 EigRej= -1.00D+00 NBFU=   252
 Initial guess from the checkpoint file:  "b.chk"
 B after Tr=    -0.000062    0.000139   -0.000881
         Rot=    1.000000   -0.000010   -0.000028   -0.000004 Ang=  -0.00 deg.
 Initial guess <Sx>= 0.0000 <Sy>= 0.0000 <Sz>= 0.5000 <S**2>= 0.7949 S= 0.5222
 Requested convergence on RMS density matrix=1.00D-08 within  64 cycles.
 Requested convergence on MAX density matrix=1.00D-06.
 Requested convergence on             energy=1.00D-06.
 No special actions if energy rises.
 Inv3:  Mode=1 IEnd=    19461627.
 Iteration    1 A*A^-1 deviation from unit magnitude is 3.44D-15 for   2249.
 Iteration    1 A*A^-1 deviation from orthogonality  is 4.04D-15 for    510     59.
 Iteration    1 A^-1*A deviation from unit magnitude is 3.33D-15 for   1490.
 Iteration    1 A^-1*A deviation from orthogonality  is 5.67D-09 for   1034   1012.
 Iteration    2 A*A^-1 deviation from unit magnitude is 4.55D-15 for   1481.
 Iteration    2 A*A^-1 deviation from orthogonality  is 7.13D-15 for   1708    247.
 Iteration    2 A^-1*A deviation from unit magnitude is 1.33D-15 for    800.
 Iteration    2 A^-1*A deviation from orthogonality  is 6.74D-16 for   1845   1699.
 Error on total polarization charges =  0.02000
 SCF Done:  E(UwB97XD) =  -784.835749354     A.U. after   20 cycles
            NFock= 20  Conv=0.63D-08     -V/T= 2.0107
 <Sx>= 0.0000 <Sy>= 0.0000 <Sz>= 0.5000 <S**2>= 0.7981 S= 0.5238
 <L.S>=  0.00000000000    
 SMD-CDS (non-electrostatic) energy       (kcal/mol) =       5.40
 (included in total energy above)
 Annihilation of the first spin contaminant:
 S**2 before annihilation     0.7981,   after     0.7519
 QCSCF skips out because SCF is already converged.

 **********************************************************************

            Population analysis using the SCF Density.

 **********************************************************************

 Alpha  occ. eigenvalues --  -14.46315 -14.46278 -14.46268 -14.46253 -14.46247
 Alpha  occ. eigenvalues --  -14.46238 -10.39864 -10.39804 -10.39785 -10.38666
 Alpha  occ. eigenvalues --  -10.38652 -10.38646 -10.36454 -10.36424 -10.36414
 Alpha  occ. eigenvalues --  -10.36402 -10.36400 -10.36394  -1.05953  -1.01625
 Alpha  occ. eigenvalues --   -1.01586  -1.01226  -1.00331  -1.00294  -1.00198
 Alpha  occ. eigenvalues --   -0.91579  -0.91570  -0.90091  -0.71821  -0.71784
 Alpha  occ. eigenvalues --   -0.69635  -0.68922  -0.68919  -0.66261  -0.54889
 Alpha  occ. eigenvalues --   -0.50872  -0.50863  -0.50004  -0.49966  -0.47743
 Alpha  occ. eigenvalues --   -0.47629  -0.47621  -0.47092  -0.47034  -0.47028
 Alpha  occ. eigenvalues --   -0.46643  -0.44654  -0.44632  -0.44619  -0.44467
 Alpha  occ. eigenvalues --   -0.44124  -0.44111  -0.42802  -0.42262  -0.42249
 Alpha  occ. eigenvalues --   -0.34557  -0.34532  -0.28988
 Alpha virt. eigenvalues --    0.03763   0.03830   0.05787   0.05995   0.06062
 Alpha virt. eigenvalues --    0.09411   0.09479   0.09780   0.09795   0.11445
 Alpha virt. eigenvalues --    0.11505   0.14042   0.19592   0.19619   0.21059
 Alpha virt. eigenvalues --    0.24197   0.24229   0.25410   0.26405   0.26435
 Alpha virt. eigenvalues --    0.26758   0.30493   0.30578   0.31038   0.32236
 Alpha virt. eigenvalues --    0.32270   0.33682   0.45230   0.45316   0.48624
 Alpha virt. eigenvalues --    0.48958   0.53215   0.53231   0.53444   0.53525
 Alpha virt. eigenvalues --    0.54886   0.54948   0.55756   0.55844   0.59473
 Alpha virt. eigenvalues --    0.60243   0.60277   0.60370   0.60397   0.62259
 Alpha virt. eigenvalues --    0.63936   0.65751   0.69211   0.69244   0.69294
 Alpha virt. eigenvalues --    0.69329   0.72021   0.72035   0.72724   0.72786
 Alpha virt. eigenvalues --    0.72880   0.73080   0.73854   0.73899   0.75305
 Alpha virt. eigenvalues --    0.78240   0.78740   0.78797   0.80632   0.80643
 Alpha virt. eigenvalues --    0.84983   0.85094   0.85555   0.85972   0.91806
 Alpha virt. eigenvalues --    0.91849   0.92749   0.92767   0.93879   0.94377
 Alpha virt. eigenvalues --    0.95066   0.98188   0.98192   0.98738   0.98793
 Alpha virt. eigenvalues --    0.99889   0.99949   1.01233   1.01271   1.02225
 Alpha virt. eigenvalues --    1.04369   1.05043   1.06053   1.06208   1.09208
 Alpha virt. eigenvalues --    1.09339   1.14475   1.16408   1.16531   1.16614
 Alpha virt. eigenvalues --    1.19302   1.21416   1.21433   1.24109   1.32058
 Alpha virt. eigenvalues --    1.35060   1.35110   1.38294   1.38388   1.40587
 Alpha virt. eigenvalues --    1.42438   1.42526   1.46114   1.46243   1.50129
 Alpha virt. eigenvalues --    1.58032   1.65072   1.67901   1.67930   1.68642
 Alpha virt. eigenvalues --    1.68768   1.68780   1.75247   1.75335   1.75670
 Alpha virt. eigenvalues --    1.75709   1.77073   1.78392   1.79354   1.79425
 Alpha virt. eigenvalues --    1.81125   1.81161   1.84073   1.90009   1.90173
 Alpha virt. eigenvalues --    1.91888   1.96929   1.99127   1.99197   2.03225
 Alpha virt. eigenvalues --    2.03267   2.03804   2.09066   2.14963   2.15027
 Alpha virt. eigenvalues --    2.15332   2.17978   2.20301   2.20507   2.20523
 Alpha virt. eigenvalues --    2.20566   2.24610   2.26010   2.32129   2.32235
 Alpha virt. eigenvalues --    2.32258   2.32325   2.33386   2.33449   2.33708
 Alpha virt. eigenvalues --    2.34309   2.34427   2.34469   2.35051   2.35397
 Alpha virt. eigenvalues --    2.36184   2.36239   2.49491   2.56311   2.56355
 Alpha virt. eigenvalues --    2.61873   2.62105   2.90735   2.92591   2.92659
 Alpha virt. eigenvalues --    2.93643   2.95916   2.96007   2.96588   3.00120
 Alpha virt. eigenvalues --    3.01578   3.01758   3.02489   3.02660   3.11959
 Alpha virt. eigenvalues --    3.12030   3.12419   3.19607   3.19731   3.26423
 Alpha virt. eigenvalues --    3.35428   3.35644   3.37665   3.54183   3.57059
 Alpha virt. eigenvalues --    3.57183   3.57537   3.57742   3.65843
  Beta  occ. eigenvalues --  -14.46092 -14.46058 -14.46047 -14.46033 -14.46028
  Beta  occ. eigenvalues --  -14.46022 -10.39920 -10.39862 -10.39843 -10.38303
  Beta  occ. eigenvalues --  -10.38290 -10.38284 -10.36559 -10.36528 -10.36517
  Beta  occ. eigenvalues --  -10.36505 -10.36503 -10.36497  -1.05687  -1.01236
  Beta  occ. eigenvalues --   -1.01195  -1.00841  -0.99952  -0.99914  -0.99816
  Beta  occ. eigenvalues --   -0.90761  -0.90752  -0.89104  -0.71704  -0.71670
  Beta  occ. eigenvalues --   -0.69377  -0.68783  -0.68779  -0.66151  -0.54282
  Beta  occ. eigenvalues --   -0.49928  -0.49895  -0.49543  -0.49533  -0.47334
  Beta  occ. eigenvalues --   -0.47219  -0.47213  -0.46694  -0.46688  -0.46684
  Beta  occ. eigenvalues --   -0.45535  -0.44517  -0.43968  -0.43953  -0.43586
  Beta  occ. eigenvalues --   -0.43577  -0.43515  -0.42637  -0.42111  -0.42095
  Beta  occ. eigenvalues --   -0.31181  -0.31145
  Beta virt. eigenvalues --   -0.11965   0.04153   0.04216   0.05897   0.06094
  Beta virt. eigenvalues --    0.06160   0.09807   0.10513   0.10589   0.10635
  Beta virt. eigenvalues --    0.11498   0.11557   0.14341   0.19790   0.19815
  Beta virt. eigenvalues --    0.22601   0.25209   0.25763   0.25789   0.26555
  Beta virt. eigenvalues --    0.26585   0.27022   0.30802   0.30906   0.31624
  Beta virt. eigenvalues --    0.32519   0.32538   0.33793   0.45322   0.45407
  Beta virt. eigenvalues --    0.48762   0.48990   0.53139   0.53154   0.53549
  Beta virt. eigenvalues --    0.53628   0.54981   0.55040   0.55890   0.55961
  Beta virt. eigenvalues --    0.59358   0.60109   0.60133   0.60401   0.60438
  Beta virt. eigenvalues --    0.62254   0.63784   0.66147   0.69293   0.69344
  Beta virt. eigenvalues --    0.69382   0.69411   0.72215   0.72229   0.72914
  Beta virt. eigenvalues --    0.72978   0.73067   0.73157   0.73999   0.74044
  Beta virt. eigenvalues --    0.75371   0.78718   0.78775   0.79249   0.81429
  Beta virt. eigenvalues --    0.81440   0.85085   0.85195   0.85850   0.86077
  Beta virt. eigenvalues --    0.92001   0.92046   0.93450   0.93464   0.94562
  Beta virt. eigenvalues --    0.94646   0.95828   0.98860   0.98872   0.98997
  Beta virt. eigenvalues --    0.99050   1.00072   1.00130   1.01301   1.01340
  Beta virt. eigenvalues --    1.02407   1.04410   1.05394   1.06416   1.06565
  Beta virt. eigenvalues --    1.09348   1.09476   1.14707   1.16728   1.16754
  Beta virt. eigenvalues --    1.16837   1.19522   1.21705   1.21720   1.24537
  Beta virt. eigenvalues --    1.32223   1.35240   1.35292   1.38834   1.38928
  Beta virt. eigenvalues --    1.41345   1.43115   1.43212   1.46163   1.46306
  Beta virt. eigenvalues --    1.50235   1.58086   1.64903   1.67658   1.67687
  Beta virt. eigenvalues --    1.68368   1.68498   1.68512   1.75361   1.75437
  Beta virt. eigenvalues --    1.75520   1.75564   1.76903   1.78618   1.79204
  Beta virt. eigenvalues --    1.79272   1.80985   1.81022   1.83938   1.90029
  Beta virt. eigenvalues --    1.90193   1.91986   1.97060   1.99718   1.99790
  Beta virt. eigenvalues --    2.03602   2.03638   2.04285   2.09037   2.15554
  Beta virt. eigenvalues --    2.15677   2.16412   2.18307   2.20693   2.20879
  Beta virt. eigenvalues --    2.21511   2.21535   2.25386   2.26601   2.32871
  Beta virt. eigenvalues --    2.32995   2.33014   2.33089   2.34175   2.34229
  Beta virt. eigenvalues --    2.34472   2.34893   2.34920   2.35101   2.35704
  Beta virt. eigenvalues --    2.36152   2.36959   2.37012   2.49890   2.56364
  Beta virt. eigenvalues --    2.56408   2.62184   2.62416   2.90816   2.92719
  Beta virt. eigenvalues --    2.92786   2.93869   2.96065   2.96154   2.96713
  Beta virt. eigenvalues --    3.00661   3.02122   3.02293   3.02673   3.02838
  Beta virt. eigenvalues --    3.12505   3.12574   3.12962   3.19875   3.19998
  Beta virt. eigenvalues --    3.26630   3.35637   3.35852   3.37859   3.54373
  Beta virt. eigenvalues --    3.57248   3.57371   3.57744   3.57949   3.66008
          Condensed to atoms (all electrons):
               1          2          3          4          5          6
     1  C    4.879140   0.498720   0.311968  -0.061705   0.313775  -0.060700
     2  C    0.498720   5.266298  -0.061679  -0.003829  -0.061427  -0.003802
     3  C    0.311968  -0.061679   4.879730   0.499411   0.313711  -0.060423
     4  C   -0.061705  -0.003829   0.499411   5.264835  -0.061383  -0.003797
     5  C    0.313775  -0.061427   0.313711  -0.061383   4.879105   0.497782
     6  C   -0.060700  -0.003802  -0.060423  -0.003797   0.497782   5.265774
     7  C    0.003948   0.392915   0.006676  -0.000260  -0.018265   0.001734
     8  N   -0.001228  -0.032921   0.000001  -0.000000  -0.000300   0.000127
     9  C    0.003791   0.394120  -0.018472   0.001743   0.006676  -0.000259
    10  N   -0.001240  -0.033134  -0.000307   0.000129   0.000002  -0.000000
    11  C   -0.018473   0.001745   0.003785   0.394433   0.006657  -0.000257
    12  N   -0.000305   0.000129  -0.001266  -0.032994  -0.000000  -0.000000
    13  C    0.006652  -0.000259   0.003804   0.392546  -0.018098   0.001703
    14  N   -0.000001  -0.000000  -0.001251  -0.032549  -0.000292   0.000121
    15  C    0.006760  -0.000261  -0.018447   0.001738   0.003824   0.393610
    16  N    0.000002  -0.000000  -0.000304   0.000126  -0.001244  -0.033363
    17  C   -0.018505   0.001741   0.006695  -0.000259   0.003843   0.392967
    18  N   -0.000307   0.000128   0.000002  -0.000000  -0.001255  -0.033136
               7          8          9         10         11         12
     1  C    0.003948  -0.001228   0.003791  -0.001240  -0.018473  -0.000305
     2  C    0.392915  -0.032921   0.394120  -0.033134   0.001745   0.000129
     3  C    0.006676   0.000001  -0.018472  -0.000307   0.003785  -0.001266
     4  C   -0.000260  -0.000000   0.001743   0.000129   0.394433  -0.032994
     5  C   -0.018265  -0.000300   0.006676   0.000002   0.006657  -0.000000
     6  C    0.001734   0.000127  -0.000259  -0.000000  -0.000257  -0.000000
     7  C    4.818264   0.889846  -0.046580   0.002034   0.000084   0.000002
     8  N    0.889846   6.148295   0.002040   0.000053   0.000000   0.000000
     9  C   -0.046580   0.002040   4.818023   0.888963  -0.000066   0.000219
    10  N    0.002034   0.000053   0.888963   6.149553   0.000223  -0.000726
    11  C    0.000084   0.000000  -0.000066   0.000223   4.818610   0.888181
    12  N    0.000002   0.000000   0.000219  -0.000726   0.888181   6.150950
    13  C   -0.000008  -0.000000   0.000082   0.000002  -0.046983   0.002003
    14  N   -0.000000  -0.000000   0.000000   0.000000   0.002007   0.000053
    15  C    0.000084   0.000002  -0.000008  -0.000000   0.000084   0.000000
    16  N    0.000000   0.000000  -0.000000  -0.000000   0.000002   0.000000
    17  C   -0.000053   0.000214   0.000084   0.000000  -0.000008  -0.000000
    18  N    0.000230  -0.000725   0.000002   0.000000  -0.000000  -0.000000
              13         14         15         16         17         18
     1  C    0.006652  -0.000001   0.006760   0.000002  -0.018505  -0.000307
     2  C   -0.000259  -0.000000  -0.000261  -0.000000   0.001741   0.000128
     3  C    0.003804  -0.001251  -0.018447  -0.000304   0.006695   0.000002
     4  C    0.392546  -0.032549   0.001738   0.000126  -0.000259  -0.000000
     5  C   -0.018098  -0.000292   0.003824  -0.001244   0.003843  -0.001255
     6  C    0.001703   0.000121   0.393610  -0.033363   0.392967  -0.033136
     7  C   -0.000008  -0.000000   0.000084   0.000000  -0.000053   0.000230
     8  N   -0.000000  -0.000000   0.000002   0.000000   0.000214  -0.000725
     9  C    0.000082   0.000000  -0.000008  -0.000000   0.000084   0.000002
    10  N    0.000002   0.000000  -0.000000  -0.000000   0.000000   0.000000
    11  C   -0.046983   0.002007   0.000084   0.000002  -0.000008  -0.000000
    12  N    0.002003   0.000053   0.000000   0.000000  -0.000000  -0.000000
    13  C    4.818491   0.891226  -0.000053   0.000250   0.000082   0.000000
    14  N    0.891226   6.145435   0.000180  -0.000707   0.000002   0.000000
    15  C   -0.000053   0.000180   4.819354   0.885554  -0.047073   0.002068
    16  N    0.000250  -0.000707   0.885554   6.157038   0.002068   0.000053
    17  C    0.000082   0.000002  -0.047073   0.002068   4.819012   0.887785
    18  N    0.000000   0.000000   0.002068   0.000053   0.887785   6.152000
          Atomic-Atomic Spin Densities.
               1          2          3          4          5          6
     1  C   -0.066333  -0.058834   0.032337  -0.003882   0.032536  -0.003834
     2  C   -0.058834   0.377152  -0.003859   0.000675  -0.003892   0.000666
     3  C    0.032337  -0.003859  -0.066809  -0.058743   0.032445  -0.003802
     4  C   -0.003882   0.000675  -0.058743   0.376819  -0.003885   0.000662
     5  C    0.032536  -0.003892   0.032445  -0.003885  -0.065627  -0.058975
     6  C   -0.003834   0.000666  -0.003802   0.000662  -0.058975   0.375379
     7  C    0.001618   0.002083  -0.000129  -0.000011   0.000268  -0.000047
     8  N    0.000530  -0.005695   0.000008  -0.000000   0.000021  -0.000023
     9  C    0.001611   0.002148   0.000267  -0.000048  -0.000126  -0.000011
    10  N    0.000535  -0.005734   0.000020  -0.000023   0.000008  -0.000000
    11  C    0.000269  -0.000048   0.001604   0.002198  -0.000127  -0.000011
    12  N    0.000020  -0.000023   0.000535  -0.005709   0.000008  -0.000000
    13  C   -0.000131  -0.000011   0.001580   0.002036   0.000265  -0.000045
    14  N    0.000008  -0.000000   0.000523  -0.005639   0.000020  -0.000022
    15  C   -0.000126  -0.000011   0.000260  -0.000048   0.001716   0.002245
    16  N    0.000008  -0.000000   0.000020  -0.000022   0.000540  -0.005732
    17  C    0.000263  -0.000048  -0.000124  -0.000011   0.001668   0.002092
    18  N    0.000020  -0.000023   0.000008  -0.000000   0.000535  -0.005711
               7          8          9         10         11         12
     1  C    0.001618   0.000530   0.001611   0.000535   0.000269   0.000020
     2  C    0.002083  -0.005695   0.002148  -0.005734  -0.000048  -0.000023
     3  C   -0.000129   0.000008   0.000267   0.000020   0.001604   0.000535
     4  C   -0.000011  -0.000000  -0.000048  -0.000023   0.002198  -0.005709
     5  C    0.000268   0.000021  -0.000126   0.000008  -0.000127   0.000008
     6  C   -0.000047  -0.000023  -0.000011  -0.000000  -0.000011  -0.000000
     7  C   -0.083548  -0.001129  -0.000305   0.000175  -0.000002   0.000000
     8  N   -0.001129   0.132949   0.000178   0.000009   0.000000   0.000000
     9  C   -0.000305   0.000178  -0.084132  -0.001169   0.000007   0.000021
    10  N    0.000175   0.000009  -0.001169   0.134221   0.000020   0.000049
    11  C   -0.000002   0.000000   0.000007   0.000020  -0.084272  -0.001198
    12  N    0.000000   0.000000   0.000021   0.000049  -0.001198   0.134348
    13  C    0.000000  -0.000000  -0.000002   0.000000  -0.000288   0.000173
    14  N   -0.000000   0.000000   0.000000   0.000000   0.000178   0.000008
    15  C   -0.000002   0.000000   0.000000  -0.000000  -0.000002   0.000000
    16  N    0.000000   0.000000  -0.000000   0.000000   0.000000   0.000000
    17  C    0.000007   0.000020  -0.000002   0.000000   0.000000  -0.000000
    18  N    0.000020   0.000048   0.000000   0.000000  -0.000000   0.000000
              13         14         15         16         17         18
     1  C   -0.000131   0.000008  -0.000126   0.000008   0.000263   0.000020
     2  C   -0.000011  -0.000000  -0.000011  -0.000000  -0.000048  -0.000023
     3  C    0.001580   0.000523   0.000260   0.000020  -0.000124   0.000008
     4  C    0.002036  -0.005639  -0.000048  -0.000022  -0.000011  -0.000000
     5  C    0.000265   0.000020   0.001716   0.000540   0.001668   0.000535
     6  C   -0.000045  -0.000022   0.002245  -0.005732   0.002092  -0.005711
     7  C    0.000000  -0.000000  -0.000002   0.000000   0.000007   0.000020
     8  N   -0.000000   0.000000   0.000000   0.000000   0.000020   0.000048
     9  C   -0.000002   0.000000   0.000000  -0.000000  -0.000002   0.000000
    10  N    0.000000   0.000000  -0.000000   0.000000   0.000000   0.000000
    11  C   -0.000288   0.000178  -0.000002   0.000000   0.000000  -0.000000
    12  N    0.000173   0.000008   0.000000   0.000000  -0.000000   0.000000
    13  C   -0.082748  -0.001088   0.000006   0.000020  -0.000002   0.000000
    14  N   -0.001088   0.131334   0.000020   0.000046   0.000000   0.000000
    15  C    0.000006   0.000020  -0.085159  -0.001278  -0.000253   0.000181
    16  N    0.000020   0.000046  -0.001278   0.136057   0.000180   0.000008
    17  C   -0.000002   0.000000  -0.000253   0.000180  -0.084058  -0.001180
    18  N    0.000000   0.000000   0.000181   0.000008  -0.001180   0.134063
 Mulliken charges and spin densities:
               1          2
     1  C    0.137708  -0.063385
     2  C   -0.358484   0.304547
     3  C    0.136368  -0.063859
     4  C   -0.358183   0.304369
     5  C    0.136890  -0.062604
     6  C   -0.358079   0.302832
     7  C   -0.050648  -0.081000
     8  N   -0.005404   0.126916
     9  C   -0.050357  -0.081563
    10  N   -0.005551   0.128111
    11  C   -0.050023  -0.081672
    12  N   -0.006245   0.128232
    13  C   -0.051441  -0.080234
    14  N   -0.004222   0.125388
    15  C   -0.047415  -0.082449
    16  N   -0.009477   0.129847
    17  C   -0.048594  -0.081447
    18  N   -0.006843   0.127971
 Sum of Mulliken charges =  -1.00000   1.00000
 Mulliken charges and spin densities with hydrogens summed into heavy atoms:
               1          2
     1  C    0.137708  -0.063385
     2  C   -0.358484   0.304547
     3  C    0.136368  -0.063859
     4  C   -0.358183   0.304369
     5  C    0.136890  -0.062604
     6  C   -0.358079   0.302832
     7  C   -0.050648  -0.081000
     8  N   -0.005404   0.126916
     9  C   -0.050357  -0.081563
    10  N   -0.005551   0.128111
    11  C   -0.050023  -0.081672
    12  N   -0.006245   0.128232
    13  C   -0.051441  -0.080234
    14  N   -0.004222   0.125388
    15  C   -0.047415  -0.082449
    16  N   -0.009477   0.129847
    17  C   -0.048594  -0.081447
    18  N   -0.006843   0.127971
 Electronic spatial extent (au):  <R**2>=          39082.7737
 Charge=             -1.0000 electrons
 Dipole moment (field-independent basis, Debye):
    X=             42.9422    Y=              8.2379    Z=             -4.9505  Tot=             44.0045
 Quadrupole moment (field-independent basis, Debye-Ang):
   XX=           -556.1638   YY=           -185.6425   ZZ=           -104.7249
   XY=            -73.7299   XZ=             44.8889   YZ=              1.2906
 Traceless Quadrupole moment (field-independent basis, Debye-Ang):
   XX=           -273.9867   YY=             96.5345   ZZ=            177.4522
   XY=            -73.7299   XZ=             44.8889   YZ=              1.2906
 Octapole moment (field-independent basis, Debye-Ang**2):
  XXX=           8051.6853  YYY=            982.4067  ZZZ=           -312.8606  XYY=           1660.0598
  XXY=            879.5079  XXZ=           -590.5136  XZZ=            937.4118  YZZ=            165.3267
  YYZ=           -160.2415  XYZ=            -13.1703
 Hexadecapole moment (field-independent basis, Debye-Ang**3):
 XXXX=        -117679.9186 YYYY=          -7936.3958 ZZZZ=           -768.5052 XXXY=         -11798.1733
 XXXZ=           8633.5379 YYYX=          -8787.7440 YYYZ=            643.6888 ZZZX=           2813.4892
 ZZZY=            361.2107 XXYY=         -16551.4285 XXZZ=          -9142.3886 YYZZ=           -986.4575
 XXYZ=            277.8607 YYXZ=           1448.2427 ZZXY=          -1480.3019
 N-N= 9.548264963082D+02 E-N=-3.744232866902D+03  KE= 7.765302405457D+02
                          Isotropic Fermi Contact Couplings
        Atom                 a.u.       MegaHertz       Gauss      10(-4) cm-1
     1  C(13)             -0.02204     -24.77946      -8.84193      -8.26554
     2  C(13)              0.05350      60.14087      21.45976      20.06084
     3  C(13)             -0.02212     -24.86881      -8.87381      -8.29534
     4  C(13)              0.05354      60.19453      21.47890      20.07873
     5  C(13)             -0.02198     -24.70549      -8.81553      -8.24086
     6  C(13)              0.05329      59.90332      21.37499      19.98160
     7  C(13)             -0.03464     -38.94192     -13.89544     -12.98962
     8  N(14)              0.02960       9.56495       3.41301       3.19052
     9  C(13)             -0.03472     -39.03492     -13.92863     -13.02065
    10  N(14)              0.02990       9.65949       3.44675       3.22206
    11  C(13)             -0.03476     -39.07359     -13.94243     -13.03355
    12  N(14)              0.02994       9.67245       3.45137       3.22638
    13  C(13)             -0.03451     -38.79158     -13.84180     -12.93948
    14  N(14)              0.02923       9.44342       3.36965       3.14999
    15  C(13)             -0.03498     -39.32156     -14.03091     -13.11626
    16  N(14)              0.03036       9.80999       3.50045       3.27226
    17  C(13)             -0.03472     -39.03647     -13.92918     -13.02116
    18  N(14)              0.02988       9.65481       3.44507       3.22050
 --------------------------------------------------------
       Center         ----  Spin Dipole Couplings  ----
                      3XX-RR        3YY-RR        3ZZ-RR
 --------------------------------------------------------
     1   Atom        0.011806      0.027301     -0.039108
     2   Atom       -0.163163     -0.158200      0.321364
     3   Atom        0.024075      0.015448     -0.039523
     4   Atom       -0.163235     -0.157742      0.320977
     5   Atom        0.023325      0.014834     -0.038158
     6   Atom       -0.162620     -0.159170      0.321790
     7   Atom        0.044837      0.007681     -0.052518
     8   Atom       -0.128766     -0.099824      0.228591
     9   Atom        0.045244      0.007723     -0.052967
    10   Atom       -0.130146     -0.100681      0.230827
    11   Atom        0.038031      0.014996     -0.053027
    12   Atom       -0.126120     -0.105072      0.231192
    13   Atom       -0.002719      0.054150     -0.051432
    14   Atom       -0.093626     -0.131577      0.225203
    15   Atom       -0.002849      0.056411     -0.053562
    16   Atom       -0.096441     -0.138628      0.235068
    17   Atom        0.037881      0.015276     -0.053157
    18   Atom       -0.125920     -0.106115      0.232035
 --------------------------------------------------------
                        XY            XZ            YZ
 --------------------------------------------------------
     1   Atom        0.000134     -0.001267      0.005642
     2   Atom       -0.000364      0.003299     -0.050574
     3   Atom       -0.007001      0.000168      0.005274
     4   Atom       -0.000578      0.006519     -0.050938
     5   Atom        0.006801      0.000199      0.005507
     6   Atom       -0.000137      0.001026     -0.040514
     7   Atom       -0.023195     -0.003407      0.006613
     8   Atom        0.016926      0.006608     -0.035447
     9   Atom        0.023510      0.002102      0.006402
    10   Atom       -0.017574     -0.001300     -0.035636
    11   Atom        0.027779      0.001346      0.006590
    12   Atom       -0.020535      0.004407     -0.033935
    13   Atom        0.004017     -0.000112      0.011553
    14   Atom       -0.002355      0.003189     -0.040372
    15   Atom       -0.004169     -0.000214      0.008998
    16   Atom        0.002346     -0.000496     -0.028714
    17   Atom       -0.027641     -0.002499      0.005618
    18   Atom        0.019951      0.001483     -0.026678
 --------------------------------------------------------


 ---------------------------------------------------------------------------------
              Anisotropic Spin Dipole Couplings in Principal Axis System
 ---------------------------------------------------------------------------------

       Atom             a.u.   MegaHertz   Gauss  10(-4) cm-1        Axes

              Baa    -0.0396    -5.316    -1.897    -1.773  0.0248 -0.0840  0.9962
     1 C(13)  Bbb     0.0118     1.589     0.567     0.530  0.9997  0.0004 -0.0248
              Bcc     0.0278     3.727     1.330     1.243  0.0017  0.9965  0.0840
 
              Baa    -0.1635   -21.937    -7.828    -7.317  0.0683  0.9923  0.1030
     2 C(13)  Bbb    -0.1632   -21.898    -7.814    -7.304  0.9976 -0.0673 -0.0138
              Bcc     0.3267    43.835    15.641    14.622  0.0068 -0.1037  0.9946
 
              Baa    -0.0400    -5.372    -1.917    -1.792 -0.0131 -0.0963  0.9953
     3 C(13)  Bbb     0.0120     1.605     0.573     0.535  0.4974  0.8628  0.0900
              Bcc     0.0281     3.767     1.344     1.257  0.8674 -0.4963 -0.0366
 
              Baa    -0.1634   -21.922    -7.822    -7.312  0.9259 -0.3743 -0.0518
     4 C(13)  Bbb    -0.1631   -21.881    -7.808    -7.299  0.3776  0.9214  0.0919
              Bcc     0.3264    43.803    15.630    14.611  0.0134 -0.1046  0.9944
 
              Baa    -0.0387    -5.197    -1.854    -1.734  0.0081 -0.1033  0.9946
     5 C(13)  Bbb     0.0115     1.544     0.551     0.515 -0.4977  0.8623  0.0936
              Bcc     0.0272     3.653     1.304     1.219  0.8673  0.4958  0.0444
 
              Baa    -0.1627   -21.826    -7.788    -7.280  0.8741  0.4842  0.0386
     6 C(13)  Bbb    -0.1625   -21.810    -7.782    -7.275 -0.4857  0.8710  0.0739
              Bcc     0.3252    43.636    15.570    14.555  0.0021 -0.0834  0.9965
 
              Baa    -0.0532    -7.145    -2.550    -2.383  0.0099 -0.1042  0.9945
     7 C(13)  Bbb    -0.0031    -0.410    -0.146    -0.137  0.4393  0.8939  0.0893
              Bcc     0.0563     7.555     2.696     2.520  0.8983 -0.4360 -0.0546
 
              Baa    -0.1378    -5.315    -1.897    -1.773  0.8899 -0.4523 -0.0598
     8 N(14)  Bbb    -0.0946    -3.649    -1.302    -1.217  0.4560  0.8856  0.0878
              Bcc     0.2324     8.965     3.199     2.990  0.0133 -0.1054  0.9943
 
              Baa    -0.0536    -7.197    -2.568    -2.401  0.0039 -0.1053  0.9944
     9 C(13)  Bbb    -0.0031    -0.419    -0.150    -0.140 -0.4385  0.8936  0.0963
              Bcc     0.0568     7.617     2.718     2.541  0.8987  0.4364  0.0427
 
              Baa    -0.1391    -5.365    -1.914    -1.790  0.8914  0.4509  0.0466
    10 N(14)  Bbb    -0.0955    -3.684    -1.314    -1.229 -0.4533  0.8863  0.0950
              Bcc     0.2346     9.049     3.229     3.018  0.0016 -0.1058  0.9944
 
              Baa    -0.0537    -7.203    -2.570    -2.403  0.0163 -0.1020  0.9946
    11 C(13)  Bbb    -0.0031    -0.418    -0.149    -0.139 -0.5592  0.8237  0.0937
              Bcc     0.0568     7.621     2.719     2.542  0.8289  0.5577  0.0436
 
              Baa    -0.1392    -5.370    -1.916    -1.791  0.8384  0.5436  0.0398
    12 N(14)  Bbb    -0.0955    -3.682    -1.314    -1.228 -0.5448  0.8333  0.0939
              Bcc     0.2347     9.052     3.230     3.019  0.0179 -0.1004  0.9948
 
              Baa    -0.0527    -7.070    -2.523    -2.358  0.0109 -0.1079  0.9941
    13 C(13)  Bbb    -0.0030    -0.400    -0.143    -0.134  0.9976 -0.0665 -0.0182
              Bcc     0.0557     7.471     2.666     2.492  0.0680  0.9919  0.1069
 
              Baa    -0.1362    -5.252    -1.874    -1.752  0.0467  0.9928  0.1105
    14 N(14)  Bbb    -0.0936    -3.609    -1.288    -1.204  0.9989 -0.0452 -0.0157
              Bcc     0.2298     8.861     3.162     2.956  0.0106 -0.1111  0.9938
 
              Baa    -0.0543    -7.286    -2.600    -2.430 -0.0024 -0.0811  0.9967
    15 C(13)  Bbb    -0.0031    -0.421    -0.150    -0.140  0.9976  0.0686  0.0080
              Bcc     0.0574     7.707     2.750     2.571 -0.0691  0.9943  0.0807
 
              Baa    -0.1409    -5.436    -1.940    -1.813 -0.0517  0.9958  0.0760
    16 N(14)  Bbb    -0.0963    -3.715    -1.326    -1.239  0.9987  0.0514  0.0059
              Bcc     0.2373     9.151     3.265     3.052 -0.0020 -0.0762  0.9971
 
              Baa    -0.0536    -7.195    -2.567    -2.400  0.0030 -0.0801  0.9968
    17 C(13)  Bbb    -0.0031    -0.412    -0.147    -0.138  0.5610  0.8253  0.0646
              Bcc     0.0567     7.607     2.714     2.537  0.8278 -0.5590 -0.0474
 
              Baa    -0.1389    -5.359    -1.912    -1.787  0.8381 -0.5439 -0.0425
    18 N(14)  Bbb    -0.0952    -3.671    -1.310    -1.225  0.5455  0.8355  0.0656
              Bcc     0.2341     9.030     3.222     3.012 -0.0002 -0.0782  0.9969
 

 ---------------------------------------------------------------------------------

   1 Symmetry operations used in ECPInt.
 ECPInt:  NShTT=    5886 NPrTT=   23670 LenC2=    5404 LenP2D=   14866.
 LDataN:  DoStor=T MaxTD1= 5 Len=  102
 D1PCM: PCM CHGder 1st derivatives, ID1Alg=3 FixD1E=F DoIter=F DoCFld=F I1PDM=0.
 Calling FoFJK, ICntrl=      2127 FMM=F ISym2X=0 I1Cent= 0 IOpClX= 1 NMat=1 NMatS=1 NMatT=0.
 -------------------------------------------------------------------
 Center     Atomic                   Forces (Hartrees/Bohr)
 Number     Number              X              Y              Z
 -------------------------------------------------------------------
      1        6          -0.000631715    0.043285609    0.003122592
      2        6          -0.001500762   -0.079931158   -0.007610649
      3        6           0.036800850   -0.022165400   -0.001121851
      4        6          -0.070362919    0.037649987    0.003424453
      5        6          -0.037088423   -0.021289185   -0.001761291
      6        6           0.071494086    0.041776797    0.003495588
      7        6          -0.041498118    0.022199950    0.002944732
      8        7           0.029902371   -0.014644623   -0.001931175
      9        6           0.043410226    0.022821035    0.002281364
     10        7          -0.030442614   -0.014690257   -0.001497592
     11        6           0.042734321    0.026249162    0.002221885
     12        7          -0.029367859   -0.019673045   -0.001565180
     13        6          -0.000581523   -0.043820176   -0.004528074
     14        7           0.001749958    0.031501390    0.003317558
     15        6           0.001743936   -0.056431502   -0.004589654
     16        7          -0.002614075    0.040359642    0.003149271
     17        6          -0.044052902    0.027039188    0.002270714
     18        7           0.030305161   -0.020237415   -0.001622691
 -------------------------------------------------------------------
 Cartesian Forces:  Max     0.079931158 RMS     0.029731327

 GradGradGradGradGradGradGradGradGradGradGradGradGradGradGradGradGradGrad
 Berny optimization.
 Search for a local minimum.
 Step number   1 out of a maximum of    2
 All quantities printed in internal units (Hartrees-Bohrs-Radians)
 Second derivative matrix not updated -- first step.
 ITU=  0
     Eigenvalues ---    0.00048   0.00056   0.00074   0.00297   0.00297
     Eigenvalues ---    0.00687   0.01468   0.01612   0.01922   0.01924
     Eigenvalues ---    0.03436   0.03605   0.05070   0.05080   0.09653
     Eigenvalues ---    0.12737   0.20703   0.20716   0.24595   0.25085
     Eigenvalues ---    0.25091   0.25483   0.28415   0.28469   0.48270
     Eigenvalues ---    0.67724   0.69212   0.78972   0.79193   0.79627
     Eigenvalues ---    1.02466   1.02555   1.11345   1.40362   1.40508
     Eigenvalues ---    1.80109   2.61598   2.64089   2.64235   2.70337
     Eigenvalues ---    2.72357   2.72434  36.48466  40.05753  41.85125
     Eigenvalues ---   50.44139  52.74969  64.73785
 Quadratic step=7.008D-01 exceeds max=3.000D-01 adjusted using Lamda=-6.259D-02.
 Angle between NR and scaled steps=  32.68 degrees.
 Angle between quadratic step and forces=  57.44 degrees.
 Linear search not attempted -- first point.
 B after Tr=     0.000015   -0.000038    0.000073
         Rot=    1.000000    0.000002    0.000002    0.000001 Ang=   0.00 deg.
 Variable       Old X    -DE/DX   Delta X   Delta X   Delta X     New X
                                 (Linear)    (Quad)   (Total)
    X1      -16.89133  -0.00063   0.00000  -0.00160  -0.00160 -16.89293
    Y1       -1.71642   0.04329   0.00000  -0.00126  -0.00125  -1.71767
    Z1        2.10170   0.00312   0.00000  -0.00122  -0.00122   2.10048
    X2      -16.88942  -0.00150   0.00000  -0.00152  -0.00152 -16.89094
    Y2        1.05807  -0.07993   0.00000  -0.12968  -0.12967   0.92840
    Z2        2.37631  -0.00761   0.00000  -0.01184  -0.01185   2.36446
    X3      -15.56249   0.03680   0.00000  -0.00270  -0.00270 -15.56519
    Y3       -4.00467  -0.02217   0.00000  -0.00042  -0.00042  -4.00508
    Z3        1.85065  -0.00112   0.00000   0.00114   0.00115   1.85180
    X4      -13.14790  -0.07036   0.00000  -0.11367  -0.11368 -13.26158
    Y4       -5.38729   0.03765   0.00000   0.06343   0.06343  -5.32386
    Z4        1.69588   0.00342   0.00000   0.00438   0.00441   1.70029
    X5      -18.22403  -0.03709   0.00000   0.00115   0.00114 -18.22289
    Y5       -4.00836  -0.02129   0.00000   0.00096   0.00097  -4.00738
    Z5        1.87954  -0.00176   0.00000   0.00053   0.00053   1.88006
    X6      -20.64440   0.07149   0.00000   0.11557   0.11557 -20.52883
    Y6       -5.39596   0.04178   0.00000   0.06603   0.06605  -5.32992
    Z6        1.76517   0.00350   0.00000   0.00607   0.00607   1.77124
    X7      -19.21671  -0.04150   0.00000  -0.01045  -0.01044 -19.22715
    Y7        2.30591   0.02220   0.00000  -0.06358  -0.06356   2.24234
    Z7        2.53143   0.00294   0.00000  -0.00574  -0.00577   2.52566
    X8      -21.20202   0.02990   0.00000   0.03794   0.03795 -21.16406
    Y8        3.29473  -0.01464   0.00000  -0.02477  -0.02475   3.26998
    Z8        2.65943  -0.00193   0.00000  -0.00358  -0.00363   2.65580
    X9      -14.56572   0.04341   0.00000   0.01089   0.01090 -14.55483
    Y9        2.30849   0.02282   0.00000  -0.06396  -0.06395   2.24454
    Z9        2.49962   0.00228   0.00000  -0.00611  -0.00611   2.49351
   X10      -12.57681  -0.03044   0.00000  -0.03819  -0.03818 -12.61499
   Y10        3.29465  -0.01469   0.00000  -0.02450  -0.02450   3.27014
   Z10        2.59930  -0.00150   0.00000  -0.00331  -0.00331   2.59598
   X11      -10.89932   0.04273   0.00000  -0.04997  -0.04997 -10.94929
   Y11       -4.00332   0.02625   0.00000   0.03966   0.03966  -3.96366
   Z11        1.79779   0.00222   0.00000   0.00393   0.00396   1.80176
   X12       -9.04471  -0.02937   0.00000  -0.04201  -0.04201  -9.08672
   Y12       -2.78020  -0.01967   0.00000  -0.02227  -0.02228  -2.80248
   Z12        1.89052  -0.00157   0.00000  -0.00002   0.00002   1.89054
   X13      -13.22456  -0.00058   0.00000  -0.05901  -0.05902 -13.28358
   Y13       -8.01910  -0.04382   0.00000   0.02500   0.02500  -7.99410
   Z13        1.40676  -0.00453   0.00000   0.00238   0.00242   1.40917
   X14      -13.34666   0.00175   0.00000  -0.00345  -0.00346 -13.35012
   Y14      -10.22263   0.03150   0.00000   0.04598   0.04598 -10.17665
   Z14        1.16559   0.00332   0.00000   0.00638   0.00643   1.17203
   X15      -20.57003   0.00174   0.00000   0.06186   0.06185 -20.50819
   Y15       -8.02547  -0.05643   0.00000   0.02053   0.02054  -8.00493
   Z15        1.55048  -0.00459   0.00000   0.00221   0.00222   1.55270
   X16      -20.43728  -0.00261   0.00000   0.00281   0.00280 -20.43448
   Y16      -10.24302   0.04036   0.00000   0.04938   0.04939 -10.19363
   Z16        1.37705   0.00315   0.00000   0.00319   0.00321   1.38026
   X17      -22.88892  -0.04405   0.00000   0.05000   0.05000 -22.83892
   Y17       -4.00813   0.02704   0.00000   0.04119   0.04121  -3.96692
   Z17        1.88419   0.00227   0.00000   0.00325   0.00323   1.88742
   X18      -24.74332   0.03031   0.00000   0.04239   0.04239 -24.70093
   Y18       -2.78347  -0.02024   0.00000  -0.02187  -0.02184  -2.80531
   Z18        1.98296  -0.00162   0.00000  -0.00172  -0.00176   1.98120
         Item               Value     Threshold  Converged?
 Maximum Force            0.079931     0.000450     NO 
 RMS     Force            0.029731     0.000300     NO 
 Maximum Displacement     0.129665     0.001800     NO 
 RMS     Displacement     0.040843     0.001200     NO 
 Predicted change in Energy=-2.046273D-02
 GradGradGradGradGradGradGradGradGradGradGradGradGradGradGradGradGradGrad

 Unable to Open any file for archive entry.
 1\1\GINC-X10P1N4\Force\UwB97XD\def2SVP\C12N6(1-,2)\MAYUMIAO\11-Oct-202
 4\0\\# wb97xd def2svp scrf=(smd,solvent=acetonitrile) g09default scf=(
 xqc,maxcycle=64) force guess=read nosymm\\Title Card\\-1,2\C,-8.938508
 78,-0.90829144,1.11216956\C,-8.93749625,0.55990626,1.25749088\C,-8.235
 31622,-2.11917872,0.97932268\C,-6.95756944,-2.85083111,0.8974217\C,-9.
 64374267,-2.12113117,0.9946081\C,-10.92454356,-2.85541993,0.93408883\C
 ,-10.16904431,1.22023463,1.33957275\N,-11.21962447,1.74349755,1.407309
 64\C,-7.70784839,1.22159862,1.32274344\N,-6.65536153,1.74345165,1.3754
 8837\C,-5.76766952,-2.11846548,0.951352\N,-4.78625573,-1.47121767,1.00
 04183\C,-6.9981355,-4.24352361,0.74442363\N,-7.06274776,-5.40958286,0.
 61680585\C,-10.88519277,-4.24689734,0.82047751\N,-10.8149443,-5.420370
 49,0.72870309\C,-12.11229379,-2.1210103,0.99707183\N,-13.09360012,-1.4
 7294671,1.04933679\\Version=ES64L-G16RevC.01\HF=-784.8357494\S2=0.7981
 37\S2-1=0.\S2A=0.751921\RMSD=6.259e-09\RMSF=2.973e-02\Dipole=0.0017227
 ,0.000193,-0.0023894\Quadrupole=-203.7024283,71.7710585,131.9313697,-5
 4.8163855,33.3737951,0.9595309\PG=C01 [X(C12N6)]\\@
 The archive entry for this job was punched.


 UNDER MOST GREENE GRASSE LY MOST GREATE SNAKES.
 -- PROVERBS AND REASONS OF THE YEAR 1585
           AS REPRINTED IN PAISLEY MAGAZINE 1828.
 Job cpu time:       0 days  0 hours 14 minutes 34.3 seconds.
 Elapsed time:       0 days  0 hours  0 minutes 32.6 seconds.
 File lengths (MBytes):  RWF=    174 Int=      0 D2E=      0 Chk=      9 Scr=      1
 Normal termination of Gaussian 16 at Fri Oct 11 15:37:40 2024.
