 Entering Gaussian System, Link 0=g16
 Input=JOBS/12_A.gjf
 Output=JOBS/12_A.log
 Initial command:
 /data/app/gaussian/C01-avx2//g16/l1.exe "/tmp/Gau-2525924.inp" -scrdir="/tmp/"
 Entering Link 1 = /data/app/gaussian/C01-avx2//g16/l1.exe PID=   2525925.
  
 Copyright (c) 1988-2019, Gaussian, Inc.  All Rights Reserved.
  
 This is part of the Gaussian(R) 16 program.  It is based on
 the Gaussian(R) 09 system (copyright 2009, Gaussian, Inc.),
 the Gaussian(R) 03 system (copyright 2003, Gaussian, Inc.),
 the Gaussian(R) 98 system (copyright 1998, Gaussian, Inc.),
 the Gaussian(R) 94 system (copyright 1995, Gaussian, Inc.),
 the Gaussian 92(TM) system (copyright 1992, Gaussian, Inc.),
 the Gaussian 90(TM) system (copyright 1990, Gaussian, Inc.),
 the Gaussian 88(TM) system (copyright 1988, Gaussian, Inc.),
 the Gaussian 86(TM) system (copyright 1986, Carnegie Mellon
 University), and the Gaussian 82(TM) system (copyright 1983,
 Carnegie Mellon University). Gaussian is a federally registered
 trademark of Gaussian, Inc.
  
 This software contains proprietary and confidential information,
 including trade secrets, belonging to Gaussian, Inc.
  
 This software is provided under written license and may be
 used, copied, transmitted, or stored only in accord with that
 written license.
  
 The following legend is applicable only to US Government
 contracts under FAR:
  
                    RESTRICTED RIGHTS LEGEND
  
 Use, reproduction and disclosure by the US Government is
 subject to restrictions as set forth in subparagraphs (a)
 and (c) of the Commercial Computer Software - Restricted
 Rights clause in FAR 52.227-19.
  
 Gaussian, Inc.
 340 Quinnipiac St., Bldg. 40, Wallingford CT 06492
  
  
 ---------------------------------------------------------------
 Warning -- This program may not be used in any manner that
 competes with the business of Gaussian, Inc. or will provide
 assistance to any competitor of Gaussian, Inc.  The licensee
 of this program is prohibited from giving any competitor of
 Gaussian, Inc. access to this program.  By using this program,
 the user acknowledges that Gaussian, Inc. is engaged in the
 business of creating and licensing software in the field of
 computational chemistry and represents and warrants to the
 licensee that it is not a competitor of Gaussian, Inc. and that
 it will not use this program in any manner prohibited above.
 ---------------------------------------------------------------
  

 Cite this work as:
 Gaussian 16, Revision C.01,
 M. J. Frisch, G. W. Trucks, H. B. Schlegel, G. E. Scuseria, 
 M. A. Robb, J. R. Cheeseman, G. Scalmani, V. Barone, 
 G. A. Petersson, H. Nakatsuji, X. Li, M. Caricato, A. V. Marenich, 
 J. Bloino, B. G. Janesko, R. Gomperts, B. Mennucci, H. P. Hratchian, 
 J. V. Ortiz, A. F. Izmaylov, J. L. Sonnenberg, D. Williams-Young, 
 F. Ding, F. Lipparini, F. Egidi, J. Goings, B. Peng, A. Petrone, 
 T. Henderson, D. Ranasinghe, V. G. Zakrzewski, J. Gao, N. Rega, 
 G. Zheng, W. Liang, M. Hada, M. Ehara, K. Toyota, R. Fukuda, 
 J. Hasegawa, M. Ishida, T. Nakajima, Y. Honda, O. Kitao, H. Nakai, 
 T. Vreven, K. Throssell, J. A. Montgomery, Jr., J. E. Peralta, 
 F. Ogliaro, M. J. Bearpark, J. J. Heyd, E. N. Brothers, K. N. Kudin, 
 V. N. Staroverov, T. A. Keith, R. Kobayashi, J. Normand, 
 K. Raghavachari, A. P. Rendell, J. C. Burant, S. S. Iyengar, 
 J. Tomasi, M. Cossi, J. M. Millam, M. Klene, C. Adamo, R. Cammi, 
 J. W. Ochterski, R. L. Martin, K. Morokuma, O. Farkas, 
 J. B. Foresman, and D. J. Fox, Gaussian, Inc., Wallingford CT, 2019.
 
 ******************************************
 Gaussian 16:  ES64L-G16RevC.01  3-Jul-2019
                11-Oct-2024 
 ******************************************
 %chk=a.chk
 %nprocshared=28
 Will use up to   28 processors via shared memory.
 %mem=48gb
 ----------------------------------------------------------------------
 # wb97xd def2svp scrf=(smd,solvent=acetonitrile) g09default scf=(xqc,m
 axcycle=64) force guess=read nosymm
 ----------------------------------------------------------------------
 1/10=7,30=1,38=1,158=3,167=1/1,3;
 2/12=2,15=1,17=6,18=5,40=1/2;
 3/5=43,7=101,11=2,25=1,27=10,30=1,70=32201,71=1,72=2,74=-58,75=-4,116=-2,158=3/1,2,3;
 4/5=1,60=-1/1;
 5/5=2,7=64,8=3,13=1,38=6,53=2,87=10/2,8;
 6/7=2,8=2,9=2,10=2,28=1,87=10/1;
 7/29=1,30=1,87=10/1,2,3,16;
 1/10=7,30=1,158=3,167=1/3;
 99//99;
 Using 2006 physical constants.
 ----------
 Title Card
 ----------
 Symbolic Z-matrix:
 Charge = -2 Multiplicity = 1
 6                    -8.94003  -0.90465   1.11186 
 6                    -8.94197   0.52916   1.25477 
 6                    -8.23177  -2.12281   0.97915 
 6                    -6.98124  -2.83763   0.8978 
 6                    -9.64297  -2.12023   0.99478 
 6                    -10.90253  -2.8391    0.93549 
 6                    -10.16352   1.20719   1.33839 
 7                    -11.20699   1.73857   1.40583 
 6                    -7.68664   1.22153   1.3226 
 7                    -6.69002   1.72807   1.37349 
 6                    -5.7919   -2.12324   0.95146 
 7                    -4.78869  -1.47456   1.00089 
 6                    -7.00467  -4.21872   0.74779 
 7                    -7.06185  -5.40674   0.61876 
 6                    -10.87441  -4.25241   0.81907 
 7                    -10.81973  -5.39335   0.72926 
 6                    -12.09792  -2.11915   0.99766 
 7                    -13.08304  -1.48211   1.04975 
 

 GradGradGradGradGradGradGradGradGradGradGradGradGradGradGradGradGradGrad
 Berny optimization.
 Initialization pass.
 Trust Radius=3.00D-01 FncErr=1.00D-07 GrdErr=1.00D-07 EigMax=2.50D+02 EigMin=1.00D-04
 Number of steps in this run=      2 maximum allowed number of steps=      2.
 GradGradGradGradGradGradGradGradGradGradGradGradGradGradGradGradGradGrad

                          Input orientation:                          
 ---------------------------------------------------------------------
 Center     Atomic      Atomic             Coordinates (Angstroms)
 Number     Number       Type             X           Y           Z
 ---------------------------------------------------------------------
      1          6           0       -8.940035   -0.904652    1.111856
      2          6           0       -8.941974    0.529156    1.254770
      3          6           0       -8.231765   -2.122811    0.979152
      4          6           0       -6.981236   -2.837627    0.897798
      5          6           0       -9.642972   -2.120232    0.994785
      6          6           0      -10.902531   -2.839102    0.935494
      7          6           0      -10.163518    1.207194    1.338390
      8          7           0      -11.206993    1.738570    1.405833
      9          6           0       -7.686637    1.221535    1.322599
     10          7           0       -6.690020    1.728072    1.373491
     11          6           0       -5.791901   -2.123238    0.951463
     12          7           0       -4.788685   -1.474556    1.000893
     13          6           0       -7.004673   -4.218721    0.747788
     14          7           0       -7.061850   -5.406744    0.618760
     15          6           0      -10.874415   -4.252408    0.819070
     16          7           0      -10.819727   -5.393349    0.729257
     17          6           0      -12.097923   -2.119155    0.997655
     18          7           0      -13.083040   -1.482110    1.049750
 ---------------------------------------------------------------------
                    Distance matrix (angstroms):
                    1          2          3          4          5
     1  C    0.000000
     2  C    1.440915   0.000000
     3  C    1.415333   2.759220   0.000000
     4  C    2.760273   3.912437   1.442708   0.000000
     5  C    1.409064   2.752862   1.411295   2.758424   0.000000
     6  C    2.761266   3.910356   2.765496   3.921477   1.451475
     7  C    2.451148   1.399606   3.866478   5.165426   3.385380
     8  N    3.494588   2.572121   4.893291   6.249536   4.183954
     9  C    2.477113   1.435222   3.405843   4.141841   3.886144
    10  N    3.473076   2.553976   4.166747   4.599642   4.865469
    11  C    3.379560   4.129184   2.440021   1.388434   3.851316
    12  N    4.191755   4.618347   3.503642   2.583770   4.897043
    13  C    3.855025   5.152912   2.439697   1.389414   3.380130
    14  N    4.903014   6.258937   3.504682   2.585483   4.195800
    15  C    3.877502   5.175666   3.397706   4.143024   2.468502
    16  N    4.881395   6.235237   4.178087   4.614556   3.488345
    17  C    3.385309   4.127914   3.866204   5.167849   2.454953
    18  N    4.183516   4.608215   4.893909   6.252402   3.499184
                    6          7          8          9         10
     6  C    0.000000
     7  C    4.132914   0.000000
     8  N    4.611832   1.172923   0.000000
     9  C    5.194285   2.476973   3.559095   0.000000
    10  N    6.228657   3.512511   4.517101   1.119113   0.000000
    11  C    5.160548   5.509313   6.666576   3.862030   3.977100
    12  N    6.264613   6.016188   7.189077   3.971212   3.743092
    13  C    4.139067   6.306161   7.319960   5.512881   5.987893
    14  N    4.630759   7.340462   8.298023   6.694761   7.184252
    15  C    1.418372   5.530129   6.028823   6.354488   7.320020
    16  N    2.563897   6.660992   7.174398   7.343364   8.257370
    17  C    1.396836   3.862981   3.980252   5.543035   6.647392
    18  N    2.570817   3.979858   3.744212   6.041962   7.161059
                   11         12         13         14         15
    11  C    0.000000
    12  N    1.195690   0.000000
    13  C    2.429680   3.536255   0.000000
    14  N    3.536223   4.558004   1.196376   0.000000
    15  C    5.512063   6.692206   3.870545   3.988516   0.000000
    16  N    6.001835   7.197512   3.991833   3.759524   1.145776
    17  C    6.306193   7.337607   5.514690   6.026096   2.465691
    18  N    7.319932   8.294502   6.672837   7.200224   3.550463
                   16         17         18
    16  N    0.000000
    17  C    3.525077   0.000000
    18  N    4.530242   1.174306   0.000000
 Symmetry turned off by external request.
 Stoichiometry    C12N6(2-)
 Framework group  C1[X(C12N6)]
 Deg. of freedom    48
 Full point group                 C1      NOp   1
 Rotational constants (GHZ):           0.4240479           0.4235798           0.2119236
 Standard basis: def2SVP (5D, 7F)
   252 basis functions,   450 primitive gaussians,   270 cartesian basis functions
    58 alpha electrons       58 beta electrons
       nuclear repulsion energy       959.0234120076 Hartrees.
 NAtoms=   18 NActive=   18 NUniq=   18 SFac= 1.00D+00 NAtFMM=   60 NAOKFM=F Big=F
 Integral buffers will be    131072 words long.
 Raffenetti 2 integral format.
 Two-electron integral symmetry is turned off.
 Nuclear repulsion after empirical dispersion term =      959.0119012869 Hartrees.
 Force PCM accuracy= 1.00D-10.
 ------------------------------------------------------------------------------
 Polarizable Continuum Model (PCM)
 =================================
 Model                : PCM (using non-symmetric T matrix).
 Atomic radii         : SMD-Coulomb.
 Polarization charges : Total charges.
 Charge compensation  : None.
 Solution method      : On-the-fly selection.
 Cavity type          : VdW (van der Waals Surface) (Alpha=1.000).
 Cavity algorithm     : GePol (No added spheres)
                        Default sphere list used, NSphG=   18.
                        Lebedev-Laikov grids with approx.  5.0 points / Ang**2.
                        Smoothing algorithm: York/Karplus (Gamma=1.0000).
                        Polarization charges: spherical gaussians, with
                                              point-specific exponents (IZeta= 3).
                        Self-potential: point-specific (ISelfS= 7).
                        Self-field    : sphere-specific E.n sum rule (ISelfD= 2).
 1st derivatives      : Analytical E(r).r(x)/FMM algorithm (CHGder, D1EAlg=3).
                        Cavity 1st derivative terms included.
 Solvent              : Acetonitrile, Eps=  35.688000 Eps(inf)=   1.806874
 ------------------------------------------------------------------------------
 Spheres list:
 ISph  on   Nord     Re0    Alpha      Xe            Ye            Ze
    1   C      1    1.8500  1.000     -8.940035     -0.904652      1.111856
    2   C      2    1.8500  1.000     -8.941974      0.529156      1.254770
    3   C      3    1.8500  1.000     -8.231765     -2.122811      0.979152
    4   C      4    1.8500  1.000     -6.981236     -2.837627      0.897798
    5   C      5    1.8500  1.000     -9.642972     -2.120232      0.994785
    6   C      6    1.8500  1.000    -10.902531     -2.839102      0.935494
    7   C      7    1.8500  1.000    -10.163518      1.207194      1.338390
    8   N      8    1.8900  1.000    -11.206993      1.738570      1.405833
    9   C      9    1.8500  1.000     -7.686637      1.221535      1.322599
   10   N     10    1.8900  1.000     -6.690020      1.728072      1.373491
   11   C     11    1.8500  1.000     -5.791901     -2.123238      0.951463
   12   N     12    1.8900  1.000     -4.788685     -1.474556      1.000893
   13   C     13    1.8500  1.000     -7.004673     -4.218721      0.747788
   14   N     14    1.8900  1.000     -7.061850     -5.406744      0.618760
   15   C     15    1.8500  1.000    -10.874415     -4.252408      0.819070
   16   N     16    1.8900  1.000    -10.819727     -5.393349      0.729257
   17   C     17    1.8500  1.000    -12.097923     -2.119155      0.997655
   18   N     18    1.8900  1.000    -13.083040     -1.482110      1.049750
 ------------------------------------------------------------------------------
 ------------------------------------------------------------------------------
 Atomic radii for non-electrostatic terms: SMD-CDS.
 ------------------------------------------------------------------------------
 Nuclear repulsion after PCM non-electrostatic terms =      959.0204627182 Hartrees.
 One-electron integrals computed using PRISM.
   1 Symmetry operations used in ECPInt.
 ECPInt:  NShTT=    5886 NPrTT=   23670 LenC2=    5404 LenP2D=   14923.
 LDataN:  DoStor=T MaxTD1= 4 Len=   56
 NBasis=   252 RedAO= T EigKep=  2.12D-04  NBF=   252
 NBsUse=   252 1.00D-06 EigRej= -1.00D+00 NBFU=   252
 Initial guess from the checkpoint file:  "a.chk"
 B after Tr=    -0.000172   -0.000062    0.001047
         Rot=    1.000000    0.000017    0.000034   -0.000002 Ang=   0.00 deg.
 Requested convergence on RMS density matrix=1.00D-08 within  64 cycles.
 Requested convergence on MAX density matrix=1.00D-06.
 Requested convergence on             energy=1.00D-06.
 No special actions if energy rises.
 Inv3:  Mode=1 IEnd=    19339563.
 Iteration    1 A*A^-1 deviation from unit magnitude is 3.22D-15 for    617.
 Iteration    1 A*A^-1 deviation from orthogonality  is 3.08D-15 for   1022     29.
 Iteration    1 A^-1*A deviation from unit magnitude is 3.44D-15 for   2003.
 Iteration    1 A^-1*A deviation from orthogonality  is 1.83D-07 for   1580   1521.
 Iteration    2 A*A^-1 deviation from unit magnitude is 3.77D-15 for    213.
 Iteration    2 A*A^-1 deviation from orthogonality  is 4.96D-15 for   1713    286.
 Iteration    2 A^-1*A deviation from unit magnitude is 1.55D-15 for   1281.
 Iteration    2 A^-1*A deviation from orthogonality  is 7.73D-16 for    830    444.
 Error on total polarization charges =  0.02184
 SCF Done:  E(RwB97XD) =  -785.016563299     A.U. after   14 cycles
            NFock= 14  Conv=0.60D-08     -V/T= 2.0102
 SMD-CDS (non-electrostatic) energy       (kcal/mol) =       5.37
 (included in total energy above)
 QCSCF skips out because SCF is already converged.

 **********************************************************************

            Population analysis using the SCF Density.

 **********************************************************************

 Alpha  occ. eigenvalues --  -14.43330 -14.43315 -14.42804 -14.42799 -14.42507
 Alpha  occ. eigenvalues --  -14.42142 -10.36332 -10.36277 -10.36256 -10.34298
 Alpha  occ. eigenvalues --  -10.34281 -10.33791 -10.33790 -10.33450 -10.33245
 Alpha  occ. eigenvalues --  -10.33130 -10.33043 -10.33037  -1.02336  -1.00287
 Alpha  occ. eigenvalues --   -0.99293  -0.98118  -0.97874  -0.97748  -0.96672
 Alpha  occ. eigenvalues --   -0.88149  -0.87750  -0.86057  -0.68678  -0.68478
 Alpha  occ. eigenvalues --   -0.66042  -0.65431  -0.64943  -0.63261  -0.51931
 Alpha  occ. eigenvalues --   -0.47888  -0.47708  -0.46972  -0.46818  -0.45202
 Alpha  occ. eigenvalues --   -0.45083  -0.45051  -0.44535  -0.44462  -0.44324
 Alpha  occ. eigenvalues --   -0.43955  -0.42867  -0.42588  -0.42234  -0.42195
 Alpha  occ. eigenvalues --   -0.41720  -0.41344  -0.40263  -0.39966  -0.39524
 Alpha  occ. eigenvalues --   -0.31142  -0.30918  -0.24209
 Alpha virt. eigenvalues --    0.06406   0.06798   0.08013   0.08933   0.09444
 Alpha virt. eigenvalues --    0.11470   0.12560   0.12791   0.13487   0.13948
 Alpha virt. eigenvalues --    0.15076   0.16080   0.21170   0.21409   0.24425
 Alpha virt. eigenvalues --    0.27795   0.27982   0.28105   0.28287   0.28333
 Alpha virt. eigenvalues --    0.29470   0.33360   0.33663   0.34061   0.34570
 Alpha virt. eigenvalues --    0.34773   0.36012   0.48099   0.48331   0.50615
 Alpha virt. eigenvalues --    0.50747   0.54324   0.54828   0.54929   0.55536
 Alpha virt. eigenvalues --    0.57065   0.57802   0.58211   0.59240   0.61045
 Alpha virt. eigenvalues --    0.61607   0.61931   0.62219   0.62782   0.64828
 Alpha virt. eigenvalues --    0.65370   0.68799   0.71304   0.71485   0.72216
 Alpha virt. eigenvalues --    0.72333   0.73912   0.74063   0.74556   0.74777
 Alpha virt. eigenvalues --    0.74853   0.75026   0.75826   0.76122   0.77357
 Alpha virt. eigenvalues --    0.81127   0.81283   0.81331   0.83181   0.83349
 Alpha virt. eigenvalues --    0.87699   0.87917   0.88126   0.88740   0.93902
 Alpha virt. eigenvalues --    0.94450   0.94960   0.95076   0.96235   0.96491
 Alpha virt. eigenvalues --    0.97574   1.00468   1.00566   1.01034   1.01580
 Alpha virt. eigenvalues --    1.02137   1.02235   1.03603   1.03910   1.04777
 Alpha virt. eigenvalues --    1.06831   1.07197   1.09178   1.10658   1.11400
 Alpha virt. eigenvalues --    1.14225   1.18477   1.18959   1.19118   1.20440
 Alpha virt. eigenvalues --    1.22112   1.23837   1.25199   1.27312   1.34170
 Alpha virt. eigenvalues --    1.37614   1.38250   1.41767   1.41872   1.44777
 Alpha virt. eigenvalues --    1.46379   1.46927   1.47268   1.49047   1.55452
 Alpha virt. eigenvalues --    1.60807   1.67804   1.69981   1.70419   1.70829
 Alpha virt. eigenvalues --    1.71215   1.71551   1.77970   1.78451   1.78655
 Alpha virt. eigenvalues --    1.79079   1.79921   1.81027   1.82191   1.82222
 Alpha virt. eigenvalues --    1.84037   1.84166   1.87111   1.92871   1.94684
 Alpha virt. eigenvalues --    1.95244   1.99871   2.02686   2.02982   2.05873
 Alpha virt. eigenvalues --    2.06861   2.07931   2.11150   2.17423   2.18114
 Alpha virt. eigenvalues --    2.20910   2.21169   2.24235   2.24510   2.25822
 Alpha virt. eigenvalues --    2.26272   2.28744   2.30114   2.34895   2.35210
 Alpha virt. eigenvalues --    2.35939   2.36076   2.36274   2.37064   2.37626
 Alpha virt. eigenvalues --    2.37739   2.37981   2.38661   2.38731   2.38928
 Alpha virt. eigenvalues --    2.40174   2.40800   2.54975   2.60738   2.61038
 Alpha virt. eigenvalues --    2.67797   2.68123   2.93398   2.94905   2.95143
 Alpha virt. eigenvalues --    2.98298   3.00228   3.01206   3.01499   3.02950
 Alpha virt. eigenvalues --    3.06262   3.06903   3.07877   3.09014   3.13343
 Alpha virt. eigenvalues --    3.16724   3.17976   3.23070   3.25076   3.30985
 Alpha virt. eigenvalues --    3.40079   3.41220   3.42878   3.55675   3.59767
 Alpha virt. eigenvalues --    3.60047   3.62696   3.67030   3.74329
          Condensed to atoms (all electrons):
               1          2          3          4          5          6
     1  C    4.930777   0.481659   0.317348  -0.082812   0.317375  -0.079814
     2  C    0.481659   5.486572  -0.085492  -0.004218  -0.084117  -0.003975
     3  C    0.317348  -0.085492   4.931213   0.467118   0.322496  -0.081527
     4  C   -0.082812  -0.004218   0.467118   5.507720  -0.083806  -0.004054
     5  C    0.317375  -0.084117   0.322496  -0.083806   4.944184   0.472804
     6  C   -0.079814  -0.003975  -0.081527  -0.004054   0.472804   5.489056
     7  C    0.012715   0.393551   0.006884  -0.000342  -0.021641   0.002159
     8  N   -0.000485  -0.047978  -0.000011  -0.000001  -0.000452   0.000150
     9  C    0.007131   0.383221  -0.019210   0.001956   0.007007  -0.000302
    10  N   -0.000751  -0.043502  -0.000512   0.000154  -0.000009  -0.000001
    11  C   -0.023546   0.002200   0.012320   0.378239   0.007709  -0.000347
    12  N   -0.000483   0.000148  -0.000518  -0.049873   0.000005  -0.000001
    13  C    0.007574  -0.000352   0.012361   0.376699  -0.023569   0.002235
    14  N    0.000002  -0.000001  -0.000547  -0.049813  -0.000462   0.000147
    15  C    0.007264  -0.000332  -0.020581   0.002050   0.009184   0.383370
    16  N   -0.000007  -0.000001  -0.000465   0.000145  -0.000621  -0.045394
    17  C   -0.021893   0.002170   0.007257  -0.000344   0.012365   0.389833
    18  N   -0.000440   0.000140  -0.000005  -0.000001  -0.000493  -0.048534
               7          8          9         10         11         12
     1  C    0.012715  -0.000485   0.007131  -0.000751  -0.023546  -0.000483
     2  C    0.393551  -0.047978   0.383221  -0.043502   0.002200   0.000148
     3  C    0.006884  -0.000011  -0.019210  -0.000512   0.012320  -0.000518
     4  C   -0.000342  -0.000001   0.001956   0.000154   0.378239  -0.049873
     5  C   -0.021641  -0.000452   0.007007  -0.000009   0.007709   0.000005
     6  C    0.002159   0.000150  -0.000302  -0.000001  -0.000347  -0.000001
     7  C    4.852140   0.910707  -0.046701   0.002148   0.000114   0.000002
     8  N    0.910707   6.197334   0.002072   0.000065   0.000000   0.000000
     9  C   -0.046701   0.002072   4.827472   0.974779  -0.000125   0.000604
    10  N    0.002148   0.000065   0.974779   6.059771  -0.000141  -0.000879
    11  C    0.000114   0.000000  -0.000125  -0.000141   4.870821   0.886932
    12  N    0.000002   0.000000   0.000604  -0.000879   0.886932   6.247193
    13  C   -0.000012  -0.000000   0.000101   0.000003  -0.049161   0.003172
    14  N   -0.000000  -0.000000   0.000000   0.000000   0.003155   0.000083
    15  C    0.000102   0.000002  -0.000010  -0.000000   0.000109   0.000000
    16  N    0.000000   0.000000  -0.000000  -0.000000   0.000003   0.000000
    17  C   -0.000196   0.000186   0.000095   0.000000  -0.000012  -0.000000
    18  N    0.000199  -0.000834   0.000002   0.000000  -0.000000  -0.000000
              13         14         15         16         17         18
     1  C    0.007574   0.000002   0.007264  -0.000007  -0.021893  -0.000440
     2  C   -0.000352  -0.000001  -0.000332  -0.000001   0.002170   0.000140
     3  C    0.012361  -0.000547  -0.020581  -0.000465   0.007257  -0.000005
     4  C    0.376699  -0.049813   0.002050   0.000145  -0.000344  -0.000001
     5  C   -0.023569  -0.000462   0.009184  -0.000621   0.012365  -0.000493
     6  C    0.002235   0.000147   0.383370  -0.045394   0.389833  -0.048534
     7  C   -0.000012  -0.000000   0.000102   0.000000  -0.000196   0.000199
     8  N   -0.000000  -0.000000   0.000002   0.000000   0.000186  -0.000834
     9  C    0.000101   0.000000  -0.000010  -0.000000   0.000095   0.000002
    10  N    0.000003   0.000000  -0.000000  -0.000000   0.000000   0.000000
    11  C   -0.049161   0.003155   0.000109   0.000003  -0.000012  -0.000000
    12  N    0.003172   0.000083   0.000000   0.000000  -0.000000  -0.000000
    13  C    4.872662   0.887318  -0.000205  -0.000038   0.000114   0.000000
    14  N    0.887318   6.247329   0.000438  -0.000827   0.000002   0.000000
    15  C   -0.000205   0.000438   4.846924   0.944424  -0.049712   0.002341
    16  N   -0.000038  -0.000827   0.944424   6.121157   0.002439   0.000072
    17  C    0.000114   0.000002  -0.049712   0.002439   4.856706   0.909619
    18  N    0.000000   0.000000   0.002341   0.000072   0.909619   6.198852
 Mulliken charges:
               1
     1  C    0.128385
     2  C   -0.479693
     3  C    0.131870
     4  C   -0.458818
     5  C    0.122041
     6  C   -0.475804
     7  C   -0.111831
     8  N   -0.060755
     9  C   -0.138091
    10  N    0.008875
    11  C   -0.088270
    12  N   -0.086386
    13  C   -0.088902
    14  N   -0.086825
    15  C   -0.125366
    16  N   -0.020886
    17  C   -0.108629
    18  N   -0.060916
 Sum of Mulliken charges =  -2.00000
 Mulliken charges with hydrogens summed into heavy atoms:
               1
     1  C    0.128385
     2  C   -0.479693
     3  C    0.131870
     4  C   -0.458818
     5  C    0.122041
     6  C   -0.475804
     7  C   -0.111831
     8  N   -0.060755
     9  C   -0.138091
    10  N    0.008875
    11  C   -0.088270
    12  N   -0.086386
    13  C   -0.088902
    14  N   -0.086825
    15  C   -0.125366
    16  N   -0.020886
    17  C   -0.108629
    18  N   -0.060916
 Electronic spatial extent (au):  <R**2>=          39397.6279
 Charge=             -2.0000 electrons
 Dipole moment (field-independent basis, Debye):
    X=             86.0538    Y=             16.7408    Z=             -9.8633  Tot=             88.2202
 Quadrupole moment (field-independent basis, Debye-Ang):
   XX=           -972.9264   YY=           -228.0185   ZZ=           -113.7638
   XY=           -148.1507   XZ=             89.4084   YZ=              7.6227
 Traceless Quadrupole moment (field-independent basis, Debye-Ang):
   XX=           -534.6902   YY=            210.2178   ZZ=            324.4724
   XY=           -148.1507   XZ=             89.4084   YZ=              7.6227
 Octapole moment (field-independent basis, Debye-Ang**2):
  XXX=          12323.8016  YYY=           1153.3452  ZZZ=           -330.2075  XYY=           2034.1854
  XXY=           1585.1983  XXZ=          -1023.9742  XZZ=           1019.2991  YZZ=            176.7383
  YYZ=           -195.5307  XYZ=            -68.9166
 Hexadecapole moment (field-independent basis, Debye-Ang**3):
 XXXX=        -163496.5730 YYYY=          -8799.0976 ZZZZ=           -805.4307 XXXY=         -18940.2430
 XXXZ=          13097.9889 YYYX=         -10276.6979 YYYZ=            771.3318 ZZZX=           2971.5005
 ZZZY=            381.2838 XXYY=         -20060.1718 XXZZ=          -9933.0705 YYZZ=          -1044.4215
 XXYZ=            814.7930 YYXZ=           1763.9412 ZZXY=          -1578.8968
 N-N= 9.590204627182D+02 E-N=-3.771370157323D+03  KE= 7.771193025460D+02
   1 Symmetry operations used in ECPInt.
 ECPInt:  NShTT=    5886 NPrTT=   23670 LenC2=    5404 LenP2D=   14923.
 LDataN:  DoStor=T MaxTD1= 5 Len=  102
 D1PCM: PCM CHGder 1st derivatives, ID1Alg=3 FixD1E=F DoIter=F DoCFld=F I1PDM=0.
 Calling FoFJK, ICntrl=      2127 FMM=F ISym2X=0 I1Cent= 0 IOpClX= 0 NMat=1 NMatS=1 NMatT=0.
 -------------------------------------------------------------------
 Center     Atomic                   Forces (Hartrees/Bohr)
 Number     Number              X              Y              Z
 -------------------------------------------------------------------
      1        6           0.003911707   -0.009335436   -0.001821720
      2        6           0.018105142   -0.028051642   -0.002554200
      3        6          -0.017650057    0.010514205    0.002207249
      4        6          -0.037487749    0.020533994    0.001959508
      5        6           0.006229831   -0.000050752   -0.000100542
      6        6           0.039562584    0.008851908    0.000740762
      7        6          -0.022914383    0.012535530    0.001662245
      8        7           0.015628764   -0.007427273   -0.000893243
      9        6          -0.118216524   -0.060742635   -0.006112798
     10        7           0.106868628    0.054981959    0.005553144
     11        6           0.070812803    0.044802891    0.003565527
     12        7          -0.053698222   -0.035177327   -0.002762383
     13        6          -0.003075624   -0.083993310   -0.009001370
     14        7           0.003367337    0.065149263    0.006862526
     15        6          -0.003228746    0.048249771    0.003879751
     16        7           0.002031140   -0.045505856   -0.003515833
     17        6          -0.026931567    0.015806650    0.001311822
     18        7           0.016684936   -0.011141939   -0.000980446
 -------------------------------------------------------------------
 Cartesian Forces:  Max     0.118216524 RMS     0.035161590

 GradGradGradGradGradGradGradGradGradGradGradGradGradGradGradGradGradGrad
 Berny optimization.
 Search for a local minimum.
 Step number   1 out of a maximum of    2
 All quantities printed in internal units (Hartrees-Bohrs-Radians)
 Second derivative matrix not updated -- first step.
 ITU=  0
     Eigenvalues ---    0.00067   0.00077   0.00096   0.00298   0.00299
     Eigenvalues ---    0.00690   0.01495   0.01642   0.01949   0.01959
     Eigenvalues ---    0.03521   0.03691   0.05106   0.05225   0.09929
     Eigenvalues ---    0.14387   0.20734   0.21345   0.24683   0.24823
     Eigenvalues ---    0.25375   0.25764   0.28987   0.29321   0.48164
     Eigenvalues ---    0.71443   0.73779   0.78241   0.79087   0.80623
     Eigenvalues ---    1.02910   1.03793   1.11610   1.44005   1.45761
     Eigenvalues ---    1.84576   2.44405   2.54252   2.69985   2.71354
     Eigenvalues ---    3.03417   3.42561  27.84156  36.41934  37.96501
     Eigenvalues ---   39.74816  50.98901  52.35793
 Quadratic step=4.225D-01 exceeds max=3.000D-01 adjusted using Lamda=-5.357D-03.
 Angle between NR and scaled steps=  28.74 degrees.
 Angle between quadratic step and forces=  66.42 degrees.
 Linear search not attempted -- first point.
 B after Tr=     0.000167   -0.000154    0.000122
         Rot=    1.000000    0.000003    0.000004    0.000005 Ang=   0.00 deg.
 Variable       Old X    -DE/DX   Delta X   Delta X   Delta X     New X
                                 (Linear)    (Quad)   (Total)
    X1      -16.89422   0.00391   0.00000  -0.00099  -0.00086 -16.89508
    Y1       -1.70954  -0.00934   0.00000  -0.02600  -0.02597  -1.73552
    Z1        2.10110  -0.00182   0.00000  -0.00299  -0.00300   2.09810
    X2      -16.89788   0.01811   0.00000  -0.00160  -0.00145 -16.89933
    Y2        0.99996  -0.02805   0.00000  -0.09418  -0.09415   0.90581
    Z2        2.37117  -0.00255   0.00000  -0.00779  -0.00781   2.36336
    X3      -15.55578  -0.01765   0.00000  -0.03347  -0.03336 -15.58914
    Y3       -4.01153   0.01051   0.00000   0.01777   0.01779  -3.99374
    Z3        1.85033   0.00221   0.00000   0.00265   0.00267   1.85300
    X4      -13.19262  -0.03749   0.00000  -0.08098  -0.08088 -13.27350
    Y4       -5.36234   0.02053   0.00000   0.04399   0.04398  -5.31836
    Z4        1.69659   0.00196   0.00000   0.00172   0.00177   1.69836
    X5      -18.22258   0.00623   0.00000   0.01966   0.01977 -18.20280
    Y5       -4.00666  -0.00005   0.00000   0.01113   0.01117  -3.99549
    Z5        1.87987  -0.00010   0.00000   0.00185   0.00185   1.88172
    X6      -20.60280   0.03956   0.00000   0.08995   0.09005 -20.51275
    Y6       -5.36513   0.00885   0.00000   0.04967   0.04973  -5.31539
    Z6        1.76783   0.00074   0.00000   0.00568   0.00566   1.77349
    X7      -19.20627  -0.02291   0.00000  -0.00923  -0.00906 -19.21532
    Y7        2.28127   0.01254   0.00000  -0.06684  -0.06679   2.21448
    Z7        2.52919   0.00166   0.00000  -0.00305  -0.00310   2.52609
    X8      -21.17815   0.01563   0.00000   0.01722   0.01740 -21.16075
    Y8        3.28542  -0.00743   0.00000  -0.04687  -0.04679   3.23863
    Z8        2.65664  -0.00089   0.00000  -0.00007  -0.00014   2.65650
    X9      -14.52564  -0.11822   0.00000  -0.03551  -0.03534 -14.56098
    Y9        2.30837  -0.06074   0.00000  -0.09598  -0.09597   2.21239
    Z9        2.49935  -0.00611   0.00000  -0.00931  -0.00932   2.49003
   X10      -12.64231   0.10687   0.00000   0.01996   0.02014 -12.62216
   Y10        3.26558   0.05498   0.00000  -0.03813  -0.03814   3.22744
   Z10        2.59552   0.00555   0.00000  -0.00516  -0.00516   2.59037
   X11      -10.94511   0.07081   0.00000  -0.03693  -0.03682 -10.98193
   Y11       -4.01234   0.04480   0.00000   0.05201   0.05198  -3.96036
   Z11        1.79801   0.00357   0.00000   0.00665   0.00670   1.80471
   X12       -9.04930  -0.05370   0.00000  -0.07317  -0.07305  -9.12235
   Y12       -2.78651  -0.03518   0.00000  -0.00200  -0.00205  -2.78856
   Z12        1.89141  -0.00276   0.00000   0.00617   0.00624   1.89765
   X13      -13.23691  -0.00308   0.00000  -0.06752  -0.06745 -13.30436
   Y13       -7.97223  -0.08399   0.00000   0.00374   0.00373  -7.96849
   Z13        1.41311  -0.00900   0.00000  -0.00677  -0.00671   1.40640
   X14      -13.34496   0.00337   0.00000  -0.04260  -0.04254 -13.38751
   Y14      -10.21727   0.06515   0.00000   0.06385   0.06384 -10.15343
   Z14        1.16929   0.00686   0.00000  -0.00382  -0.00375   1.16554
   X15      -20.54967  -0.00323   0.00000   0.07160   0.07167 -20.47799
   Y15       -8.03589   0.04825   0.00000   0.05414   0.05420  -7.98168
   Z15        1.54782   0.00388   0.00000   0.01508   0.01508   1.56290
   X16      -20.44632   0.00203   0.00000   0.05067   0.05072 -20.39560
   Y16      -10.19195  -0.04551   0.00000   0.01943   0.01949 -10.17246
   Z16        1.37810  -0.00352   0.00000   0.01874   0.01876   1.39685
   X17      -22.86176  -0.02693   0.00000   0.05643   0.05654 -22.80522
   Y17       -4.00462   0.01581   0.00000   0.04344   0.04353  -3.96109
   Z17        1.88530   0.00131   0.00000  -0.00462  -0.00466   1.88063
   X18      -24.72336   0.01668   0.00000   0.05438   0.05451 -24.66885
   Y18       -2.80078  -0.01114   0.00000   0.01032   0.01043  -2.79035
   Z18        1.98374  -0.00098   0.00000  -0.01503  -0.01509   1.96865
         Item               Value     Threshold  Converged?
 Maximum Force            0.118217     0.000450     NO 
 RMS     Force            0.035162     0.000300     NO 
 Maximum Displacement     0.095974     0.001800     NO 
 RMS     Displacement     0.040860     0.001200     NO 
 Predicted change in Energy=-1.575738D-02
 GradGradGradGradGradGradGradGradGradGradGradGradGradGradGradGradGradGrad

 Unable to Open any file for archive entry.
 1\1\GINC-X10P1N4\Force\RwB97XD\def2SVP\C12N6(2-)\MAYUMIAO\11-Oct-2024\
 0\\# wb97xd def2svp scrf=(smd,solvent=acetonitrile) g09default scf=(xq
 c,maxcycle=64) force guess=read nosymm\\Title Card\\-2,1\C,-8.9400348,
 -0.90465214,1.11185574\C,-8.9419745,0.52915647,1.25477007\C,-8.2317651
 6,-2.12281084,0.97915221\C,-6.98123563,-2.83762734,0.89779759\C,-9.642
 97169,-2.12023219,0.99478496\C,-10.90253102,-2.8391022,0.93549409\C,-1
 0.16351844,1.20719414,1.33839031\N,-11.20699291,1.73856952,1.40583272\
 C,-7.68663696,1.22153489,1.32259913\N,-6.69002034,1.72807236,1.3734912
 9\C,-5.79190089,-2.12323845,0.95146342\N,-4.78868528,-1.47455617,1.000
 89265\C,-7.00467315,-4.21872057,0.74778794\N,-7.06185034,-5.40674383,0
 .61876035\C,-10.87441489,-4.25240813,0.81906975\N,-10.81972652,-5.3933
 4889,0.72925735\C,-12.09792302,-2.11915491,0.99765529\N,-13.08303957,-
 1.48210983,1.04975013\\Version=ES64L-G16RevC.01\HF=-785.0165633\RMSD=6
 .036e-09\RMSF=3.516e-02\Dipole=0.0695381,0.1045497,0.0100319\Quadrupol
 e=-397.5290776,156.2917846,241.237293,-110.1464463,66.4729575,5.667291
 5\PG=C01 [X(C12N6)]\\@
 The archive entry for this job was punched.


 YOU CAN WIPE THE SLATE CLEAN, BUT YOU'LL STILL
 HAVE TO EAT A LITTLE CHALK DUST.
 Job cpu time:       0 days  0 hours 10 minutes 22.1 seconds.
 Elapsed time:       0 days  0 hours  0 minutes 23.6 seconds.
 File lengths (MBytes):  RWF=    148 Int=      0 D2E=      0 Chk=      8 Scr=      1
 Normal termination of Gaussian 16 at Fri Oct 11 15:39:00 2024.
