 Entering Gaussian System, Link 0=g16
 Input=JOBS/14_A.gjf
 Output=JOBS/14_A.log
 Initial command:
 /data/app/gaussian/C01-avx2//g16/l1.exe "/tmp/Gau-2527775.inp" -scrdir="/tmp/"
 Entering Link 1 = /data/app/gaussian/C01-avx2//g16/l1.exe PID=   2527776.
  
 Copyright (c) 1988-2019, Gaussian, Inc.  All Rights Reserved.
  
 This is part of the Gaussian(R) 16 program.  It is based on
 the Gaussian(R) 09 system (copyright 2009, Gaussian, Inc.),
 the Gaussian(R) 03 system (copyright 2003, Gaussian, Inc.),
 the Gaussian(R) 98 system (copyright 1998, Gaussian, Inc.),
 the Gaussian(R) 94 system (copyright 1995, Gaussian, Inc.),
 the Gaussian 92(TM) system (copyright 1992, Gaussian, Inc.),
 the Gaussian 90(TM) system (copyright 1990, Gaussian, Inc.),
 the Gaussian 88(TM) system (copyright 1988, Gaussian, Inc.),
 the Gaussian 86(TM) system (copyright 1986, Carnegie Mellon
 University), and the Gaussian 82(TM) system (copyright 1983,
 Carnegie Mellon University). Gaussian is a federally registered
 trademark of Gaussian, Inc.
  
 This software contains proprietary and confidential information,
 including trade secrets, belonging to Gaussian, Inc.
  
 This software is provided under written license and may be
 used, copied, transmitted, or stored only in accord with that
 written license.
  
 The following legend is applicable only to US Government
 contracts under FAR:
  
                    RESTRICTED RIGHTS LEGEND
  
 Use, reproduction and disclosure by the US Government is
 subject to restrictions as set forth in subparagraphs (a)
 and (c) of the Commercial Computer Software - Restricted
 Rights clause in FAR 52.227-19.
  
 Gaussian, Inc.
 340 Quinnipiac St., Bldg. 40, Wallingford CT 06492
  
  
 ---------------------------------------------------------------
 Warning -- This program may not be used in any manner that
 competes with the business of Gaussian, Inc. or will provide
 assistance to any competitor of Gaussian, Inc.  The licensee
 of this program is prohibited from giving any competitor of
 Gaussian, Inc. access to this program.  By using this program,
 the user acknowledges that Gaussian, Inc. is engaged in the
 business of creating and licensing software in the field of
 computational chemistry and represents and warrants to the
 licensee that it is not a competitor of Gaussian, Inc. and that
 it will not use this program in any manner prohibited above.
 ---------------------------------------------------------------
  

 Cite this work as:
 Gaussian 16, Revision C.01,
 M. J. Frisch, G. W. Trucks, H. B. Schlegel, G. E. Scuseria, 
 M. A. Robb, J. R. Cheeseman, G. Scalmani, V. Barone, 
 G. A. Petersson, H. Nakatsuji, X. Li, M. Caricato, A. V. Marenich, 
 J. Bloino, B. G. Janesko, R. Gomperts, B. Mennucci, H. P. Hratchian, 
 J. V. Ortiz, A. F. Izmaylov, J. L. Sonnenberg, D. Williams-Young, 
 F. Ding, F. Lipparini, F. Egidi, J. Goings, B. Peng, A. Petrone, 
 T. Henderson, D. Ranasinghe, V. G. Zakrzewski, J. Gao, N. Rega, 
 G. Zheng, W. Liang, M. Hada, M. Ehara, K. Toyota, R. Fukuda, 
 J. Hasegawa, M. Ishida, T. Nakajima, Y. Honda, O. Kitao, H. Nakai, 
 T. Vreven, K. Throssell, J. A. Montgomery, Jr., J. E. Peralta, 
 F. Ogliaro, M. J. Bearpark, J. J. Heyd, E. N. Brothers, K. N. Kudin, 
 V. N. Staroverov, T. A. Keith, R. Kobayashi, J. Normand, 
 K. Raghavachari, A. P. Rendell, J. C. Burant, S. S. Iyengar, 
 J. Tomasi, M. Cossi, J. M. Millam, M. Klene, C. Adamo, R. Cammi, 
 J. W. Ochterski, R. L. Martin, K. Morokuma, O. Farkas, 
 J. B. Foresman, and D. J. Fox, Gaussian, Inc., Wallingford CT, 2019.
 
 ******************************************
 Gaussian 16:  ES64L-G16RevC.01  3-Jul-2019
                11-Oct-2024 
 ******************************************
 %chk=a.chk
 %nprocshared=28
 Will use up to   28 processors via shared memory.
 %mem=48gb
 ----------------------------------------------------------------------
 # wb97xd def2svp scrf=(smd,solvent=acetonitrile) g09default scf=(xqc,m
 axcycle=64) force guess=read nosymm
 ----------------------------------------------------------------------
 1/10=7,30=1,38=1,158=3,167=1/1,3;
 2/12=2,15=1,17=6,18=5,40=1/2;
 3/5=43,7=101,11=2,25=1,27=10,30=1,70=32201,71=1,72=2,74=-58,75=-4,116=-2,158=3/1,2,3;
 4/5=1,60=-1/1;
 5/5=2,7=64,8=3,13=1,38=6,53=2,87=10/2,8;
 6/7=2,8=2,9=2,10=2,28=1,87=10/1;
 7/29=1,30=1,87=10/1,2,3,16;
 1/10=7,30=1,158=3,167=1/3;
 99//99;
 Using 2006 physical constants.
 ----------
 Title Card
 ----------
 Symbolic Z-matrix:
 Charge = -2 Multiplicity = 1
 6                    -8.94326  -0.86575   1.11335 
 6                    -8.94693   0.48669   1.2512 
 6                    -8.19002  -2.1466    0.97879 
 6                    -7.01883  -2.81667   0.89964 
 6                    -9.68682  -2.14166   0.99312 
 6                    -10.85781  -2.81176   0.9379 
 6                    -10.18548   1.23346   1.34123 
 7                    -11.21983   1.74467   1.40786 
 6                    -7.65768   1.25435   1.32581 
 7                    -6.67927   1.73008   1.37463 
 6                    -5.75782  -2.1179    0.95193 
 7                    -4.77928  -1.4688    0.99993 
 6                    -6.99439  -4.2531    0.74372 
 7                    -7.06158  -5.41531   0.61491 
 6                    -10.89028  -4.28603   0.81825 
 7                    -10.81451  -5.40747   0.73099 
 6                    -12.13128  -2.11537   0.99699 
 7                    -13.09481  -1.473     1.04856 
 

 GradGradGradGradGradGradGradGradGradGradGradGradGradGradGradGradGradGrad
 Berny optimization.
 Initialization pass.
 Trust Radius=3.00D-01 FncErr=1.00D-07 GrdErr=1.00D-07 EigMax=2.50D+02 EigMin=1.00D-04
 Number of steps in this run=      2 maximum allowed number of steps=      2.
 GradGradGradGradGradGradGradGradGradGradGradGradGradGradGradGradGradGrad

                          Input orientation:                          
 ---------------------------------------------------------------------
 Center     Atomic      Atomic             Coordinates (Angstroms)
 Number     Number       Type             X           Y           Z
 ---------------------------------------------------------------------
      1          6           0       -8.943262   -0.865748    1.113354
      2          6           0       -8.946931    0.486692    1.251197
      3          6           0       -8.190024   -2.146604    0.978794
      4          6           0       -7.018833   -2.816668    0.899640
      5          6           0       -9.686817   -2.141665    0.993121
      6          6           0      -10.857811   -2.811761    0.937900
      7          6           0      -10.185475    1.233457    1.341228
      8          7           0      -11.219833    1.744673    1.407856
      9          6           0       -7.657683    1.254352    1.325806
     10          7           0       -6.679269    1.730082    1.374626
     11          6           0       -5.757819   -2.117903    0.951928
     12          7           0       -4.779282   -1.468801    0.999932
     13          6           0       -6.994387   -4.253101    0.743720
     14          7           0       -7.061576   -5.415312    0.614910
     15          6           0      -10.890283   -4.286029    0.818249
     16          7           0      -10.814512   -5.407471    0.730994
     17          6           0      -12.131284   -2.115375    0.996992
     18          7           0      -13.094813   -1.472996    1.048558
 ---------------------------------------------------------------------
                    Distance matrix (angstroms):
                    1          2          3          4          5
     1  C    0.000000
     2  C    1.359452   0.000000
     3  C    1.492000   2.753427   0.000000
     4  C    2.748670   3.841008   1.351643   0.000000
     5  C    1.481652   2.742680   1.496870   2.753635   0.000000
     6  C    2.735553   3.824841   2.749763   3.839172   1.350298
     7  C    2.449833   1.449053   3.941826   5.160052   3.429473
     8  N    3.476177   2.602525   4.950341   6.221938   4.198305
     9  C    2.488509   1.502341   3.459813   4.142820   3.970012
    10  N    3.454311   2.589121   4.179445   4.584087   4.917450
    11  C    3.426514   4.128428   2.432522   1.442623   3.929285
    12  N    4.208951   4.610465   3.477502   2.615797   4.953452
    13  C    3.925418   5.151272   2.433544   1.445078   3.430677
    14  N    4.948507   6.228409   3.477105   2.614546   4.213277
    15  C    3.946682   5.171356   3.448813   4.141711   2.465199
    16  N    4.926968   6.204806   4.193160   4.598682   3.464952
    17  C    3.426163   4.120130   3.941426   5.161245   2.444612
    18  N    4.196228   4.591989   4.951320   6.224562   3.473418
                    6          7          8          9         10
     6  C    0.000000
     7  C    4.120497   0.000000
     8  N    4.594890   1.155715   0.000000
     9  C    5.188889   2.527926   3.596673   0.000000
    10  N    6.187026   3.541361   4.540709   1.089035   0.000000
    11  C    5.146994   5.566624   6.705293   3.888621   3.979288
    12  N    6.225424   6.053561   7.209266   3.975796   3.739412
    13  C    4.128100   6.375137   7.366733   5.577709   6.024602
    14  N    4.614564   7.381897   8.317767   6.733880   7.195831
    15  C    1.479472   5.588827   6.068410   6.434527   7.364495
    16  N    2.604302   6.698506   7.195525   7.395894   8.274005
    17  C    1.452646   3.888360   3.987420   5.610373   6.682411
    18  N    2.609352   3.984318   3.741395   6.089144   7.178108
                   11         12         13         14         15
    11  C    0.000000
    12  N    1.175233   0.000000
    13  C    2.476191   3.567165   0.000000
    14  N    3.561779   4.575157   1.171256   0.000000
    15  C    5.573224   6.731576   3.896747   3.996951   0.000000
    16  N    6.036572   7.211757   3.990749   3.754738   1.127380
    17  C    6.373625   7.380380   5.569716   6.061148   2.506746
    18  N    7.365916   8.315674   6.710969   7.220101   3.581362
                   16         17         18
    16  N    0.000000
    17  C    3.555635   0.000000
    18  N    4.558586   1.159179   0.000000
 Symmetry turned off by external request.
 Stoichiometry    C12N6(2-)
 Framework group  C1[X(C12N6)]
 Deg. of freedom    48
 Full point group                 C1      NOp   1
 Rotational constants (GHZ):           0.4208682           0.4202354           0.2102946
 Standard basis: def2SVP (5D, 7F)
   252 basis functions,   450 primitive gaussians,   270 cartesian basis functions
    58 alpha electrons       58 beta electrons
       nuclear repulsion energy       955.7288403716 Hartrees.
 NAtoms=   18 NActive=   18 NUniq=   18 SFac= 1.00D+00 NAtFMM=   60 NAOKFM=F Big=F
 Integral buffers will be    131072 words long.
 Raffenetti 2 integral format.
 Two-electron integral symmetry is turned off.
 Nuclear repulsion after empirical dispersion term =      955.7173859085 Hartrees.
 Force PCM accuracy= 1.00D-10.
 ------------------------------------------------------------------------------
 Polarizable Continuum Model (PCM)
 =================================
 Model                : PCM (using non-symmetric T matrix).
 Atomic radii         : SMD-Coulomb.
 Polarization charges : Total charges.
 Charge compensation  : None.
 Solution method      : On-the-fly selection.
 Cavity type          : VdW (van der Waals Surface) (Alpha=1.000).
 Cavity algorithm     : GePol (No added spheres)
                        Default sphere list used, NSphG=   18.
                        Lebedev-Laikov grids with approx.  5.0 points / Ang**2.
                        Smoothing algorithm: York/Karplus (Gamma=1.0000).
                        Polarization charges: spherical gaussians, with
                                              point-specific exponents (IZeta= 3).
                        Self-potential: point-specific (ISelfS= 7).
                        Self-field    : sphere-specific E.n sum rule (ISelfD= 2).
 1st derivatives      : Analytical E(r).r(x)/FMM algorithm (CHGder, D1EAlg=3).
                        Cavity 1st derivative terms included.
 Solvent              : Acetonitrile, Eps=  35.688000 Eps(inf)=   1.806874
 ------------------------------------------------------------------------------
 Spheres list:
 ISph  on   Nord     Re0    Alpha      Xe            Ye            Ze
    1   C      1    1.8500  1.000     -8.943262     -0.865748      1.113354
    2   C      2    1.8500  1.000     -8.946931      0.486692      1.251197
    3   C      3    1.8500  1.000     -8.190024     -2.146604      0.978794
    4   C      4    1.8500  1.000     -7.018833     -2.816668      0.899640
    5   C      5    1.8500  1.000     -9.686817     -2.141665      0.993121
    6   C      6    1.8500  1.000    -10.857811     -2.811761      0.937900
    7   C      7    1.8500  1.000    -10.185475      1.233457      1.341228
    8   N      8    1.8900  1.000    -11.219833      1.744673      1.407856
    9   C      9    1.8500  1.000     -7.657683      1.254352      1.325806
   10   N     10    1.8900  1.000     -6.679269      1.730082      1.374626
   11   C     11    1.8500  1.000     -5.757819     -2.117903      0.951928
   12   N     12    1.8900  1.000     -4.779282     -1.468801      0.999932
   13   C     13    1.8500  1.000     -6.994387     -4.253101      0.743720
   14   N     14    1.8900  1.000     -7.061576     -5.415312      0.614910
   15   C     15    1.8500  1.000    -10.890283     -4.286029      0.818249
   16   N     16    1.8900  1.000    -10.814512     -5.407471      0.730994
   17   C     17    1.8500  1.000    -12.131284     -2.115375      0.996992
   18   N     18    1.8900  1.000    -13.094813     -1.472996      1.048558
 ------------------------------------------------------------------------------
 ------------------------------------------------------------------------------
 Atomic radii for non-electrostatic terms: SMD-CDS.
 ------------------------------------------------------------------------------
 Nuclear repulsion after PCM non-electrostatic terms =      955.7260360584 Hartrees.
 One-electron integrals computed using PRISM.
   1 Symmetry operations used in ECPInt.
 ECPInt:  NShTT=    5886 NPrTT=   23670 LenC2=    5391 LenP2D=   14875.
 LDataN:  DoStor=T MaxTD1= 4 Len=   56
 NBasis=   252 RedAO= T EigKep=  2.94D-04  NBF=   252
 NBsUse=   252 1.00D-06 EigRej= -1.00D+00 NBFU=   252
 Initial guess from the checkpoint file:  "a.chk"
 B after Tr=    -0.000137    0.000218   -0.000881
         Rot=    1.000000   -0.000007   -0.000027   -0.000005 Ang=  -0.00 deg.
 Requested convergence on RMS density matrix=1.00D-08 within  64 cycles.
 Requested convergence on MAX density matrix=1.00D-06.
 Requested convergence on             energy=1.00D-06.
 No special actions if energy rises.
 Inv3:  Mode=1 IEnd=    19461627.
 Iteration    1 A*A^-1 deviation from unit magnitude is 3.11D-15 for   2020.
 Iteration    1 A*A^-1 deviation from orthogonality  is 3.91D-15 for   1660    942.
 Iteration    1 A^-1*A deviation from unit magnitude is 3.33D-15 for    614.
 Iteration    1 A^-1*A deviation from orthogonality  is 6.09D-11 for   1832   1680.
 Error on total polarization charges =  0.02201
 SCF Done:  E(RwB97XD) =  -784.976658278     A.U. after   14 cycles
            NFock= 14  Conv=0.44D-08     -V/T= 2.0098
 SMD-CDS (non-electrostatic) energy       (kcal/mol) =       5.43
 (included in total energy above)
 QCSCF skips out because SCF is already converged.

 **********************************************************************

            Population analysis using the SCF Density.

 **********************************************************************

 Alpha  occ. eigenvalues --  -14.43288 -14.43228 -14.42944 -14.42736 -14.42537
 Alpha  occ. eigenvalues --  -14.41762 -10.35246 -10.35207 -10.35192 -10.34232
 Alpha  occ. eigenvalues --  -10.34163 -10.33890 -10.33714 -10.33432 -10.33406
 Alpha  occ. eigenvalues --  -10.33364 -10.33185 -10.32643  -1.01522  -1.00278
 Alpha  occ. eigenvalues --   -0.99201  -0.98790  -0.98607  -0.97760  -0.96788
 Alpha  occ. eigenvalues --   -0.88298  -0.87766  -0.84033  -0.68357  -0.68118
 Alpha  occ. eigenvalues --   -0.64729  -0.64137  -0.63574  -0.63072  -0.50861
 Alpha  occ. eigenvalues --   -0.47767  -0.47535  -0.46107  -0.45961  -0.45346
 Alpha  occ. eigenvalues --   -0.45247  -0.45173  -0.44730  -0.44412  -0.43832
 Alpha  occ. eigenvalues --   -0.43670  -0.43375  -0.42889  -0.42483  -0.42326
 Alpha  occ. eigenvalues --   -0.42081  -0.42026  -0.40879  -0.40605  -0.39979
 Alpha  occ. eigenvalues --   -0.32517  -0.32384  -0.22155
 Alpha virt. eigenvalues --    0.06823   0.07433   0.08945   0.09707   0.10167
 Alpha virt. eigenvalues --    0.11521   0.12364   0.13528   0.14033   0.14564
 Alpha virt. eigenvalues --    0.15299   0.16157   0.20432   0.20746   0.23516
 Alpha virt. eigenvalues --    0.25170   0.27485   0.27783   0.27966   0.28330
 Alpha virt. eigenvalues --    0.29928   0.31825   0.32375   0.32966   0.33546
 Alpha virt. eigenvalues --    0.34548   0.36059   0.48612   0.49175   0.51509
 Alpha virt. eigenvalues --    0.51603   0.52343   0.53492   0.54812   0.54936
 Alpha virt. eigenvalues --    0.55559   0.56830   0.56929   0.58975   0.61200
 Alpha virt. eigenvalues --    0.61800   0.61941   0.62990   0.63379   0.64839
 Alpha virt. eigenvalues --    0.66135   0.70966   0.71167   0.72279   0.73032
 Alpha virt. eigenvalues --    0.73330   0.73771   0.73926   0.74573   0.74722
 Alpha virt. eigenvalues --    0.75210   0.75267   0.75945   0.76608   0.77162
 Alpha virt. eigenvalues --    0.80122   0.80580   0.81707   0.83301   0.83491
 Alpha virt. eigenvalues --    0.85936   0.86301   0.88219   0.89275   0.94055
 Alpha virt. eigenvalues --    0.94796   0.94980   0.95060   0.95744   0.96296
 Alpha virt. eigenvalues --    0.97431   1.00062   1.00332   1.01355   1.01709
 Alpha virt. eigenvalues --    1.03222   1.03501   1.03813   1.04008   1.05050
 Alpha virt. eigenvalues --    1.06917   1.07479   1.09040   1.11151   1.12160
 Alpha virt. eigenvalues --    1.14724   1.18753   1.18830   1.18940   1.21141
 Alpha virt. eigenvalues --    1.23662   1.24180   1.26234   1.27985   1.33431
 Alpha virt. eigenvalues --    1.35899   1.35961   1.42413   1.42521   1.45459
 Alpha virt. eigenvalues --    1.45918   1.46976   1.48158   1.49110   1.58677
 Alpha virt. eigenvalues --    1.62284   1.68625   1.69809   1.70347   1.70884
 Alpha virt. eigenvalues --    1.71082   1.71277   1.76644   1.76790   1.79231
 Alpha virt. eigenvalues --    1.79366   1.80358   1.80479   1.80830   1.81884
 Alpha virt. eigenvalues --    1.82414   1.83658   1.86382   1.94257   1.95058
 Alpha virt. eigenvalues --    1.96936   2.00347   2.00919   2.01521   2.03113
 Alpha virt. eigenvalues --    2.04236   2.04825   2.07069   2.11703   2.12114
 Alpha virt. eigenvalues --    2.14857   2.21576   2.21808   2.25343   2.27190
 Alpha virt. eigenvalues --    2.28603   2.30776   2.31414   2.34862   2.35437
 Alpha virt. eigenvalues --    2.35484   2.36519   2.36691   2.37441   2.37501
 Alpha virt. eigenvalues --    2.37636   2.38327   2.38657   2.38945   2.39847
 Alpha virt. eigenvalues --    2.40278   2.41569   2.58079   2.58560   2.58748
 Alpha virt. eigenvalues --    2.69974   2.70688   2.91578   2.94291   2.96611
 Alpha virt. eigenvalues --    2.97879   3.00991   3.01845   3.03757   3.05098
 Alpha virt. eigenvalues --    3.07747   3.09570   3.09733   3.10775   3.11810
 Alpha virt. eigenvalues --    3.13067   3.16298   3.21621   3.22962   3.31424
 Alpha virt. eigenvalues --    3.40464   3.42026   3.43358   3.51533   3.55123
 Alpha virt. eigenvalues --    3.58462   3.64028   3.70654   3.80542
          Condensed to atoms (all electrons):
               1          2          3          4          5          6
     1  C    4.945470   0.492037   0.325173  -0.109976   0.313283  -0.113700
     2  C    0.492037   5.545161  -0.107703  -0.007354  -0.109162  -0.007371
     3  C    0.325173  -0.107703   4.931829   0.477009   0.324811  -0.110794
     4  C   -0.109976  -0.007354   0.477009   5.561486  -0.109478  -0.007804
     5  C    0.313283  -0.109162   0.324811  -0.109478   4.938461   0.485091
     6  C   -0.113700  -0.007371  -0.110794  -0.007804   0.485091   5.560311
     7  C    0.008110   0.399468   0.005297  -0.000280  -0.017129   0.001181
     8  N   -0.000237  -0.041419   0.000003  -0.000001  -0.000492   0.000075
     9  C    0.003691   0.375434  -0.013604   0.001108   0.005422  -0.000226
    10  N   -0.000816  -0.037678  -0.000518   0.000085   0.000005  -0.000001
    11  C   -0.018279   0.001197   0.006830   0.385674   0.005977  -0.000299
    12  N   -0.000494   0.000059  -0.000380  -0.041742   0.000012  -0.000001
    13  C    0.005885  -0.000282   0.007027   0.385426  -0.018056   0.001220
    14  N    0.000010  -0.000001  -0.000419  -0.041376  -0.000483   0.000063
    15  C    0.005760  -0.000256  -0.015432   0.001107   0.005457   0.380326
    16  N    0.000011  -0.000001  -0.000503   0.000081  -0.000493  -0.038196
    17  C   -0.017535   0.001264   0.005531  -0.000274   0.007438   0.392263
    18  N   -0.000504   0.000080   0.000009  -0.000001  -0.000272  -0.040727
               7          8          9         10         11         12
     1  C    0.008110  -0.000237   0.003691  -0.000816  -0.018279  -0.000494
     2  C    0.399468  -0.041419   0.375434  -0.037678   0.001197   0.000059
     3  C    0.005297   0.000003  -0.013604  -0.000518   0.006830  -0.000380
     4  C   -0.000280  -0.000001   0.001108   0.000085   0.385674  -0.041742
     5  C   -0.017129  -0.000492   0.005422   0.000005   0.005977   0.000012
     6  C    0.001181   0.000075  -0.000226  -0.000001  -0.000299  -0.000001
     7  C    4.833001   0.930869  -0.028033   0.001437   0.000054   0.000001
     8  N    0.930869   6.157793   0.001545   0.000041   0.000000   0.000000
     9  C   -0.028033   0.001545   4.793691   1.012297   0.000482   0.000679
    10  N    0.001437   0.000041   1.012297   6.006539  -0.000036  -0.000854
    11  C    0.000054   0.000000   0.000482  -0.000036   4.848552   0.910616
    12  N    0.000001   0.000000   0.000679  -0.000854   0.910616   6.195061
    13  C   -0.000004  -0.000000   0.000044   0.000001  -0.029662   0.002116
    14  N   -0.000000   0.000000   0.000000   0.000000   0.002099   0.000053
    15  C    0.000046   0.000001  -0.000003  -0.000000   0.000050   0.000000
    16  N    0.000000   0.000000  -0.000000  -0.000000   0.000001   0.000000
    17  C    0.000312   0.000247   0.000039   0.000000  -0.000004  -0.000000
    18  N    0.000276  -0.000814   0.000001   0.000000  -0.000000   0.000000
              13         14         15         16         17         18
     1  C    0.005885   0.000010   0.005760   0.000011  -0.017535  -0.000504
     2  C   -0.000282  -0.000001  -0.000256  -0.000001   0.001264   0.000080
     3  C    0.007027  -0.000419  -0.015432  -0.000503   0.005531   0.000009
     4  C    0.385426  -0.041376   0.001107   0.000081  -0.000274  -0.000001
     5  C   -0.018056  -0.000483   0.005457  -0.000493   0.007438  -0.000272
     6  C    0.001220   0.000063   0.380326  -0.038196   0.392263  -0.040727
     7  C   -0.000004  -0.000000   0.000046   0.000000   0.000312   0.000276
     8  N   -0.000000   0.000000   0.000001   0.000000   0.000247  -0.000814
     9  C    0.000044   0.000000  -0.000003  -0.000000   0.000039   0.000001
    10  N    0.000001   0.000000  -0.000000  -0.000000   0.000000   0.000000
    11  C   -0.029662   0.002099   0.000050   0.000001  -0.000004  -0.000000
    12  N    0.002116   0.000053   0.000000   0.000000  -0.000000   0.000000
    13  C    4.846777   0.915922   0.000348   0.000132   0.000053   0.000000
    14  N    0.915922   6.183644   0.000431  -0.000800   0.000001   0.000000
    15  C    0.000348   0.000431   4.822343   0.966366  -0.028354   0.001673
    16  N    0.000132  -0.000800   0.966366   6.083467   0.001668   0.000044
    17  C    0.000053   0.000001  -0.028354   0.001668   4.838323   0.928169
    18  N    0.000000   0.000000   0.001673   0.000044   0.928169   6.160513
 Mulliken charges:
               1
     1  C    0.162111
     2  C   -0.503473
     3  C    0.165834
     4  C   -0.493691
     5  C    0.169607
     6  C   -0.501409
     7  C   -0.134607
     8  N   -0.047611
     9  C   -0.152564
    10  N    0.019498
    11  C   -0.113251
    12  N   -0.065128
    13  C   -0.116946
    14  N   -0.059143
    15  C   -0.139866
    16  N   -0.011776
    17  C   -0.129140
    18  N   -0.048445
 Sum of Mulliken charges =  -2.00000
 Mulliken charges with hydrogens summed into heavy atoms:
               1
     1  C    0.162111
     2  C   -0.503473
     3  C    0.165834
     4  C   -0.493691
     5  C    0.169607
     6  C   -0.501409
     7  C   -0.134607
     8  N   -0.047611
     9  C   -0.152564
    10  N    0.019498
    11  C   -0.113251
    12  N   -0.065128
    13  C   -0.116946
    14  N   -0.059143
    15  C   -0.139866
    16  N   -0.011776
    17  C   -0.129140
    18  N   -0.048445
 Electronic spatial extent (au):  <R**2>=          39424.1392
 Charge=             -2.0000 electrons
 Dipole moment (field-independent basis, Debye):
    X=             86.0108    Y=             16.5862    Z=             -9.8746  Tot=             88.1503
 Quadrupole moment (field-independent basis, Debye-Ang):
   XX=           -968.3205   YY=           -223.7955   ZZ=           -113.9629
   XY=           -146.4735   XZ=             89.4717   YZ=              7.8448
 Traceless Quadrupole moment (field-independent basis, Debye-Ang):
   XX=           -532.9609   YY=            211.5641   ZZ=            321.3967
   XY=           -146.4735   XZ=             89.4717   YZ=              7.8448
 Octapole moment (field-independent basis, Debye-Ang**2):
  XXX=          12210.4626  YYY=           1132.4139  ZZZ=           -330.8087  XYY=           1996.2182
  XXY=           1559.5065  XXZ=          -1020.3165  XZZ=           1021.1316  YZZ=            177.5664
  YYZ=           -192.5312  XYZ=            -70.5909
 Hexadecapole moment (field-independent basis, Debye-Ang**3):
 XXXX=        -161506.6943 YYYY=          -8701.2778 ZZZZ=           -807.2921 XXXY=         -18540.5451
 XXXZ=          12992.7974 YYYX=         -10086.9375 YYYZ=            755.5862 ZZZX=           2977.4113
 ZZZY=            383.1874 XXYY=         -19694.8999 XXZZ=          -9945.7166 YYZZ=          -1042.2344
 XXYZ=            819.4246 YYXZ=           1737.4210 ZZXY=          -1585.5466
 N-N= 9.557260360584D+02 E-N=-3.765447476624D+03  KE= 7.773491922569D+02
   1 Symmetry operations used in ECPInt.
 ECPInt:  NShTT=    5886 NPrTT=   23670 LenC2=    5391 LenP2D=   14875.
 LDataN:  DoStor=T MaxTD1= 5 Len=  102
 D1PCM: PCM CHGder 1st derivatives, ID1Alg=3 FixD1E=F DoIter=F DoCFld=F I1PDM=0.
 Calling FoFJK, ICntrl=      2127 FMM=F ISym2X=0 I1Cent= 0 IOpClX= 0 NMat=1 NMatS=1 NMatT=0.
 -------------------------------------------------------------------
 Center     Atomic                   Forces (Hartrees/Bohr)
 Number     Number              X              Y              Z
 -------------------------------------------------------------------
      1        6           0.005245931   -0.140851401   -0.014136025
      2        6           0.018605237    0.078386363    0.007994944
      3        6          -0.143452295    0.080964101    0.009521552
      4        6           0.063417919   -0.037601697   -0.004697872
      5        6           0.137200968    0.071701522    0.005829428
      6        6          -0.069698709   -0.051091819   -0.004092158
      7        6           0.037223298   -0.027034297   -0.002938510
      8        7          -0.017246783    0.011404149    0.001354800
      9        6          -0.236136517   -0.127201806   -0.012815516
     10        7           0.196449058    0.099033993    0.010087362
     11        6           0.002256435    0.009870263    0.000835344
     12        7          -0.020126633   -0.016154349   -0.001214819
     13        6          -0.006407333    0.002524048    0.000102172
     14        7           0.003071030    0.017026782    0.001813272
     15        6           0.002004914    0.131295472    0.010335901
     16        7           0.003245352   -0.093268239   -0.007190970
     17        6           0.035077587   -0.012818251   -0.001037135
     18        7          -0.010729458    0.003815165    0.000248230
 -------------------------------------------------------------------
 Cartesian Forces:  Max     0.236136517 RMS     0.067041365

 GradGradGradGradGradGradGradGradGradGradGradGradGradGradGradGradGradGrad
 Berny optimization.
 Search for a local minimum.
 Step number   1 out of a maximum of    2
 All quantities printed in internal units (Hartrees-Bohrs-Radians)
 Second derivative matrix not updated -- first step.
 ITU=  0
     Eigenvalues ---    0.00153   0.00232   0.00241   0.00294   0.00295
     Eigenvalues ---    0.00955   0.01510   0.01636   0.01953   0.01964
     Eigenvalues ---    0.04174   0.04562   0.05139   0.05262   0.10025
     Eigenvalues ---    0.17839   0.18964   0.19787   0.23326   0.24168
     Eigenvalues ---    0.24599   0.25118   0.30350   0.30521   0.43447
     Eigenvalues ---    0.67658   0.67765   0.68916   0.72751   0.73417
     Eigenvalues ---    0.98725   0.99293   1.06017   1.56014   1.58733
     Eigenvalues ---    1.86502   2.19260   2.62196   2.63993   2.68386
     Eigenvalues ---    2.81202   2.86055   3.24527   3.88782   3.94890
     Eigenvalues ---    4.35039   4.52133   5.89893
 Quadratic step=3.909D-01 exceeds max=3.000D-01 adjusted using Lamda=-3.521D-02.
 Angle between NR and scaled steps=  17.21 degrees.
 Angle between quadratic step and forces=  50.56 degrees.
 Linear search not attempted -- first point.
 B after Tr=     0.000143   -0.000206    0.000020
         Rot=    1.000000    0.000001    0.000001    0.000006 Ang=   0.00 deg.
 Variable       Old X    -DE/DX   Delta X   Delta X   Delta X     New X
                                 (Linear)    (Quad)   (Total)
    X1      -16.90032   0.00525   0.00000   0.00852   0.00864 -16.89167
    Y1       -1.63603  -0.14085   0.00000  -0.08899  -0.08899  -1.72502
    Z1        2.10393  -0.01414   0.00000  -0.00853  -0.00854   2.09540
    X2      -16.90725   0.01861   0.00000   0.00756   0.00770 -16.89955
    Y2        0.91972   0.07839   0.00000  -0.01257  -0.01257   0.90715
    Z2        2.36442   0.00799   0.00000  -0.00060  -0.00061   2.36381
    X3      -15.47690  -0.14345   0.00000  -0.09628  -0.09619 -15.57309
    Y3       -4.05649   0.08096   0.00000   0.05757   0.05756  -3.99894
    Z3        1.84965   0.00952   0.00000   0.00664   0.00665   1.85630
    X4      -13.26367   0.06342   0.00000  -0.01191  -0.01183 -13.27550
    Y4       -5.32273  -0.03760   0.00000   0.00704   0.00699  -5.31574
    Z4        1.70007  -0.00470   0.00000  -0.00025  -0.00023   1.69984
    X5      -18.30543   0.13720   0.00000   0.09072   0.09081 -18.21462
    Y5       -4.04716   0.07170   0.00000   0.04714   0.04715  -4.00001
    Z5        1.87673   0.00583   0.00000   0.00418   0.00418   1.88091
    X6      -20.51829  -0.06970   0.00000   0.00923   0.00931 -20.50898
    Y6       -5.31346  -0.05109   0.00000   0.00134   0.00138  -5.31208
    Z6        1.77237  -0.00409   0.00000   0.00055   0.00055   1.77293
    X7      -19.24776   0.03722   0.00000   0.04853   0.04869 -19.19907
    Y7        2.33090  -0.02703   0.00000  -0.05096  -0.05093   2.27996
    Z7        2.53455  -0.00294   0.00000  -0.00457  -0.00459   2.52997
    X8      -21.20241  -0.01725   0.00000   0.04820   0.04838 -21.15403
    Y8        3.29695   0.01140   0.00000  -0.01341  -0.01335   3.28360
    Z8        2.66046   0.00135   0.00000  -0.00172  -0.00174   2.65872
    X9      -14.47092  -0.23614   0.00000  -0.10260  -0.10244 -14.57336
    Y9        2.37038  -0.12720   0.00000  -0.09076  -0.09079   2.27959
    Z9        2.50541  -0.01282   0.00000  -0.00863  -0.00864   2.49677
   X10      -12.62199   0.19645   0.00000  -0.01593  -0.01576 -12.63774
   Y10        3.26938   0.09903   0.00000  -0.00136  -0.00141   3.26797
   Z10        2.59767   0.01009   0.00000  -0.00131  -0.00132   2.59635
   X11      -10.88070   0.00226   0.00000  -0.05019  -0.05010 -10.93080
   Y11       -4.00226   0.00987   0.00000  -0.00234  -0.00241  -4.00467
   Z11        1.79888   0.00084   0.00000   0.00017   0.00018   1.79907
   X12       -9.03153  -0.02013   0.00000  -0.04860  -0.04849  -9.08003
   Y12       -2.77563  -0.01615   0.00000  -0.04059  -0.04069  -2.81632
   Z12        1.88960  -0.00121   0.00000  -0.00150  -0.00149   1.88811
   X13      -13.21748  -0.00641   0.00000  -0.02276  -0.02271 -13.24019
   Y13       -8.03720   0.00252   0.00000   0.04770   0.04766  -7.98954
   Z13        1.40543   0.00010   0.00000   0.00339   0.00341   1.40884
   X14      -13.34445   0.00307   0.00000   0.00763   0.00766 -13.33679
   Y14      -10.23346   0.01703   0.00000   0.05845   0.05840 -10.17505
   Z14        1.16201   0.00181   0.00000   0.00509   0.00512   1.16713
   X15      -20.57965   0.00200   0.00000   0.02802   0.02807 -20.55158
   Y15       -8.09942   0.13130   0.00000   0.09761   0.09765  -8.00177
   Z15        1.54627   0.01034   0.00000   0.00970   0.00971   1.55597
   X16      -20.43647   0.00325   0.00000  -0.00711  -0.00709 -20.44355
   Y16      -10.21864  -0.09327   0.00000   0.03292   0.03296 -10.18568
   Z16        1.38138  -0.00719   0.00000   0.00403   0.00404   1.38542
   X17      -22.92480   0.03508   0.00000   0.06659   0.06668 -22.85813
   Y17       -3.99748  -0.01282   0.00000  -0.01251  -0.01244  -4.00992
   Z17        1.88404  -0.00104   0.00000  -0.00225  -0.00226   1.88178
   X18      -24.74561  -0.01073   0.00000   0.03856   0.03867 -24.70695
   Y18       -2.78356   0.00382   0.00000  -0.03626  -0.03617  -2.81973
   Z18        1.98149   0.00025   0.00000  -0.00442  -0.00443   1.97705
         Item               Value     Threshold  Converged?
 Maximum Force            0.236137     0.000450     NO 
 RMS     Force            0.067041     0.000300     NO 
 Maximum Displacement     0.102439     0.001800     NO 
 RMS     Displacement     0.040836     0.001200     NO 
 Predicted change in Energy=-4.854101D-02
 GradGradGradGradGradGradGradGradGradGradGradGradGradGradGradGradGradGrad

 Unable to Open any file for archive entry.
 1\1\GINC-X10P1N4\Force\RwB97XD\def2SVP\C12N6(2-)\MAYUMIAO\11-Oct-2024\
 0\\# wb97xd def2svp scrf=(smd,solvent=acetonitrile) g09default scf=(xq
 c,maxcycle=64) force guess=read nosymm\\Title Card\\-2,1\C,-8.94326189
 ,-0.86574815,1.11335367\C,-8.94693138,0.48669222,1.251197\C,-8.1900238
 ,-2.14660392,0.97879443\C,-7.01883283,-2.81666811,0.8996404\C,-9.68681
 693,-2.14166481,0.99312072\C,-10.85781096,-2.81176142,0.93790015\C,-10
 .18547533,1.23345651,1.34122806\N,-11.21983301,1.74467271,1.40785569\C
 ,-7.65768322,1.25435248,1.3258063\N,-6.67926904,1.7300823,1.37462581\C
 ,-5.75781925,-2.11790331,0.95192843\N,-4.77928206,-1.46880079,0.999932
 45\C,-6.9943873,-4.25310133,0.74371979\N,-7.06157624,-5.41531212,0.614
 90969\C,-10.89028275,-4.28602907,0.81824856\N,-10.81451158,-5.4074705,
 0.73099363\C,-12.1312843,-2.11537459,0.99699218\N,-13.0948132,-1.47299
 623,1.04855799\\Version=ES64L-G16RevC.01\HF=-784.9766583\RMSD=4.426e-0
 9\RMSF=6.704e-02\Dipole=0.0526669,0.043708,0.0055563\Quadrupole=-396.2
 433791,157.2927681,238.950611,-108.8994446,66.520035,5.8324109\PG=C01 
 [X(C12N6)]\\@
 The archive entry for this job was punched.


 WE LEARN WISDOM FROM FAILURE MUCH MORE THAN FROM SUCCESS.
 WE DISCOVER WHAT WILL DO BY FINDING OUT WHAT WILL NOT DO...
 AND HE WHO NEVER MADE A MISTAKE NEVER MADE A DISCOVERY
 Job cpu time:       0 days  0 hours 10 minutes  9.4 seconds.
 Elapsed time:       0 days  0 hours  0 minutes 23.1 seconds.
 File lengths (MBytes):  RWF=    148 Int=      0 D2E=      0 Chk=      8 Scr=      1
 Normal termination of Gaussian 16 at Fri Oct 11 15:40:53 2024.
