 Entering Gaussian System, Link 0=g16
 Input=JOBS/15_A.gjf
 Output=JOBS/15_A.log
 Initial command:
 /data/app/gaussian/C01-avx2//g16/l1.exe "/tmp/Gau-2528699.inp" -scrdir="/tmp/"
 Entering Link 1 = /data/app/gaussian/C01-avx2//g16/l1.exe PID=   2528700.
  
 Copyright (c) 1988-2019, Gaussian, Inc.  All Rights Reserved.
  
 This is part of the Gaussian(R) 16 program.  It is based on
 the Gaussian(R) 09 system (copyright 2009, Gaussian, Inc.),
 the Gaussian(R) 03 system (copyright 2003, Gaussian, Inc.),
 the Gaussian(R) 98 system (copyright 1998, Gaussian, Inc.),
 the Gaussian(R) 94 system (copyright 1995, Gaussian, Inc.),
 the Gaussian 92(TM) system (copyright 1992, Gaussian, Inc.),
 the Gaussian 90(TM) system (copyright 1990, Gaussian, Inc.),
 the Gaussian 88(TM) system (copyright 1988, Gaussian, Inc.),
 the Gaussian 86(TM) system (copyright 1986, Carnegie Mellon
 University), and the Gaussian 82(TM) system (copyright 1983,
 Carnegie Mellon University). Gaussian is a federally registered
 trademark of Gaussian, Inc.
  
 This software contains proprietary and confidential information,
 including trade secrets, belonging to Gaussian, Inc.
  
 This software is provided under written license and may be
 used, copied, transmitted, or stored only in accord with that
 written license.
  
 The following legend is applicable only to US Government
 contracts under FAR:
  
                    RESTRICTED RIGHTS LEGEND
  
 Use, reproduction and disclosure by the US Government is
 subject to restrictions as set forth in subparagraphs (a)
 and (c) of the Commercial Computer Software - Restricted
 Rights clause in FAR 52.227-19.
  
 Gaussian, Inc.
 340 Quinnipiac St., Bldg. 40, Wallingford CT 06492
  
  
 ---------------------------------------------------------------
 Warning -- This program may not be used in any manner that
 competes with the business of Gaussian, Inc. or will provide
 assistance to any competitor of Gaussian, Inc.  The licensee
 of this program is prohibited from giving any competitor of
 Gaussian, Inc. access to this program.  By using this program,
 the user acknowledges that Gaussian, Inc. is engaged in the
 business of creating and licensing software in the field of
 computational chemistry and represents and warrants to the
 licensee that it is not a competitor of Gaussian, Inc. and that
 it will not use this program in any manner prohibited above.
 ---------------------------------------------------------------
  

 Cite this work as:
 Gaussian 16, Revision C.01,
 M. J. Frisch, G. W. Trucks, H. B. Schlegel, G. E. Scuseria, 
 M. A. Robb, J. R. Cheeseman, G. Scalmani, V. Barone, 
 G. A. Petersson, H. Nakatsuji, X. Li, M. Caricato, A. V. Marenich, 
 J. Bloino, B. G. Janesko, R. Gomperts, B. Mennucci, H. P. Hratchian, 
 J. V. Ortiz, A. F. Izmaylov, J. L. Sonnenberg, D. Williams-Young, 
 F. Ding, F. Lipparini, F. Egidi, J. Goings, B. Peng, A. Petrone, 
 T. Henderson, D. Ranasinghe, V. G. Zakrzewski, J. Gao, N. Rega, 
 G. Zheng, W. Liang, M. Hada, M. Ehara, K. Toyota, R. Fukuda, 
 J. Hasegawa, M. Ishida, T. Nakajima, Y. Honda, O. Kitao, H. Nakai, 
 T. Vreven, K. Throssell, J. A. Montgomery, Jr., J. E. Peralta, 
 F. Ogliaro, M. J. Bearpark, J. J. Heyd, E. N. Brothers, K. N. Kudin, 
 V. N. Staroverov, T. A. Keith, R. Kobayashi, J. Normand, 
 K. Raghavachari, A. P. Rendell, J. C. Burant, S. S. Iyengar, 
 J. Tomasi, M. Cossi, J. M. Millam, M. Klene, C. Adamo, R. Cammi, 
 J. W. Ochterski, R. L. Martin, K. Morokuma, O. Farkas, 
 J. B. Foresman, and D. J. Fox, Gaussian, Inc., Wallingford CT, 2019.
 
 ******************************************
 Gaussian 16:  ES64L-G16RevC.01  3-Jul-2019
                11-Oct-2024 
 ******************************************
 %chk=a.chk
 %nprocshared=28
 Will use up to   28 processors via shared memory.
 %mem=48gb
 ----------------------------------------------------------------------
 # wb97xd def2svp scrf=(smd,solvent=acetonitrile) g09default scf=(xqc,m
 axcycle=64) force guess=read nosymm
 ----------------------------------------------------------------------
 1/10=7,30=1,38=1,158=3,167=1/1,3;
 2/12=2,15=1,17=6,18=5,40=1/2;
 3/5=43,7=101,11=2,25=1,27=10,30=1,70=32201,71=1,72=2,74=-58,75=-4,116=-2,158=3/1,2,3;
 4/5=1,60=-1/1;
 5/5=2,7=64,8=3,13=1,38=6,53=2,87=10/2,8;
 6/7=2,8=2,9=2,10=2,28=1,87=10/1;
 7/29=1,30=1,87=10/1,2,3,16;
 1/10=7,30=1,158=3,167=1/3;
 99//99;
 Using 2006 physical constants.
 ----------
 Title Card
 ----------
 Symbolic Z-matrix:
 Charge = -2 Multiplicity = 1
 6                    -8.94457  -0.87663   1.11182 
 6                    -8.94399   0.49632   1.25182 
 6                    -8.20412  -2.13939   0.97875 
 6                    -7.01055  -2.82487   0.89884 
 6                    -9.66952  -2.13193   0.99454 
 6                    -10.86872  -2.81794   0.93773 
 6                    -10.18276   1.24192   1.3426 
 7                    -11.21577   1.7409    1.40765 
 6                    -7.68798   1.25047   1.32449 
 7                    -6.65896   1.73625   1.37583 
 6                    -5.75197  -2.12613   0.95167 
 7                    -4.78535  -1.47103   0.99955 
 6                    -6.98573  -4.24111   0.7451 
 7                    -7.06275  -5.42012   0.61418 
 6                    -10.90101  -4.29455   0.81858 
 7                    -10.81112  -5.39407   0.73259 
 6                    -12.14253  -2.11964   0.99521 
 7                    -13.08248  -1.47863   1.04787 
 

 GradGradGradGradGradGradGradGradGradGradGradGradGradGradGradGradGradGrad
 Berny optimization.
 Initialization pass.
 Trust Radius=3.00D-01 FncErr=1.00D-07 GrdErr=1.00D-07 EigMax=2.50D+02 EigMin=1.00D-04
 Number of steps in this run=      2 maximum allowed number of steps=      2.
 GradGradGradGradGradGradGradGradGradGradGradGradGradGradGradGradGradGrad

                          Input orientation:                          
 ---------------------------------------------------------------------
 Center     Atomic      Atomic             Coordinates (Angstroms)
 Number     Number       Type             X           Y           Z
 ---------------------------------------------------------------------
      1          6           0       -8.944572   -0.876630    1.111822
      2          6           0       -8.943991    0.496317    1.251824
      3          6           0       -8.204117   -2.139391    0.978749
      4          6           0       -7.010554   -2.824867    0.898836
      5          6           0       -9.669520   -2.131927    0.994545
      6          6           0      -10.868721   -2.817940    0.937727
      7          6           0      -10.182762    1.241916    1.342596
      8          7           0      -11.215771    1.740897    1.407645
      9          6           0       -7.687980    1.250473    1.324488
     10          7           0       -6.658960    1.736253    1.375831
     11          6           0       -5.751967   -2.126135    0.951670
     12          7           0       -4.785353   -1.471030    0.999550
     13          6           0       -6.985731   -4.241109    0.745100
     14          7           0       -7.062754   -5.420118    0.614180
     15          6           0      -10.901006   -4.294550    0.818576
     16          7           0      -10.811121   -5.394072    0.732587
     17          6           0      -12.142534   -2.119639    0.995207
     18          7           0      -13.082481   -1.478626    1.047872
 ---------------------------------------------------------------------
                    Distance matrix (angstroms):
                    1          2          3          4          5
     1  C    0.000000
     2  C    1.380067   0.000000
     3  C    1.469881   2.751171   0.000000
     4  C    2.753437   3.859151   1.378715   0.000000
     5  C    1.454330   2.738659   1.465507   2.749440   0.000000
     6  C    2.738859   3.845458   2.749950   3.858369   1.382725
     7  C    2.464672   1.448693   3.934547   5.176732   3.430361
     8  N    3.478117   2.595041   4.930583   6.228076   4.190502
     9  C    2.479680   1.466832   3.446319   4.153129   3.933954
    10  N    3.481505   2.602726   4.191157   4.599452   4.916468
    11  C    3.432148   4.142025   2.452336   1.440507   3.917792
    12  N    4.202977   4.607425   3.483545   2.606634   4.928680
    13  C    3.910404   5.151190   2.440548   1.424778   3.422512
    14  N    4.942891   6.240981   3.492676   2.611337   4.213324
    15  C    3.949152   5.193267   3.455947   4.159570   2.494887
    16  N    4.902561   6.201005   4.177321   4.590508   3.466044
    17  C    3.433021   4.140019   3.938500   5.181105   2.473045
    18  N    4.181958   4.590108   4.923395   6.221163   3.475334
                    6          7          8          9         10
     6  C    0.000000
     7  C    4.137257   0.000000
     8  N    4.596114   1.149051   0.000000
     9  C    5.178676   2.494863   3.562687   0.000000
    10  N    6.217290   3.558463   4.556924   1.139079   0.000000
    11  C    5.163329   5.579296   6.709322   3.910067   3.990061
    12  N    6.231000   6.050602   7.199533   3.992168   3.733450
    13  C    4.140064   6.375074   7.356398   5.566535   6.019423
    14  N    4.621839   7.392411   8.316084   6.737375   7.208106
    15  C    1.481761   5.607399   6.072289   6.428589   7.394326
    16  N    2.584928   6.693525   7.178246   7.365754   8.276215
    17  C    1.453797   3.906589   3.991583   5.595456   6.714340
    18  N    2.589715   3.987051   3.738899   6.051870   7.190592
                   11         12         13         14         15
    11  C    0.000000
    12  N    1.168673   0.000000
    13  C    2.457226   3.546794   0.000000
    14  N    3.561234   4.574971   1.188753   0.000000
    15  C    5.588590   6.738414   3.916329   4.005104   0.000000
    16  N    6.026811   7.195235   3.995383   3.750327   1.106536
    17  C    6.390719   7.385717   5.581738   6.069802   2.510543
    18  N    7.359685   8.297271   6.700249   7.208367   3.569431
                   16         17         18
    16  N    0.000000
    17  C    3.544508   0.000000
    18  N    4.537532   1.138935   0.000000
 Symmetry turned off by external request.
 Stoichiometry    C12N6(2-)
 Framework group  C1[X(C12N6)]
 Deg. of freedom    48
 Full point group                 C1      NOp   1
 Rotational constants (GHZ):           0.4207776           0.4202452           0.2102748
 Standard basis: def2SVP (5D, 7F)
   252 basis functions,   450 primitive gaussians,   270 cartesian basis functions
    58 alpha electrons       58 beta electrons
       nuclear repulsion energy       955.7429663457 Hartrees.
 NAtoms=   18 NActive=   18 NUniq=   18 SFac= 1.00D+00 NAtFMM=   60 NAOKFM=F Big=F
 Integral buffers will be    131072 words long.
 Raffenetti 2 integral format.
 Two-electron integral symmetry is turned off.
 Nuclear repulsion after empirical dispersion term =      955.7315350756 Hartrees.
 Force PCM accuracy= 1.00D-10.
 ------------------------------------------------------------------------------
 Polarizable Continuum Model (PCM)
 =================================
 Model                : PCM (using non-symmetric T matrix).
 Atomic radii         : SMD-Coulomb.
 Polarization charges : Total charges.
 Charge compensation  : None.
 Solution method      : On-the-fly selection.
 Cavity type          : VdW (van der Waals Surface) (Alpha=1.000).
 Cavity algorithm     : GePol (No added spheres)
                        Default sphere list used, NSphG=   18.
                        Lebedev-Laikov grids with approx.  5.0 points / Ang**2.
                        Smoothing algorithm: York/Karplus (Gamma=1.0000).
                        Polarization charges: spherical gaussians, with
                                              point-specific exponents (IZeta= 3).
                        Self-potential: point-specific (ISelfS= 7).
                        Self-field    : sphere-specific E.n sum rule (ISelfD= 2).
 1st derivatives      : Analytical E(r).r(x)/FMM algorithm (CHGder, D1EAlg=3).
                        Cavity 1st derivative terms included.
 Solvent              : Acetonitrile, Eps=  35.688000 Eps(inf)=   1.806874
 ------------------------------------------------------------------------------
 Spheres list:
 ISph  on   Nord     Re0    Alpha      Xe            Ye            Ze
    1   C      1    1.8500  1.000     -8.944572     -0.876630      1.111822
    2   C      2    1.8500  1.000     -8.943991      0.496317      1.251824
    3   C      3    1.8500  1.000     -8.204117     -2.139391      0.978749
    4   C      4    1.8500  1.000     -7.010554     -2.824867      0.898836
    5   C      5    1.8500  1.000     -9.669520     -2.131927      0.994545
    6   C      6    1.8500  1.000    -10.868721     -2.817940      0.937727
    7   C      7    1.8500  1.000    -10.182762      1.241916      1.342596
    8   N      8    1.8900  1.000    -11.215771      1.740897      1.407645
    9   C      9    1.8500  1.000     -7.687980      1.250473      1.324488
   10   N     10    1.8900  1.000     -6.658960      1.736253      1.375831
   11   C     11    1.8500  1.000     -5.751967     -2.126135      0.951670
   12   N     12    1.8900  1.000     -4.785353     -1.471030      0.999550
   13   C     13    1.8500  1.000     -6.985731     -4.241109      0.745100
   14   N     14    1.8900  1.000     -7.062754     -5.420118      0.614180
   15   C     15    1.8500  1.000    -10.901006     -4.294550      0.818576
   16   N     16    1.8900  1.000    -10.811121     -5.394072      0.732587
   17   C     17    1.8500  1.000    -12.142534     -2.119639      0.995207
   18   N     18    1.8900  1.000    -13.082481     -1.478626      1.047872
 ------------------------------------------------------------------------------
 ------------------------------------------------------------------------------
 Atomic radii for non-electrostatic terms: SMD-CDS.
 ------------------------------------------------------------------------------
 Nuclear repulsion after PCM non-electrostatic terms =      955.7400842113 Hartrees.
 One-electron integrals computed using PRISM.
   1 Symmetry operations used in ECPInt.
 ECPInt:  NShTT=    5886 NPrTT=   23670 LenC2=    5392 LenP2D=   14872.
 LDataN:  DoStor=T MaxTD1= 4 Len=   56
 NBasis=   252 RedAO= T EigKep=  2.98D-04  NBF=   252
 NBsUse=   252 1.00D-06 EigRej= -1.00D+00 NBFU=   252
 Initial guess from the checkpoint file:  "a.chk"
 B after Tr=     0.000772   -0.001203   -0.000105
         Rot=    1.000000    0.000020    0.000000    0.000035 Ang=   0.00 deg.
 Requested convergence on RMS density matrix=1.00D-08 within  64 cycles.
 Requested convergence on MAX density matrix=1.00D-06.
 Requested convergence on             energy=1.00D-06.
 No special actions if energy rises.
 Inv3:  Mode=1 IEnd=    19568748.
 Iteration    1 A*A^-1 deviation from unit magnitude is 3.11D-15 for     53.
 Iteration    1 A*A^-1 deviation from orthogonality  is 2.35D-15 for   2234    603.
 Iteration    1 A^-1*A deviation from unit magnitude is 3.11D-15 for   1685.
 Iteration    1 A^-1*A deviation from orthogonality  is 8.76D-13 for    827    809.
 Error on total polarization charges =  0.02207
 SCF Done:  E(RwB97XD) =  -784.997935091     A.U. after   14 cycles
            NFock= 14  Conv=0.70D-08     -V/T= 2.0099
 SMD-CDS (non-electrostatic) energy       (kcal/mol) =       5.36
 (included in total energy above)
 QCSCF skips out because SCF is already converged.

 **********************************************************************

            Population analysis using the SCF Density.

 **********************************************************************

 Alpha  occ. eigenvalues --  -14.43353 -14.43161 -14.42687 -14.42653 -14.42439
 Alpha  occ. eigenvalues --  -14.41993 -10.35533 -10.35496 -10.35473 -10.34323
 Alpha  occ. eigenvalues --  -10.34088 -10.33626 -10.33585 -10.33441 -10.33413
 Alpha  occ. eigenvalues --  -10.33379 -10.33217 -10.32888  -1.00937  -1.00111
 Alpha  occ. eigenvalues --   -0.99397  -0.99099  -0.98842  -0.97848  -0.97240
 Alpha  occ. eigenvalues --   -0.88027  -0.87471  -0.84562  -0.68358  -0.68088
 Alpha  occ. eigenvalues --   -0.64803  -0.64058  -0.63541  -0.63239  -0.51064
 Alpha  occ. eigenvalues --   -0.47686  -0.47493  -0.46275  -0.46097  -0.45299
 Alpha  occ. eigenvalues --   -0.45183  -0.45119  -0.44638  -0.44340  -0.44056
 Alpha  occ. eigenvalues --   -0.43507  -0.43342  -0.43036  -0.42755  -0.42400
 Alpha  occ. eigenvalues --   -0.42142  -0.41824  -0.40910  -0.40625  -0.40059
 Alpha  occ. eigenvalues --   -0.32130  -0.31954  -0.22767
 Alpha virt. eigenvalues --    0.06674   0.07415   0.08717   0.09774   0.10381
 Alpha virt. eigenvalues --    0.11615   0.12233   0.13554   0.14112   0.14527
 Alpha virt. eigenvalues --    0.14996   0.16120   0.20677   0.20902   0.23599
 Alpha virt. eigenvalues --    0.25950   0.27787   0.27835   0.28024   0.28220
 Alpha virt. eigenvalues --    0.29844   0.32640   0.33088   0.33183   0.33566
 Alpha virt. eigenvalues --    0.34051   0.36055   0.48256   0.48897   0.51383
 Alpha virt. eigenvalues --    0.51588   0.52605   0.53707   0.54894   0.54948
 Alpha virt. eigenvalues --    0.56030   0.56706   0.57138   0.58953   0.61307
 Alpha virt. eigenvalues --    0.61596   0.61844   0.62622   0.62963   0.64908
 Alpha virt. eigenvalues --    0.65577   0.71002   0.71109   0.71240   0.72778
 Alpha virt. eigenvalues --    0.72921   0.73670   0.73936   0.74450   0.74659
 Alpha virt. eigenvalues --    0.75121   0.75157   0.76002   0.76381   0.76945
 Alpha virt. eigenvalues --    0.79816   0.80268   0.81648   0.83322   0.83517
 Alpha virt. eigenvalues --    0.86383   0.86618   0.87986   0.89204   0.93855
 Alpha virt. eigenvalues --    0.94720   0.94943   0.95154   0.96021   0.96354
 Alpha virt. eigenvalues --    0.97260   1.00066   1.00131   1.01341   1.01713
 Alpha virt. eigenvalues --    1.03115   1.03267   1.03353   1.03411   1.05010
 Alpha virt. eigenvalues --    1.06417   1.07015   1.09514   1.11693   1.11997
 Alpha virt. eigenvalues --    1.14556   1.18477   1.19122   1.19603   1.20468
 Alpha virt. eigenvalues --    1.22807   1.24151   1.25246   1.27591   1.33336
 Alpha virt. eigenvalues --    1.36039   1.36233   1.42309   1.42420   1.45679
 Alpha virt. eigenvalues --    1.46335   1.46411   1.47934   1.48519   1.59341
 Alpha virt. eigenvalues --    1.60255   1.68577   1.70055   1.70462   1.70550
 Alpha virt. eigenvalues --    1.70972   1.71341   1.77041   1.77209   1.79121
 Alpha virt. eigenvalues --    1.79358   1.79907   1.80023   1.81016   1.82273
 Alpha virt. eigenvalues --    1.82722   1.83044   1.86140   1.93517   1.94717
 Alpha virt. eigenvalues --    1.96051   2.00984   2.01585   2.01641   2.03648
 Alpha virt. eigenvalues --    2.04878   2.06143   2.07876   2.13003   2.13620
 Alpha virt. eigenvalues --    2.15724   2.21709   2.21918   2.24191   2.27864
 Alpha virt. eigenvalues --    2.28709   2.29473   2.30207   2.34853   2.35298
 Alpha virt. eigenvalues --    2.35335   2.36722   2.36798   2.37407   2.37723
 Alpha virt. eigenvalues --    2.37912   2.38242   2.38989   2.39133   2.39407
 Alpha virt. eigenvalues --    2.40280   2.41175   2.56932   2.58763   2.59001
 Alpha virt. eigenvalues --    2.69152   2.70145   2.91824   2.94030   2.96790
 Alpha virt. eigenvalues --    2.97757   3.00726   3.02027   3.04226   3.04877
 Alpha virt. eigenvalues --    3.08328   3.09277   3.10240   3.10858   3.11181
 Alpha virt. eigenvalues --    3.13127   3.15480   3.20938   3.22477   3.31994
 Alpha virt. eigenvalues --    3.40296   3.42126   3.43598   3.51219   3.55756
 Alpha virt. eigenvalues --    3.59377   3.63339   3.68912   3.78963
          Condensed to atoms (all electrons):
               1          2          3          4          5          6
     1  C    4.934647   0.486981   0.328486  -0.104658   0.314972  -0.106582
     2  C    0.486981   5.535840  -0.104405  -0.006499  -0.107866  -0.006340
     3  C    0.328486  -0.104405   4.925213   0.477523   0.325444  -0.104432
     4  C   -0.104658  -0.006499   0.477523   5.542954  -0.105018  -0.006359
     5  C    0.314972  -0.107866   0.325444  -0.105018   4.938624   0.492433
     6  C   -0.106582  -0.006340  -0.104432  -0.006359   0.492433   5.529940
     7  C    0.005722   0.393342   0.005641  -0.000259  -0.017527   0.001326
     8  N   -0.000121  -0.042157   0.000016  -0.000001  -0.000543   0.000095
     9  C    0.004884   0.383539  -0.015936   0.001186   0.005927  -0.000251
    10  N   -0.000164  -0.040355  -0.000510   0.000102   0.000020  -0.000001
    11  C   -0.018179   0.001351   0.005456   0.382586   0.006278  -0.000273
    12  N   -0.000507   0.000090  -0.000208  -0.042968   0.000023  -0.000001
    13  C    0.006103  -0.000301   0.007456   0.388844  -0.019256   0.001324
    14  N    0.000019  -0.000001  -0.000092  -0.045158  -0.000500   0.000078
    15  C    0.005670  -0.000225  -0.014623   0.001138   0.003567   0.383157
    16  N    0.000017  -0.000001  -0.000530   0.000104  -0.000352  -0.039738
    17  C   -0.016897   0.001209   0.005550  -0.000252   0.005669   0.396175
    18  N   -0.000546   0.000095   0.000015  -0.000001  -0.000080  -0.041754
               7          8          9         10         11         12
     1  C    0.005722  -0.000121   0.004884  -0.000164  -0.018179  -0.000507
     2  C    0.393342  -0.042157   0.383539  -0.040355   0.001351   0.000090
     3  C    0.005641   0.000016  -0.015936  -0.000510   0.005456  -0.000208
     4  C   -0.000259  -0.000001   0.001186   0.000102   0.382586  -0.042968
     5  C   -0.017527  -0.000543   0.005927   0.000020   0.006278   0.000023
     6  C    0.001326   0.000095  -0.000251  -0.000001  -0.000273  -0.000001
     7  C    4.828153   0.939676  -0.027758   0.001685   0.000054   0.000001
     8  N    0.939676   6.141148   0.001676   0.000042   0.000000   0.000000
     9  C   -0.027758   0.001676   4.825377   0.952883   0.000296   0.000389
    10  N    0.001685   0.000042   0.952883   6.113751   0.000193  -0.000807
    11  C    0.000054   0.000000   0.000296   0.000193   4.843522   0.919244
    12  N    0.000001   0.000000   0.000389  -0.000807   0.919244   6.179505
    13  C   -0.000005  -0.000000   0.000056   0.000002  -0.028757   0.002182
    14  N   -0.000000   0.000000   0.000000   0.000000   0.002142   0.000052
    15  C    0.000043   0.000001  -0.000003  -0.000000   0.000048   0.000000
    16  N    0.000000   0.000000  -0.000000  -0.000000   0.000001   0.000000
    17  C    0.000305   0.000298   0.000047   0.000000  -0.000004  -0.000000
    18  N    0.000264  -0.000818   0.000001   0.000000  -0.000000   0.000000
              13         14         15         16         17         18
     1  C    0.006103   0.000019   0.005670   0.000017  -0.016897  -0.000546
     2  C   -0.000301  -0.000001  -0.000225  -0.000001   0.001209   0.000095
     3  C    0.007456  -0.000092  -0.014623  -0.000530   0.005550   0.000015
     4  C    0.388844  -0.045158   0.001138   0.000104  -0.000252  -0.000001
     5  C   -0.019256  -0.000500   0.003567  -0.000352   0.005669  -0.000080
     6  C    0.001324   0.000078   0.383157  -0.039738   0.396175  -0.041754
     7  C   -0.000005  -0.000000   0.000043   0.000000   0.000305   0.000264
     8  N   -0.000000   0.000000   0.000001   0.000000   0.000298  -0.000818
     9  C    0.000056   0.000000  -0.000003  -0.000000   0.000047   0.000001
    10  N    0.000002   0.000000  -0.000000  -0.000000   0.000000   0.000000
    11  C   -0.028757   0.002142   0.000048   0.000001  -0.000004  -0.000000
    12  N    0.002182   0.000052   0.000000   0.000000  -0.000000   0.000000
    13  C    4.849467   0.895689   0.000349  -0.000007   0.000054   0.000000
    14  N    0.895689   6.233648   0.000568  -0.000794   0.000001   0.000000
    15  C    0.000349   0.000568   4.802680   0.990752  -0.027396   0.001509
    16  N   -0.000007  -0.000794   0.990752   6.046001   0.001455   0.000038
    17  C    0.000054   0.000001  -0.027396   0.001455   4.820997   0.950691
    18  N    0.000000   0.000000   0.001509   0.000038   0.950691   6.121481
 Mulliken charges:
               1
     1  C    0.160152
     2  C   -0.494299
     3  C    0.159936
     4  C   -0.483262
     5  C    0.158186
     6  C   -0.498798
     7  C   -0.130663
     8  N   -0.039312
     9  C   -0.132314
    10  N   -0.026841
    11  C   -0.113957
    12  N   -0.056996
    13  C   -0.103201
    14  N   -0.085652
    15  C   -0.147236
    16  N    0.003053
    17  C   -0.137901
    18  N   -0.030896
 Sum of Mulliken charges =  -2.00000
 Mulliken charges with hydrogens summed into heavy atoms:
               1
     1  C    0.160152
     2  C   -0.494299
     3  C    0.159936
     4  C   -0.483262
     5  C    0.158186
     6  C   -0.498798
     7  C   -0.130663
     8  N   -0.039312
     9  C   -0.132314
    10  N   -0.026841
    11  C   -0.113957
    12  N   -0.056996
    13  C   -0.103201
    14  N   -0.085652
    15  C   -0.147236
    16  N    0.003053
    17  C   -0.137901
    18  N   -0.030896
 Electronic spatial extent (au):  <R**2>=          39417.3308
 Charge=             -2.0000 electrons
 Dipole moment (field-independent basis, Debye):
    X=             85.5655    Y=             16.5294    Z=             -9.8787  Tot=             87.7056
 Quadrupole moment (field-independent basis, Debye-Ang):
   XX=           -960.2892   YY=           -224.9831   ZZ=           -113.9643
   XY=           -145.6754   XZ=             89.0047   YZ=              7.6353
 Traceless Quadrupole moment (field-independent basis, Debye-Ang):
   XX=           -527.2104   YY=            208.0958   ZZ=            319.1146
   XY=           -145.6754   XZ=             89.0047   YZ=              7.6353
 Octapole moment (field-independent basis, Debye-Ang**2):
  XXX=          12097.0321  YYY=           1136.5084  ZZZ=           -330.9071  XYY=           2000.6593
  XXY=           1548.1256  XXZ=          -1011.7020  XZZ=           1019.6406  YZZ=            176.7578
  YYZ=           -193.3514  XYZ=            -68.9306
 Hexadecapole moment (field-independent basis, Debye-Ang**3):
 XXXX=        -160012.9637 YYYY=          -8730.9775 ZZZZ=           -807.8064 XXXY=         -18381.0206
 XXXZ=          12871.3552 YYYX=         -10097.6979 YYYZ=            757.2039 ZZZX=           2974.4680
 ZZZY=            380.7372 XXYY=         -19679.1973 XXZZ=          -9918.9323 YYZZ=          -1043.6464
 XXYZ=            804.3795 YYXZ=           1739.8834 ZZXY=          -1578.3988
 N-N= 9.557400842113D+02 E-N=-3.765341309243D+03  KE= 7.772670959840D+02
   1 Symmetry operations used in ECPInt.
 ECPInt:  NShTT=    5886 NPrTT=   23670 LenC2=    5392 LenP2D=   14872.
 LDataN:  DoStor=T MaxTD1= 5 Len=  102
 D1PCM: PCM CHGder 1st derivatives, ID1Alg=3 FixD1E=F DoIter=F DoCFld=F I1PDM=0.
 Calling FoFJK, ICntrl=      2127 FMM=F ISym2X=0 I1Cent= 0 IOpClX= 0 NMat=1 NMatS=1 NMatT=0.
 -------------------------------------------------------------------
 Center     Atomic                   Forces (Hartrees/Bohr)
 Number     Number              X              Y              Z
 -------------------------------------------------------------------
      1        6           0.007625278   -0.102830355   -0.010312708
      2        6           0.007340281    0.053756223    0.005462600
      3        6          -0.100884264    0.060308625    0.007282425
      4        6           0.040162059   -0.015030797   -0.002097106
      5        6           0.085497436    0.042760074    0.003191181
      6        6          -0.042999242   -0.036272017   -0.002912529
      7        6           0.048466914   -0.034970613   -0.004036604
      8        7          -0.031434145    0.018750543    0.002349152
      9        6          -0.079256406   -0.051446300   -0.004966444
     10        7           0.054032861    0.029555503    0.002963210
     11        6          -0.009257187    0.005050299    0.000414434
     12        7          -0.007734500   -0.008819842   -0.000642980
     13        6          -0.010483948   -0.043899924   -0.005021968
     14        7           0.005855884    0.051574955    0.005689933
     15        6          -0.001854532    0.198784492    0.015531794
     16        7           0.008921411   -0.159115822   -0.012334470
     17        6           0.080528080   -0.041071844   -0.003087199
     18        7          -0.054525978    0.032916800    0.002527279
 -------------------------------------------------------------------
 Cartesian Forces:  Max     0.198784492 RMS     0.051284435

 GradGradGradGradGradGradGradGradGradGradGradGradGradGradGradGradGradGrad
 Berny optimization.
 Search for a local minimum.
 Step number   1 out of a maximum of    2
 All quantities printed in internal units (Hartrees-Bohrs-Radians)
 Second derivative matrix not updated -- first step.
 ITU=  0
     Eigenvalues ---    0.00108   0.00123   0.00155   0.00294   0.00296
     Eigenvalues ---    0.00722   0.01507   0.01639   0.01949   0.01970
     Eigenvalues ---    0.03245   0.03988   0.05151   0.05227   0.10057
     Eigenvalues ---    0.16342   0.19071   0.19948   0.23411   0.24355
     Eigenvalues ---    0.24785   0.25167   0.29963   0.30179   0.44359
     Eigenvalues ---    0.62703   0.70674   0.71141   0.71701   0.75993
     Eigenvalues ---    0.98859   0.99286   1.06095   1.50940   1.52696
     Eigenvalues ---    1.84244   1.99182   2.45842   2.50480   2.71206
     Eigenvalues ---    2.94741   3.07619   3.08802   3.16557   3.60789
     Eigenvalues ---    3.70034   3.84971   5.50274
 Quadratic step=3.907D-01 exceeds max=3.000D-01 adjusted using Lamda=-1.926D-02.
 Angle between NR and scaled steps=  18.81 degrees.
 Angle between quadratic step and forces=  58.44 degrees.
 Linear search not attempted -- first point.
 B after Tr=    -0.000122    0.000283    0.000089
         Rot=    1.000000    0.000002    0.000003   -0.000008 Ang=   0.00 deg.
 Variable       Old X    -DE/DX   Delta X   Delta X   Delta X     New X
                                 (Linear)    (Quad)   (Total)
    X1      -16.90279   0.00763   0.00000   0.00693   0.00682 -16.89597
    Y1       -1.65659  -0.10283   0.00000  -0.07314  -0.07312  -1.72971
    Z1        2.10104  -0.01031   0.00000  -0.00677  -0.00678   2.09426
    X2      -16.90169   0.00734   0.00000   0.00632   0.00617 -16.89553
    Y2        0.93790   0.05376   0.00000  -0.03176  -0.03175   0.90616
    Z2        2.36560   0.00546   0.00000  -0.00238  -0.00239   2.36321
    X3      -15.50353  -0.10088   0.00000  -0.07633  -0.07640 -15.57993
    Y3       -4.04286   0.06031   0.00000   0.04467   0.04471  -3.99815
    Z3        1.84957   0.00728   0.00000   0.00560   0.00561   1.85518
    X4      -13.24803   0.04016   0.00000  -0.03103  -0.03108 -13.27911
    Y4       -5.33823  -0.01503   0.00000   0.01786   0.01793  -5.32029
    Z4        1.69855  -0.00210   0.00000   0.00079   0.00082   1.69938
    X5      -18.27274   0.08550   0.00000   0.05970   0.05963 -18.21312
    Y5       -4.02876   0.04276   0.00000   0.02861   0.02860  -4.00016
    Z5        1.87942   0.00319   0.00000   0.00244   0.00244   1.88186
    X6      -20.53891  -0.04300   0.00000   0.03089   0.03085 -20.50806
    Y6       -5.32514  -0.03627   0.00000   0.01323   0.01319  -5.31195
    Z6        1.77205  -0.00291   0.00000   0.00146   0.00145   1.77350
    X7      -19.24263   0.04847   0.00000   0.04329   0.04312 -19.19951
    Y7        2.34688  -0.03497   0.00000  -0.07452  -0.07454   2.27234
    Z7        2.53714  -0.00404   0.00000  -0.00699  -0.00703   2.53011
    X8      -21.19473  -0.03143   0.00000   0.03909   0.03890 -21.15584
    Y8        3.28982   0.01875   0.00000  -0.02018  -0.02023   3.26959
    Z8        2.66006   0.00235   0.00000  -0.00233  -0.00238   2.65768
    X9      -14.52818  -0.07926   0.00000  -0.05517  -0.05534 -14.58352
    Y9        2.36305  -0.05145   0.00000  -0.09169  -0.09163   2.27142
    Z9        2.50292  -0.00497   0.00000  -0.00791  -0.00792   2.49500
   X10      -12.58361   0.05403   0.00000  -0.03891  -0.03910 -12.62272
   Y10        3.28104   0.02956   0.00000  -0.02386  -0.02377   3.25727
   Z10        2.59994   0.00296   0.00000  -0.00378  -0.00378   2.59616
   X11      -10.86964  -0.00926   0.00000  -0.07091  -0.07098 -10.94062
   Y11       -4.01781   0.00505   0.00000   0.01411   0.01423  -4.00359
   Z11        1.79839   0.00041   0.00000   0.00141   0.00145   1.79985
   X12       -9.04301  -0.00773   0.00000  -0.05163  -0.05172  -9.09473
   Y12       -2.77984  -0.00882   0.00000  -0.02914  -0.02900  -2.80884
   Z12        1.88888  -0.00064   0.00000  -0.00010  -0.00005   1.88883
   X13      -13.20112  -0.01048   0.00000  -0.04495  -0.04495 -13.24607
   Y13       -8.01453  -0.04390   0.00000   0.03138   0.03145  -7.98308
   Z13        1.40803  -0.00502   0.00000   0.00126   0.00130   1.40934
   X14      -13.34667   0.00586   0.00000  -0.00102  -0.00098 -13.34765
   Y14      -10.24254   0.05157   0.00000   0.07411   0.07418 -10.16836
   Z14        1.16063   0.00569   0.00000   0.00678   0.00684   1.16747
   X15      -20.59992  -0.00185   0.00000   0.05480   0.05480 -20.54512
   Y15       -8.11552   0.19878   0.00000   0.12035   0.12030  -7.99522
   Z15        1.54688   0.01553   0.00000   0.01187   0.01188   1.55876
   X16      -20.43006   0.00892   0.00000   0.00527   0.00531 -20.42475
   Y16      -10.19332  -0.15912   0.00000   0.02221   0.02216 -10.17115
   Z16        1.38439  -0.01233   0.00000   0.00423   0.00424   1.38863
   X17      -22.94606   0.08053   0.00000   0.09588   0.09581 -22.85025
   Y17       -4.00554  -0.04107   0.00000  -0.00257  -0.00266  -4.00820
   Z17        1.88067  -0.00309   0.00000  -0.00135  -0.00138   1.87929
   X18      -24.72231  -0.05453   0.00000   0.02923   0.02914 -24.69316
   Y18       -2.79420   0.03292   0.00000  -0.01994  -0.02005  -2.81425
   Z18        1.98019   0.00253   0.00000  -0.00427  -0.00432   1.97587
         Item               Value     Threshold  Converged?
 Maximum Force            0.198784     0.000450     NO 
 RMS     Force            0.051284     0.000300     NO 
 Maximum Displacement     0.120298     0.001800     NO 
 RMS     Displacement     0.040850     0.001200     NO 
 Predicted change in Energy=-3.046962D-02
 GradGradGradGradGradGradGradGradGradGradGradGradGradGradGradGradGradGrad

 Unable to Open any file for archive entry.
 1\1\GINC-X10P1N4\Force\RwB97XD\def2SVP\C12N6(2-)\MAYUMIAO\11-Oct-2024\
 0\\# wb97xd def2svp scrf=(smd,solvent=acetonitrile) g09default scf=(xq
 c,maxcycle=64) force guess=read nosymm\\Title Card\\-2,1\C,-8.94457193
 ,-0.87662967,1.11182199\C,-8.94399133,0.49631739,1.25182401\C,-8.20411
 707,-2.1393914,0.97874948\C,-7.01055441,-2.82486711,0.89883637\C,-9.66
 951958,-2.13192713,0.99454467\C,-10.86872136,-2.81794043,0.93772683\C,
 -10.18276238,1.24191595,1.34259614\N,-11.21577064,1.74089673,1.4076451
 9\C,-7.68798009,1.2504729,1.32448812\N,-6.65896013,1.73625269,1.375830
 9\C,-5.75196666,-2.12613489,0.95166959\N,-4.78535333,-1.47102978,0.999
 54968\C,-6.98573111,-4.24110877,0.74509966\N,-7.0627541,-5.42011765,0.
 61418019\C,-10.90100567,-4.29454975,0.81857562\N,-10.81112109,-5.39407
 192,0.73258744\C,-12.1425336,-2.11963938,0.99520723\N,-13.0824805,-1.4
 7862582,1.04787186\\Version=ES64L-G16RevC.01\HF=-784.9979351\RMSD=6.95
 5e-09\RMSF=5.128e-02\Dipole=-0.1214317,0.0214888,0.0039529\Quadrupole=
 -391.9680003,154.7141029,237.2538974,-108.3060958,66.1728156,5.6766543
 \PG=C01 [X(C12N6)]\\@
 The archive entry for this job was punched.


 THERE IS NO SCIENCE WITHOUT FANCY, NOR ART WITHOUT FACTS.
     -- VLADIMIR NABAKOV
 Job cpu time:       0 days  0 hours 10 minutes  7.8 seconds.
 Elapsed time:       0 days  0 hours  0 minutes 23.0 seconds.
 File lengths (MBytes):  RWF=    149 Int=      0 D2E=      0 Chk=      8 Scr=      1
 Normal termination of Gaussian 16 at Fri Oct 11 15:41:49 2024.
