 Entering Gaussian System, Link 0=g16
 Input=JOBS/15_B.gjf
 Output=JOBS/15_B.log
 Initial command:
 /data/app/gaussian/C01-avx2//g16/l1.exe "/tmp/Gau-2528237.inp" -scrdir="/tmp/"
 Entering Link 1 = /data/app/gaussian/C01-avx2//g16/l1.exe PID=   2528238.
  
 Copyright (c) 1988-2019, Gaussian, Inc.  All Rights Reserved.
  
 This is part of the Gaussian(R) 16 program.  It is based on
 the Gaussian(R) 09 system (copyright 2009, Gaussian, Inc.),
 the Gaussian(R) 03 system (copyright 2003, Gaussian, Inc.),
 the Gaussian(R) 98 system (copyright 1998, Gaussian, Inc.),
 the Gaussian(R) 94 system (copyright 1995, Gaussian, Inc.),
 the Gaussian 92(TM) system (copyright 1992, Gaussian, Inc.),
 the Gaussian 90(TM) system (copyright 1990, Gaussian, Inc.),
 the Gaussian 88(TM) system (copyright 1988, Gaussian, Inc.),
 the Gaussian 86(TM) system (copyright 1986, Carnegie Mellon
 University), and the Gaussian 82(TM) system (copyright 1983,
 Carnegie Mellon University). Gaussian is a federally registered
 trademark of Gaussian, Inc.
  
 This software contains proprietary and confidential information,
 including trade secrets, belonging to Gaussian, Inc.
  
 This software is provided under written license and may be
 used, copied, transmitted, or stored only in accord with that
 written license.
  
 The following legend is applicable only to US Government
 contracts under FAR:
  
                    RESTRICTED RIGHTS LEGEND
  
 Use, reproduction and disclosure by the US Government is
 subject to restrictions as set forth in subparagraphs (a)
 and (c) of the Commercial Computer Software - Restricted
 Rights clause in FAR 52.227-19.
  
 Gaussian, Inc.
 340 Quinnipiac St., Bldg. 40, Wallingford CT 06492
  
  
 ---------------------------------------------------------------
 Warning -- This program may not be used in any manner that
 competes with the business of Gaussian, Inc. or will provide
 assistance to any competitor of Gaussian, Inc.  The licensee
 of this program is prohibited from giving any competitor of
 Gaussian, Inc. access to this program.  By using this program,
 the user acknowledges that Gaussian, Inc. is engaged in the
 business of creating and licensing software in the field of
 computational chemistry and represents and warrants to the
 licensee that it is not a competitor of Gaussian, Inc. and that
 it will not use this program in any manner prohibited above.
 ---------------------------------------------------------------
  

 Cite this work as:
 Gaussian 16, Revision C.01,
 M. J. Frisch, G. W. Trucks, H. B. Schlegel, G. E. Scuseria, 
 M. A. Robb, J. R. Cheeseman, G. Scalmani, V. Barone, 
 G. A. Petersson, H. Nakatsuji, X. Li, M. Caricato, A. V. Marenich, 
 J. Bloino, B. G. Janesko, R. Gomperts, B. Mennucci, H. P. Hratchian, 
 J. V. Ortiz, A. F. Izmaylov, J. L. Sonnenberg, D. Williams-Young, 
 F. Ding, F. Lipparini, F. Egidi, J. Goings, B. Peng, A. Petrone, 
 T. Henderson, D. Ranasinghe, V. G. Zakrzewski, J. Gao, N. Rega, 
 G. Zheng, W. Liang, M. Hada, M. Ehara, K. Toyota, R. Fukuda, 
 J. Hasegawa, M. Ishida, T. Nakajima, Y. Honda, O. Kitao, H. Nakai, 
 T. Vreven, K. Throssell, J. A. Montgomery, Jr., J. E. Peralta, 
 F. Ogliaro, M. J. Bearpark, J. J. Heyd, E. N. Brothers, K. N. Kudin, 
 V. N. Staroverov, T. A. Keith, R. Kobayashi, J. Normand, 
 K. Raghavachari, A. P. Rendell, J. C. Burant, S. S. Iyengar, 
 J. Tomasi, M. Cossi, J. M. Millam, M. Klene, C. Adamo, R. Cammi, 
 J. W. Ochterski, R. L. Martin, K. Morokuma, O. Farkas, 
 J. B. Foresman, and D. J. Fox, Gaussian, Inc., Wallingford CT, 2019.
 
 ******************************************
 Gaussian 16:  ES64L-G16RevC.01  3-Jul-2019
                11-Oct-2024 
 ******************************************
 %chk=b.chk
 %nprocshared=28
 Will use up to   28 processors via shared memory.
 %mem=48gb
 ----------------------------------------------------------------------
 # wb97xd def2svp scrf=(smd,solvent=acetonitrile) g09default scf=(xqc,m
 axcycle=64) force guess=read nosymm
 ----------------------------------------------------------------------
 1/10=7,30=1,38=1,158=3,167=1/1,3;
 2/12=2,15=1,17=6,18=5,40=1/2;
 3/5=43,7=101,11=2,25=1,27=10,30=1,70=32201,71=1,72=2,74=-58,75=-4,116=-2,158=3/1,2,3;
 4/5=1,60=-1/1;
 5/5=2,7=64,8=3,13=1,38=6,53=2,87=10/2,8;
 6/7=2,8=2,9=2,10=2,28=1,87=10/1;
 7/29=1,30=1,87=10/1,2,3,16;
 1/10=7,30=1,158=3,167=1/3;
 99//99;
 Using 2006 physical constants.
 ----------
 Title Card
 ----------
 Symbolic Z-matrix:
 Charge = -1 Multiplicity = 2
 6                    -8.94457  -0.87663   1.11182 
 6                    -8.94399   0.49632   1.25182 
 6                    -8.20412  -2.13939   0.97875 
 6                    -7.01055  -2.82487   0.89884 
 6                    -9.66952  -2.13193   0.99454 
 6                    -10.86872  -2.81794   0.93773 
 6                    -10.18276   1.24192   1.3426 
 7                    -11.21577   1.7409    1.40765 
 6                    -7.68798   1.25047   1.32449 
 7                    -6.65896   1.73625   1.37583 
 6                    -5.75197  -2.12613   0.95167 
 7                    -4.78535  -1.47103   0.99955 
 6                    -6.98573  -4.24111   0.7451 
 7                    -7.06275  -5.42012   0.61418 
 6                    -10.90101  -4.29455   0.81858 
 7                    -10.81112  -5.39407   0.73259 
 6                    -12.14253  -2.11964   0.99521 
 7                    -13.08248  -1.47863   1.04787 
 

 GradGradGradGradGradGradGradGradGradGradGradGradGradGradGradGradGradGrad
 Berny optimization.
 Initialization pass.
 Trust Radius=3.00D-01 FncErr=1.00D-07 GrdErr=1.00D-07 EigMax=2.50D+02 EigMin=1.00D-04
 Number of steps in this run=      2 maximum allowed number of steps=      2.
 GradGradGradGradGradGradGradGradGradGradGradGradGradGradGradGradGradGrad

                          Input orientation:                          
 ---------------------------------------------------------------------
 Center     Atomic      Atomic             Coordinates (Angstroms)
 Number     Number       Type             X           Y           Z
 ---------------------------------------------------------------------
      1          6           0       -8.944572   -0.876630    1.111822
      2          6           0       -8.943991    0.496317    1.251824
      3          6           0       -8.204117   -2.139391    0.978749
      4          6           0       -7.010554   -2.824867    0.898836
      5          6           0       -9.669520   -2.131927    0.994545
      6          6           0      -10.868721   -2.817940    0.937727
      7          6           0      -10.182762    1.241916    1.342596
      8          7           0      -11.215771    1.740897    1.407645
      9          6           0       -7.687980    1.250473    1.324488
     10          7           0       -6.658960    1.736253    1.375831
     11          6           0       -5.751967   -2.126135    0.951670
     12          7           0       -4.785353   -1.471030    0.999550
     13          6           0       -6.985731   -4.241109    0.745100
     14          7           0       -7.062754   -5.420118    0.614180
     15          6           0      -10.901006   -4.294550    0.818576
     16          7           0      -10.811121   -5.394072    0.732587
     17          6           0      -12.142534   -2.119639    0.995207
     18          7           0      -13.082481   -1.478626    1.047872
 ---------------------------------------------------------------------
                    Distance matrix (angstroms):
                    1          2          3          4          5
     1  C    0.000000
     2  C    1.380067   0.000000
     3  C    1.469881   2.751171   0.000000
     4  C    2.753437   3.859151   1.378715   0.000000
     5  C    1.454330   2.738659   1.465507   2.749440   0.000000
     6  C    2.738859   3.845458   2.749950   3.858369   1.382725
     7  C    2.464672   1.448693   3.934547   5.176732   3.430361
     8  N    3.478117   2.595041   4.930583   6.228076   4.190502
     9  C    2.479680   1.466832   3.446319   4.153129   3.933954
    10  N    3.481505   2.602726   4.191157   4.599452   4.916468
    11  C    3.432148   4.142025   2.452336   1.440507   3.917792
    12  N    4.202977   4.607425   3.483545   2.606634   4.928680
    13  C    3.910404   5.151190   2.440548   1.424778   3.422512
    14  N    4.942891   6.240981   3.492676   2.611337   4.213324
    15  C    3.949152   5.193267   3.455947   4.159570   2.494887
    16  N    4.902561   6.201005   4.177321   4.590508   3.466044
    17  C    3.433021   4.140019   3.938500   5.181105   2.473045
    18  N    4.181958   4.590108   4.923395   6.221163   3.475334
                    6          7          8          9         10
     6  C    0.000000
     7  C    4.137257   0.000000
     8  N    4.596114   1.149051   0.000000
     9  C    5.178676   2.494863   3.562687   0.000000
    10  N    6.217290   3.558463   4.556924   1.139079   0.000000
    11  C    5.163329   5.579296   6.709322   3.910067   3.990061
    12  N    6.231000   6.050602   7.199533   3.992168   3.733450
    13  C    4.140064   6.375074   7.356398   5.566535   6.019423
    14  N    4.621839   7.392411   8.316084   6.737375   7.208106
    15  C    1.481761   5.607399   6.072289   6.428589   7.394326
    16  N    2.584928   6.693525   7.178246   7.365754   8.276215
    17  C    1.453797   3.906589   3.991583   5.595456   6.714340
    18  N    2.589715   3.987051   3.738899   6.051870   7.190592
                   11         12         13         14         15
    11  C    0.000000
    12  N    1.168673   0.000000
    13  C    2.457226   3.546794   0.000000
    14  N    3.561234   4.574971   1.188753   0.000000
    15  C    5.588590   6.738414   3.916329   4.005104   0.000000
    16  N    6.026811   7.195235   3.995383   3.750327   1.106536
    17  C    6.390719   7.385717   5.581738   6.069802   2.510543
    18  N    7.359685   8.297271   6.700249   7.208367   3.569431
                   16         17         18
    16  N    0.000000
    17  C    3.544508   0.000000
    18  N    4.537532   1.138935   0.000000
 Symmetry turned off by external request.
 Stoichiometry    C12N6(1-,2)
 Framework group  C1[X(C12N6)]
 Deg. of freedom    48
 Full point group                 C1      NOp   1
 Rotational constants (GHZ):           0.4207776           0.4202452           0.2102748
 Standard basis: def2SVP (5D, 7F)
   252 basis functions,   450 primitive gaussians,   270 cartesian basis functions
    58 alpha electrons       57 beta electrons
       nuclear repulsion energy       955.7429663457 Hartrees.
 NAtoms=   18 NActive=   18 NUniq=   18 SFac= 1.00D+00 NAtFMM=   60 NAOKFM=F Big=F
 Integral buffers will be    131072 words long.
 Raffenetti 2 integral format.
 Two-electron integral symmetry is turned off.
 Nuclear repulsion after empirical dispersion term =      955.7315350756 Hartrees.
 Force PCM accuracy= 1.00D-10.
 ------------------------------------------------------------------------------
 Polarizable Continuum Model (PCM)
 =================================
 Model                : PCM (using non-symmetric T matrix).
 Atomic radii         : SMD-Coulomb.
 Polarization charges : Total charges.
 Charge compensation  : None.
 Solution method      : On-the-fly selection.
 Cavity type          : VdW (van der Waals Surface) (Alpha=1.000).
 Cavity algorithm     : GePol (No added spheres)
                        Default sphere list used, NSphG=   18.
                        Lebedev-Laikov grids with approx.  5.0 points / Ang**2.
                        Smoothing algorithm: York/Karplus (Gamma=1.0000).
                        Polarization charges: spherical gaussians, with
                                              point-specific exponents (IZeta= 3).
                        Self-potential: point-specific (ISelfS= 7).
                        Self-field    : sphere-specific E.n sum rule (ISelfD= 2).
 1st derivatives      : Analytical E(r).r(x)/FMM algorithm (CHGder, D1EAlg=3).
                        Cavity 1st derivative terms included.
 Solvent              : Acetonitrile, Eps=  35.688000 Eps(inf)=   1.806874
 ------------------------------------------------------------------------------
 Spheres list:
 ISph  on   Nord     Re0    Alpha      Xe            Ye            Ze
    1   C      1    1.8500  1.000     -8.944572     -0.876630      1.111822
    2   C      2    1.8500  1.000     -8.943991      0.496317      1.251824
    3   C      3    1.8500  1.000     -8.204117     -2.139391      0.978749
    4   C      4    1.8500  1.000     -7.010554     -2.824867      0.898836
    5   C      5    1.8500  1.000     -9.669520     -2.131927      0.994545
    6   C      6    1.8500  1.000    -10.868721     -2.817940      0.937727
    7   C      7    1.8500  1.000    -10.182762      1.241916      1.342596
    8   N      8    1.8900  1.000    -11.215771      1.740897      1.407645
    9   C      9    1.8500  1.000     -7.687980      1.250473      1.324488
   10   N     10    1.8900  1.000     -6.658960      1.736253      1.375831
   11   C     11    1.8500  1.000     -5.751967     -2.126135      0.951670
   12   N     12    1.8900  1.000     -4.785353     -1.471030      0.999550
   13   C     13    1.8500  1.000     -6.985731     -4.241109      0.745100
   14   N     14    1.8900  1.000     -7.062754     -5.420118      0.614180
   15   C     15    1.8500  1.000    -10.901006     -4.294550      0.818576
   16   N     16    1.8900  1.000    -10.811121     -5.394072      0.732587
   17   C     17    1.8500  1.000    -12.142534     -2.119639      0.995207
   18   N     18    1.8900  1.000    -13.082481     -1.478626      1.047872
 ------------------------------------------------------------------------------
 ------------------------------------------------------------------------------
 Atomic radii for non-electrostatic terms: SMD-CDS.
 ------------------------------------------------------------------------------
 Nuclear repulsion after PCM non-electrostatic terms =      955.7400842113 Hartrees.
 One-electron integrals computed using PRISM.
   1 Symmetry operations used in ECPInt.
 ECPInt:  NShTT=    5886 NPrTT=   23670 LenC2=    5392 LenP2D=   14872.
 LDataN:  DoStor=T MaxTD1= 4 Len=   56
 NBasis=   252 RedAO= T EigKep=  2.98D-04  NBF=   252
 NBsUse=   252 1.00D-06 EigRej= -1.00D+00 NBFU=   252
 Initial guess from the checkpoint file:  "b.chk"
 B after Tr=     0.000772   -0.001203   -0.000105
         Rot=    1.000000    0.000020    0.000000    0.000035 Ang=   0.00 deg.
 Initial guess <Sx>= 0.0000 <Sy>= 0.0000 <Sz>= 0.5000 <S**2>= 0.7819 S= 0.5158
 Requested convergence on RMS density matrix=1.00D-08 within  64 cycles.
 Requested convergence on MAX density matrix=1.00D-06.
 Requested convergence on             energy=1.00D-06.
 No special actions if energy rises.
 Inv3:  Mode=1 IEnd=    19568748.
 Iteration    1 A*A^-1 deviation from unit magnitude is 3.33D-15 for     53.
 Iteration    1 A*A^-1 deviation from orthogonality  is 2.23D-15 for   1689    277.
 Iteration    1 A^-1*A deviation from unit magnitude is 3.11D-15 for   1685.
 Iteration    1 A^-1*A deviation from orthogonality  is 2.02D-12 for    827    809.
 Error on total polarization charges =  0.01998
 SCF Done:  E(UwB97XD) =  -784.835849440     A.U. after   19 cycles
            NFock= 19  Conv=0.78D-08     -V/T= 2.0100
 <Sx>= 0.0000 <Sy>= 0.0000 <Sz>= 0.5000 <S**2>= 0.7853 S= 0.5175
 <L.S>=  0.00000000000    
 SMD-CDS (non-electrostatic) energy       (kcal/mol) =       5.36
 (included in total energy above)
 Annihilation of the first spin contaminant:
 S**2 before annihilation     0.7853,   after     0.7510
 QCSCF skips out because SCF is already converged.

 **********************************************************************

            Population analysis using the SCF Density.

 **********************************************************************

 Alpha  occ. eigenvalues --  -14.46536 -14.46173 -14.45734 -14.45565 -14.45510
 Alpha  occ. eigenvalues --  -14.44803 -10.38955 -10.38911 -10.38873 -10.38825
 Alpha  occ. eigenvalues --  -10.38739 -10.38363 -10.36718 -10.36411 -10.35996
 Alpha  occ. eigenvalues --  -10.35896 -10.35785 -10.35187  -1.03799  -1.02996
 Alpha  occ. eigenvalues --   -1.02113  -1.01900  -1.01435  -1.00870  -1.00005
 Alpha  occ. eigenvalues --   -0.91850  -0.91440  -0.88680  -0.71859  -0.71633
 Alpha  occ. eigenvalues --   -0.68310  -0.67603  -0.67222  -0.66819  -0.54423
 Alpha  occ. eigenvalues --   -0.50763  -0.50608  -0.49049  -0.48874  -0.47662
 Alpha  occ. eigenvalues --   -0.47515  -0.47385  -0.46973  -0.46775  -0.46584
 Alpha  occ. eigenvalues --   -0.46069  -0.45703  -0.45675  -0.45244  -0.44835
 Alpha  occ. eigenvalues --   -0.44552  -0.44388  -0.43377  -0.43195  -0.42588
 Alpha  occ. eigenvalues --   -0.35965  -0.35673  -0.27151
 Alpha virt. eigenvalues --    0.03873   0.04651   0.06341   0.07458   0.08020
 Alpha virt. eigenvalues --    0.09050   0.09799   0.11186   0.11669   0.12165
 Alpha virt. eigenvalues --    0.12593   0.14259   0.18744   0.19027   0.20446
 Alpha virt. eigenvalues --    0.23255   0.24271   0.24666   0.25961   0.26141
 Alpha virt. eigenvalues --    0.27538   0.29711   0.30116   0.31004   0.31328
 Alpha virt. eigenvalues --    0.31838   0.34186   0.45614   0.46337   0.49441
 Alpha virt. eigenvalues --    0.49872   0.50986   0.52033   0.53220   0.53265
 Alpha virt. eigenvalues --    0.53689   0.54358   0.54739   0.56416   0.59722
 Alpha virt. eigenvalues --    0.59988   0.60324   0.60809   0.61157   0.63380
 Alpha virt. eigenvalues --    0.63485   0.68718   0.68889   0.69003   0.70525
 Alpha virt. eigenvalues --    0.70642   0.72144   0.72398   0.72699   0.73040
 Alpha virt. eigenvalues --    0.73248   0.73330   0.74322   0.74415   0.74809
 Alpha virt. eigenvalues --    0.77787   0.78177   0.78932   0.80881   0.81027
 Alpha virt. eigenvalues --    0.83958   0.84127   0.85764   0.87164   0.91994
 Alpha virt. eigenvalues --    0.92824   0.92983   0.93176   0.93787   0.94445
 Alpha virt. eigenvalues --    0.95099   0.98038   0.98130   0.99105   0.99286
 Alpha virt. eigenvalues --    1.00707   1.00987   1.01065   1.01357   1.03100
 Alpha virt. eigenvalues --    1.03827   1.04776   1.06890   1.09440   1.09559
 Alpha virt. eigenvalues --    1.12353   1.16075   1.16862   1.17244   1.18145
 Alpha virt. eigenvalues --    1.20454   1.21969   1.22936   1.23785   1.31449
 Alpha virt. eigenvalues --    1.33441   1.33694   1.38581   1.38677   1.41991
 Alpha virt. eigenvalues --    1.44021   1.44311   1.44388   1.44743   1.56915
 Alpha virt. eigenvalues --    1.57075   1.66142   1.67720   1.68091   1.68197
 Alpha virt. eigenvalues --    1.68615   1.68979   1.74545   1.74700   1.76081
 Alpha virt. eigenvalues --    1.76824   1.76993   1.77593   1.78478   1.79628
 Alpha virt. eigenvalues --    1.80041   1.80097   1.83782   1.90630   1.92005
 Alpha virt. eigenvalues --    1.93387   1.97558   1.98181   1.99130   2.00496
 Alpha virt. eigenvalues --    2.01716   2.02882   2.04222   2.09601   2.10118
 Alpha virt. eigenvalues --    2.12132   2.17939   2.18151   2.20011   2.24250
 Alpha virt. eigenvalues --    2.25200   2.25775   2.26421   2.31729   2.32152
 Alpha virt. eigenvalues --    2.32448   2.33930   2.34017   2.34426   2.34917
 Alpha virt. eigenvalues --    2.35073   2.35464   2.36077   2.36325   2.36759
 Alpha virt. eigenvalues --    2.37299   2.38387   2.53312   2.55499   2.55786
 Alpha virt. eigenvalues --    2.65297   2.66262   2.89024   2.91225   2.94108
 Alpha virt. eigenvalues --    2.95010   2.98030   2.99469   3.01630   3.01827
 Alpha virt. eigenvalues --    3.05324   3.06179   3.07236   3.07826   3.08123
 Alpha virt. eigenvalues --    3.10146   3.12579   3.18017   3.19622   3.29103
 Alpha virt. eigenvalues --    3.37376   3.38918   3.40365   3.48416   3.53008
 Alpha virt. eigenvalues --    3.56609   3.60372   3.65995   3.75769
  Beta  occ. eigenvalues --  -14.46332 -14.45999 -14.45563 -14.45413 -14.45341
  Beta  occ. eigenvalues --  -14.44672 -10.38971 -10.38906 -10.38879 -10.38518
  Beta  occ. eigenvalues --  -10.38380 -10.38031 -10.36814 -10.36496 -10.36080
  Beta  occ. eigenvalues --  -10.35974 -10.35869 -10.35257  -1.03467  -1.02700
  Beta  occ. eigenvalues --   -1.01815  -1.01592  -1.01153  -1.00529  -0.99669
  Beta  occ. eigenvalues --   -0.91122  -0.90649  -0.87658  -0.71718  -0.71470
  Beta  occ. eigenvalues --   -0.68081  -0.67349  -0.67035  -0.66545  -0.53473
  Beta  occ. eigenvalues --   -0.49532  -0.49358  -0.48905  -0.48689  -0.47313
  Beta  occ. eigenvalues --   -0.47193  -0.47089  -0.46680  -0.46587  -0.46389
  Beta  occ. eigenvalues --   -0.45605  -0.45232  -0.44733  -0.44686  -0.44477
  Beta  occ. eigenvalues --   -0.44412  -0.43541  -0.43254  -0.43079  -0.42436
  Beta  occ. eigenvalues --   -0.33200  -0.33024
  Beta virt. eigenvalues --   -0.09605   0.04897   0.05562   0.06451   0.07545
  Beta virt. eigenvalues --    0.08091   0.09049   0.10748   0.11717   0.12045
  Beta virt. eigenvalues --    0.12650   0.12946   0.14543   0.19031   0.19267
  Beta virt. eigenvalues --    0.21990   0.23157   0.25861   0.26158   0.26311
  Beta virt. eigenvalues --    0.26327   0.27781   0.29809   0.30254   0.31483
  Beta virt. eigenvalues --    0.31877   0.32413   0.34302   0.45787   0.46490
  Beta virt. eigenvalues --    0.49553   0.49948   0.51083   0.52132   0.53191
  Beta virt. eigenvalues --    0.53211   0.53865   0.54520   0.54883   0.56587
  Beta virt. eigenvalues --    0.59648   0.59900   0.60203   0.60841   0.61194
  Beta virt. eigenvalues --    0.63357   0.63532   0.69046   0.69056   0.69166
  Beta virt. eigenvalues --    0.70689   0.70797   0.72239   0.72517   0.72740
  Beta virt. eigenvalues --    0.73191   0.73439   0.73513   0.74442   0.74522
  Beta virt. eigenvalues --    0.74939   0.77787   0.78192   0.79907   0.81596
  Beta virt. eigenvalues --    0.81771   0.84095   0.84258   0.86046   0.87247
  Beta virt. eigenvalues --    0.92132   0.92991   0.93543   0.93734   0.93992
  Beta virt. eigenvalues --    0.94954   0.95748   0.98607   0.98675   0.99329
  Beta virt. eigenvalues --    0.99499   1.00912   1.01114   1.01169   1.01455
  Beta virt. eigenvalues --    1.03243   1.04108   1.04878   1.07196   1.09667
  Beta virt. eigenvalues --    1.09725   1.12454   1.16266   1.17112   1.17506
  Beta virt. eigenvalues --    1.18415   1.20769   1.22210   1.23210   1.24383
  Beta virt. eigenvalues --    1.31586   1.33644   1.33882   1.39171   1.39295
  Beta virt. eigenvalues --    1.42745   1.44285   1.44427   1.44905   1.45540
  Beta virt. eigenvalues --    1.56983   1.57089   1.66014   1.67577   1.67917
  Beta virt. eigenvalues --    1.68026   1.68430   1.68748   1.74469   1.74618
  Beta virt. eigenvalues --    1.76206   1.76915   1.77019   1.77507   1.78410
  Beta virt. eigenvalues --    1.79552   1.79979   1.80287   1.83678   1.90870
  Beta virt. eigenvalues --    1.92077   1.93426   1.98097   1.98735   1.99235
  Beta virt. eigenvalues --    2.00941   2.02184   2.02968   2.04809   2.09940
  Beta virt. eigenvalues --    2.10525   2.12409   2.18896   2.19104   2.21140
  Beta virt. eigenvalues --    2.24940   2.25793   2.26393   2.27074   2.32339
  Beta virt. eigenvalues --    2.32636   2.33146   2.34570   2.34602   2.34912
  Beta virt. eigenvalues --    2.35421   2.35683   2.36033   2.36695   2.36854
  Beta virt. eigenvalues --    2.37249   2.37914   2.38909   2.53729   2.55610
  Beta virt. eigenvalues --    2.55877   2.65809   2.66768   2.89102   2.91411
  Beta virt. eigenvalues --    2.94232   2.95169   2.98160   2.99587   3.01753
  Beta virt. eigenvalues --    3.02328   3.05798   3.06366   3.07702   3.08012
  Beta virt. eigenvalues --    3.08592   3.10597   3.13000   3.18258   3.19851
  Beta virt. eigenvalues --    3.29270   3.37569   3.39121   3.40563   3.48597
  Beta virt. eigenvalues --    3.53185   3.56787   3.60558   3.66178   3.75944
          Condensed to atoms (all electrons):
               1          2          3          4          5          6
     1  C    4.891976   0.547325   0.292132  -0.091562   0.283082  -0.093678
     2  C    0.547325   5.316711  -0.090758  -0.007308  -0.095138  -0.007324
     3  C    0.292132  -0.090758   4.871522   0.545073   0.290939  -0.090506
     4  C   -0.091562  -0.007308   0.545073   5.323039  -0.092569  -0.007211
     5  C    0.283082  -0.095138   0.290939  -0.092569   4.903177   0.548243
     6  C   -0.093678  -0.007324  -0.090506  -0.007211   0.548243   5.310597
     7  C    0.001620   0.392533   0.004992  -0.000238  -0.015471   0.001102
     8  N   -0.000891  -0.027852   0.000005  -0.000001  -0.000415   0.000086
     9  C    0.001218   0.381684  -0.013958   0.000945   0.005225  -0.000232
    10  N   -0.000899  -0.026501  -0.000388   0.000087   0.000007  -0.000001
    11  C   -0.016093   0.001119   0.001538   0.383327   0.005592  -0.000252
    12  N   -0.000386   0.000081  -0.001034  -0.028951   0.000010  -0.000001
    13  C    0.005433  -0.000279   0.003014   0.390468  -0.017081   0.001123
    14  N    0.000006  -0.000001  -0.000958  -0.031074  -0.000387   0.000077
    15  C    0.004988  -0.000207  -0.012766   0.000893   0.000171   0.379994
    16  N    0.000006  -0.000001  -0.000398   0.000084  -0.001018  -0.025560
    17  C   -0.014839   0.000992   0.004900  -0.000233   0.001507   0.394511
    18  N   -0.000420   0.000087   0.000004  -0.000001  -0.000819  -0.027260
               7          8          9         10         11         12
     1  C    0.001620  -0.000891   0.001218  -0.000899  -0.016093  -0.000386
     2  C    0.392533  -0.027852   0.381684  -0.026501   0.001119   0.000081
     3  C    0.004992   0.000005  -0.013958  -0.000388   0.001538  -0.001034
     4  C   -0.000238  -0.000001   0.000945   0.000087   0.383327  -0.028951
     5  C   -0.015471  -0.000415   0.005225   0.000007   0.005592   0.000010
     6  C    0.001102   0.000086  -0.000232  -0.000001  -0.000252  -0.000001
     7  C    4.799156   0.924128  -0.026552   0.001296   0.000045   0.000001
     8  N    0.924128   6.092936   0.001278   0.000028   0.000000   0.000000
     9  C   -0.026552   0.001278   4.796480   0.938158   0.000265   0.000373
    10  N    0.001296   0.000028   0.938158   6.068484   0.000210  -0.000718
    11  C    0.000045   0.000000   0.000265   0.000210   4.813224   0.904369
    12  N    0.000001   0.000000   0.000373  -0.000718   0.904369   6.130098
    13  C   -0.000003  -0.000000   0.000047   0.000001  -0.027819   0.001724
    14  N   -0.000000   0.000000   0.000000   0.000000   0.001680   0.000037
    15  C    0.000035   0.000001  -0.000002  -0.000000   0.000039   0.000000
    16  N    0.000000   0.000000  -0.000000  -0.000000   0.000001   0.000000
    17  C    0.000256   0.000301   0.000039   0.000000  -0.000003  -0.000000
    18  N    0.000269  -0.000724   0.000001   0.000000  -0.000000   0.000000
              13         14         15         16         17         18
     1  C    0.005433   0.000006   0.004988   0.000006  -0.014839  -0.000420
     2  C   -0.000279  -0.000001  -0.000207  -0.000001   0.000992   0.000087
     3  C    0.003014  -0.000958  -0.012766  -0.000398   0.004900   0.000004
     4  C    0.390468  -0.031074   0.000893   0.000084  -0.000233  -0.000001
     5  C   -0.017081  -0.000387   0.000171  -0.001018   0.001507  -0.000819
     6  C    0.001123   0.000077   0.379994  -0.025560   0.394511  -0.027260
     7  C   -0.000003  -0.000000   0.000035   0.000000   0.000256   0.000269
     8  N   -0.000000   0.000000   0.000001   0.000000   0.000301  -0.000724
     9  C    0.000047   0.000000  -0.000002  -0.000000   0.000039   0.000001
    10  N    0.000001   0.000000  -0.000000  -0.000000   0.000000   0.000000
    11  C   -0.027819   0.001680   0.000039   0.000001  -0.000003  -0.000000
    12  N    0.001724   0.000037   0.000000   0.000000  -0.000000   0.000000
    13  C    4.818593   0.880329   0.000306   0.000054   0.000046   0.000000
    14  N    0.880329   6.179669   0.000514  -0.000705   0.000001   0.000000
    15  C    0.000306   0.000514   4.774000   0.975973  -0.026043   0.001134
    16  N    0.000054  -0.000705   0.975973   6.005152   0.001092   0.000025
    17  C    0.000046   0.000001  -0.026043   0.001092   4.792278   0.934739
    18  N    0.000000   0.000000   0.001134   0.000025   0.934739   6.073853
          Atomic-Atomic Spin Densities.
               1          2          3          4          5          6
     1  C   -0.032891  -0.071015   0.035890  -0.005939   0.034798  -0.006280
     2  C   -0.071015   0.395006  -0.006584   0.000874  -0.005933   0.000964
     3  C    0.035890  -0.006584  -0.012482  -0.073613   0.035635  -0.006605
     4  C   -0.005939   0.000874  -0.073613   0.365313  -0.005748   0.000898
     5  C    0.034798  -0.005933   0.035635  -0.005748  -0.043899  -0.070055
     6  C   -0.006280   0.000964  -0.006605   0.000898  -0.070055   0.412820
     7  C   -0.000067   0.006355  -0.000101  -0.000009   0.000245  -0.000037
     8  N    0.000521  -0.005109   0.000008  -0.000000   0.000039  -0.000030
     9  C   -0.000096   0.005332   0.000222  -0.000038  -0.000112  -0.000009
    10  N    0.000490  -0.004832   0.000042  -0.000027   0.000007  -0.000000
    11  C    0.000208  -0.000038   0.000506   0.006444  -0.000101  -0.000010
    12  N    0.000039  -0.000028   0.000553  -0.004951   0.000007  -0.000000
    13  C   -0.000102  -0.000011   0.000710   0.008170   0.000234  -0.000040
    14  N    0.000008  -0.000000   0.000596  -0.005208   0.000039  -0.000028
    15  C   -0.000110  -0.000008   0.000218  -0.000034  -0.000384   0.004187
    16  N    0.000007  -0.000000   0.000041  -0.000026   0.000452  -0.004795
    17  C    0.000260  -0.000041  -0.000110  -0.000009  -0.000324   0.006096
    18  N    0.000042  -0.000030   0.000008  -0.000000   0.000510  -0.005222
               7          8          9         10         11         12
     1  C   -0.000067   0.000521  -0.000096   0.000490   0.000208   0.000039
     2  C    0.006355  -0.005109   0.005332  -0.004832  -0.000038  -0.000028
     3  C   -0.000101   0.000008   0.000222   0.000042   0.000506   0.000553
     4  C   -0.000009  -0.000000  -0.000038  -0.000027   0.006444  -0.004951
     5  C    0.000245   0.000039  -0.000112   0.000007  -0.000101   0.000007
     6  C   -0.000037  -0.000030  -0.000009  -0.000000  -0.000010  -0.000000
     7  C   -0.069184  -0.001973  -0.001429   0.000045  -0.000001   0.000000
     8  N   -0.001973   0.105707   0.000044   0.000006  -0.000000   0.000000
     9  C   -0.001429   0.000044  -0.063578  -0.001501  -0.000001   0.000007
    10  N    0.000045   0.000006  -0.001501   0.094044   0.000009   0.000039
    11  C   -0.000001  -0.000000  -0.000001   0.000009  -0.069876  -0.002330
    12  N    0.000000   0.000000   0.000007   0.000039  -0.002330   0.107918
    13  C   -0.000000  -0.000000  -0.000001   0.000000  -0.001161   0.000087
    14  N   -0.000000   0.000000  -0.000000   0.000000   0.000091   0.000007
    15  C   -0.000001   0.000000   0.000000  -0.000000  -0.000001  -0.000000
    16  N   -0.000000   0.000000  -0.000000   0.000000   0.000000   0.000000
    17  C    0.000002   0.000008  -0.000001  -0.000000   0.000000  -0.000000
    18  N    0.000008   0.000041   0.000000   0.000000  -0.000000   0.000000
              13         14         15         16         17         18
     1  C   -0.000102   0.000008  -0.000110   0.000007   0.000260   0.000042
     2  C   -0.000011  -0.000000  -0.000008  -0.000000  -0.000041  -0.000030
     3  C    0.000710   0.000596   0.000218   0.000041  -0.000110   0.000008
     4  C    0.008170  -0.005208  -0.000034  -0.000026  -0.000009  -0.000000
     5  C    0.000234   0.000039  -0.000384   0.000452  -0.000324   0.000510
     6  C   -0.000040  -0.000028   0.004187  -0.004795   0.006096  -0.005222
     7  C   -0.000000  -0.000000  -0.000001  -0.000000   0.000002   0.000008
     8  N   -0.000000   0.000000   0.000000   0.000000   0.000008   0.000041
     9  C   -0.000001  -0.000000   0.000000  -0.000000  -0.000001   0.000000
    10  N    0.000000   0.000000  -0.000000   0.000000  -0.000000   0.000000
    11  C   -0.001161   0.000091  -0.000001   0.000000   0.000000  -0.000000
    12  N    0.000087   0.000007  -0.000000   0.000000  -0.000000   0.000000
    13  C   -0.079962  -0.003312  -0.000000   0.000010  -0.000002  -0.000000
    14  N   -0.003312   0.126454   0.000007   0.000037   0.000000   0.000000
    15  C   -0.000000   0.000007  -0.057069  -0.000723  -0.001505   0.000025
    16  N    0.000010   0.000037  -0.000723   0.081119   0.000028   0.000006
    17  C   -0.000002   0.000000  -0.001505   0.000028  -0.069034  -0.001758
    18  N   -0.000000   0.000000   0.000025   0.000006  -0.001758   0.104371
 Mulliken charges and spin densities:
               1          2
     1  C    0.190983  -0.044238
     2  C   -0.385163   0.314903
     3  C    0.196647  -0.025066
     4  C   -0.384770   0.286095
     5  C    0.184944  -0.054589
     6  C   -0.383708   0.331853
     7  C   -0.083169  -0.066149
     8  N    0.011123   0.099262
     9  C   -0.084967  -0.061160
    10  N    0.020235   0.088322
    11  C   -0.067243  -0.066261
    12  N   -0.005605   0.101349
    13  C   -0.055956  -0.075381
    14  N   -0.029189   0.118690
    15  C   -0.099030  -0.055398
    16  N    0.045296   0.076154
    17  C   -0.089543  -0.066390
    18  N    0.019114   0.098003
 Sum of Mulliken charges =  -1.00000   1.00000
 Mulliken charges and spin densities with hydrogens summed into heavy atoms:
               1          2
     1  C    0.190983  -0.044238
     2  C   -0.385163   0.314903
     3  C    0.196647  -0.025066
     4  C   -0.384770   0.286095
     5  C    0.184944  -0.054589
     6  C   -0.383708   0.331853
     7  C   -0.083169  -0.066149
     8  N    0.011123   0.099262
     9  C   -0.084967  -0.061160
    10  N    0.020235   0.088322
    11  C   -0.067243  -0.066261
    12  N   -0.005605   0.101349
    13  C   -0.055956  -0.075381
    14  N   -0.029189   0.118690
    15  C   -0.099030  -0.055398
    16  N    0.045296   0.076154
    17  C   -0.089543  -0.066390
    18  N    0.019114   0.098003
 Electronic spatial extent (au):  <R**2>=          39072.3660
 Charge=             -1.0000 electrons
 Dipole moment (field-independent basis, Debye):
    X=             42.5811    Y=              8.2909    Z=             -4.9355  Tot=             43.6606
 Quadrupole moment (field-independent basis, Debye-Ang):
   XX=           -547.5003   YY=           -183.2784   ZZ=           -104.4685
   XY=            -72.4689   XZ=             44.4925   YZ=              1.5100
 Traceless Quadrupole moment (field-independent basis, Debye-Ang):
   XX=           -269.0846   YY=             95.1373   ZZ=            173.9473
   XY=            -72.4689   XZ=             44.4925   YZ=              1.5100
 Octapole moment (field-independent basis, Debye-Ang**2):
  XXX=           7900.1023  YYY=            970.6226  ZZZ=           -312.0524  XYY=           1630.6259
  XXY=            848.8594  XXZ=           -582.2565  XZZ=            934.0917  YZZ=            165.3584
  YYZ=           -158.2794  XYZ=            -13.8236
 Hexadecapole moment (field-independent basis, Debye-Ang**3):
 XXXX=        -115350.0801 YYYY=          -7856.8660 ZZZZ=           -766.1980 XXXY=         -11294.7779
 XXXZ=           8491.6278 YYYX=          -8634.6964 YYYZ=            634.7893 ZZZX=           2804.1862
 ZZZY=            361.8011 XXYY=         -16194.4863 XXZZ=          -9097.0015 YYZZ=           -979.5414
 XXYZ=            268.5542 YYXZ=           1424.8841 ZZXY=          -1475.8680
 N-N= 9.557400842113D+02 E-N=-3.746903663830D+03  KE= 7.770623740320D+02
                          Isotropic Fermi Contact Couplings
        Atom                 a.u.       MegaHertz       Gauss      10(-4) cm-1
     1  C(13)             -0.01722     -19.35989      -6.90809      -6.45777
     2  C(13)              0.05339      60.02579      21.41869      20.02245
     3  C(13)             -0.01328     -14.93314      -5.32852      -4.98116
     4  C(13)              0.04750      53.39661      19.05324      17.81119
     5  C(13)             -0.01954     -21.97025      -7.83953      -7.32849
     6  C(13)              0.05683      63.88258      22.79489      21.30894
     7  C(13)             -0.03179     -35.74169     -12.75353     -11.92215
     8  N(14)              0.02280       7.36819       2.62915       2.45776
     9  C(13)             -0.03076     -34.57820     -12.33836     -11.53405
    10  N(14)              0.02005       6.47768       2.31140       2.16072
    11  C(13)             -0.03107     -34.92733     -12.46294     -11.65050
    12  N(14)              0.02364       7.63918       2.72585       2.54815
    13  C(13)             -0.03326     -37.39190     -13.34236     -12.47260
    14  N(14)              0.02810       9.07836       3.23938       3.02822
    15  C(13)             -0.02990     -33.60891     -11.99249     -11.21073
    16  N(14)              0.01668       5.38825       1.92266       1.79733
    17  C(13)             -0.03238     -36.39638     -12.98713     -12.14053
    18  N(14)              0.02231       7.20745       2.57180       2.40415
 --------------------------------------------------------
       Center         ----  Spin Dipole Couplings  ----
                      3XX-RR        3YY-RR        3ZZ-RR
 --------------------------------------------------------
     1   Atom       -0.003183      0.023438     -0.020255
     2   Atom       -0.163538     -0.161509      0.325047
     3   Atom        0.008510     -0.003556     -0.004954
     4   Atom       -0.151271     -0.145260      0.296531
     5   Atom        0.021520      0.006785     -0.028305
     6   Atom       -0.175239     -0.169599      0.344837
     7   Atom        0.033562      0.007116     -0.040678
     8   Atom       -0.102441     -0.079984      0.182425
     9   Atom        0.030336      0.006236     -0.036572
    10   Atom       -0.091742     -0.071328      0.163070
    11   Atom        0.031350      0.010237     -0.041587
    12   Atom       -0.099576     -0.084908      0.184484
    13   Atom       -0.003026      0.050320     -0.047294
    14   Atom       -0.087813     -0.124182      0.211994
    15   Atom       -0.002801      0.034390     -0.031589
    16   Atom       -0.062326     -0.082006      0.144332
    17   Atom        0.030795      0.009630     -0.040426
    18   Atom       -0.097106     -0.085359      0.182465
 --------------------------------------------------------
                        XY            XZ            YZ
 --------------------------------------------------------
     1   Atom        0.000297     -0.001624      0.003628
     2   Atom       -0.000328      0.004029     -0.051776
     3   Atom       -0.010274      0.000771      0.000932
     4   Atom        0.000511      0.005822     -0.047080
     5   Atom        0.012339      0.000966      0.003800
     6   Atom       -0.001597      0.000004     -0.042212
     7   Atom       -0.019403     -0.002741      0.005228
     8   Atom        0.011490      0.005063     -0.028375
     9   Atom        0.017467      0.001584      0.004599
    10   Atom       -0.010256     -0.000962     -0.025972
    11   Atom        0.021192      0.000899      0.005041
    12   Atom       -0.016012      0.004100     -0.027229
    13   Atom        0.001746     -0.000195      0.010596
    14   Atom       -0.003024      0.002416     -0.038764
    15   Atom       -0.001190     -0.000019      0.005429
    16   Atom        0.002179     -0.000482     -0.017328
    17   Atom       -0.020974     -0.001870      0.004100
    18   Atom        0.013869      0.001293     -0.021292
 --------------------------------------------------------


 ---------------------------------------------------------------------------------
              Anisotropic Spin Dipole Couplings in Principal Axis System
 ---------------------------------------------------------------------------------

       Atom             a.u.   MegaHertz   Gauss  10(-4) cm-1        Axes

              Baa    -0.0207    -2.779    -0.992    -0.927  0.0934 -0.0822  0.9922
     1 C(13)  Bbb    -0.0030    -0.407    -0.145    -0.136  0.9956  0.0017 -0.0935
              Bcc     0.0237     3.185     1.137     1.063  0.0060  0.9966  0.0820
 
              Baa    -0.1670   -22.404    -7.994    -7.473 -0.0280  0.9941  0.1048
     2 C(13)  Bbb    -0.1636   -21.949    -7.832    -7.322  0.9996  0.0287 -0.0052
              Bcc     0.3305    44.354    15.827    14.795  0.0082 -0.1047  0.9945
 
              Baa    -0.0097    -1.306    -0.466    -0.436  0.4838  0.8411 -0.2420
     3 C(13)  Bbb    -0.0047    -0.625    -0.223    -0.209  0.1111  0.2152  0.9702
              Bcc     0.0144     1.932     0.689     0.644  0.8681 -0.4963  0.0107
 
              Baa    -0.1520   -20.401    -7.280    -6.805  0.8509 -0.5212 -0.0658
     4 C(13)  Bbb    -0.1495   -20.066    -7.160    -6.693  0.5252  0.8470  0.0825
              Bcc     0.3016    40.467    14.440    13.498  0.0127 -0.1048  0.9944
 
              Baa    -0.0287    -3.853    -1.375    -1.285  0.0077 -0.1091  0.9940
     5 C(13)  Bbb     0.0001     0.008     0.003     0.003 -0.4994  0.8608  0.0983
              Bcc     0.0287     3.845     1.372     1.283  0.8664  0.4971  0.0479
 
              Baa    -0.1761   -23.627    -8.431    -7.881  0.8856  0.4630  0.0375
     6 C(13)  Bbb    -0.1722   -23.108    -8.246    -7.708 -0.4645  0.8827  0.0721
              Bcc     0.3483    46.736    16.676    15.589  0.0003 -0.0812  0.9967
 
              Baa    -0.0412    -5.535    -1.975    -1.846  0.0095 -0.1037  0.9946
     7 C(13)  Bbb    -0.0029    -0.382    -0.136    -0.128  0.4736  0.8765  0.0868
              Bcc     0.0441     5.918     2.112     1.974  0.8807 -0.4702 -0.0575
 
              Baa    -0.1082    -4.172    -1.489    -1.392  0.9031 -0.4257 -0.0573
     8 N(14)  Bbb    -0.0773    -2.982    -1.064    -0.995  0.4293  0.8987  0.0898
              Bcc     0.1855     7.155     2.553     2.387  0.0133 -0.1057  0.9943
 
              Baa    -0.0371    -4.973    -1.775    -1.659  0.0045 -0.1074  0.9942
     9 C(13)  Bbb    -0.0026    -0.350    -0.125    -0.117 -0.4698  0.8774  0.0969
              Bcc     0.0397     5.324     1.900     1.776  0.8827  0.4676  0.0465
 
              Baa    -0.0965    -3.722    -1.328    -1.241  0.9080  0.4165  0.0450
    10 N(14)  Bbb    -0.0694    -2.677    -0.955    -0.893 -0.4189  0.9026  0.0991
              Bcc     0.1659     6.399     2.283     2.134  0.0006 -0.1089  0.9941
 
              Baa    -0.0421    -5.648    -2.016    -1.884  0.0175 -0.1029  0.9945
    11 C(13)  Bbb    -0.0025    -0.337    -0.120    -0.112 -0.5299  0.8426  0.0965
              Bcc     0.0446     5.986     2.136     1.997  0.8479  0.5287  0.0398
 
              Baa    -0.1103    -4.254    -1.518    -1.419  0.8251  0.5636  0.0406
    12 N(14)  Bbb    -0.0770    -2.970    -1.060    -0.991 -0.5647  0.8199  0.0942
              Bcc     0.1873     7.225     2.578     2.410  0.0198 -0.1007  0.9947
 
              Baa    -0.0484    -6.499    -2.319    -2.168  0.0084 -0.1068  0.9942
    13 C(13)  Bbb    -0.0031    -0.413    -0.147    -0.138  0.9995 -0.0304 -0.0117
              Bcc     0.0515     6.912     2.466     2.306  0.0314  0.9938  0.1065
 
              Baa    -0.1288    -4.967    -1.772    -1.657  0.0666  0.9914  0.1123
    14 N(14)  Bbb    -0.0877    -3.381    -1.206    -1.128  0.9977 -0.0651 -0.0165
              Bcc     0.2164     8.347     2.979     2.784  0.0090 -0.1132  0.9935
 
              Baa    -0.0320    -4.299    -1.534    -1.434 -0.0027 -0.0815  0.9967
    15 C(13)  Bbb    -0.0028    -0.381    -0.136    -0.127  0.9995  0.0312  0.0052
              Bcc     0.0349     4.679     1.670     1.561 -0.0315  0.9962  0.0814
 
              Baa    -0.0835    -3.222    -1.150    -1.075 -0.1002  0.9921  0.0752
    16 N(14)  Bbb    -0.0621    -2.396    -0.855    -0.799  0.9950  0.0997  0.0107
              Bcc     0.1457     5.618     2.004     1.874 -0.0031 -0.0759  0.9971
 
              Baa    -0.0408    -5.470    -1.952    -1.824  0.0026 -0.0800  0.9968
    17 C(13)  Bbb    -0.0031    -0.418    -0.149    -0.139  0.5275  0.8469  0.0666
              Bcc     0.0439     5.887     2.101     1.964  0.8495 -0.5257 -0.0444
 
              Baa    -0.1069    -4.122    -1.471    -1.375  0.8185 -0.5727 -0.0458
    18 N(14)  Bbb    -0.0773    -2.980    -1.063    -0.994  0.5745  0.8160  0.0640
              Bcc     0.1841     7.102     2.534     2.369  0.0007 -0.0787  0.9969
 

 ---------------------------------------------------------------------------------

   1 Symmetry operations used in ECPInt.
 ECPInt:  NShTT=    5886 NPrTT=   23670 LenC2=    5392 LenP2D=   14872.
 LDataN:  DoStor=T MaxTD1= 5 Len=  102
 D1PCM: PCM CHGder 1st derivatives, ID1Alg=3 FixD1E=F DoIter=F DoCFld=F I1PDM=0.
 Calling FoFJK, ICntrl=      2127 FMM=F ISym2X=0 I1Cent= 0 IOpClX= 1 NMat=1 NMatS=1 NMatT=0.
 -------------------------------------------------------------------
 Center     Atomic                   Forces (Hartrees/Bohr)
 Number     Number              X              Y              Z
 -------------------------------------------------------------------
      1        6           0.006270569   -0.058309206   -0.006088469
      2        6           0.007881181    0.023253671    0.002490326
      3        6          -0.060290939    0.036358746    0.004903809
      4        6           0.012486615    0.001480833   -0.000458239
      5        6           0.047575957    0.022040552    0.001494560
      6        6          -0.016878364   -0.022467101   -0.001841050
      7        6           0.033602208   -0.027735756   -0.003203582
      8        7          -0.021974512    0.014068435    0.001715111
      9        6          -0.064998917   -0.044500398   -0.004307035
     10        7           0.044883293    0.025085724    0.002473688
     11        6           0.004557289    0.014465380    0.001187755
     12        7          -0.016406435   -0.014603132   -0.001023577
     13        6          -0.011774585   -0.061332457   -0.006766520
     14        7           0.006526040    0.062380404    0.006947874
     15        6          -0.000849565    0.183956309    0.014188423
     16        7           0.008262326   -0.149290549   -0.011647216
     17        6           0.066747064   -0.031843284   -0.002166401
     18        7          -0.045619222    0.026991830    0.002100543
 -------------------------------------------------------------------
 Cartesian Forces:  Max     0.183956309 RMS     0.042535371

 GradGradGradGradGradGradGradGradGradGradGradGradGradGradGradGradGradGrad
 Berny optimization.
 Search for a local minimum.
 Step number   1 out of a maximum of    2
 All quantities printed in internal units (Hartrees-Bohrs-Radians)
 Second derivative matrix not updated -- first step.
 ITU=  0
     Eigenvalues ---    0.00108   0.00123   0.00155   0.00294   0.00296
     Eigenvalues ---    0.00722   0.01507   0.01639   0.01949   0.01970
     Eigenvalues ---    0.03245   0.03988   0.05151   0.05227   0.10057
     Eigenvalues ---    0.16342   0.19071   0.19948   0.23411   0.24355
     Eigenvalues ---    0.24785   0.25167   0.29963   0.30179   0.44359
     Eigenvalues ---    0.62703   0.70674   0.71141   0.71701   0.75993
     Eigenvalues ---    0.98859   0.99286   1.06095   1.50940   1.52696
     Eigenvalues ---    1.84244   1.99182   2.45842   2.50480   2.71206
     Eigenvalues ---    2.94741   3.07619   3.08802   3.16557   3.60789
     Eigenvalues ---    3.70034   3.84971   5.50274
 Quadratic step=4.885D-01 exceeds max=3.000D-01 adjusted using Lamda=-3.041D-02.
 Angle between NR and scaled steps=  24.55 degrees.
 Angle between quadratic step and forces=  63.82 degrees.
 Linear search not attempted -- first point.
 B after Tr=    -0.000121    0.000278    0.000085
         Rot=    1.000000    0.000003    0.000003   -0.000008 Ang=   0.00 deg.
 Variable       Old X    -DE/DX   Delta X   Delta X   Delta X     New X
                                 (Linear)    (Quad)   (Total)
    X1      -16.90279   0.00627   0.00000   0.00565   0.00554 -16.89725
    Y1       -1.65659  -0.05831   0.00000  -0.05228  -0.05226  -1.70885
    Z1        2.10104  -0.00609   0.00000  -0.00482  -0.00482   2.09622
    X2      -16.90169   0.00788   0.00000   0.00624   0.00609 -16.89560
    Y2        0.93790   0.02325   0.00000  -0.05439  -0.05437   0.88354
    Z2        2.36560   0.00249   0.00000  -0.00445  -0.00446   2.36114
    X3      -15.50353  -0.06029   0.00000  -0.05594  -0.05600 -15.55954
    Y3       -4.04286   0.03636   0.00000   0.03242   0.03246  -4.01041
    Z3        1.84957   0.00490   0.00000   0.00450   0.00452   1.85409
    X4      -13.24803   0.01249   0.00000  -0.05026  -0.05031 -13.29833
    Y4       -5.33823   0.00148   0.00000   0.02936   0.02943  -5.30879
    Z4        1.69855  -0.00046   0.00000   0.00141   0.00145   1.70000
    X5      -18.27274   0.04758   0.00000   0.04220   0.04213 -18.23061
    Y5       -4.02876   0.02204   0.00000   0.01905   0.01905  -4.00971
    Z5        1.87942   0.00149   0.00000   0.00144   0.00145   1.88087
    X6      -20.53891  -0.01688   0.00000   0.05056   0.05052 -20.48839
    Y6       -5.32514  -0.02247   0.00000   0.02388   0.02384  -5.30130
    Z6        1.77205  -0.00184   0.00000   0.00173   0.00173   1.77378
    X7      -19.24263   0.03360   0.00000   0.03034   0.03017 -19.21247
    Y7        2.34688  -0.02774   0.00000  -0.08282  -0.08284   2.26405
    Z7        2.53714  -0.00320   0.00000  -0.00852  -0.00855   2.52859
    X8      -21.19473  -0.02197   0.00000   0.03573   0.03554 -21.15920
    Y8        3.28982   0.01407   0.00000  -0.02572  -0.02577   3.26405
    Z8        2.66006   0.00172   0.00000  -0.00453  -0.00458   2.65548
    X9      -14.52818  -0.06500   0.00000  -0.04218  -0.04235 -14.57053
    Y9        2.36305  -0.04450   0.00000  -0.09868  -0.09863   2.26442
    Z9        2.50292  -0.00431   0.00000  -0.00901  -0.00902   2.49390
   X10      -12.58361   0.04488   0.00000  -0.03491  -0.03510 -12.61871
   Y10        3.28104   0.02509   0.00000  -0.02783  -0.02774   3.25330
   Z10        2.59994   0.00247   0.00000  -0.00501  -0.00501   2.59493
   X11      -10.86964   0.00456   0.00000  -0.07128  -0.07135 -10.94099
   Y11       -4.01781   0.01447   0.00000   0.02977   0.02988  -3.98793
   Z11        1.79839   0.00119   0.00000   0.00279   0.00284   1.80123
   X12       -9.04301  -0.01641   0.00000  -0.05442  -0.05451  -9.09751
   Y12       -2.77984  -0.01460   0.00000  -0.02417  -0.02403  -2.80387
   Z12        1.88888  -0.00102   0.00000   0.00083   0.00088   1.88975
   X13      -13.20112  -0.01177   0.00000  -0.05891  -0.05891 -13.26003
   Y13       -8.01453  -0.06133   0.00000   0.02444   0.02451  -7.99002
   Z13        1.40803  -0.00677   0.00000   0.00214   0.00220   1.41024
   X14      -13.34667   0.00653   0.00000  -0.00644  -0.00641 -13.35308
   Y14      -10.24254   0.06238   0.00000   0.07542   0.07549 -10.16705
   Z14        1.16063   0.00695   0.00000   0.01056   0.01063   1.17126
   X15      -20.59992  -0.00085   0.00000   0.06616   0.06616 -20.53375
   Y15       -8.11552   0.18396   0.00000   0.11298   0.11294  -8.00259
   Z15        1.54688   0.01419   0.00000   0.00819   0.00820   1.55509
   X16      -20.43006   0.00826   0.00000   0.00931   0.00935 -20.42071
   Y16      -10.19332  -0.14929   0.00000   0.02010   0.02006 -10.17326
   Z16        1.38439  -0.01165   0.00000  -0.00094  -0.00091   1.38348
   X17      -22.94606   0.06675   0.00000   0.09672   0.09665 -22.84941
   Y17       -4.00554  -0.03184   0.00000   0.01223   0.01215  -3.99339
   Z17        1.88067  -0.00217   0.00000   0.00234   0.00233   1.88299
   X18      -24.72231  -0.04562   0.00000   0.03286   0.03277 -24.68954
   Y18       -2.79420   0.02699   0.00000  -0.01406  -0.01416  -2.80836
   Z18        1.98019   0.00210   0.00000   0.00117   0.00113   1.98132
         Item               Value     Threshold  Converged?
 Maximum Force            0.183956     0.000450     NO 
 RMS     Force            0.042535     0.000300     NO 
 Maximum Displacement     0.112936     0.001800     NO 
 RMS     Displacement     0.040830     0.001200     NO 
 Predicted change in Energy=-2.205978D-02
 GradGradGradGradGradGradGradGradGradGradGradGradGradGradGradGradGradGrad

 Unable to Open any file for archive entry.
 1\1\GINC-X10P1N4\Force\UwB97XD\def2SVP\C12N6(1-,2)\MAYUMIAO\11-Oct-202
 4\0\\# wb97xd def2svp scrf=(smd,solvent=acetonitrile) g09default scf=(
 xqc,maxcycle=64) force guess=read nosymm\\Title Card\\-1,2\C,-8.944571
 93,-0.87662967,1.11182199\C,-8.94399133,0.49631739,1.25182401\C,-8.204
 11707,-2.1393914,0.97874948\C,-7.01055441,-2.82486711,0.89883637\C,-9.
 66951958,-2.13192713,0.99454467\C,-10.86872136,-2.81794043,0.93772683\
 C,-10.18276238,1.24191595,1.34259614\N,-11.21577064,1.74089673,1.40764
 519\C,-7.68798009,1.2504729,1.32448812\N,-6.65896013,1.73625269,1.3758
 309\C,-5.75196666,-2.12613489,0.95166959\N,-4.78535333,-1.47102978,0.9
 9954968\C,-6.98573111,-4.24110877,0.74509966\N,-7.0627541,-5.42011765,
 0.61418019\C,-10.90100567,-4.29454975,0.81857562\N,-10.81112109,-5.394
 07192,0.73258744\C,-12.1425336,-2.11963938,0.99520723\N,-13.0824805,-1
 .47862582,1.04787186\\Version=ES64L-G16RevC.01\HF=-784.8358494\S2=0.78
 5348\S2-1=0.\S2A=0.750984\RMSD=7.840e-09\RMSF=4.254e-02\Dipole=-0.1400
 553,0.0210514,0.0034717\Quadrupole=-200.0577807,70.7322512,129.3255295
 ,-53.8788663,33.0790749,1.1226137\PG=C01 [X(C12N6)]\\@
 The archive entry for this job was punched.


 LIFE IS SO UNCERTAIN - EAT DESSERT FIRST.
 Job cpu time:       0 days  0 hours 14 minutes 25.0 seconds.
 Elapsed time:       0 days  0 hours  0 minutes 32.4 seconds.
 File lengths (MBytes):  RWF=    175 Int=      0 D2E=      0 Chk=      9 Scr=      1
 Normal termination of Gaussian 16 at Fri Oct 11 15:41:26 2024.
