 Entering Gaussian System, Link 0=g16
 Input=JOBS/16_A.gjf
 Output=JOBS/16_A.log
 Initial command:
 /data/app/gaussian/C01-avx2//g16/l1.exe "/tmp/Gau-2529624.inp" -scrdir="/tmp/"
 Entering Link 1 = /data/app/gaussian/C01-avx2//g16/l1.exe PID=   2529625.
  
 Copyright (c) 1988-2019, Gaussian, Inc.  All Rights Reserved.
  
 This is part of the Gaussian(R) 16 program.  It is based on
 the Gaussian(R) 09 system (copyright 2009, Gaussian, Inc.),
 the Gaussian(R) 03 system (copyright 2003, Gaussian, Inc.),
 the Gaussian(R) 98 system (copyright 1998, Gaussian, Inc.),
 the Gaussian(R) 94 system (copyright 1995, Gaussian, Inc.),
 the Gaussian 92(TM) system (copyright 1992, Gaussian, Inc.),
 the Gaussian 90(TM) system (copyright 1990, Gaussian, Inc.),
 the Gaussian 88(TM) system (copyright 1988, Gaussian, Inc.),
 the Gaussian 86(TM) system (copyright 1986, Carnegie Mellon
 University), and the Gaussian 82(TM) system (copyright 1983,
 Carnegie Mellon University). Gaussian is a federally registered
 trademark of Gaussian, Inc.
  
 This software contains proprietary and confidential information,
 including trade secrets, belonging to Gaussian, Inc.
  
 This software is provided under written license and may be
 used, copied, transmitted, or stored only in accord with that
 written license.
  
 The following legend is applicable only to US Government
 contracts under FAR:
  
                    RESTRICTED RIGHTS LEGEND
  
 Use, reproduction and disclosure by the US Government is
 subject to restrictions as set forth in subparagraphs (a)
 and (c) of the Commercial Computer Software - Restricted
 Rights clause in FAR 52.227-19.
  
 Gaussian, Inc.
 340 Quinnipiac St., Bldg. 40, Wallingford CT 06492
  
  
 ---------------------------------------------------------------
 Warning -- This program may not be used in any manner that
 competes with the business of Gaussian, Inc. or will provide
 assistance to any competitor of Gaussian, Inc.  The licensee
 of this program is prohibited from giving any competitor of
 Gaussian, Inc. access to this program.  By using this program,
 the user acknowledges that Gaussian, Inc. is engaged in the
 business of creating and licensing software in the field of
 computational chemistry and represents and warrants to the
 licensee that it is not a competitor of Gaussian, Inc. and that
 it will not use this program in any manner prohibited above.
 ---------------------------------------------------------------
  

 Cite this work as:
 Gaussian 16, Revision C.01,
 M. J. Frisch, G. W. Trucks, H. B. Schlegel, G. E. Scuseria, 
 M. A. Robb, J. R. Cheeseman, G. Scalmani, V. Barone, 
 G. A. Petersson, H. Nakatsuji, X. Li, M. Caricato, A. V. Marenich, 
 J. Bloino, B. G. Janesko, R. Gomperts, B. Mennucci, H. P. Hratchian, 
 J. V. Ortiz, A. F. Izmaylov, J. L. Sonnenberg, D. Williams-Young, 
 F. Ding, F. Lipparini, F. Egidi, J. Goings, B. Peng, A. Petrone, 
 T. Henderson, D. Ranasinghe, V. G. Zakrzewski, J. Gao, N. Rega, 
 G. Zheng, W. Liang, M. Hada, M. Ehara, K. Toyota, R. Fukuda, 
 J. Hasegawa, M. Ishida, T. Nakajima, Y. Honda, O. Kitao, H. Nakai, 
 T. Vreven, K. Throssell, J. A. Montgomery, Jr., J. E. Peralta, 
 F. Ogliaro, M. J. Bearpark, J. J. Heyd, E. N. Brothers, K. N. Kudin, 
 V. N. Staroverov, T. A. Keith, R. Kobayashi, J. Normand, 
 K. Raghavachari, A. P. Rendell, J. C. Burant, S. S. Iyengar, 
 J. Tomasi, M. Cossi, J. M. Millam, M. Klene, C. Adamo, R. Cammi, 
 J. W. Ochterski, R. L. Martin, K. Morokuma, O. Farkas, 
 J. B. Foresman, and D. J. Fox, Gaussian, Inc., Wallingford CT, 2019.
 
 ******************************************
 Gaussian 16:  ES64L-G16RevC.01  3-Jul-2019
                11-Oct-2024 
 ******************************************
 %chk=a.chk
 %nprocshared=28
 Will use up to   28 processors via shared memory.
 %mem=48gb
 ----------------------------------------------------------------------
 # wb97xd def2svp scrf=(smd,solvent=acetonitrile) g09default scf=(xqc,m
 axcycle=64) force guess=read nosymm
 ----------------------------------------------------------------------
 1/10=7,30=1,38=1,158=3,167=1/1,3;
 2/12=2,15=1,17=6,18=5,40=1/2;
 3/5=43,7=101,11=2,25=1,27=10,30=1,70=32201,71=1,72=2,74=-58,75=-4,116=-2,158=3/1,2,3;
 4/5=1,60=-1/1;
 5/5=2,7=64,8=3,13=1,38=6,53=2,87=10/2,8;
 6/7=2,8=2,9=2,10=2,28=1,87=10/1;
 7/29=1,30=1,87=10/1,2,3,16;
 1/10=7,30=1,158=3,167=1/3;
 99//99;
 Using 2006 physical constants.
 ----------
 Title Card
 ----------
 Symbolic Z-matrix:
 Charge = -2 Multiplicity = 1
 6                    -8.94591  -0.85899   1.11278 
 6                    -8.94488   0.48614   1.25104 
 6                    -8.18785  -2.14863   0.97935 
 6                    -7.01659  -2.82027   0.89917 
 6                    -9.68316  -2.13879   0.9938 
 6                    -10.86615  -2.81649   0.93775 
 6                    -10.19771   1.25482   1.34372 
 7                    -11.22442   1.74631   1.40935 
 6                    -7.67579   1.26572   1.32604 
 7                    -6.64667   1.73899   1.37682 
 6                    -5.73751  -2.12259   0.95173 
 7                    -4.77581  -1.46671   0.99892 
 6                    -6.98358  -4.25954   0.74264 
 7                    -7.06078  -5.42795   0.61118 
 6                    -10.90853  -4.29191   0.81974 
 7                    -10.80542  -5.42216   0.73269 
 6                    -12.15523  -2.11671   0.99525 
 7                    -13.09391  -1.47142   1.04684 
 

 GradGradGradGradGradGradGradGradGradGradGradGradGradGradGradGradGradGrad
 Berny optimization.
 Initialization pass.
 Trust Radius=3.00D-01 FncErr=1.00D-07 GrdErr=1.00D-07 EigMax=2.50D+02 EigMin=1.00D-04
 Number of steps in this run=      2 maximum allowed number of steps=      2.
 GradGradGradGradGradGradGradGradGradGradGradGradGradGradGradGradGradGrad

                          Input orientation:                          
 ---------------------------------------------------------------------
 Center     Atomic      Atomic             Coordinates (Angstroms)
 Number     Number       Type             X           Y           Z
 ---------------------------------------------------------------------
      1          6           0       -8.945914   -0.858990    1.112779
      2          6           0       -8.944881    0.486138    1.251035
      3          6           0       -8.187852   -2.148630    0.979346
      4          6           0       -7.016587   -2.820267    0.899174
      5          6           0       -9.683157   -2.138787    0.993804
      6          6           0      -10.866148   -2.816486    0.937753
      7          6           0      -10.197713    1.254822    1.343721
      8          7           0      -11.224424    1.746306    1.409354
      9          6           0       -7.675787    1.265721    1.326039
     10          7           0       -6.646666    1.738987    1.376817
     11          6           0       -5.737510   -2.122589    0.951732
     12          7           0       -4.775809   -1.466706    0.998918
     13          6           0       -6.983580   -4.259544    0.742636
     14          7           0       -7.060780   -5.427945    0.611179
     15          6           0      -10.908527   -4.291912    0.819738
     16          7           0      -10.805423   -5.422162    0.732687
     17          6           0      -12.155229   -2.116709    0.995249
     18          7           0      -13.093907   -1.471423    1.046843
 ---------------------------------------------------------------------
                    Distance matrix (angstroms):
                    1          2          3          4          5
     1  C    0.000000
     2  C    1.352215   0.000000
     3  C    1.501876   2.754798   0.000000
     4  C    2.759444   3.843753   1.352547   0.000000
     5  C    1.481743   2.738878   1.495408   2.753900   0.000000
     6  C    2.747676   3.833632   2.760622   3.849756   1.364509
     7  C    2.467496   1.472770   3.969357   5.188789   3.450187
     8  N    3.473778   2.609483   4.957439   6.230551   4.200255
     9  C    2.484572   1.491300   3.469899   4.160775   3.966181
    10  N    3.479331   2.620543   4.200810   4.599107   4.940052
    11  C    3.452024   4.145150   2.450635   1.457928   3.945904
    12  N    4.215691   4.610675   3.479574   2.619764   4.953158
    13  C    3.943542   5.160104   2.441774   1.448141   3.442152
    14  N    4.967965   6.239842   3.487083   2.623905   4.223958
    15  C    3.965183   5.183791   3.467162   4.161640   2.483501
    16  N    4.942144   6.215972   4.198635   4.599223   3.479686
    17  C    3.448967   4.140842   3.967538   5.187472   2.472171
    18  N    4.193480   4.592184   4.953034   6.226958   3.475832
                    6          7          8          9         10
     6  C    0.000000
     7  C    4.145740   0.000000
     8  N    4.601070   1.140176   0.000000
     9  C    5.195535   2.522012   3.582001   0.000000
    10  N    6.224881   3.584055   4.577880   1.133865   0.000000
    11  C    5.175385   5.608384   6.729338   3.921437   3.989866
    12  N    6.238419   6.076400   7.216407   3.997878   3.730868
    13  C    4.146663   6.410942   7.382378   5.598934   6.041364
    14  N    4.626791   7.418648   8.333240   6.759765   7.219599
    15  C    1.480745   5.616589   6.075156   6.449359   7.405778
    16  N    2.614438   6.732368   7.212515   7.407730   8.306156
    17  C    1.467898   3.914143   3.995093   5.622780   6.734705
    18  N    2.604613   3.988544   3.739006   6.076671   7.209892
                   11         12         13         14         15
    11  C    0.000000
    12  N    1.165023   0.000000
    13  C    2.482537   3.569297   0.000000
    14  N    3.576646   4.589428   1.178305   0.000000
    15  C    5.609171   6.754563   3.925838   4.017366   0.000000
    16  N    6.051356   7.216146   3.994780   3.746619   1.138277
    17  C    6.417869   7.407992   5.603705   6.088120   2.513281
    18  N    7.385773   8.318237   6.723262   7.227897   3.575279
                   16         17         18
    16  N    0.000000
    17  C    3.580075   0.000000
    18  N    4.576482   1.140251   0.000000
 Symmetry turned off by external request.
 Stoichiometry    C12N6(2-)
 Framework group  C1[X(C12N6)]
 Deg. of freedom    48
 Full point group                 C1      NOp   1
 Rotational constants (GHZ):           0.4182645           0.4177199           0.2090168
 Standard basis: def2SVP (5D, 7F)
   252 basis functions,   450 primitive gaussians,   270 cartesian basis functions
    58 alpha electrons       58 beta electrons
       nuclear repulsion energy       952.6106481186 Hartrees.
 NAtoms=   18 NActive=   18 NUniq=   18 SFac= 1.00D+00 NAtFMM=   60 NAOKFM=F Big=F
 Integral buffers will be    131072 words long.
 Raffenetti 2 integral format.
 Two-electron integral symmetry is turned off.
 Nuclear repulsion after empirical dispersion term =      952.5992690639 Hartrees.
 Force PCM accuracy= 1.00D-10.
 ------------------------------------------------------------------------------
 Polarizable Continuum Model (PCM)
 =================================
 Model                : PCM (using non-symmetric T matrix).
 Atomic radii         : SMD-Coulomb.
 Polarization charges : Total charges.
 Charge compensation  : None.
 Solution method      : On-the-fly selection.
 Cavity type          : VdW (van der Waals Surface) (Alpha=1.000).
 Cavity algorithm     : GePol (No added spheres)
                        Default sphere list used, NSphG=   18.
                        Lebedev-Laikov grids with approx.  5.0 points / Ang**2.
                        Smoothing algorithm: York/Karplus (Gamma=1.0000).
                        Polarization charges: spherical gaussians, with
                                              point-specific exponents (IZeta= 3).
                        Self-potential: point-specific (ISelfS= 7).
                        Self-field    : sphere-specific E.n sum rule (ISelfD= 2).
 1st derivatives      : Analytical E(r).r(x)/FMM algorithm (CHGder, D1EAlg=3).
                        Cavity 1st derivative terms included.
 Solvent              : Acetonitrile, Eps=  35.688000 Eps(inf)=   1.806874
 ------------------------------------------------------------------------------
 Spheres list:
 ISph  on   Nord     Re0    Alpha      Xe            Ye            Ze
    1   C      1    1.8500  1.000     -8.945914     -0.858990      1.112779
    2   C      2    1.8500  1.000     -8.944881      0.486138      1.251035
    3   C      3    1.8500  1.000     -8.187852     -2.148630      0.979346
    4   C      4    1.8500  1.000     -7.016587     -2.820267      0.899174
    5   C      5    1.8500  1.000     -9.683157     -2.138787      0.993804
    6   C      6    1.8500  1.000    -10.866148     -2.816486      0.937753
    7   C      7    1.8500  1.000    -10.197713      1.254822      1.343721
    8   N      8    1.8900  1.000    -11.224424      1.746306      1.409354
    9   C      9    1.8500  1.000     -7.675787      1.265721      1.326039
   10   N     10    1.8900  1.000     -6.646666      1.738987      1.376817
   11   C     11    1.8500  1.000     -5.737510     -2.122589      0.951732
   12   N     12    1.8900  1.000     -4.775809     -1.466706      0.998918
   13   C     13    1.8500  1.000     -6.983580     -4.259544      0.742636
   14   N     14    1.8900  1.000     -7.060780     -5.427945      0.611179
   15   C     15    1.8500  1.000    -10.908527     -4.291912      0.819738
   16   N     16    1.8900  1.000    -10.805423     -5.422162      0.732687
   17   C     17    1.8500  1.000    -12.155229     -2.116709      0.995249
   18   N     18    1.8900  1.000    -13.093907     -1.471423      1.046843
 ------------------------------------------------------------------------------
 ------------------------------------------------------------------------------
 Atomic radii for non-electrostatic terms: SMD-CDS.
 ------------------------------------------------------------------------------
 Nuclear repulsion after PCM non-electrostatic terms =      952.6079412064 Hartrees.
 One-electron integrals computed using PRISM.
   1 Symmetry operations used in ECPInt.
 ECPInt:  NShTT=    5886 NPrTT=   23670 LenC2=    5388 LenP2D=   14856.
 LDataN:  DoStor=T MaxTD1= 4 Len=   56
 NBasis=   252 RedAO= T EigKep=  3.27D-04  NBF=   252
 NBsUse=   252 1.00D-06 EigRej= -1.00D+00 NBFU=   252
 Initial guess from the checkpoint file:  "a.chk"
 B after Tr=    -0.000112    0.000328   -0.001367
         Rot=    1.000000   -0.000018   -0.000043   -0.000016 Ang=  -0.01 deg.
 Requested convergence on RMS density matrix=1.00D-08 within  64 cycles.
 Requested convergence on MAX density matrix=1.00D-06.
 Requested convergence on             energy=1.00D-06.
 No special actions if energy rises.
 Inv3:  Mode=1 IEnd=    19492203.
 Iteration    1 A*A^-1 deviation from unit magnitude is 2.89D-15 for    302.
 Iteration    1 A*A^-1 deviation from orthogonality  is 2.87D-15 for    452     40.
 Iteration    1 A^-1*A deviation from unit magnitude is 3.44D-15 for   2380.
 Iteration    1 A^-1*A deviation from orthogonality  is 6.31D-11 for    896    871.
 Error on total polarization charges =  0.02218
 SCF Done:  E(RwB97XD) =  -784.984138432     A.U. after   14 cycles
            NFock= 14  Conv=0.34D-08     -V/T= 2.0102
 SMD-CDS (non-electrostatic) energy       (kcal/mol) =       5.44
 (included in total energy above)
 QCSCF skips out because SCF is already converged.

 **********************************************************************

            Population analysis using the SCF Density.

 **********************************************************************

 Alpha  occ. eigenvalues --  -14.43382 -14.43241 -14.42743 -14.42720 -14.42662
 Alpha  occ. eigenvalues --  -14.42596 -10.35390 -10.35369 -10.35356 -10.34338
 Alpha  occ. eigenvalues --  -10.34168 -10.33705 -10.33670 -10.33645 -10.33609
 Alpha  occ. eigenvalues --  -10.33543 -10.33515 -10.33439  -1.00279  -0.99915
 Alpha  occ. eigenvalues --   -0.99283  -0.99139  -0.99093  -0.97845  -0.96771
 Alpha  occ. eigenvalues --   -0.88110  -0.87583  -0.83857  -0.68349  -0.68011
 Alpha  occ. eigenvalues --   -0.64463  -0.63732  -0.63519  -0.63028  -0.50720
 Alpha  occ. eigenvalues --   -0.47490  -0.47428  -0.46156  -0.46002  -0.45398
 Alpha  occ. eigenvalues --   -0.45283  -0.45203  -0.44711  -0.44001  -0.43896
 Alpha  occ. eigenvalues --   -0.43358  -0.43097  -0.42893  -0.42791  -0.42265
 Alpha  occ. eigenvalues --   -0.42093  -0.42046  -0.41066  -0.40649  -0.40143
 Alpha  occ. eigenvalues --   -0.32603  -0.32397  -0.22162
 Alpha virt. eigenvalues --    0.06696   0.07347   0.08922   0.09954   0.09998
 Alpha virt. eigenvalues --    0.10763   0.12416   0.13645   0.13959   0.14023
 Alpha virt. eigenvalues --    0.14338   0.16056   0.20434   0.20589   0.23097
 Alpha virt. eigenvalues --    0.24906   0.27600   0.27625   0.27725   0.27897
 Alpha virt. eigenvalues --    0.29746   0.31381   0.31957   0.32944   0.33308
 Alpha virt. eigenvalues --    0.34445   0.35943   0.48264   0.48921   0.51593
 Alpha virt. eigenvalues --    0.51893   0.52324   0.52980   0.54905   0.54930
 Alpha virt. eigenvalues --    0.55658   0.56169   0.56574   0.58664   0.61460
 Alpha virt. eigenvalues --    0.61717   0.61800   0.62897   0.63036   0.64787
 Alpha virt. eigenvalues --    0.65917   0.70878   0.70918   0.72027   0.72789
 Alpha virt. eigenvalues --    0.72956   0.73626   0.73896   0.74124   0.74643
 Alpha virt. eigenvalues --    0.75138   0.75219   0.75751   0.76510   0.76844
 Alpha virt. eigenvalues --    0.79556   0.79927   0.81577   0.83265   0.83417
 Alpha virt. eigenvalues --    0.85761   0.85963   0.87892   0.89116   0.93836
 Alpha virt. eigenvalues --    0.94507   0.94798   0.95048   0.95671   0.96143
 Alpha virt. eigenvalues --    0.97096   0.99832   0.99905   1.01234   1.01389
 Alpha virt. eigenvalues --    1.02999   1.03185   1.03786   1.03801   1.04674
 Alpha virt. eigenvalues --    1.06410   1.06961   1.09241   1.10613   1.11756
 Alpha virt. eigenvalues --    1.13556   1.17540   1.19014   1.19423   1.19573
 Alpha virt. eigenvalues --    1.23055   1.24164   1.24218   1.27965   1.33349
 Alpha virt. eigenvalues --    1.35082   1.35415   1.42479   1.42613   1.45654
 Alpha virt. eigenvalues --    1.45773   1.46237   1.48508   1.48622   1.58485
 Alpha virt. eigenvalues --    1.62083   1.68957   1.70347   1.70467   1.70597
 Alpha virt. eigenvalues --    1.70905   1.71135   1.76176   1.76416   1.79315
 Alpha virt. eigenvalues --    1.79477   1.79852   1.79996   1.80475   1.81479
 Alpha virt. eigenvalues --    1.81720   1.83094   1.85631   1.93338   1.95313
 Alpha virt. eigenvalues --    1.95938   1.99833   2.00347   2.01695   2.02928
 Alpha virt. eigenvalues --    2.03751   2.03814   2.06955   2.11243   2.11789
 Alpha virt. eigenvalues --    2.13531   2.20630   2.20953   2.25180   2.26826
 Alpha virt. eigenvalues --    2.27839   2.30428   2.31169   2.34372   2.34492
 Alpha virt. eigenvalues --    2.35460   2.36553   2.36835   2.37039   2.37678
 Alpha virt. eigenvalues --    2.37748   2.38108   2.38451   2.38533   2.38854
 Alpha virt. eigenvalues --    2.40047   2.40162   2.56561   2.57570   2.58218
 Alpha virt. eigenvalues --    2.69087   2.70091   2.90191   2.93568   2.96568
 Alpha virt. eigenvalues --    2.96873   2.99395   3.01814   3.03172   3.04941
 Alpha virt. eigenvalues --    3.08257   3.08935   3.09515   3.10175   3.10426
 Alpha virt. eigenvalues --    3.11920   3.12446   3.20258   3.20930   3.30518
 Alpha virt. eigenvalues --    3.39086   3.41278   3.42372   3.50383   3.54617
 Alpha virt. eigenvalues --    3.55646   3.63589   3.66950   3.78048
          Condensed to atoms (all electrons):
               1          2          3          4          5          6
     1  C    4.928469   0.487303   0.325315  -0.107029   0.316749  -0.108446
     2  C    0.487303   5.555902  -0.107211  -0.007651  -0.114089  -0.007293
     3  C    0.325315  -0.107211   4.920635   0.478515   0.328536  -0.104166
     4  C   -0.107029  -0.007651   0.478515   5.558548  -0.109487  -0.007145
     5  C    0.316749  -0.114089   0.328536  -0.109487   4.943999   0.483856
     6  C   -0.108446  -0.007293  -0.104166  -0.007145   0.483856   5.544993
     7  C    0.003990   0.389870   0.005126  -0.000226  -0.015432   0.001025
     8  N   -0.000151  -0.038950   0.000016  -0.000001  -0.000518   0.000074
     9  C    0.003630   0.378817  -0.013814   0.000862   0.005592  -0.000204
    10  N   -0.000168  -0.037639  -0.000469   0.000066   0.000027  -0.000001
    11  C   -0.016155   0.001052   0.004522   0.381947   0.005911  -0.000244
    12  N   -0.000466   0.000054  -0.000251  -0.040508   0.000025  -0.000001
    13  C    0.005566  -0.000273   0.005579   0.386536  -0.017029   0.001098
    14  N    0.000015  -0.000001  -0.000210  -0.041480  -0.000464   0.000064
    15  C    0.005706  -0.000212  -0.014379   0.000883   0.003612   0.382920
    16  N    0.000031  -0.000001  -0.000463   0.000066  -0.000018  -0.039287
    17  C   -0.015652   0.000933   0.005348  -0.000226   0.003978   0.390920
    18  N   -0.000507   0.000057   0.000024  -0.000001  -0.000000  -0.040171
               7          8          9         10         11         12
     1  C    0.003990  -0.000151   0.003630  -0.000168  -0.016155  -0.000466
     2  C    0.389870  -0.038950   0.378817  -0.037639   0.001052   0.000054
     3  C    0.005126   0.000016  -0.013814  -0.000469   0.004522  -0.000251
     4  C   -0.000226  -0.000001   0.000862   0.000066   0.381947  -0.040508
     5  C   -0.015432  -0.000518   0.005592   0.000027   0.005911   0.000025
     6  C    0.001025   0.000074  -0.000204  -0.000001  -0.000244  -0.000001
     7  C    4.823251   0.950222  -0.024729   0.001415   0.000038   0.000001
     8  N    0.950222   6.120292   0.001377   0.000032   0.000000   0.000000
     9  C   -0.024729   0.001377   4.821611   0.958816   0.000490   0.000398
    10  N    0.001415   0.000032   0.958816   6.103272   0.000249  -0.000793
    11  C    0.000038   0.000000   0.000490   0.000249   4.839266   0.923229
    12  N    0.000001   0.000000   0.000398  -0.000793   0.923229   6.170596
    13  C   -0.000003  -0.000000   0.000039   0.000001  -0.025968   0.001882
    14  N   -0.000000   0.000000   0.000000   0.000000   0.001832   0.000043
    15  C    0.000035   0.000001  -0.000002  -0.000000   0.000039   0.000000
    16  N    0.000000   0.000000  -0.000000   0.000000   0.000001   0.000000
    17  C    0.000477   0.000280   0.000034   0.000000  -0.000003  -0.000000
    18  N    0.000337  -0.000806   0.000001   0.000000  -0.000000   0.000000
              13         14         15         16         17         18
     1  C    0.005566   0.000015   0.005706   0.000031  -0.015652  -0.000507
     2  C   -0.000273  -0.000001  -0.000212  -0.000001   0.000933   0.000057
     3  C    0.005579  -0.000210  -0.014379  -0.000463   0.005348   0.000024
     4  C    0.386536  -0.041480   0.000883   0.000066  -0.000226  -0.000001
     5  C   -0.017029  -0.000464   0.003612  -0.000018   0.003978  -0.000000
     6  C    0.001098   0.000064   0.382920  -0.039287   0.390920  -0.040171
     7  C   -0.000003  -0.000000   0.000035   0.000000   0.000477   0.000337
     8  N   -0.000000   0.000000   0.000001   0.000000   0.000280  -0.000806
     9  C    0.000039   0.000000  -0.000002  -0.000000   0.000034   0.000001
    10  N    0.000001   0.000000  -0.000000   0.000000   0.000000   0.000000
    11  C   -0.025968   0.001832   0.000039   0.000001  -0.000003  -0.000000
    12  N    0.001882   0.000043   0.000000   0.000000  -0.000000   0.000000
    13  C    4.844848   0.908293   0.000439   0.000229   0.000042   0.000000
    14  N    0.908293   6.203853   0.000352  -0.000763   0.000001   0.000000
    15  C    0.000439   0.000352   4.823289   0.953619  -0.024549   0.001444
    16  N    0.000229  -0.000763   0.953619   6.116186   0.001478   0.000033
    17  C    0.000042   0.000001  -0.024549   0.001478   4.822503   0.949775
    18  N    0.000000   0.000000   0.001444   0.000033   0.949775   6.123518
 Mulliken charges:
               1
     1  C    0.171798
     2  C   -0.500667
     3  C    0.167348
     4  C   -0.493670
     5  C    0.164752
     6  C   -0.497992
     7  C   -0.135397
     8  N   -0.031868
     9  C   -0.132920
    10  N   -0.024807
    11  C   -0.116207
    12  N   -0.054209
    13  C   -0.111278
    14  N   -0.071534
    15  C   -0.133196
    16  N   -0.031110
    17  C   -0.135338
    18  N   -0.033703
 Sum of Mulliken charges =  -2.00000
 Mulliken charges with hydrogens summed into heavy atoms:
               1
     1  C    0.171798
     2  C   -0.500667
     3  C    0.167348
     4  C   -0.493670
     5  C    0.164752
     6  C   -0.497992
     7  C   -0.135397
     8  N   -0.031868
     9  C   -0.132920
    10  N   -0.024807
    11  C   -0.116207
    12  N   -0.054209
    13  C   -0.111278
    14  N   -0.071534
    15  C   -0.133196
    16  N   -0.031110
    17  C   -0.135338
    18  N   -0.033703
 Electronic spatial extent (au):  <R**2>=          39445.7243
 Charge=             -2.0000 electrons
 Dipole moment (field-independent basis, Debye):
    X=             85.7786    Y=             16.8655    Z=             -9.8497  Tot=             87.9740
 Quadrupole moment (field-independent basis, Debye-Ang):
   XX=           -963.4940   YY=           -225.6112   ZZ=           -114.1216
   XY=           -149.8104   XZ=             88.8972   YZ=              8.0165
 Traceless Quadrupole moment (field-independent basis, Debye-Ang):
   XX=           -529.0851   YY=            208.7977   ZZ=            320.2873
   XY=           -149.8104   XZ=             88.8972   YZ=              8.0165
 Octapole moment (field-independent basis, Debye-Ang**2):
  XXX=          12134.1548  YYY=           1143.1124  ZZZ=           -331.3468  XYY=           2012.2683
  XXY=           1594.8723  XXZ=          -1011.3560  XZZ=           1021.5343  YZZ=            178.1388
  YYZ=           -193.8154  XYZ=            -73.2311
 Hexadecapole moment (field-independent basis, Debye-Ang**3):
 XXXX=        -160430.7259 YYYY=          -8792.1785 ZZZZ=           -809.1178 XXXY=         -18892.8034
 XXXZ=          12869.0142 YYYX=         -10190.2051 YYYZ=            761.7551 ZZZX=           2979.5016
 ZZZY=            383.1049 XXYY=         -19843.6535 XXZZ=          -9942.1133 YYZZ=          -1049.7898
 XXYZ=            849.9536 YYXZ=           1748.9938 ZZXY=          -1593.2976
 N-N= 9.526079412064D+02 E-N=-3.758990875934D+03  KE= 7.770926328652D+02
   1 Symmetry operations used in ECPInt.
 ECPInt:  NShTT=    5886 NPrTT=   23670 LenC2=    5388 LenP2D=   14856.
 LDataN:  DoStor=T MaxTD1= 5 Len=  102
 D1PCM: PCM CHGder 1st derivatives, ID1Alg=3 FixD1E=F DoIter=F DoCFld=F I1PDM=0.
 Calling FoFJK, ICntrl=      2127 FMM=F ISym2X=0 I1Cent= 0 IOpClX= 0 NMat=1 NMatS=1 NMatT=0.
 -------------------------------------------------------------------
 Center     Atomic                   Forces (Hartrees/Bohr)
 Number     Number              X              Y              Z
 -------------------------------------------------------------------
      1        6           0.006590389   -0.149848384   -0.014668094
      2        6           0.006236001    0.093539359    0.009438368
      3        6          -0.142128480    0.082067374    0.009350287
      4        6           0.070535320   -0.036293180   -0.004481212
      5        6           0.123906790    0.064617648    0.005123169
      6        6          -0.067326165   -0.043796208   -0.003485176
      7        6           0.079047591   -0.052402599   -0.006109918
      8        7          -0.051063246    0.028561085    0.003592070
      9        6          -0.101203430   -0.064807170   -0.006328669
     10        7           0.066052594    0.035294978    0.003593366
     11        6          -0.025117258   -0.003726748   -0.000282345
     12        7          -0.001386247   -0.004930395   -0.000328303
     13        6          -0.009804968   -0.009739288   -0.001442175
     14        7           0.004807995    0.032023168    0.003610325
     15        6           0.006502517    0.104334441    0.008118488
     16        7           0.001429195   -0.063671331   -0.004824888
     17        6           0.083806655   -0.041620492   -0.003204431
     18        7          -0.050885254    0.030397741    0.002329140
 -------------------------------------------------------------------
 Cartesian Forces:  Max     0.149848384 RMS     0.053194183

 GradGradGradGradGradGradGradGradGradGradGradGradGradGradGradGradGradGrad
 Berny optimization.
 Search for a local minimum.
 Step number   1 out of a maximum of    2
 All quantities printed in internal units (Hartrees-Bohrs-Radians)
 Second derivative matrix not updated -- first step.
 ITU=  0
     Eigenvalues ---    0.00129   0.00185   0.00230   0.00292   0.00293
     Eigenvalues ---    0.00814   0.01499   0.01621   0.01934   0.01954
     Eigenvalues ---    0.03956   0.04140   0.05131   0.05178   0.09937
     Eigenvalues ---    0.16904   0.18439   0.19247   0.22777   0.24158
     Eigenvalues ---    0.24614   0.24728   0.30130   0.30284   0.42709
     Eigenvalues ---    0.63886   0.66094   0.67264   0.67654   0.72799
     Eigenvalues ---    0.97070   0.97810   1.04327   1.28542   1.47650
     Eigenvalues ---    1.54326   1.57817   1.84852   2.26542   2.35509
     Eigenvalues ---    2.58645   2.65432   2.73660   3.04752   3.05038
     Eigenvalues ---    3.08096   3.13361   3.92340
 Quadratic step=4.692D-01 exceeds max=3.000D-01 adjusted using Lamda=-6.057D-02.
 Angle between NR and scaled steps=  21.10 degrees.
 Angle between quadratic step and forces=  50.02 degrees.
 Linear search not attempted -- first point.
 B after Tr=    -0.000100    0.000138    0.000069
         Rot=    1.000000    0.000002    0.000002   -0.000002 Ang=   0.00 deg.
 Variable       Old X    -DE/DX   Delta X   Delta X   Delta X     New X
                                 (Linear)    (Quad)   (Total)
    X1      -16.90533   0.00659   0.00000   0.00683   0.00673 -16.89860
    Y1       -1.62326  -0.14985   0.00000  -0.09301  -0.09291  -1.71617
    Z1        2.10285  -0.01467   0.00000  -0.00850  -0.00849   2.09435
    X2      -16.90338   0.00624   0.00000   0.00722   0.00711 -16.89627
    Y2        0.91867   0.09354   0.00000  -0.00051  -0.00041   0.91825
    Z2        2.36411   0.00944   0.00000   0.00052   0.00051   2.36463
    X3      -15.47280  -0.14213   0.00000  -0.09645  -0.09655 -15.56935
    Y3       -4.06032   0.08207   0.00000   0.05471   0.05481  -4.00551
    Z3        1.85070   0.00935   0.00000   0.00603   0.00605   1.85674
    X4      -13.25943   0.07054   0.00000  -0.00939  -0.00948 -13.26891
    Y4       -5.32953  -0.03629   0.00000   0.00509   0.00520  -5.32433
    Z4        1.69919  -0.00448   0.00000  -0.00037  -0.00033   1.69886
    X5      -18.29851   0.12391   0.00000   0.07948   0.07939 -18.21913
    Y5       -4.04172   0.06462   0.00000   0.03891   0.03900  -4.00273
    Z5        1.87802   0.00512   0.00000   0.00329   0.00330   1.88131
    X6      -20.53404  -0.06733   0.00000   0.01124   0.01115 -20.52289
    Y6       -5.32239  -0.04380   0.00000  -0.00026  -0.00018  -5.32256
    Z6        1.77210  -0.00349   0.00000   0.00032   0.00033   1.77242
    X7      -19.27088   0.07905   0.00000   0.06246   0.06234 -19.20854
    Y7        2.37127  -0.05240   0.00000  -0.06485  -0.06476   2.30651
    Z7        2.53927  -0.00611   0.00000  -0.00631  -0.00633   2.53293
    X8      -21.21109  -0.05106   0.00000   0.04091   0.04079 -21.17030
    Y8        3.30004   0.02856   0.00000  -0.01054  -0.01045   3.28959
    Z8        2.66329   0.00359   0.00000  -0.00209  -0.00213   2.66117
    X9      -14.50513  -0.10120   0.00000  -0.07128  -0.07140 -14.57653
    Y9        2.39187  -0.06481   0.00000  -0.08156  -0.08145   2.31041
    Z9        2.50585  -0.00633   0.00000  -0.00684  -0.00684   2.49901
   X10      -12.56038   0.06605   0.00000  -0.04506  -0.04518 -12.60555
   Y10        3.28621   0.03529   0.00000  -0.01215  -0.01204   3.27417
   Z10        2.60181   0.00359   0.00000  -0.00225  -0.00225   2.59956
   X11      -10.84232  -0.02512   0.00000  -0.06660  -0.06670 -10.90902
   Y11       -4.01111  -0.00373   0.00000  -0.00406  -0.00395  -4.01506
   Z11        1.79851  -0.00028   0.00000  -0.00057  -0.00053   1.79798
   X12       -9.02497  -0.00139   0.00000  -0.04387  -0.04397  -9.06894
   Y12       -2.77167  -0.00493   0.00000  -0.03794  -0.03783  -2.80950
   Z12        1.88768  -0.00033   0.00000  -0.00168  -0.00163   1.88605
   X13      -13.19705  -0.00980   0.00000  -0.02606  -0.02614 -13.22320
   Y13       -8.04937  -0.00974   0.00000   0.04521   0.04531  -8.00406
   Z13        1.40338  -0.00144   0.00000   0.00327   0.00332   1.40670
   X14      -13.34294   0.00481   0.00000   0.00973   0.00966 -13.33328
   Y14      -10.25733   0.03202   0.00000   0.06696   0.06706 -10.19027
   Z14        1.15496   0.00361   0.00000   0.00713   0.00718   1.16215
   X15      -20.61413   0.00650   0.00000   0.03860   0.03852 -20.57561
   Y15       -8.11054   0.10433   0.00000   0.09340   0.09348  -8.01706
   Z15        1.54908   0.00812   0.00000   0.00862   0.00863   1.55771
   X16      -20.41929   0.00143   0.00000  -0.01081  -0.01088 -20.43017
   Y16      -10.24640  -0.06367   0.00000   0.04255   0.04263 -10.20377
   Z16        1.38458  -0.00482   0.00000   0.00403   0.00405   1.38863
   X17      -22.97005   0.08381   0.00000   0.08783   0.08774 -22.88232
   Y17       -4.00000  -0.04162   0.00000  -0.01597  -0.01589  -4.01589
   Z17        1.88075  -0.00320   0.00000  -0.00178  -0.00179   1.87896
   X18      -24.74390  -0.05089   0.00000   0.02698   0.02688 -24.71702
   Y18       -2.78059   0.03040   0.00000  -0.02768  -0.02761  -2.80820
   Z18        1.97825   0.00233   0.00000  -0.00301  -0.00304   1.97521
         Item               Value     Threshold  Converged?
 Maximum Force            0.149848     0.000450     NO 
 RMS     Force            0.053194     0.000300     NO 
 Maximum Displacement     0.096550     0.001800     NO 
 RMS     Displacement     0.040830     0.001200     NO 
 Predicted change in Energy=-4.040248D-02
 GradGradGradGradGradGradGradGradGradGradGradGradGradGradGradGradGradGrad

 Unable to Open any file for archive entry.
 1\1\GINC-X10P1N4\Force\RwB97XD\def2SVP\C12N6(2-)\MAYUMIAO\11-Oct-2024\
 0\\# wb97xd def2svp scrf=(smd,solvent=acetonitrile) g09default scf=(xq
 c,maxcycle=64) force guess=read nosymm\\Title Card\\-2,1\C,-8.9459138,
 -0.85899036,1.11277894\C,-8.94488125,0.48613784,1.25103528\C,-8.187851
 59,-2.1486299,0.97934638\C,-7.01658723,-2.82026698,0.89917434\C,-9.683
 15683,-2.13878741,0.9938038\C,-10.86614785,-2.81648605,0.9377528\C,-10
 .19771302,1.25482151,1.34372118\N,-11.224424,1.74630612,1.4093538\C,-7
 .6757867,1.26572057,1.32603941\N,-6.64666584,1.73898724,1.37681707\C,-
 5.73751027,-2.12258928,0.95173181\N,-4.77580936,-1.46670585,0.99891835
 \C,-6.98358036,-4.25954409,0.74263578\N,-7.06077998,-5.42794521,0.6111
 7943\C,-10.90852723,-4.29191209,0.81973756\N,-10.80542342,-5.42216213,
 0.73268672\C,-12.15522907,-2.11670881,0.99524936\N,-13.09390715,-1.471
 42317,1.04684293\\Version=ES64L-G16RevC.01\HF=-784.9841384\RMSD=3.398e
 -09\RMSF=5.319e-02\Dipole=-0.037291,0.1531759,0.0153068\Quadrupole=-39
 3.3618139,155.2360136,238.1258002,-111.3803843,66.0929177,5.9600773\PG
 =C01 [X(C12N6)]\\@
 The archive entry for this job was punched.


 THOSE WHO TRY TO PASS CHEMISTRY OFF AS A NEW SCIENCE
 SHOW HOW LITTLE KNOWLEDGE THEY HAVE OF THE CHARACTER
 AND LITERATURE OF THE ANCIENTS.
   -- NICOLAS LEFEVRE
 "COURS DE CHYMIE" J.-N.LELOUP, PARIS, 1751
 Job cpu time:       0 days  0 hours 10 minutes 15.6 seconds.
 Elapsed time:       0 days  0 hours  0 minutes 23.3 seconds.
 File lengths (MBytes):  RWF=    149 Int=      0 D2E=      0 Chk=      8 Scr=      1
 Normal termination of Gaussian 16 at Fri Oct 11 15:42:44 2024.
