 Entering Gaussian System, Link 0=g16
 Input=JOBS/16_B.gjf
 Output=JOBS/16_B.log
 Initial command:
 /data/app/gaussian/C01-avx2//g16/l1.exe "/tmp/Gau-2529161.inp" -scrdir="/tmp/"
 Entering Link 1 = /data/app/gaussian/C01-avx2//g16/l1.exe PID=   2529162.
  
 Copyright (c) 1988-2019, Gaussian, Inc.  All Rights Reserved.
  
 This is part of the Gaussian(R) 16 program.  It is based on
 the Gaussian(R) 09 system (copyright 2009, Gaussian, Inc.),
 the Gaussian(R) 03 system (copyright 2003, Gaussian, Inc.),
 the Gaussian(R) 98 system (copyright 1998, Gaussian, Inc.),
 the Gaussian(R) 94 system (copyright 1995, Gaussian, Inc.),
 the Gaussian 92(TM) system (copyright 1992, Gaussian, Inc.),
 the Gaussian 90(TM) system (copyright 1990, Gaussian, Inc.),
 the Gaussian 88(TM) system (copyright 1988, Gaussian, Inc.),
 the Gaussian 86(TM) system (copyright 1986, Carnegie Mellon
 University), and the Gaussian 82(TM) system (copyright 1983,
 Carnegie Mellon University). Gaussian is a federally registered
 trademark of Gaussian, Inc.
  
 This software contains proprietary and confidential information,
 including trade secrets, belonging to Gaussian, Inc.
  
 This software is provided under written license and may be
 used, copied, transmitted, or stored only in accord with that
 written license.
  
 The following legend is applicable only to US Government
 contracts under FAR:
  
                    RESTRICTED RIGHTS LEGEND
  
 Use, reproduction and disclosure by the US Government is
 subject to restrictions as set forth in subparagraphs (a)
 and (c) of the Commercial Computer Software - Restricted
 Rights clause in FAR 52.227-19.
  
 Gaussian, Inc.
 340 Quinnipiac St., Bldg. 40, Wallingford CT 06492
  
  
 ---------------------------------------------------------------
 Warning -- This program may not be used in any manner that
 competes with the business of Gaussian, Inc. or will provide
 assistance to any competitor of Gaussian, Inc.  The licensee
 of this program is prohibited from giving any competitor of
 Gaussian, Inc. access to this program.  By using this program,
 the user acknowledges that Gaussian, Inc. is engaged in the
 business of creating and licensing software in the field of
 computational chemistry and represents and warrants to the
 licensee that it is not a competitor of Gaussian, Inc. and that
 it will not use this program in any manner prohibited above.
 ---------------------------------------------------------------
  

 Cite this work as:
 Gaussian 16, Revision C.01,
 M. J. Frisch, G. W. Trucks, H. B. Schlegel, G. E. Scuseria, 
 M. A. Robb, J. R. Cheeseman, G. Scalmani, V. Barone, 
 G. A. Petersson, H. Nakatsuji, X. Li, M. Caricato, A. V. Marenich, 
 J. Bloino, B. G. Janesko, R. Gomperts, B. Mennucci, H. P. Hratchian, 
 J. V. Ortiz, A. F. Izmaylov, J. L. Sonnenberg, D. Williams-Young, 
 F. Ding, F. Lipparini, F. Egidi, J. Goings, B. Peng, A. Petrone, 
 T. Henderson, D. Ranasinghe, V. G. Zakrzewski, J. Gao, N. Rega, 
 G. Zheng, W. Liang, M. Hada, M. Ehara, K. Toyota, R. Fukuda, 
 J. Hasegawa, M. Ishida, T. Nakajima, Y. Honda, O. Kitao, H. Nakai, 
 T. Vreven, K. Throssell, J. A. Montgomery, Jr., J. E. Peralta, 
 F. Ogliaro, M. J. Bearpark, J. J. Heyd, E. N. Brothers, K. N. Kudin, 
 V. N. Staroverov, T. A. Keith, R. Kobayashi, J. Normand, 
 K. Raghavachari, A. P. Rendell, J. C. Burant, S. S. Iyengar, 
 J. Tomasi, M. Cossi, J. M. Millam, M. Klene, C. Adamo, R. Cammi, 
 J. W. Ochterski, R. L. Martin, K. Morokuma, O. Farkas, 
 J. B. Foresman, and D. J. Fox, Gaussian, Inc., Wallingford CT, 2019.
 
 ******************************************
 Gaussian 16:  ES64L-G16RevC.01  3-Jul-2019
                11-Oct-2024 
 ******************************************
 %chk=b.chk
 %nprocshared=28
 Will use up to   28 processors via shared memory.
 %mem=48gb
 ----------------------------------------------------------------------
 # wb97xd def2svp scrf=(smd,solvent=acetonitrile) g09default scf=(xqc,m
 axcycle=64) force guess=read nosymm
 ----------------------------------------------------------------------
 1/10=7,30=1,38=1,158=3,167=1/1,3;
 2/12=2,15=1,17=6,18=5,40=1/2;
 3/5=43,7=101,11=2,25=1,27=10,30=1,70=32201,71=1,72=2,74=-58,75=-4,116=-2,158=3/1,2,3;
 4/5=1,60=-1/1;
 5/5=2,7=64,8=3,13=1,38=6,53=2,87=10/2,8;
 6/7=2,8=2,9=2,10=2,28=1,87=10/1;
 7/29=1,30=1,87=10/1,2,3,16;
 1/10=7,30=1,158=3,167=1/3;
 99//99;
 Using 2006 physical constants.
 ----------
 Title Card
 ----------
 Symbolic Z-matrix:
 Charge = -1 Multiplicity = 2
 6                    -8.94591  -0.85899   1.11278 
 6                    -8.94488   0.48614   1.25104 
 6                    -8.18785  -2.14863   0.97935 
 6                    -7.01659  -2.82027   0.89917 
 6                    -9.68316  -2.13879   0.9938 
 6                    -10.86615  -2.81649   0.93775 
 6                    -10.19771   1.25482   1.34372 
 7                    -11.22442   1.74631   1.40935 
 6                    -7.67579   1.26572   1.32604 
 7                    -6.64667   1.73899   1.37682 
 6                    -5.73751  -2.12259   0.95173 
 7                    -4.77581  -1.46671   0.99892 
 6                    -6.98358  -4.25954   0.74264 
 7                    -7.06078  -5.42795   0.61118 
 6                    -10.90853  -4.29191   0.81974 
 7                    -10.80542  -5.42216   0.73269 
 6                    -12.15523  -2.11671   0.99525 
 7                    -13.09391  -1.47142   1.04684 
 

 GradGradGradGradGradGradGradGradGradGradGradGradGradGradGradGradGradGrad
 Berny optimization.
 Initialization pass.
 Trust Radius=3.00D-01 FncErr=1.00D-07 GrdErr=1.00D-07 EigMax=2.50D+02 EigMin=1.00D-04
 Number of steps in this run=      2 maximum allowed number of steps=      2.
 GradGradGradGradGradGradGradGradGradGradGradGradGradGradGradGradGradGrad

                          Input orientation:                          
 ---------------------------------------------------------------------
 Center     Atomic      Atomic             Coordinates (Angstroms)
 Number     Number       Type             X           Y           Z
 ---------------------------------------------------------------------
      1          6           0       -8.945914   -0.858990    1.112779
      2          6           0       -8.944881    0.486138    1.251035
      3          6           0       -8.187852   -2.148630    0.979346
      4          6           0       -7.016587   -2.820267    0.899174
      5          6           0       -9.683157   -2.138787    0.993804
      6          6           0      -10.866148   -2.816486    0.937753
      7          6           0      -10.197713    1.254822    1.343721
      8          7           0      -11.224424    1.746306    1.409354
      9          6           0       -7.675787    1.265721    1.326039
     10          7           0       -6.646666    1.738987    1.376817
     11          6           0       -5.737510   -2.122589    0.951732
     12          7           0       -4.775809   -1.466706    0.998918
     13          6           0       -6.983580   -4.259544    0.742636
     14          7           0       -7.060780   -5.427945    0.611179
     15          6           0      -10.908527   -4.291912    0.819738
     16          7           0      -10.805423   -5.422162    0.732687
     17          6           0      -12.155229   -2.116709    0.995249
     18          7           0      -13.093907   -1.471423    1.046843
 ---------------------------------------------------------------------
                    Distance matrix (angstroms):
                    1          2          3          4          5
     1  C    0.000000
     2  C    1.352215   0.000000
     3  C    1.501876   2.754798   0.000000
     4  C    2.759444   3.843753   1.352547   0.000000
     5  C    1.481743   2.738878   1.495408   2.753900   0.000000
     6  C    2.747676   3.833632   2.760622   3.849756   1.364509
     7  C    2.467496   1.472770   3.969357   5.188789   3.450187
     8  N    3.473778   2.609483   4.957439   6.230551   4.200255
     9  C    2.484572   1.491300   3.469899   4.160775   3.966181
    10  N    3.479331   2.620543   4.200810   4.599107   4.940052
    11  C    3.452024   4.145150   2.450635   1.457928   3.945904
    12  N    4.215691   4.610675   3.479574   2.619764   4.953158
    13  C    3.943542   5.160104   2.441774   1.448141   3.442152
    14  N    4.967965   6.239842   3.487083   2.623905   4.223958
    15  C    3.965183   5.183791   3.467162   4.161640   2.483501
    16  N    4.942144   6.215972   4.198635   4.599223   3.479686
    17  C    3.448967   4.140842   3.967538   5.187472   2.472171
    18  N    4.193480   4.592184   4.953034   6.226958   3.475832
                    6          7          8          9         10
     6  C    0.000000
     7  C    4.145740   0.000000
     8  N    4.601070   1.140176   0.000000
     9  C    5.195535   2.522012   3.582001   0.000000
    10  N    6.224881   3.584055   4.577880   1.133865   0.000000
    11  C    5.175385   5.608384   6.729338   3.921437   3.989866
    12  N    6.238419   6.076400   7.216407   3.997878   3.730868
    13  C    4.146663   6.410942   7.382378   5.598934   6.041364
    14  N    4.626791   7.418648   8.333240   6.759765   7.219599
    15  C    1.480745   5.616589   6.075156   6.449359   7.405778
    16  N    2.614438   6.732368   7.212515   7.407730   8.306156
    17  C    1.467898   3.914143   3.995093   5.622780   6.734705
    18  N    2.604613   3.988544   3.739006   6.076671   7.209892
                   11         12         13         14         15
    11  C    0.000000
    12  N    1.165023   0.000000
    13  C    2.482537   3.569297   0.000000
    14  N    3.576646   4.589428   1.178305   0.000000
    15  C    5.609171   6.754563   3.925838   4.017366   0.000000
    16  N    6.051356   7.216146   3.994780   3.746619   1.138277
    17  C    6.417869   7.407992   5.603705   6.088120   2.513281
    18  N    7.385773   8.318237   6.723262   7.227897   3.575279
                   16         17         18
    16  N    0.000000
    17  C    3.580075   0.000000
    18  N    4.576482   1.140251   0.000000
 Symmetry turned off by external request.
 Stoichiometry    C12N6(1-,2)
 Framework group  C1[X(C12N6)]
 Deg. of freedom    48
 Full point group                 C1      NOp   1
 Rotational constants (GHZ):           0.4182645           0.4177199           0.2090168
 Standard basis: def2SVP (5D, 7F)
   252 basis functions,   450 primitive gaussians,   270 cartesian basis functions
    58 alpha electrons       57 beta electrons
       nuclear repulsion energy       952.6106481186 Hartrees.
 NAtoms=   18 NActive=   18 NUniq=   18 SFac= 1.00D+00 NAtFMM=   60 NAOKFM=F Big=F
 Integral buffers will be    131072 words long.
 Raffenetti 2 integral format.
 Two-electron integral symmetry is turned off.
 Nuclear repulsion after empirical dispersion term =      952.5992690639 Hartrees.
 Force PCM accuracy= 1.00D-10.
 ------------------------------------------------------------------------------
 Polarizable Continuum Model (PCM)
 =================================
 Model                : PCM (using non-symmetric T matrix).
 Atomic radii         : SMD-Coulomb.
 Polarization charges : Total charges.
 Charge compensation  : None.
 Solution method      : On-the-fly selection.
 Cavity type          : VdW (van der Waals Surface) (Alpha=1.000).
 Cavity algorithm     : GePol (No added spheres)
                        Default sphere list used, NSphG=   18.
                        Lebedev-Laikov grids with approx.  5.0 points / Ang**2.
                        Smoothing algorithm: York/Karplus (Gamma=1.0000).
                        Polarization charges: spherical gaussians, with
                                              point-specific exponents (IZeta= 3).
                        Self-potential: point-specific (ISelfS= 7).
                        Self-field    : sphere-specific E.n sum rule (ISelfD= 2).
 1st derivatives      : Analytical E(r).r(x)/FMM algorithm (CHGder, D1EAlg=3).
                        Cavity 1st derivative terms included.
 Solvent              : Acetonitrile, Eps=  35.688000 Eps(inf)=   1.806874
 ------------------------------------------------------------------------------
 Spheres list:
 ISph  on   Nord     Re0    Alpha      Xe            Ye            Ze
    1   C      1    1.8500  1.000     -8.945914     -0.858990      1.112779
    2   C      2    1.8500  1.000     -8.944881      0.486138      1.251035
    3   C      3    1.8500  1.000     -8.187852     -2.148630      0.979346
    4   C      4    1.8500  1.000     -7.016587     -2.820267      0.899174
    5   C      5    1.8500  1.000     -9.683157     -2.138787      0.993804
    6   C      6    1.8500  1.000    -10.866148     -2.816486      0.937753
    7   C      7    1.8500  1.000    -10.197713      1.254822      1.343721
    8   N      8    1.8900  1.000    -11.224424      1.746306      1.409354
    9   C      9    1.8500  1.000     -7.675787      1.265721      1.326039
   10   N     10    1.8900  1.000     -6.646666      1.738987      1.376817
   11   C     11    1.8500  1.000     -5.737510     -2.122589      0.951732
   12   N     12    1.8900  1.000     -4.775809     -1.466706      0.998918
   13   C     13    1.8500  1.000     -6.983580     -4.259544      0.742636
   14   N     14    1.8900  1.000     -7.060780     -5.427945      0.611179
   15   C     15    1.8500  1.000    -10.908527     -4.291912      0.819738
   16   N     16    1.8900  1.000    -10.805423     -5.422162      0.732687
   17   C     17    1.8500  1.000    -12.155229     -2.116709      0.995249
   18   N     18    1.8900  1.000    -13.093907     -1.471423      1.046843
 ------------------------------------------------------------------------------
 ------------------------------------------------------------------------------
 Atomic radii for non-electrostatic terms: SMD-CDS.
 ------------------------------------------------------------------------------
 Nuclear repulsion after PCM non-electrostatic terms =      952.6079412064 Hartrees.
 One-electron integrals computed using PRISM.
   1 Symmetry operations used in ECPInt.
 ECPInt:  NShTT=    5886 NPrTT=   23670 LenC2=    5388 LenP2D=   14856.
 LDataN:  DoStor=T MaxTD1= 4 Len=   56
 NBasis=   252 RedAO= T EigKep=  3.27D-04  NBF=   252
 NBsUse=   252 1.00D-06 EigRej= -1.00D+00 NBFU=   252
 Initial guess from the checkpoint file:  "b.chk"
 B after Tr=    -0.000112    0.000328   -0.001367
         Rot=    1.000000   -0.000018   -0.000043   -0.000016 Ang=  -0.01 deg.
 Initial guess <Sx>= 0.0000 <Sy>= 0.0000 <Sz>= 0.5000 <S**2>= 0.7851 S= 0.5174
 Requested convergence on RMS density matrix=1.00D-08 within  64 cycles.
 Requested convergence on MAX density matrix=1.00D-06.
 Requested convergence on             energy=1.00D-06.
 No special actions if energy rises.
 Inv3:  Mode=1 IEnd=    19492203.
 Iteration    1 A*A^-1 deviation from unit magnitude is 2.89D-15 for    302.
 Iteration    1 A*A^-1 deviation from orthogonality  is 2.87D-15 for    452     40.
 Iteration    1 A^-1*A deviation from unit magnitude is 3.44D-15 for   2380.
 Iteration    1 A^-1*A deviation from orthogonality  is 6.31D-11 for    896    871.
 Error on total polarization charges =  0.02008
 SCF Done:  E(UwB97XD) =  -784.828691590     A.U. after   18 cycles
            NFock= 18  Conv=0.89D-08     -V/T= 2.0102
 <Sx>= 0.0000 <Sy>= 0.0000 <Sz>= 0.5000 <S**2>= 0.7816 S= 0.5157
 <L.S>=  0.00000000000    
 SMD-CDS (non-electrostatic) energy       (kcal/mol) =       5.44
 (included in total energy above)
 Annihilation of the first spin contaminant:
 S**2 before annihilation     0.7816,   after     0.7508
 QCSCF skips out because SCF is already converged.

 **********************************************************************

            Population analysis using the SCF Density.

 **********************************************************************

 Alpha  occ. eigenvalues --  -14.46426 -14.46180 -14.45625 -14.45593 -14.45590
 Alpha  occ. eigenvalues --  -14.45540 -10.38982 -10.38936 -10.38915 -10.38848
 Alpha  occ. eigenvalues --  -10.38810 -10.38554 -10.36683 -10.36467 -10.35959
 Alpha  occ. eigenvalues --  -10.35954 -10.35934 -10.35913  -1.03165  -1.02529
 Alpha  occ. eigenvalues --   -1.01917  -1.01755  -1.01643  -1.00499  -1.00182
 Alpha  occ. eigenvalues --   -0.91935  -0.91538  -0.88009  -0.71898  -0.71596
 Alpha  occ. eigenvalues --   -0.67938  -0.67280  -0.67233  -0.66546  -0.54141
 Alpha  occ. eigenvalues --   -0.50538  -0.50506  -0.48842  -0.48628  -0.47688
 Alpha  occ. eigenvalues --   -0.47527  -0.47472  -0.47017  -0.46462  -0.46400
 Alpha  occ. eigenvalues --   -0.45690  -0.45582  -0.45446  -0.45346  -0.44595
 Alpha  occ. eigenvalues --   -0.44569  -0.44530  -0.43464  -0.43281  -0.42746
 Alpha  occ. eigenvalues --   -0.36347  -0.36130  -0.26506
 Alpha virt. eigenvalues --    0.03832   0.04512   0.06607   0.07647   0.07718
 Alpha virt. eigenvalues --    0.08134   0.10058   0.11330   0.11597   0.11641
 Alpha virt. eigenvalues --    0.11913   0.14170   0.18404   0.18635   0.19976
 Alpha virt. eigenvalues --    0.22218   0.24079   0.24323   0.25654   0.25758
 Alpha virt. eigenvalues --    0.27399   0.28391   0.28919   0.30887   0.31227
 Alpha virt. eigenvalues --    0.32235   0.34068   0.45569   0.46300   0.49651
 Alpha virt. eigenvalues --    0.50216   0.50742   0.51394   0.53229   0.53244
 Alpha virt. eigenvalues --    0.53309   0.53831   0.54217   0.56185   0.59948
 Alpha virt. eigenvalues --    0.60059   0.60241   0.61099   0.61232   0.63379
 Alpha virt. eigenvalues --    0.63703   0.68747   0.68796   0.69479   0.70599
 Alpha virt. eigenvalues --    0.70740   0.72075   0.72349   0.72403   0.73035
 Alpha virt. eigenvalues --    0.73294   0.73393   0.74167   0.74379   0.74630
 Alpha virt. eigenvalues --    0.77570   0.77856   0.78860   0.80825   0.80934
 Alpha virt. eigenvalues --    0.83368   0.83533   0.85643   0.87098   0.91980
 Alpha virt. eigenvalues --    0.92642   0.92890   0.93147   0.93458   0.94268
 Alpha virt. eigenvalues --    0.94978   0.97851   0.97924   0.98891   0.99064
 Alpha virt. eigenvalues --    1.00966   1.01172   1.01237   1.01298   1.02780
 Alpha virt. eigenvalues --    1.03708   1.04876   1.06608   1.08042   1.09617
 Alpha virt. eigenvalues --    1.11422   1.15131   1.16821   1.17115   1.17281
 Alpha virt. eigenvalues --    1.20599   1.21983   1.22035   1.24059   1.31492
 Alpha virt. eigenvalues --    1.32508   1.32910   1.38725   1.38835   1.42072
 Alpha virt. eigenvalues --    1.43640   1.44094   1.44738   1.44862   1.56054
 Alpha virt. eigenvalues --    1.58904   1.66558   1.68071   1.68117   1.68272
 Alpha virt. eigenvalues --    1.68594   1.68804   1.73549   1.73832   1.76233
 Alpha virt. eigenvalues --    1.76814   1.77170   1.77389   1.77870   1.79002
 Alpha virt. eigenvalues --    1.79162   1.80142   1.83296   1.90328   1.92683
 Alpha virt. eigenvalues --    1.93298   1.96427   1.96905   1.99205   1.99805
 Alpha virt. eigenvalues --    2.00465   2.00596   2.03278   2.07922   2.08364
 Alpha virt. eigenvalues --    2.09940   2.16881   2.17205   2.20980   2.23160
 Alpha virt. eigenvalues --    2.24281   2.26678   2.27354   2.31176   2.31291
 Alpha virt. eigenvalues --    2.32719   2.33914   2.34090   2.34178   2.34939
 Alpha virt. eigenvalues --    2.34999   2.35446   2.35712   2.35877   2.36019
 Alpha virt. eigenvalues --    2.37221   2.37280   2.53199   2.54298   2.54664
 Alpha virt. eigenvalues --    2.65123   2.66107   2.87381   2.90792   2.93820
 Alpha virt. eigenvalues --    2.94211   2.96792   2.99316   3.00654   3.01992
 Alpha virt. eigenvalues --    3.05309   3.05998   3.06432   3.07165   3.07379
 Alpha virt. eigenvalues --    3.09043   3.09487   3.17379   3.18068   3.27654
 Alpha virt. eigenvalues --    3.36196   3.37990   3.39072   3.47677   3.51959
 Alpha virt. eigenvalues --    3.52977   3.60665   3.64046   3.74807
  Beta  occ. eigenvalues --  -14.46247 -14.46018 -14.45475 -14.45442 -14.45434
  Beta  occ. eigenvalues --  -14.45403 -10.38926 -10.38887 -10.38855 -10.38612
  Beta  occ. eigenvalues --  -10.38552 -10.38228 -10.36770 -10.36548 -10.36036
  Beta  occ. eigenvalues --  -10.36031 -10.36007 -10.35993  -1.02831  -1.02255
  Beta  occ. eigenvalues --   -1.01604  -1.01509  -1.01385  -1.00190  -0.99812
  Beta  occ. eigenvalues --   -0.91237  -0.90782  -0.86991  -0.71722  -0.71405
  Beta  occ. eigenvalues --   -0.67705  -0.67069  -0.66987  -0.66277  -0.53100
  Beta  occ. eigenvalues --   -0.49315  -0.49283  -0.48665  -0.48421  -0.47368
  Beta  occ. eigenvalues --   -0.47230  -0.47177  -0.46726  -0.46303  -0.46254
  Beta  occ. eigenvalues --   -0.45597  -0.44789  -0.44661  -0.44461  -0.44456
  Beta  occ. eigenvalues --   -0.44385  -0.43809  -0.43348  -0.43162  -0.42608
  Beta  occ. eigenvalues --   -0.33863  -0.33644
  Beta virt. eigenvalues --   -0.08893   0.05013   0.05608   0.06708   0.07733
  Beta virt. eigenvalues --    0.07789   0.08134   0.10954   0.11656   0.11972
  Beta virt. eigenvalues --    0.12211   0.12343   0.14461   0.18717   0.18907
  Beta virt. eigenvalues --    0.21517   0.22140   0.25679   0.25859   0.25950
  Beta virt. eigenvalues --    0.25991   0.27657   0.28518   0.29051   0.31360
  Beta virt. eigenvalues --    0.31701   0.32818   0.34190   0.45756   0.46465
  Beta virt. eigenvalues --    0.49746   0.50298   0.50822   0.51481   0.53191
  Beta virt. eigenvalues --    0.53227   0.53491   0.53988   0.54362   0.56364
  Beta virt. eigenvalues --    0.59864   0.59992   0.60133   0.61133   0.61269
  Beta virt. eigenvalues --    0.63259   0.63902   0.68915   0.68955   0.69787
  Beta virt. eigenvalues --    0.70780   0.70919   0.72120   0.72414   0.72520
  Beta virt. eigenvalues --    0.73187   0.73479   0.73573   0.74288   0.74487
  Beta virt. eigenvalues --    0.74748   0.77577   0.77876   0.79816   0.81522
  Beta virt. eigenvalues --    0.81655   0.83501   0.83669   0.85929   0.87177
  Beta virt. eigenvalues --    0.92110   0.92787   0.93412   0.93631   0.93666
  Beta virt. eigenvalues --    0.94759   0.95600   0.98388   0.98455   0.99087
  Beta virt. eigenvalues --    0.99261   1.01069   1.01357   1.01385   1.01447
  Beta virt. eigenvalues --    1.02901   1.04026   1.04945   1.06917   1.08325
  Beta virt. eigenvalues --    1.09726   1.11499   1.15309   1.17070   1.17347
  Beta virt. eigenvalues --    1.17538   1.21008   1.22229   1.22278   1.24709
  Beta virt. eigenvalues --    1.31623   1.32701   1.33092   1.39356   1.39456
  Beta virt. eigenvalues --    1.42825   1.43730   1.44193   1.45473   1.45644
  Beta virt. eigenvalues --    1.56128   1.58890   1.66426   1.67917   1.67956
  Beta virt. eigenvalues --    1.68119   1.68421   1.68606   1.73511   1.73788
  Beta virt. eigenvalues --    1.76382   1.76976   1.77119   1.77325   1.77816
  Beta virt. eigenvalues --    1.78910   1.79065   1.80363   1.83203   1.90657
  Beta virt. eigenvalues --    1.92742   1.93354   1.96952   1.97446   1.99339
  Beta virt. eigenvalues --    2.00184   2.00636   2.01072   2.03846   2.08203
  Beta virt. eigenvalues --    2.08708   2.10206   2.17824   2.18136   2.22099
  Beta virt. eigenvalues --    2.23870   2.24898   2.27323   2.28031   2.31682
  Beta virt. eigenvalues --    2.31804   2.33341   2.34459   2.34621   2.34700
  Beta virt. eigenvalues --    2.35405   2.35561   2.35975   2.36248   2.36386
  Beta virt. eigenvalues --    2.36589   2.37782   2.37855   2.53387   2.54423
  Beta virt. eigenvalues --    2.54986   2.65693   2.66672   2.87455   2.90985
  Beta virt. eigenvalues --    2.93976   2.94333   2.96920   2.99424   3.00759
  Beta virt. eigenvalues --    3.02457   3.05763   3.06436   3.06633   3.07439
  Beta virt. eigenvalues --    3.07745   3.09460   3.09923   3.17609   3.18295
  Beta virt. eigenvalues --    3.27814   3.36386   3.38200   3.39280   3.47851
  Beta virt. eigenvalues --    3.52128   3.53148   3.60847   3.64230   3.74985
          Condensed to atoms (all electrons):
               1          2          3          4          5          6
     1  C    4.886583   0.556168   0.282353  -0.093259   0.275598  -0.094839
     2  C    0.556168   5.336041  -0.092923  -0.008531  -0.100193  -0.008340
     3  C    0.282353  -0.092923   4.866883   0.554725   0.284965  -0.089903
     4  C   -0.093259  -0.008531   0.554725   5.337201  -0.095684  -0.008043
     5  C    0.275598  -0.100193   0.284965  -0.095684   4.903958   0.551854
     6  C   -0.094839  -0.008340  -0.089903  -0.008043   0.551854   5.321894
     7  C    0.000737   0.385949   0.004597  -0.000206  -0.013509   0.000796
     8  N   -0.000881  -0.025641   0.000006  -0.000001  -0.000389   0.000064
     9  C    0.000666   0.374260  -0.012016   0.000633   0.004978  -0.000187
    10  N   -0.000875  -0.024812  -0.000345   0.000054   0.000014  -0.000001
    11  C   -0.014253   0.000831   0.001212   0.379802   0.005337  -0.000224
    12  N   -0.000345   0.000049  -0.001047  -0.027250   0.000012  -0.000001
    13  C    0.005042  -0.000252   0.002101   0.384601  -0.014999   0.000875
    14  N    0.000004  -0.000001  -0.001016  -0.028172  -0.000347   0.000058
    15  C    0.005030  -0.000198  -0.012476   0.000656   0.000348   0.378534
    16  N    0.000016  -0.000001  -0.000339   0.000054  -0.000791  -0.025738
    17  C   -0.013683   0.000722   0.004734  -0.000210   0.000375   0.387261
    18  N   -0.000379   0.000050   0.000011  -0.000001  -0.000801  -0.026231
               7          8          9         10         11         12
     1  C    0.000737  -0.000881   0.000666  -0.000875  -0.014253  -0.000345
     2  C    0.385949  -0.025641   0.374260  -0.024812   0.000831   0.000049
     3  C    0.004597   0.000006  -0.012016  -0.000345   0.001212  -0.001047
     4  C   -0.000206  -0.000001   0.000633   0.000054   0.379802  -0.027250
     5  C   -0.013509  -0.000389   0.004978   0.000014   0.005337   0.000012
     6  C    0.000796   0.000064  -0.000187  -0.000001  -0.000224  -0.000001
     7  C    4.795622   0.936312  -0.023376   0.001072   0.000032   0.000001
     8  N    0.936312   6.074421   0.001027   0.000020   0.000000   0.000000
     9  C   -0.023376   0.001027   4.793559   0.945679   0.000432   0.000380
    10  N    0.001072   0.000020   0.945679   6.059562   0.000261  -0.000710
    11  C    0.000032   0.000000   0.000432   0.000261   4.810052   0.909618
    12  N    0.000001   0.000000   0.000380  -0.000710   0.909618   6.122014
    13  C   -0.000002  -0.000000   0.000032   0.000001  -0.024820   0.001463
    14  N   -0.000000   0.000000   0.000000   0.000000   0.001411   0.000029
    15  C    0.000029   0.000001  -0.000001  -0.000000   0.000032   0.000000
    16  N    0.000000   0.000000  -0.000000   0.000000   0.000001   0.000000
    17  C    0.000409   0.000289   0.000027   0.000000  -0.000002  -0.000000
    18  N    0.000331  -0.000718   0.000001   0.000000  -0.000000   0.000000
              13         14         15         16         17         18
     1  C    0.005042   0.000004   0.005030   0.000016  -0.013683  -0.000379
     2  C   -0.000252  -0.000001  -0.000198  -0.000001   0.000722   0.000050
     3  C    0.002101  -0.001016  -0.012476  -0.000339   0.004734   0.000011
     4  C    0.384601  -0.028172   0.000656   0.000054  -0.000210  -0.000001
     5  C   -0.014999  -0.000347   0.000348  -0.000791   0.000375  -0.000801
     6  C    0.000875   0.000058   0.378534  -0.025738   0.387261  -0.026231
     7  C   -0.000002  -0.000000   0.000029   0.000000   0.000409   0.000331
     8  N   -0.000000   0.000000   0.000001   0.000000   0.000289  -0.000718
     9  C    0.000032   0.000000  -0.000001  -0.000000   0.000027   0.000001
    10  N    0.000001   0.000000  -0.000000   0.000000   0.000000   0.000000
    11  C   -0.024820   0.001411   0.000032   0.000001  -0.000002  -0.000000
    12  N    0.001463   0.000029   0.000000   0.000000  -0.000000   0.000000
    13  C    4.815464   0.894552   0.000387   0.000244   0.000034   0.000000
    14  N    0.894552   6.152368   0.000339  -0.000684   0.000001   0.000000
    15  C    0.000387   0.000339   4.794428   0.939806  -0.023290   0.001087
    16  N    0.000244  -0.000684   0.939806   6.069907   0.001128   0.000021
    17  C    0.000034   0.000001  -0.023290   0.001128   4.794043   0.935273
    18  N    0.000000   0.000000   0.001087   0.000021   0.935273   6.076080
          Atomic-Atomic Spin Densities.
               1          2          3          4          5          6
     1  C   -0.023643  -0.072894   0.034471  -0.006329   0.035561  -0.006624
     2  C   -0.072894   0.393613  -0.006959   0.000953  -0.006956   0.001019
     3  C    0.034471  -0.006959  -0.001906  -0.075861   0.036403  -0.006942
     4  C   -0.006329   0.000953  -0.075861   0.365935  -0.006683   0.000960
     5  C    0.035561  -0.006956   0.036403  -0.006683  -0.016505  -0.075750
     6  C   -0.006624   0.001019  -0.006942   0.000960  -0.075750   0.404602
     7  C   -0.000609   0.006934  -0.000088  -0.000007   0.000194  -0.000032
     8  N    0.000483  -0.004731   0.000007  -0.000000   0.000047  -0.000030
     9  C   -0.000634   0.006117   0.000184  -0.000032  -0.000105  -0.000008
    10  N    0.000458  -0.004486   0.000047  -0.000027   0.000006  -0.000000
    11  C    0.000182  -0.000033  -0.000099   0.007482  -0.000099  -0.000009
    12  N    0.000044  -0.000028   0.000534  -0.004704   0.000007  -0.000000
    13  C   -0.000094  -0.000009   0.000025   0.008493   0.000182  -0.000033
    14  N    0.000007  -0.000000   0.000556  -0.004841   0.000046  -0.000028
    15  C   -0.000099  -0.000008   0.000183  -0.000036  -0.000490   0.006535
    16  N    0.000007  -0.000000   0.000047  -0.000028   0.000502  -0.004795
    17  C    0.000209  -0.000039  -0.000088  -0.000007  -0.000525   0.007091
    18  N    0.000046  -0.000031   0.000008  -0.000000   0.000514  -0.004983
               7          8          9         10         11         12
     1  C   -0.000609   0.000483  -0.000634   0.000458   0.000182   0.000044
     2  C    0.006934  -0.004731   0.006117  -0.004486  -0.000033  -0.000028
     3  C   -0.000088   0.000007   0.000184   0.000047  -0.000099   0.000534
     4  C   -0.000007  -0.000000  -0.000032  -0.000027   0.007482  -0.004704
     5  C    0.000194   0.000047  -0.000105   0.000006  -0.000099   0.000007
     6  C   -0.000032  -0.000030  -0.000008  -0.000000  -0.000009  -0.000000
     7  C   -0.062764  -0.002045  -0.001498   0.000015  -0.000001   0.000000
     8  N   -0.002045   0.093510   0.000017   0.000005  -0.000000   0.000000
     9  C   -0.001498   0.000017  -0.058937  -0.001717  -0.000001   0.000005
    10  N    0.000015   0.000005  -0.001717   0.084910   0.000007   0.000036
    11  C   -0.000001  -0.000000  -0.000001   0.000007  -0.065996  -0.002607
    12  N    0.000000   0.000000   0.000005   0.000036  -0.002607   0.100930
    13  C    0.000000  -0.000000  -0.000001   0.000000  -0.001298   0.000055
    14  N   -0.000000   0.000000  -0.000000   0.000000   0.000061   0.000006
    15  C   -0.000001  -0.000000   0.000000  -0.000000  -0.000001  -0.000000
    16  N   -0.000000   0.000000  -0.000000   0.000000   0.000000   0.000000
    17  C    0.000000   0.000006  -0.000001  -0.000000   0.000000  -0.000000
    18  N    0.000005   0.000038  -0.000000   0.000000  -0.000000   0.000000
              13         14         15         16         17         18
     1  C   -0.000094   0.000007  -0.000099   0.000007   0.000209   0.000046
     2  C   -0.000009  -0.000000  -0.000008  -0.000000  -0.000039  -0.000031
     3  C    0.000025   0.000556   0.000183   0.000047  -0.000088   0.000008
     4  C    0.008493  -0.004841  -0.000036  -0.000028  -0.000007  -0.000000
     5  C    0.000182   0.000046  -0.000490   0.000502  -0.000525   0.000514
     6  C   -0.000033  -0.000028   0.006535  -0.004795   0.007091  -0.004983
     7  C    0.000000  -0.000000  -0.000001  -0.000000   0.000000   0.000005
     8  N   -0.000000   0.000000  -0.000000   0.000000   0.000006   0.000038
     9  C   -0.000001  -0.000000   0.000000  -0.000000  -0.000001  -0.000000
    10  N    0.000000   0.000000  -0.000000   0.000000  -0.000000   0.000000
    11  C   -0.001298   0.000061  -0.000001   0.000000   0.000000  -0.000000
    12  N    0.000055   0.000006  -0.000000   0.000000  -0.000000   0.000000
    13  C   -0.071568  -0.003180  -0.000001   0.000007  -0.000001  -0.000000
    14  N   -0.003180   0.111362   0.000006   0.000037   0.000000   0.000000
    15  C   -0.000001   0.000006  -0.062874  -0.001969  -0.001610   0.000020
    16  N    0.000007   0.000037  -0.001969   0.092613   0.000019   0.000006
    17  C   -0.000001   0.000000  -0.001610   0.000019  -0.065220  -0.002165
    18  N   -0.000000   0.000000   0.000020   0.000006  -0.002165   0.098124
 Mulliken charges and spin densities:
               1          2
     1  C    0.206315  -0.039457
     2  C   -0.393180   0.312462
     3  C    0.208480  -0.019479
     4  C   -0.396371   0.285266
     5  C    0.199275  -0.033651
     6  C   -0.387831   0.320975
     7  C   -0.088793  -0.059897
     8  N    0.015489   0.087307
     9  C   -0.086093  -0.056611
    10  N    0.020080   0.079255
    11  C   -0.069721  -0.062410
    12  N   -0.004214   0.094279
    13  C   -0.064724  -0.067422
    14  N   -0.018542   0.104032
    15  C   -0.084710  -0.060345
    16  N    0.016376   0.086447
    17  C   -0.087111  -0.062331
    18  N    0.015275   0.091581
 Sum of Mulliken charges =  -1.00000   1.00000
 Mulliken charges and spin densities with hydrogens summed into heavy atoms:
               1          2
     1  C    0.206315  -0.039457
     2  C   -0.393180   0.312462
     3  C    0.208480  -0.019479
     4  C   -0.396371   0.285266
     5  C    0.199275  -0.033651
     6  C   -0.387831   0.320975
     7  C   -0.088793  -0.059897
     8  N    0.015489   0.087307
     9  C   -0.086093  -0.056611
    10  N    0.020080   0.079255
    11  C   -0.069721  -0.062410
    12  N   -0.004214   0.094279
    13  C   -0.064724  -0.067422
    14  N   -0.018542   0.104032
    15  C   -0.084710  -0.060345
    16  N    0.016376   0.086447
    17  C   -0.087111  -0.062331
    18  N    0.015275   0.091581
 Electronic spatial extent (au):  <R**2>=          39100.1249
 Charge=             -1.0000 electrons
 Dipole moment (field-independent basis, Debye):
    X=             42.7316    Y=              8.4803    Z=             -4.9188  Tot=             43.8418
 Quadrupole moment (field-independent basis, Debye-Ang):
   XX=           -550.0347   YY=           -183.7395   ZZ=           -104.6095
   XY=            -74.8493   XZ=             44.4634   YZ=              1.7136
 Traceless Quadrupole moment (field-independent basis, Debye-Ang):
   XX=           -270.5735   YY=             95.7218   ZZ=            174.8518
   XY=            -74.8493   XZ=             44.4634   YZ=              1.7136
 Octapole moment (field-independent basis, Debye-Ang**2):
  XXX=           7933.9053  YYY=            975.5382  ZZZ=           -312.4287  XYY=           1638.2906
  XXY=            875.9824  XXZ=           -582.8678  XZZ=            935.8051  YZZ=            166.3482
  YYZ=           -158.5957  XYZ=            -16.2243
 Hexadecapole moment (field-independent basis, Debye-Ang**3):
 XXXX=        -115797.1883 YYYY=          -7909.6063 ZZZZ=           -767.2900 XXXY=         -11593.9882
 XXXZ=           8504.7463 YYYX=          -8697.7210 YYYZ=            637.6041 ZZZX=           2808.6460
 ZZZY=            363.3114 XXYY=         -16302.3608 XXZZ=          -9119.1821 YYZZ=           -985.3009
 XXYZ=            294.3081 YYXZ=           1430.9860 ZZXY=          -1486.7668
 N-N= 9.526079412064D+02 E-N=-3.740554687402D+03  KE= 7.768892264457D+02
                          Isotropic Fermi Contact Couplings
        Atom                 a.u.       MegaHertz       Gauss      10(-4) cm-1
     1  C(13)             -0.01648     -18.53014      -6.61201      -6.18099
     2  C(13)              0.05302      59.60334      21.26795      19.88153
     3  C(13)             -0.01228     -13.80632      -4.92644      -4.60529
     4  C(13)              0.04709      52.94003      18.89032      17.65889
     5  C(13)             -0.01562     -17.56085      -6.26615      -5.85767
     6  C(13)              0.05439      61.14940      21.81962      20.39724
     7  C(13)             -0.03048     -34.26578     -12.22688     -11.42983
     8  N(14)              0.01989       6.42509       2.29263       2.14318
     9  C(13)             -0.02991     -33.62580     -11.99852     -11.21636
    10  N(14)              0.01786       5.77163       2.05946       1.92521
    11  C(13)             -0.03030     -34.05928     -12.15320     -11.36095
    12  N(14)              0.02196       7.09531       2.53178       2.36674
    13  C(13)             -0.03152     -35.43866     -12.64539     -11.82106
    14  N(14)              0.02448       7.90937       2.82226       2.63828
    15  C(13)             -0.03120     -35.07576     -12.51590     -11.70001
    16  N(14)              0.01960       6.33433       2.26025       2.11291
    17  C(13)             -0.03147     -35.37877     -12.62403     -11.80109
    18  N(14)              0.02088       6.74527       2.40688       2.24998
 --------------------------------------------------------
       Center         ----  Spin Dipole Couplings  ----
                      3XX-RR        3YY-RR        3ZZ-RR
 --------------------------------------------------------
     1   Atom       -0.006876      0.023456     -0.016580
     2   Atom       -0.160904     -0.159228      0.320132
     3   Atom        0.007067     -0.006738     -0.000329
     4   Atom       -0.149731     -0.143737      0.293469
     5   Atom        0.012036     -0.002651     -0.009386
     6   Atom       -0.168901     -0.163787      0.332688
     7   Atom        0.029114      0.006498     -0.035612
     8   Atom       -0.090675     -0.070553      0.161228
     9   Atom        0.026744      0.005807     -0.032551
    10   Atom       -0.082973     -0.063717      0.146690
    11   Atom        0.029312      0.009029     -0.038341
    12   Atom       -0.092564     -0.079528      0.172093
    13   Atom       -0.002762      0.044185     -0.041422
    14   Atom       -0.078144     -0.108968      0.187112
    15   Atom       -0.002695      0.037969     -0.035275
    16   Atom       -0.068266     -0.092826      0.161091
    17   Atom        0.028759      0.008634     -0.037393
    18   Atom       -0.090576     -0.080064      0.170639
 --------------------------------------------------------
                        XY            XZ            YZ
 --------------------------------------------------------
     1   Atom        0.000407     -0.001954      0.003459
     2   Atom       -0.000281      0.003908     -0.050971
     3   Atom       -0.011728      0.000639      0.000544
     4   Atom        0.000517      0.005913     -0.046794
     5   Atom        0.012648      0.001174      0.001154
     6   Atom       -0.001449      0.000089     -0.040536
     7   Atom       -0.017364     -0.002425      0.004585
     8   Atom        0.009713      0.004859     -0.025215
     9   Atom        0.015837      0.001484      0.004163
    10   Atom       -0.008897     -0.000854     -0.023468
    11   Atom        0.019577      0.000761      0.004603
    12   Atom       -0.014936      0.004097     -0.025562
    13   Atom        0.001205     -0.000194      0.009305
    14   Atom       -0.002811      0.002127     -0.034729
    15   Atom       -0.001115      0.000009      0.005971
    16   Atom        0.002939     -0.000475     -0.019131
    17   Atom       -0.019354     -0.001705      0.003747
    18   Atom        0.013142      0.000937     -0.019657
 --------------------------------------------------------


 ---------------------------------------------------------------------------------
              Anisotropic Spin Dipole Couplings in Principal Axis System
 ---------------------------------------------------------------------------------

       Atom             a.u.   MegaHertz   Gauss  10(-4) cm-1        Axes

              Baa    -0.0173    -2.315    -0.826    -0.772  0.1875 -0.0850  0.9786
     1 C(13)  Bbb    -0.0065    -0.872    -0.311    -0.291  0.9822  0.0083 -0.1875
              Bcc     0.0238     3.188     1.137     1.063  0.0078  0.9963  0.0851
 
              Baa    -0.1646   -22.087    -7.881    -7.367 -0.0352  0.9939  0.1048
     2 C(13)  Bbb    -0.1609   -21.595    -7.706    -7.203  0.9993  0.0358 -0.0043
              Bcc     0.3255    43.682    15.587    14.571  0.0080 -0.1046  0.9945
 
              Baa    -0.0135    -1.810    -0.646    -0.604  0.4960  0.8662 -0.0599
     3 C(13)  Bbb    -0.0003    -0.039    -0.014    -0.013  0.0121  0.0620  0.9980
              Bcc     0.0138     1.849     0.660     0.617  0.8682 -0.4958  0.0202
 
              Baa    -0.1505   -20.198    -7.207    -6.737  0.8488 -0.5245 -0.0666
     4 C(13)  Bbb    -0.1480   -19.858    -7.086    -6.624  0.5285  0.8449  0.0825
              Bcc     0.2985    40.055    14.293    13.361  0.0130 -0.1052  0.9944
 
              Baa    -0.0102    -1.366    -0.487    -0.455 -0.4062  0.7604 -0.5068
     5 C(13)  Bbb    -0.0092    -1.239    -0.442    -0.413 -0.2949  0.4159  0.8603
              Bcc     0.0194     2.604     0.929     0.869  0.8649  0.4989  0.0553
 
              Baa    -0.1697   -22.771    -8.125    -7.596  0.8764  0.4801  0.0386
     6 C(13)  Bbb    -0.1663   -22.314    -7.962    -7.443 -0.4816  0.8735  0.0710
              Bcc     0.3360    45.085    16.087    15.039  0.0004 -0.0808  0.9967
 
              Baa    -0.0361    -4.846    -1.729    -1.616  0.0095 -0.1031  0.9946
     7 C(13)  Bbb    -0.0027    -0.358    -0.128    -0.119  0.4827  0.8716  0.0858
              Bcc     0.0388     5.204     1.857     1.736  0.8757 -0.4793 -0.0581
 
              Baa    -0.0954    -3.680    -1.313    -1.227  0.9085 -0.4138 -0.0579
     8 N(14)  Bbb    -0.0686    -2.645    -0.944    -0.882  0.4175  0.9042  0.0904
              Bcc     0.1640     6.325     2.257     2.110  0.0149 -0.1063  0.9942
 
              Baa    -0.0330    -4.428    -1.580    -1.477  0.0040 -0.1083  0.9941
     9 C(13)  Bbb    -0.0024    -0.325    -0.116    -0.108 -0.4788  0.8726  0.0970
              Bcc     0.0354     4.753     1.696     1.585  0.8779  0.4763  0.0483
 
              Baa    -0.0869    -3.350    -1.195    -1.117  0.9171  0.3964  0.0432
    10 N(14)  Bbb    -0.0624    -2.407    -0.859    -0.803 -0.3987  0.9115  0.1007
              Bcc     0.1493     5.757     2.054     1.920  0.0005 -0.1095  0.9940
 
              Baa    -0.0388    -5.207    -1.858    -1.737  0.0186 -0.1033  0.9945
    11 C(13)  Bbb    -0.0025    -0.339    -0.121    -0.113 -0.5229  0.8468  0.0977
              Bcc     0.0413     5.547     1.979     1.850  0.8522  0.5219  0.0383
 
              Baa    -0.1028    -3.964    -1.414    -1.322  0.8195  0.5716  0.0409
    12 N(14)  Bbb    -0.0720    -2.777    -0.991    -0.926 -0.5726  0.8143  0.0949
              Bcc     0.1748     6.741     2.405     2.249  0.0209 -0.1012  0.9946
 
              Baa    -0.0424    -5.693    -2.031    -1.899  0.0081 -0.1069  0.9942
    13 C(13)  Bbb    -0.0028    -0.374    -0.134    -0.125  0.9997 -0.0235 -0.0107
              Bcc     0.0452     6.067     2.165     2.024  0.0245  0.9940  0.1067
 
              Baa    -0.1132    -4.365    -1.557    -1.456  0.0726  0.9908  0.1141
    14 N(14)  Bbb    -0.0780    -3.008    -1.073    -1.003  0.9973 -0.0711 -0.0173
              Bcc     0.1912     7.372     2.631     2.459  0.0090 -0.1150  0.9933
 
              Baa    -0.0358    -4.798    -1.712    -1.601 -0.0030 -0.0808  0.9967
    15 C(13)  Bbb    -0.0027    -0.366    -0.130    -0.122  0.9996  0.0266  0.0052
              Bcc     0.0385     5.164     1.843     1.723 -0.0270  0.9964  0.0807
 
              Baa    -0.0946    -3.648    -1.302    -1.217 -0.1094  0.9912  0.0740
    16 N(14)  Bbb    -0.0679    -2.621    -0.935    -0.874  0.9940  0.1089  0.0112
              Bcc     0.1625     6.268     2.237     2.091 -0.0030 -0.0747  0.9972
 
              Baa    -0.0377    -5.058    -1.805    -1.687  0.0024 -0.0796  0.9968
    17 C(13)  Bbb    -0.0030    -0.398    -0.142    -0.133  0.5223  0.8502  0.0667
              Bcc     0.0407     5.456     1.947     1.820  0.8528 -0.5205 -0.0436
 
              Baa    -0.1000    -3.857    -1.376    -1.287  0.8132 -0.5803 -0.0450
    18 N(14)  Bbb    -0.0722    -2.783    -0.993    -0.928  0.5820  0.8107  0.0634
              Bcc     0.1722     6.640     2.369     2.215 -0.0003 -0.0777  0.9970
 

 ---------------------------------------------------------------------------------

   1 Symmetry operations used in ECPInt.
 ECPInt:  NShTT=    5886 NPrTT=   23670 LenC2=    5388 LenP2D=   14856.
 LDataN:  DoStor=T MaxTD1= 5 Len=  102
 D1PCM: PCM CHGder 1st derivatives, ID1Alg=3 FixD1E=F DoIter=F DoCFld=F I1PDM=0.
 Calling FoFJK, ICntrl=      2127 FMM=F ISym2X=0 I1Cent= 0 IOpClX= 1 NMat=1 NMatS=1 NMatT=0.
 -------------------------------------------------------------------
 Center     Atomic                   Forces (Hartrees/Bohr)
 Number     Number              X              Y              Z
 -------------------------------------------------------------------
      1        6           0.005903623   -0.103105868   -0.010245923
      2        6           0.006695654    0.061490623    0.006304881
      3        6          -0.099177633    0.057577828    0.006920606
      4        6           0.041240660   -0.019101997   -0.002735068
      5        6           0.082253200    0.041687729    0.003218158
      6        6          -0.038718461   -0.027821557   -0.002220388
      7        6           0.064299509   -0.045308131   -0.005321394
      8        7          -0.041668232    0.023949714    0.002973496
      9        6          -0.087082328   -0.058035690   -0.005656557
     10        7           0.056953169    0.030928343    0.003104701
     11        6          -0.011123096    0.005923726    0.000488179
     12        7          -0.010160817   -0.010823397   -0.000713038
     13        6          -0.011174074   -0.027239497   -0.003182298
     14        7           0.005506341    0.042828896    0.004879884
     15        6           0.007730824    0.087912142    0.006652679
     16        7           0.000621966   -0.053136251   -0.004095230
     17        6           0.069783329   -0.032071918   -0.002263388
     18        7          -0.041883634    0.024345304    0.001890701
 -------------------------------------------------------------------
 Cartesian Forces:  Max     0.103105868 RMS     0.040023323

 GradGradGradGradGradGradGradGradGradGradGradGradGradGradGradGradGradGrad
 Berny optimization.
 Search for a local minimum.
 Step number   1 out of a maximum of    2
 All quantities printed in internal units (Hartrees-Bohrs-Radians)
 Second derivative matrix not updated -- first step.
 ITU=  0
     Eigenvalues ---    0.00129   0.00185   0.00230   0.00292   0.00293
     Eigenvalues ---    0.00814   0.01499   0.01621   0.01934   0.01954
     Eigenvalues ---    0.03956   0.04140   0.05131   0.05178   0.09937
     Eigenvalues ---    0.16904   0.18439   0.19247   0.22777   0.24158
     Eigenvalues ---    0.24614   0.24728   0.30130   0.30284   0.42709
     Eigenvalues ---    0.63886   0.66094   0.67264   0.67654   0.72799
     Eigenvalues ---    0.97070   0.97810   1.04327   1.28542   1.47650
     Eigenvalues ---    1.54326   1.57817   1.84852   2.26542   2.35509
     Eigenvalues ---    2.58645   2.65432   2.73660   3.04752   3.05038
     Eigenvalues ---    3.08096   3.13361   3.92340
 Quadratic step=5.354D-01 exceeds max=3.000D-01 adjusted using Lamda=-5.441D-02.
 Angle between NR and scaled steps=  25.76 degrees.
 Angle between quadratic step and forces=  58.27 degrees.
 Linear search not attempted -- first point.
 B after Tr=    -0.000096    0.000141    0.000082
         Rot=    1.000000    0.000003    0.000003   -0.000002 Ang=   0.00 deg.
 Variable       Old X    -DE/DX   Delta X   Delta X   Delta X     New X
                                 (Linear)    (Quad)   (Total)
    X1      -16.90533   0.00590   0.00000   0.00552   0.00542 -16.89991
    Y1       -1.62326  -0.10311   0.00000  -0.07331  -0.07321  -1.69647
    Z1        2.10285  -0.01025   0.00000  -0.00663  -0.00663   2.09622
    X2      -16.90338   0.00670   0.00000   0.00684   0.00673 -16.89665
    Y2        0.91867   0.06149   0.00000  -0.02608  -0.02598   0.89269
    Z2        2.36411   0.00630   0.00000  -0.00171  -0.00172   2.36239
    X3      -15.47280  -0.09918   0.00000  -0.07732  -0.07742 -15.55021
    Y3       -4.06032   0.05758   0.00000   0.04310   0.04320  -4.01712
    Z3        1.85070   0.00692   0.00000   0.00509   0.00512   1.85582
    X4      -13.25943   0.04124   0.00000  -0.03144  -0.03153 -13.29096
    Y4       -5.32953  -0.01910   0.00000   0.01761   0.01771  -5.31182
    Z4        1.69919  -0.00274   0.00000   0.00026   0.00031   1.69950
    X5      -18.29851   0.08225   0.00000   0.06069   0.06059 -18.23792
    Y5       -4.04172   0.04169   0.00000   0.02901   0.02911  -4.01262
    Z5        1.87802   0.00322   0.00000   0.00248   0.00249   1.88051
    X6      -20.53404  -0.03872   0.00000   0.03436   0.03427 -20.49977
    Y6       -5.32239  -0.02782   0.00000   0.01321   0.01330  -5.30909
    Z6        1.77210  -0.00222   0.00000   0.00123   0.00124   1.77333
    X7      -19.27088   0.06430   0.00000   0.05285   0.05274 -19.21815
    Y7        2.37127  -0.04531   0.00000  -0.07719  -0.07709   2.29418
    Z7        2.53927  -0.00532   0.00000  -0.00776  -0.00779   2.53147
    X8      -21.21109  -0.04167   0.00000   0.04220   0.04208 -21.16900
    Y8        3.30004   0.02395   0.00000  -0.01731  -0.01722   3.28282
    Z8        2.66329   0.00297   0.00000  -0.00367  -0.00371   2.65958
    X9      -14.50513  -0.08708   0.00000  -0.06249  -0.06260 -14.56774
    Y9        2.39187  -0.05804   0.00000  -0.09424  -0.09413   2.29774
    Z9        2.50585  -0.00566   0.00000  -0.00823  -0.00824   2.49761
   X10      -12.56038   0.05695   0.00000  -0.04626  -0.04638 -12.60676
   Y10        3.28621   0.03093   0.00000  -0.01969  -0.01957   3.26664
   Z10        2.60181   0.00310   0.00000  -0.00361  -0.00361   2.59819
   X11      -10.84232  -0.01112   0.00000  -0.07242  -0.07251 -10.91484
   Y11       -4.01111   0.00592   0.00000   0.01134   0.01145  -3.99966
   Z11        1.79851   0.00049   0.00000   0.00079   0.00084   1.79935
   X12       -9.02497  -0.01016   0.00000  -0.05116  -0.05126  -9.07623
   Y12       -2.77167  -0.01082   0.00000  -0.03558  -0.03546  -2.80713
   Z12        1.88768  -0.00071   0.00000  -0.00079  -0.00074   1.88694
   X13      -13.19705  -0.01117   0.00000  -0.04244  -0.04252 -13.23957
   Y13       -8.04937  -0.02724   0.00000   0.04185   0.04196  -8.00742
   Z13        1.40338  -0.00318   0.00000   0.00349   0.00355   1.40693
   X14      -13.34294   0.00551   0.00000   0.00449   0.00442 -13.33852
   Y14      -10.25733   0.04283   0.00000   0.07216   0.07227 -10.18506
   Z14        1.15496   0.00488   0.00000   0.00958   0.00965   1.16461
   X15      -20.61413   0.00773   0.00000   0.05470   0.05462 -20.55951
   Y15       -8.11054   0.08791   0.00000   0.09190   0.09198  -8.01855
   Z15        1.54908   0.00665   0.00000   0.00716   0.00718   1.55626
   X16      -20.41929   0.00062   0.00000  -0.00485  -0.00492 -20.42421
   Y16      -10.24640  -0.05314   0.00000   0.04763   0.04771 -10.19869
   Z16        1.38458  -0.00410   0.00000   0.00218   0.00222   1.38680
   X17      -22.97005   0.06978   0.00000   0.09434   0.09425 -22.87581
   Y17       -4.00000  -0.03207   0.00000  -0.00093  -0.00086  -4.00086
   Z17        1.88075  -0.00226   0.00000   0.00057   0.00055   1.88130
   X18      -24.74390  -0.04188   0.00000   0.03412   0.03403 -24.70987
   Y18       -2.78059   0.02435   0.00000  -0.02525  -0.02517  -2.80576
   Z18        1.97825   0.00189   0.00000  -0.00068  -0.00071   1.97754
         Item               Value     Threshold  Converged?
 Maximum Force            0.103106     0.000450     NO 
 RMS     Force            0.040023     0.000300     NO 
 Maximum Displacement     0.094246     0.001800     NO 
 RMS     Displacement     0.040860     0.001200     NO 
 Predicted change in Energy=-2.567445D-02
 GradGradGradGradGradGradGradGradGradGradGradGradGradGradGradGradGradGrad

 Unable to Open any file for archive entry.
 1\1\GINC-X10P1N4\Force\UwB97XD\def2SVP\C12N6(1-,2)\MAYUMIAO\11-Oct-202
 4\0\\# wb97xd def2svp scrf=(smd,solvent=acetonitrile) g09default scf=(
 xqc,maxcycle=64) force guess=read nosymm\\Title Card\\-1,2\C,-8.945913
 8,-0.85899036,1.11277894\C,-8.94488125,0.48613784,1.25103528\C,-8.1878
 5159,-2.1486299,0.97934638\C,-7.01658723,-2.82026698,0.89917434\C,-9.6
 8315683,-2.13878741,0.9938038\C,-10.86614785,-2.81648605,0.9377528\C,-
 10.19771302,1.25482151,1.34372118\N,-11.224424,1.74630612,1.4093538\C,
 -7.6757867,1.26572057,1.32603941\N,-6.64666584,1.73898724,1.37681707\C
 ,-5.73751027,-2.12258928,0.95173181\N,-4.77580936,-1.46670585,0.998918
 35\C,-6.98358036,-4.25954409,0.74263578\N,-7.06077998,-5.42794521,0.61
 117943\C,-10.90852723,-4.29191209,0.81973756\N,-10.80542342,-5.4221621
 3,0.73268672\C,-12.15522907,-2.11670881,0.99524936\N,-13.09390715,-1.4
 7142317,1.04684293\\Version=ES64L-G16RevC.01\HF=-784.8286916\S2=0.7816
 02\S2-1=0.\S2A=0.750784\RMSD=8.862e-09\RMSF=4.002e-02\Dipole=-0.080680
 7,0.0953117,0.0100433\Quadrupole=-201.1647834,71.1667819,129.9980015,-
 55.6486428,33.0574667,1.2740114\PG=C01 [X(C12N6)]\\@
 The archive entry for this job was punched.


 REALITY IS FOR PEOPLE WHO CAN'T FACE SCIENCE FICTION.
 Job cpu time:       0 days  0 hours 13 minutes 59.4 seconds.
 Elapsed time:       0 days  0 hours  0 minutes 31.4 seconds.
 File lengths (MBytes):  RWF=    174 Int=      0 D2E=      0 Chk=      9 Scr=      1
 Normal termination of Gaussian 16 at Fri Oct 11 15:42:21 2024.
