 Entering Gaussian System, Link 0=g16
 Input=JOBS/17_B.gjf
 Output=JOBS/17_B.log
 Initial command:
 /data/app/gaussian/C01-avx2//g16/l1.exe "/tmp/Gau-2530087.inp" -scrdir="/tmp/"
 Entering Link 1 = /data/app/gaussian/C01-avx2//g16/l1.exe PID=   2530088.
  
 Copyright (c) 1988-2019, Gaussian, Inc.  All Rights Reserved.
  
 This is part of the Gaussian(R) 16 program.  It is based on
 the Gaussian(R) 09 system (copyright 2009, Gaussian, Inc.),
 the Gaussian(R) 03 system (copyright 2003, Gaussian, Inc.),
 the Gaussian(R) 98 system (copyright 1998, Gaussian, Inc.),
 the Gaussian(R) 94 system (copyright 1995, Gaussian, Inc.),
 the Gaussian 92(TM) system (copyright 1992, Gaussian, Inc.),
 the Gaussian 90(TM) system (copyright 1990, Gaussian, Inc.),
 the Gaussian 88(TM) system (copyright 1988, Gaussian, Inc.),
 the Gaussian 86(TM) system (copyright 1986, Carnegie Mellon
 University), and the Gaussian 82(TM) system (copyright 1983,
 Carnegie Mellon University). Gaussian is a federally registered
 trademark of Gaussian, Inc.
  
 This software contains proprietary and confidential information,
 including trade secrets, belonging to Gaussian, Inc.
  
 This software is provided under written license and may be
 used, copied, transmitted, or stored only in accord with that
 written license.
  
 The following legend is applicable only to US Government
 contracts under FAR:
  
                    RESTRICTED RIGHTS LEGEND
  
 Use, reproduction and disclosure by the US Government is
 subject to restrictions as set forth in subparagraphs (a)
 and (c) of the Commercial Computer Software - Restricted
 Rights clause in FAR 52.227-19.
  
 Gaussian, Inc.
 340 Quinnipiac St., Bldg. 40, Wallingford CT 06492
  
  
 ---------------------------------------------------------------
 Warning -- This program may not be used in any manner that
 competes with the business of Gaussian, Inc. or will provide
 assistance to any competitor of Gaussian, Inc.  The licensee
 of this program is prohibited from giving any competitor of
 Gaussian, Inc. access to this program.  By using this program,
 the user acknowledges that Gaussian, Inc. is engaged in the
 business of creating and licensing software in the field of
 computational chemistry and represents and warrants to the
 licensee that it is not a competitor of Gaussian, Inc. and that
 it will not use this program in any manner prohibited above.
 ---------------------------------------------------------------
  

 Cite this work as:
 Gaussian 16, Revision C.01,
 M. J. Frisch, G. W. Trucks, H. B. Schlegel, G. E. Scuseria, 
 M. A. Robb, J. R. Cheeseman, G. Scalmani, V. Barone, 
 G. A. Petersson, H. Nakatsuji, X. Li, M. Caricato, A. V. Marenich, 
 J. Bloino, B. G. Janesko, R. Gomperts, B. Mennucci, H. P. Hratchian, 
 J. V. Ortiz, A. F. Izmaylov, J. L. Sonnenberg, D. Williams-Young, 
 F. Ding, F. Lipparini, F. Egidi, J. Goings, B. Peng, A. Petrone, 
 T. Henderson, D. Ranasinghe, V. G. Zakrzewski, J. Gao, N. Rega, 
 G. Zheng, W. Liang, M. Hada, M. Ehara, K. Toyota, R. Fukuda, 
 J. Hasegawa, M. Ishida, T. Nakajima, Y. Honda, O. Kitao, H. Nakai, 
 T. Vreven, K. Throssell, J. A. Montgomery, Jr., J. E. Peralta, 
 F. Ogliaro, M. J. Bearpark, J. J. Heyd, E. N. Brothers, K. N. Kudin, 
 V. N. Staroverov, T. A. Keith, R. Kobayashi, J. Normand, 
 K. Raghavachari, A. P. Rendell, J. C. Burant, S. S. Iyengar, 
 J. Tomasi, M. Cossi, J. M. Millam, M. Klene, C. Adamo, R. Cammi, 
 J. W. Ochterski, R. L. Martin, K. Morokuma, O. Farkas, 
 J. B. Foresman, and D. J. Fox, Gaussian, Inc., Wallingford CT, 2019.
 
 ******************************************
 Gaussian 16:  ES64L-G16RevC.01  3-Jul-2019
                11-Oct-2024 
 ******************************************
 %chk=b.chk
 %nprocshared=28
 Will use up to   28 processors via shared memory.
 %mem=48gb
 ----------------------------------------------------------------------
 # wb97xd def2svp scrf=(smd,solvent=acetonitrile) g09default scf=(xqc,m
 axcycle=64) force guess=read nosymm
 ----------------------------------------------------------------------
 1/10=7,30=1,38=1,158=3,167=1/1,3;
 2/12=2,15=1,17=6,18=5,40=1/2;
 3/5=43,7=101,11=2,25=1,27=10,30=1,70=32201,71=1,72=2,74=-58,75=-4,116=-2,158=3/1,2,3;
 4/5=1,60=-1/1;
 5/5=2,7=64,8=3,13=1,38=6,53=2,87=10/2,8;
 6/7=2,8=2,9=2,10=2,28=1,87=10/1;
 7/29=1,30=1,87=10/1,2,3,16;
 1/10=7,30=1,158=3,167=1/3;
 99//99;
 Using 2006 physical constants.
 ----------
 Title Card
 ----------
 Symbolic Z-matrix:
 Charge = -1 Multiplicity = 2
 6                    -8.94559  -0.85971   1.11198 
 6                    -8.9446    0.48202   1.25041 
 6                    -8.19373  -2.14562   0.97964 
 6                    -7.02361  -2.81514   0.89934 
 6                    -9.67942  -2.13808   0.99426 
 6                    -10.86234  -2.81477   0.9381 
 6                    -10.18164   1.24916   1.34328 
 7                    -11.23316   1.75103   1.41029 
 6                    -7.67711   1.26987   1.32552 
 7                    -6.65367   1.73187   1.37668 
 6                    -5.72947  -2.12163   0.95219 
 7                    -4.78735  -1.47546   0.99815 
 6                    -6.98328  -4.27812   0.74075 
 7                    -7.05755  -5.40584   0.6135 
 6                    -10.91533  -4.2771    0.82159 
 7                    -10.80005  -5.42684   0.73307 
 6                    -12.14278  -2.12866   0.99329 
 7                    -13.09919  -1.46716   1.04676 
 

 GradGradGradGradGradGradGradGradGradGradGradGradGradGradGradGradGradGrad
 Berny optimization.
 Initialization pass.
 Trust Radius=3.00D-01 FncErr=1.00D-07 GrdErr=1.00D-07 EigMax=2.50D+02 EigMin=1.00D-04
 Number of steps in this run=      2 maximum allowed number of steps=      2.
 GradGradGradGradGradGradGradGradGradGradGradGradGradGradGradGradGradGrad

                          Input orientation:                          
 ---------------------------------------------------------------------
 Center     Atomic      Atomic             Coordinates (Angstroms)
 Number     Number       Type             X           Y           Z
 ---------------------------------------------------------------------
      1          6           0       -8.945594   -0.859706    1.111981
      2          6           0       -8.944602    0.482015    1.250414
      3          6           0       -8.193726   -2.145616    0.979642
      4          6           0       -7.023615   -2.815142    0.899338
      5          6           0       -9.679424   -2.138075    0.994256
      6          6           0      -10.862342   -2.814771    0.938103
      7          6           0      -10.181644    1.249163    1.343279
      8          7           0      -11.233158    1.751029    1.410289
      9          6           0       -7.677105    1.269872    1.325519
     10          7           0       -6.653673    1.731874    1.376684
     11          6           0       -5.729467   -2.121626    0.952185
     12          7           0       -4.787351   -1.475463    0.998152
     13          6           0       -6.983282   -4.278124    0.740754
     14          7           0       -7.057553   -5.405841    0.613499
     15          6           0      -10.915333   -4.277101    0.821592
     16          7           0      -10.800054   -5.426845    0.733074
     17          6           0      -12.142783   -2.128660    0.993288
     18          7           0      -13.099188   -1.467160    1.046757
 ---------------------------------------------------------------------
                    Distance matrix (angstroms):
                    1          2          3          4          5
     1  C    0.000000
     2  C    1.348845   0.000000
     3  C    1.495454   2.746193   0.000000
     4  C    2.750082   3.832061   1.350509   0.000000
     5  C    1.478713   2.733214   1.485789   2.742399   0.000000
     6  C    2.743435   3.826757   2.751546   3.838923   1.363952
     7  C    2.455330   1.458565   3.950768   5.166121   3.442009
     8  N    3.483945   2.621725   4.960589   6.231472   4.208599
     9  C    2.487925   1.494292   3.471611   4.158849   3.966500
    10  N    3.469764   2.612747   4.190982   4.586946   4.927264
    11  C    3.458533   4.147889   2.464528   1.469209   3.950215
    12  N    4.205128   4.601967   3.471720   2.608712   4.936745
    13  C    3.959047   5.173534   2.463703   1.472104   3.451558
    14  N    4.947780   6.215583   3.471890   2.606641   4.206837
    15  C    3.955096   5.168836   3.460543   4.157985   2.476432
    16  N    4.943819   6.214899   4.197643   4.594576   3.484255
    17  C    3.441852   4.136436   3.949117   5.165846   2.463377
    18  N    4.198284   4.593620   4.952612   6.225060   3.485350
                    6          7          8          9         10
     6  C    0.000000
     7  C    4.140420   0.000000
     8  N    4.605105   1.167065   0.000000
     9  C    5.194241   2.504688   3.589458   0.000000
    10  N    6.211058   3.560998   4.579648   1.124045   0.000000
    11  C    5.179484   5.597951   6.745215   3.928732   3.985451
    12  N    6.221163   6.053189   7.220010   3.999340   3.730075
    13  C    4.150597   6.414316   7.406781   5.621708   6.052531
    14  N    4.614697   7.387936   8.324142   6.742104   7.189754
    15  C    1.467921   5.599111   6.065140   6.442746   7.387670
    16  N    2.620848   6.732299   7.222746   7.412815   8.297829
    17  C    1.453727   3.921511   4.006656   5.621626   6.721685
    18  N    2.613683   3.997298   3.737775   6.080134   7.203286
                   11         12         13         14         15
    11  C    0.000000
    12  N    1.143338   0.000000
    13  C    2.503445   3.569772   0.000000
    14  N    3.558735   4.555178   1.137302   0.000000
    15  C    5.617502   6.740365   3.932882   4.024900   0.000000
    16  N    6.056677   7.199742   3.985896   3.744469   1.158894
    17  C    6.413451   7.384380   5.595035   6.061659   2.480304
    18  N    7.399327   8.311983   6.737912   7.225114   3.565907
                   16         17         18
    16  N    0.000000
    17  C    3.570525   0.000000
    18  N    4.589501   1.164110   0.000000
 Symmetry turned off by external request.
 Stoichiometry    C12N6(1-,2)
 Framework group  C1[X(C12N6)]
 Deg. of freedom    48
 Full point group                 C1      NOp   1
 Rotational constants (GHZ):           0.4193430           0.4181123           0.2093848
 Standard basis: def2SVP (5D, 7F)
   252 basis functions,   450 primitive gaussians,   270 cartesian basis functions
    58 alpha electrons       57 beta electrons
       nuclear repulsion energy       953.5063814367 Hartrees.
 NAtoms=   18 NActive=   18 NUniq=   18 SFac= 1.00D+00 NAtFMM=   60 NAOKFM=F Big=F
 Integral buffers will be    131072 words long.
 Raffenetti 2 integral format.
 Two-electron integral symmetry is turned off.
 Nuclear repulsion after empirical dispersion term =      953.4949930416 Hartrees.
 Force PCM accuracy= 1.00D-10.
 ------------------------------------------------------------------------------
 Polarizable Continuum Model (PCM)
 =================================
 Model                : PCM (using non-symmetric T matrix).
 Atomic radii         : SMD-Coulomb.
 Polarization charges : Total charges.
 Charge compensation  : None.
 Solution method      : On-the-fly selection.
 Cavity type          : VdW (van der Waals Surface) (Alpha=1.000).
 Cavity algorithm     : GePol (No added spheres)
                        Default sphere list used, NSphG=   18.
                        Lebedev-Laikov grids with approx.  5.0 points / Ang**2.
                        Smoothing algorithm: York/Karplus (Gamma=1.0000).
                        Polarization charges: spherical gaussians, with
                                              point-specific exponents (IZeta= 3).
                        Self-potential: point-specific (ISelfS= 7).
                        Self-field    : sphere-specific E.n sum rule (ISelfD= 2).
 1st derivatives      : Analytical E(r).r(x)/FMM algorithm (CHGder, D1EAlg=3).
                        Cavity 1st derivative terms included.
 Solvent              : Acetonitrile, Eps=  35.688000 Eps(inf)=   1.806874
 ------------------------------------------------------------------------------
 Spheres list:
 ISph  on   Nord     Re0    Alpha      Xe            Ye            Ze
    1   C      1    1.8500  1.000     -8.945594     -0.859706      1.111981
    2   C      2    1.8500  1.000     -8.944602      0.482015      1.250414
    3   C      3    1.8500  1.000     -8.193726     -2.145616      0.979642
    4   C      4    1.8500  1.000     -7.023615     -2.815142      0.899338
    5   C      5    1.8500  1.000     -9.679424     -2.138075      0.994256
    6   C      6    1.8500  1.000    -10.862342     -2.814771      0.938103
    7   C      7    1.8500  1.000    -10.181644      1.249163      1.343279
    8   N      8    1.8900  1.000    -11.233158      1.751029      1.410289
    9   C      9    1.8500  1.000     -7.677105      1.269872      1.325519
   10   N     10    1.8900  1.000     -6.653673      1.731874      1.376684
   11   C     11    1.8500  1.000     -5.729467     -2.121626      0.952185
   12   N     12    1.8900  1.000     -4.787351     -1.475463      0.998152
   13   C     13    1.8500  1.000     -6.983282     -4.278124      0.740754
   14   N     14    1.8900  1.000     -7.057553     -5.405841      0.613499
   15   C     15    1.8500  1.000    -10.915333     -4.277101      0.821592
   16   N     16    1.8900  1.000    -10.800054     -5.426845      0.733074
   17   C     17    1.8500  1.000    -12.142783     -2.128660      0.993288
   18   N     18    1.8900  1.000    -13.099188     -1.467160      1.046757
 ------------------------------------------------------------------------------
 ------------------------------------------------------------------------------
 Atomic radii for non-electrostatic terms: SMD-CDS.
 ------------------------------------------------------------------------------
 Nuclear repulsion after PCM non-electrostatic terms =      953.5036386948 Hartrees.
 One-electron integrals computed using PRISM.
   1 Symmetry operations used in ECPInt.
 ECPInt:  NShTT=    5886 NPrTT=   23670 LenC2=    5387 LenP2D=   14859.
 LDataN:  DoStor=T MaxTD1= 4 Len=   56
 NBasis=   252 RedAO= T EigKep=  3.30D-04  NBF=   252
 NBsUse=   252 1.00D-06 EigRej= -1.00D+00 NBFU=   252
 Initial guess from the checkpoint file:  "b.chk"
 B after Tr=    -0.000500    0.000783    0.000169
         Rot=    1.000000    0.000022    0.000008   -0.000021 Ang=   0.00 deg.
 Initial guess <Sx>= 0.0000 <Sy>= 0.0000 <Sz>= 0.5000 <S**2>= 0.7815 S= 0.5156
 Requested convergence on RMS density matrix=1.00D-08 within  64 cycles.
 Requested convergence on MAX density matrix=1.00D-06.
 Requested convergence on             energy=1.00D-06.
 No special actions if energy rises.
 Inv3:  Mode=1 IEnd=    19507500.
 Iteration    1 A*A^-1 deviation from unit magnitude is 3.33D-15 for    453.
 Iteration    1 A*A^-1 deviation from orthogonality  is 3.12D-15 for   1196     39.
 Iteration    1 A^-1*A deviation from unit magnitude is 3.22D-15 for   1672.
 Iteration    1 A^-1*A deviation from orthogonality  is 1.30D-12 for   1820   1779.
 Error on total polarization charges =  0.02008
 SCF Done:  E(UwB97XD) =  -784.830169599     A.U. after   18 cycles
            NFock= 18  Conv=0.52D-08     -V/T= 2.0101
 <Sx>= 0.0000 <Sy>= 0.0000 <Sz>= 0.5000 <S**2>= 0.7816 S= 0.5157
 <L.S>=  0.00000000000    
 SMD-CDS (non-electrostatic) energy       (kcal/mol) =       5.43
 (included in total energy above)
 Annihilation of the first spin contaminant:
 S**2 before annihilation     0.7816,   after     0.7508
 QCSCF skips out because SCF is already converged.

 **********************************************************************

            Population analysis using the SCF Density.

 **********************************************************************

 Alpha  occ. eigenvalues --  -14.46188 -14.46081 -14.46037 -14.45696 -14.45541
 Alpha  occ. eigenvalues --  -14.45317 -10.38864 -10.38813 -10.38797 -10.38735
 Alpha  occ. eigenvalues --  -10.38728 -10.38690 -10.36454 -10.36333 -10.36328
 Alpha  occ. eigenvalues --  -10.36010 -10.35870 -10.35700  -1.03283  -1.02621
 Alpha  occ. eigenvalues --   -1.02106  -1.01602  -1.01173  -1.00785  -1.00390
 Alpha  occ. eigenvalues --   -0.91803  -0.91693  -0.88146  -0.71911  -0.71782
 Alpha  occ. eigenvalues --   -0.67624  -0.67418  -0.67291  -0.66589  -0.54239
 Alpha  occ. eigenvalues --   -0.50590  -0.50472  -0.48917  -0.48636  -0.47646
 Alpha  occ. eigenvalues --   -0.47526  -0.47489  -0.47007  -0.46509  -0.46400
 Alpha  occ. eigenvalues --   -0.45756  -0.45729  -0.45347  -0.45099  -0.44793
 Alpha  occ. eigenvalues --   -0.44665  -0.44312  -0.43605  -0.43177  -0.42806
 Alpha  occ. eigenvalues --   -0.36382  -0.36090  -0.26530
 Alpha virt. eigenvalues --    0.04152   0.04276   0.06877   0.07340   0.07629
 Alpha virt. eigenvalues --    0.08193   0.10519   0.11217   0.11483   0.11649
 Alpha virt. eigenvalues --    0.11895   0.14243   0.18528   0.18676   0.19955
 Alpha virt. eigenvalues --    0.22385   0.24173   0.24364   0.25798   0.25907
 Alpha virt. eigenvalues --    0.27403   0.28708   0.29121   0.31056   0.31186
 Alpha virt. eigenvalues --    0.32237   0.34218   0.45817   0.46133   0.49621
 Alpha virt. eigenvalues --    0.50318   0.50907   0.51252   0.53232   0.53256
 Alpha virt. eigenvalues --    0.53318   0.54103   0.54296   0.56298   0.59898
 Alpha virt. eigenvalues --    0.60139   0.60202   0.60979   0.61247   0.63408
 Alpha virt. eigenvalues --    0.63642   0.68707   0.68806   0.69541   0.70631
 Alpha virt. eigenvalues --    0.70874   0.72106   0.72239   0.72408   0.73068
 Alpha virt. eigenvalues --    0.73375   0.73501   0.74148   0.74465   0.74667
 Alpha virt. eigenvalues --    0.77595   0.77726   0.78987   0.80942   0.80986
 Alpha virt. eigenvalues --    0.83356   0.83920   0.85670   0.87039   0.92281
 Alpha virt. eigenvalues --    0.92356   0.92946   0.93129   0.93512   0.94253
 Alpha virt. eigenvalues --    0.94940   0.97709   0.97951   0.99040   0.99140
 Alpha virt. eigenvalues --    1.00757   1.01170   1.01382   1.01468   1.02674
 Alpha virt. eigenvalues --    1.04108   1.04604   1.06517   1.07429   1.10288
 Alpha virt. eigenvalues --    1.11459   1.15357   1.16965   1.16989   1.17553
 Alpha virt. eigenvalues --    1.20194   1.21948   1.22124   1.24016   1.31541
 Alpha virt. eigenvalues --    1.32683   1.32837   1.38613   1.38992   1.42053
 Alpha virt. eigenvalues --    1.43330   1.44516   1.44724   1.44850   1.56587
 Alpha virt. eigenvalues --    1.58747   1.66546   1.67923   1.68152   1.68499
 Alpha virt. eigenvalues --    1.68643   1.68752   1.73733   1.73870   1.76430
 Alpha virt. eigenvalues --    1.76741   1.77079   1.77629   1.78133   1.78911
 Alpha virt. eigenvalues --    1.79305   1.80129   1.83214   1.89813   1.92778
 Alpha virt. eigenvalues --    1.92946   1.96911   1.96987   1.99532   1.99881
 Alpha virt. eigenvalues --    2.00604   2.00856   2.03827   2.08265   2.08553
 Alpha virt. eigenvalues --    2.10156   2.16798   2.17183   2.21252   2.23701
 Alpha virt. eigenvalues --    2.24489   2.27253   2.27678   2.31193   2.31561
 Alpha virt. eigenvalues --    2.33097   2.33402   2.34448   2.34683   2.34739
 Alpha virt. eigenvalues --    2.34782   2.35409   2.35590   2.35945   2.36642
 Alpha virt. eigenvalues --    2.37122   2.37632   2.53750   2.54385   2.55088
 Alpha virt. eigenvalues --    2.66021   2.66330   2.87164   2.91360   2.93445
 Alpha virt. eigenvalues --    2.94670   2.97705   2.98517   3.00539   3.02807
 Alpha virt. eigenvalues --    3.05076   3.05889   3.06832   3.07152   3.07713
 Alpha virt. eigenvalues --    3.09037   3.09691   3.17332   3.18112   3.28072
 Alpha virt. eigenvalues --    3.36540   3.39091   3.39323   3.47930   3.50489
 Alpha virt. eigenvalues --    3.52679   3.61853   3.64105   3.75537
  Beta  occ. eigenvalues --  -14.46012 -14.45901 -14.45870 -14.45547 -14.45397
  Beta  occ. eigenvalues --  -14.45190 -10.38825 -10.38800 -10.38773 -10.38500
  Beta  occ. eigenvalues --  -10.38407 -10.38341 -10.36541 -10.36420 -10.36412
  Beta  occ. eigenvalues --  -10.36086 -10.35944 -10.35768  -1.02954  -1.02363
  Beta  occ. eigenvalues --   -1.01794  -1.01354  -1.00870  -1.00492  -1.00013
  Beta  occ. eigenvalues --   -0.91087  -0.90950  -0.87134  -0.71730  -0.71602
  Beta  occ. eigenvalues --   -0.67390  -0.67200  -0.67048  -0.66325  -0.53205
  Beta  occ. eigenvalues --   -0.49394  -0.49224  -0.48728  -0.48444  -0.47326
  Beta  occ. eigenvalues --   -0.47217  -0.47195  -0.46716  -0.46333  -0.46274
  Beta  occ. eigenvalues --   -0.45630  -0.44841  -0.44656  -0.44520  -0.44224
  Beta  occ. eigenvalues --   -0.44172  -0.44016  -0.43493  -0.43050  -0.42672
  Beta  occ. eigenvalues --   -0.33958  -0.33529
  Beta virt. eigenvalues --   -0.08921   0.05297   0.05384   0.06982   0.07424
  Beta virt. eigenvalues --    0.07707   0.08194   0.11452   0.11702   0.11947
  Beta virt. eigenvalues --    0.12067   0.12203   0.14524   0.18820   0.18956
  Beta virt. eigenvalues --    0.21502   0.22307   0.25833   0.25959   0.25995
  Beta virt. eigenvalues --    0.26107   0.27658   0.28810   0.29262   0.31529
  Beta virt. eigenvalues --    0.31664   0.32836   0.34338   0.45994   0.46308
  Beta virt. eigenvalues --    0.49719   0.50398   0.50988   0.51337   0.53197
  Beta virt. eigenvalues --    0.53225   0.53505   0.54257   0.54447   0.56484
  Beta virt. eigenvalues --    0.59838   0.60039   0.60097   0.61013   0.61277
  Beta virt. eigenvalues --    0.63288   0.63841   0.68878   0.68970   0.69839
  Beta virt. eigenvalues --    0.70815   0.71050   0.72111   0.72353   0.72520
  Beta virt. eigenvalues --    0.73223   0.73563   0.73669   0.74273   0.74585
  Beta virt. eigenvalues --    0.74778   0.77607   0.77742   0.79941   0.81627
  Beta virt. eigenvalues --    0.81715   0.83494   0.84056   0.85957   0.87121
  Beta virt. eigenvalues --    0.92417   0.92488   0.93501   0.93612   0.93707
  Beta virt. eigenvalues --    0.94769   0.95547   0.98270   0.98457   0.99233
  Beta virt. eigenvalues --    0.99340   1.00891   1.01256   1.01545   1.01678
  Beta virt. eigenvalues --    1.02803   1.04331   1.04772   1.06801   1.07712
  Beta virt. eigenvalues --    1.10398   1.11546   1.15550   1.17198   1.17228
  Beta virt. eigenvalues --    1.17815   1.20590   1.22190   1.22369   1.24664
  Beta virt. eigenvalues --    1.31672   1.32872   1.33025   1.39248   1.39606
  Beta virt. eigenvalues --    1.42815   1.43428   1.44603   1.45465   1.45610
  Beta virt. eigenvalues --    1.56661   1.58734   1.66417   1.67783   1.67997
  Beta virt. eigenvalues --    1.68331   1.68451   1.68568   1.73698   1.73830
  Beta virt. eigenvalues --    1.76603   1.76868   1.77058   1.77550   1.78040
  Beta virt. eigenvalues --    1.78834   1.79213   1.80346   1.83119   1.90119
  Beta virt. eigenvalues --    1.92855   1.93030   1.97458   1.97513   1.99636
  Beta virt. eigenvalues --    2.00255   2.00775   2.01351   2.04421   2.08632
  Beta virt. eigenvalues --    2.08810   2.10421   2.17746   2.18112   2.22368
  Beta virt. eigenvalues --    2.24385   2.25094   2.27910   2.28332   2.31733
  Beta virt. eigenvalues --    2.32039   2.33712   2.33994   2.34937   2.35201
  Beta virt. eigenvalues --    2.35273   2.35385   2.35931   2.36119   2.36433
  Beta virt. eigenvalues --    2.37244   2.37669   2.38168   2.53867   2.54760
  Beta virt. eigenvalues --    2.55221   2.66589   2.66883   2.87242   2.91564
  Beta virt. eigenvalues --    2.93592   2.94805   2.97826   2.98632   3.00640
  Beta virt. eigenvalues --    3.03272   3.05566   3.06343   3.07025   3.07619
  Beta virt. eigenvalues --    3.07896   3.09435   3.10102   3.17564   3.18337
  Beta virt. eigenvalues --    3.28230   3.36728   3.39291   3.39538   3.48115
  Beta virt. eigenvalues --    3.50666   3.52845   3.62040   3.64282   3.75712
          Condensed to atoms (all electrons):
               1          2          3          4          5          6
     1  C    4.882017   0.553319   0.282997  -0.096281   0.282580  -0.096657
     2  C    0.553319   5.349125  -0.096697  -0.009046  -0.103316  -0.008667
     3  C    0.282997  -0.096697   4.870323   0.558738   0.286536  -0.093678
     4  C   -0.096281  -0.009046   0.558738   5.344059  -0.100875  -0.008509
     5  C    0.282580  -0.103316   0.286536  -0.100875   4.904960   0.544709
     6  C   -0.096657  -0.008667  -0.093678  -0.008509   0.544709   5.334362
     7  C    0.001574   0.388763   0.004609  -0.000235  -0.014472   0.000862
     8  N   -0.000681  -0.027331   0.000006  -0.000001  -0.000385   0.000078
     9  C   -0.000568   0.371467  -0.012152   0.000670   0.005049  -0.000192
    10  N   -0.000917  -0.024921  -0.000372   0.000047   0.000021  -0.000001
    11  C   -0.013360   0.000761   0.001079   0.382506   0.005103  -0.000213
    12  N   -0.000374   0.000049  -0.001023  -0.026230   0.000008  -0.000001
    13  C    0.004636  -0.000230   0.000654   0.382723  -0.013688   0.000832
    14  N   -0.000003  -0.000001  -0.001135  -0.025578  -0.000391   0.000066
    15  C    0.005316  -0.000217  -0.013712   0.000657  -0.000752   0.379202
    16  N    0.000029  -0.000001  -0.000367   0.000048  -0.000582  -0.027595
    17  C   -0.014687   0.000725   0.004834  -0.000231   0.000534   0.387840
    18  N   -0.000367   0.000053   0.000017  -0.000001  -0.000564  -0.028068
               7          8          9         10         11         12
     1  C    0.001574  -0.000681  -0.000568  -0.000917  -0.013360  -0.000374
     2  C    0.388763  -0.027331   0.371467  -0.024921   0.000761   0.000049
     3  C    0.004609   0.000006  -0.012152  -0.000372   0.001079  -0.001023
     4  C   -0.000235  -0.000001   0.000670   0.000047   0.382506  -0.026230
     5  C   -0.014472  -0.000385   0.005049   0.000021   0.005103   0.000008
     6  C    0.000862   0.000078  -0.000192  -0.000001  -0.000213  -0.000001
     7  C    4.810692   0.906550  -0.022877   0.001080   0.000033   0.000001
     8  N    0.906550   6.131525   0.001070   0.000018   0.000000   0.000000
     9  C   -0.022877   0.001070   4.788752   0.956674   0.000429   0.000344
    10  N    0.001080   0.000018   0.956674   6.040243   0.000331  -0.000722
    11  C    0.000033   0.000000   0.000429   0.000331   4.797716   0.933080
    12  N    0.000001   0.000000   0.000344  -0.000722   0.933080   6.078819
    13  C   -0.000002  -0.000000   0.000027   0.000001  -0.024720   0.001222
    14  N   -0.000000   0.000000   0.000000   0.000000   0.001122   0.000025
    15  C    0.000035   0.000001  -0.000001  -0.000000   0.000032   0.000000
    16  N    0.000000   0.000000  -0.000000   0.000000   0.000001   0.000000
    17  C    0.000337   0.000256   0.000029   0.000000  -0.000002  -0.000000
    18  N    0.000297  -0.000689   0.000001   0.000000  -0.000000   0.000000
              13         14         15         16         17         18
     1  C    0.004636  -0.000003   0.005316   0.000029  -0.014687  -0.000367
     2  C   -0.000230  -0.000001  -0.000217  -0.000001   0.000725   0.000053
     3  C    0.000654  -0.001135  -0.013712  -0.000367   0.004834   0.000017
     4  C    0.382723  -0.025578   0.000657   0.000048  -0.000231  -0.000001
     5  C   -0.013688  -0.000391  -0.000752  -0.000582   0.000534  -0.000564
     6  C    0.000832   0.000066   0.379202  -0.027595   0.387840  -0.028068
     7  C   -0.000002  -0.000000   0.000035   0.000000   0.000337   0.000297
     8  N   -0.000000   0.000000   0.000001   0.000000   0.000256  -0.000689
     9  C    0.000027   0.000000  -0.000001  -0.000000   0.000029   0.000001
    10  N    0.000001   0.000000  -0.000000   0.000000   0.000000   0.000000
    11  C   -0.024720   0.001122   0.000032   0.000001  -0.000002  -0.000000
    12  N    0.001222   0.000025   0.000000   0.000000  -0.000000   0.000000
    13  C    4.796630   0.941018   0.000376   0.000520   0.000033   0.000000
    14  N    0.941018   6.064777   0.000110  -0.000706   0.000001   0.000000
    15  C    0.000376   0.000110   4.806963   0.915673  -0.021975   0.001172
    16  N    0.000520  -0.000706   0.915673   6.115382   0.001234   0.000020
    17  C    0.000033   0.000001  -0.021975   0.001234   4.807584   0.909023
    18  N    0.000000   0.000000   0.001172   0.000020   0.909023   6.126348
          Atomic-Atomic Spin Densities.
               1          2          3          4          5          6
     1  C   -0.020456  -0.073370   0.033353  -0.006560   0.037008  -0.006749
     2  C   -0.073370   0.386984  -0.006457   0.000971  -0.007451   0.001002
     3  C    0.033353  -0.006457  -0.021780  -0.072566   0.036454  -0.006499
     4  C   -0.006560   0.000971  -0.072566   0.382748  -0.007225   0.000965
     5  C    0.037008  -0.007451   0.036454  -0.007225  -0.002656  -0.078397
     6  C   -0.006749   0.001002  -0.006499   0.000965  -0.078397   0.394654
     7  C   -0.000336   0.008387  -0.000090  -0.000008   0.000185  -0.000036
     8  N    0.000530  -0.004896   0.000007  -0.000000   0.000050  -0.000030
     9  C   -0.000566   0.005606   0.000181  -0.000027  -0.000094  -0.000008
    10  N    0.000449  -0.004404   0.000042  -0.000028   0.000007  -0.000000
    11  C    0.000205  -0.000032  -0.000493   0.006834  -0.000111  -0.000009
    12  N    0.000045  -0.000029   0.000492  -0.004683   0.000007  -0.000000
    13  C   -0.000092  -0.000009  -0.000453   0.006494   0.000184  -0.000030
    14  N    0.000006  -0.000000   0.000473  -0.004613   0.000047  -0.000027
    15  C   -0.000087  -0.000008   0.000187  -0.000037  -0.000152   0.007539
    16  N    0.000008  -0.000000   0.000044  -0.000030   0.000555  -0.004938
    17  C    0.000204  -0.000044  -0.000081  -0.000008  -0.000113   0.008315
    18  N    0.000047  -0.000032   0.000008  -0.000000   0.000569  -0.005165
               7          8          9         10         11         12
     1  C   -0.000336   0.000530  -0.000566   0.000449   0.000205   0.000045
     2  C    0.008387  -0.004896   0.005606  -0.004404  -0.000032  -0.000029
     3  C   -0.000090   0.000007   0.000181   0.000042  -0.000493   0.000492
     4  C   -0.000008  -0.000000  -0.000027  -0.000028   0.006834  -0.004683
     5  C    0.000185   0.000050  -0.000094   0.000007  -0.000111   0.000007
     6  C   -0.000036  -0.000030  -0.000008  -0.000000  -0.000009  -0.000000
     7  C   -0.071376  -0.002965  -0.001541   0.000016  -0.000001   0.000000
     8  N   -0.002965   0.109416   0.000022   0.000005  -0.000000   0.000000
     9  C   -0.001541   0.000022  -0.055578  -0.001395  -0.000000   0.000005
    10  N    0.000016   0.000005  -0.001395   0.078997   0.000005   0.000035
    11  C   -0.000001  -0.000000  -0.000000   0.000005  -0.062144  -0.002051
    12  N    0.000000   0.000000   0.000005   0.000035  -0.002051   0.092933
    13  C    0.000000  -0.000000  -0.000001   0.000000  -0.001445   0.000026
    14  N   -0.000000   0.000000  -0.000000   0.000000   0.000033   0.000006
    15  C   -0.000001   0.000000   0.000000  -0.000000  -0.000001  -0.000000
    16  N   -0.000000   0.000000  -0.000000   0.000000   0.000000   0.000000
    17  C   -0.000001   0.000007  -0.000001  -0.000000   0.000000  -0.000000
    18  N    0.000006   0.000042   0.000000   0.000000  -0.000000   0.000000
              13         14         15         16         17         18
     1  C   -0.000092   0.000006  -0.000087   0.000008   0.000204   0.000047
     2  C   -0.000009  -0.000000  -0.000008  -0.000000  -0.000044  -0.000032
     3  C   -0.000453   0.000473   0.000187   0.000044  -0.000081   0.000008
     4  C    0.006494  -0.004613  -0.000037  -0.000030  -0.000008  -0.000000
     5  C    0.000184   0.000047  -0.000152   0.000555  -0.000113   0.000569
     6  C   -0.000030  -0.000027   0.007539  -0.004938   0.008315  -0.005165
     7  C    0.000000  -0.000000  -0.000001  -0.000000  -0.000001   0.000006
     8  N   -0.000000   0.000000   0.000000   0.000000   0.000007   0.000042
     9  C   -0.000001  -0.000000   0.000000  -0.000000  -0.000001   0.000000
    10  N    0.000000   0.000000  -0.000000   0.000000  -0.000000   0.000000
    11  C   -0.001445   0.000033  -0.000001   0.000000   0.000000  -0.000000
    12  N    0.000026   0.000006  -0.000000   0.000000  -0.000000   0.000000
    13  C   -0.059887  -0.001830  -0.000001   0.000005  -0.000001  -0.000000
    14  N   -0.001830   0.089020   0.000006   0.000036   0.000000   0.000000
    15  C   -0.000001   0.000006  -0.068892  -0.002592  -0.001721   0.000033
    16  N    0.000005   0.000036  -0.002592   0.104017   0.000028   0.000006
    17  C   -0.000001   0.000000  -0.001721   0.000028  -0.072481  -0.002986
    18  N   -0.000000   0.000000   0.000033   0.000006  -0.002986   0.112125
 Mulliken charges and spin densities:
               1          2
     1  C    0.211427  -0.036361
     2  C   -0.393836   0.306221
     3  C    0.209344  -0.037176
     4  C   -0.402464   0.302226
     5  C    0.205525  -0.021135
     6  C   -0.384372   0.310588
     7  C   -0.077247  -0.067761
     8  N   -0.010417   0.102189
     9  C   -0.088722  -0.053397
    10  N    0.028517   0.073730
    11  C   -0.083898  -0.059209
    12  N    0.014799   0.086786
    13  C   -0.090034  -0.057040
    14  N    0.020694   0.083158
    15  C   -0.072879  -0.065726
    16  N   -0.003657   0.097138
    17  C   -0.075537  -0.068883
    18  N   -0.007242   0.104653
 Sum of Mulliken charges =  -1.00000   1.00000
 Mulliken charges and spin densities with hydrogens summed into heavy atoms:
               1          2
     1  C    0.211427  -0.036361
     2  C   -0.393836   0.306221
     3  C    0.209344  -0.037176
     4  C   -0.402464   0.302226
     5  C    0.205525  -0.021135
     6  C   -0.384372   0.310588
     7  C   -0.077247  -0.067761
     8  N   -0.010417   0.102189
     9  C   -0.088722  -0.053397
    10  N    0.028517   0.073730
    11  C   -0.083898  -0.059209
    12  N    0.014799   0.086786
    13  C   -0.090034  -0.057040
    14  N    0.020694   0.083158
    15  C   -0.072879  -0.065726
    16  N   -0.003657   0.097138
    17  C   -0.075537  -0.068883
    18  N   -0.007242   0.104653
 Electronic spatial extent (au):  <R**2>=          39100.2149
 Charge=             -1.0000 electrons
 Dipole moment (field-independent basis, Debye):
    X=             43.2432    Y=              8.3103    Z=             -4.9449  Tot=             44.3112
 Quadrupole moment (field-independent basis, Debye-Ang):
   XX=           -559.2192   YY=           -182.9637   ZZ=           -104.6067
   XY=            -74.3585   XZ=             45.2064   YZ=              1.5988
 Traceless Quadrupole moment (field-independent basis, Debye-Ang):
   XX=           -276.9560   YY=             99.2995   ZZ=            177.6565
   XY=            -74.3585   XZ=             45.2064   YZ=              1.5988
 Octapole moment (field-independent basis, Debye-Ang**2):
  XXX=           8065.6829  YYY=            969.7670  ZZZ=           -312.5174  XYY=           1637.5855
  XXY=            880.1044  XXZ=           -594.2343  XZZ=            937.5963  YZZ=            165.7443
  YYZ=           -158.2780  XYZ=            -15.9522
 Hexadecapole moment (field-independent basis, Debye-Ang**3):
 XXXX=        -117561.6795 YYYY=          -7870.4022 ZZZZ=           -767.5580 XXXY=         -11716.9083
 XXXZ=           8658.0589 YYYX=          -8672.3119 YYYZ=            634.5129 ZZZX=           2813.8776
 ZZZY=            362.4093 XXYY=         -16345.6935 XXZZ=          -9150.9921 YYZZ=           -982.5776
 XXYZ=            298.4648 YYXZ=           1433.5048 ZZXY=          -1484.2086
 N-N= 9.535036386948D+02 E-N=-3.742396370864D+03  KE= 7.769444279267D+02
                          Isotropic Fermi Contact Couplings
        Atom                 a.u.       MegaHertz       Gauss      10(-4) cm-1
     1  C(13)             -0.01570     -17.65014      -6.29801      -5.88745
     2  C(13)              0.05150      57.89411      20.65806      19.31140
     3  C(13)             -0.01587     -17.83716      -6.36474      -5.94984
     4  C(13)              0.05057      56.84802      20.28479      18.96246
     5  C(13)             -0.01298     -14.59679      -5.20850      -4.86896
     6  C(13)              0.05178      58.21300      20.77185      19.41777
     7  C(13)             -0.03220     -36.20221     -12.91785     -12.07576
     8  N(14)              0.02381       7.69291       2.74502       2.56608
     9  C(13)             -0.02887     -32.45103     -11.57933     -10.82450
    10  N(14)              0.01644       5.31156       1.89530       1.77175
    11  C(13)             -0.02988     -33.58881     -11.98532     -11.20402
    12  N(14)              0.01984       6.41023       2.28733       2.13822
    13  C(13)             -0.02933     -32.97386     -11.76589     -10.99889
    14  N(14)              0.01889       6.10394       2.17804       2.03605
    15  C(13)             -0.03226     -36.26348     -12.93971     -12.09619
    16  N(14)              0.02245       7.25443       2.58856       2.41982
    17  C(13)             -0.03279     -36.85716     -13.15155     -12.29423
    18  N(14)              0.02435       7.86606       2.80681       2.62384
 --------------------------------------------------------
       Center         ----  Spin Dipole Couplings  ----
                      3XX-RR        3YY-RR        3ZZ-RR
 --------------------------------------------------------
     1   Atom       -0.007698      0.021841     -0.014144
     2   Atom       -0.157320     -0.155893      0.313214
     3   Atom        0.015447     -0.000246     -0.015201
     4   Atom       -0.158468     -0.151691      0.310160
     5   Atom        0.005847     -0.007649      0.001802
     6   Atom       -0.163377     -0.158426      0.321803
     7   Atom        0.033595      0.007680     -0.041275
     8   Atom       -0.105138     -0.080406      0.185544
     9   Atom        0.024845      0.005509     -0.030354
    10   Atom       -0.077621     -0.059656      0.137278
    11   Atom        0.027492      0.008011     -0.035503
    12   Atom       -0.085634     -0.074723      0.160357
    13   Atom       -0.002516      0.036218     -0.033702
    14   Atom       -0.065845     -0.087409      0.153254
    15   Atom       -0.002695      0.042081     -0.039386
    16   Atom       -0.074918     -0.103976      0.178895
    17   Atom        0.032429      0.009865     -0.042294
    18   Atom       -0.102620     -0.089628      0.192247
 --------------------------------------------------------
                        XY            XZ            YZ
 --------------------------------------------------------
     1   Atom        0.000300     -0.002006      0.003162
     2   Atom       -0.000201      0.004254     -0.049846
     3   Atom       -0.013000      0.000196      0.002833
     4   Atom        0.000861      0.006042     -0.049478
     5   Atom        0.011539      0.001244     -0.000362
     6   Atom       -0.001349     -0.000272     -0.038894
     7   Atom       -0.019912     -0.002835      0.005328
     8   Atom        0.012473      0.005694     -0.028816
     9   Atom        0.014851      0.001404      0.003921
    10   Atom       -0.007831     -0.001025     -0.022259
    11   Atom        0.018271      0.000698      0.004228
    12   Atom       -0.013117      0.004040     -0.023871
    13   Atom        0.000765     -0.000173      0.007566
    14   Atom       -0.002280      0.001644     -0.028426
    15   Atom       -0.001196      0.000048      0.006610
    16   Atom        0.003603     -0.000685     -0.021393
    17   Atom       -0.021622     -0.001905      0.004210
    18   Atom        0.015951      0.001371     -0.022133
 --------------------------------------------------------


 ---------------------------------------------------------------------------------
              Anisotropic Spin Dipole Couplings in Principal Axis System
 ---------------------------------------------------------------------------------

       Atom             a.u.   MegaHertz   Gauss  10(-4) cm-1        Axes

              Baa    -0.0150    -2.010    -0.717    -0.671  0.2678 -0.0846  0.9598
     1 C(13)  Bbb    -0.0071    -0.958    -0.342    -0.319  0.9635  0.0192 -0.2671
              Bcc     0.0221     2.968     1.059     0.990  0.0042  0.9962  0.0866
 
              Baa    -0.1611   -21.624    -7.716    -7.213 -0.0646  0.9924  0.1049
     2 C(13)  Bbb    -0.1573   -21.114    -7.534    -7.043  0.9979  0.0652 -0.0021
              Bcc     0.3185    42.738    15.250    14.256  0.0089 -0.1045  0.9945
 
              Baa    -0.0160    -2.150    -0.767    -0.717 -0.1166 -0.2679  0.9563
     3 C(13)  Bbb    -0.0068    -0.913    -0.326    -0.305  0.4808  0.8273  0.2904
              Bcc     0.0228     3.063     1.093     1.022  0.8691 -0.4937 -0.0323
 
              Baa    -0.1594   -21.394    -7.634    -7.136  0.8586 -0.5085 -0.0646
     4 C(13)  Bbb    -0.1560   -20.939    -7.472    -6.985  0.5125  0.8546  0.0841
              Bcc     0.3155    42.334    15.106    14.121  0.0125 -0.1053  0.9944
 
              Baa    -0.0143    -1.922    -0.686    -0.641 -0.4984  0.8650  0.0578
     5 C(13)  Bbb     0.0018     0.239     0.085     0.080 -0.0438 -0.0918  0.9948
              Bcc     0.0125     1.683     0.601     0.561  0.8658  0.4933  0.0836
 
              Baa    -0.1641   -22.022    -7.858    -7.346  0.8816  0.4705  0.0382
     6 C(13)  Bbb    -0.1608   -21.581    -7.701    -7.199 -0.4720  0.8787  0.0706
              Bcc     0.3249    43.603    15.559    14.544 -0.0003 -0.0802  0.9968
 
              Baa    -0.0419    -5.617    -2.004    -1.873  0.0102 -0.1029  0.9946
     7 C(13)  Bbb    -0.0028    -0.380    -0.136    -0.127  0.4830  0.8715  0.0852
              Bcc     0.0447     5.997     2.140     2.000  0.8756 -0.4795 -0.0586
 
              Baa    -0.1113    -4.292    -1.532    -1.432  0.9056 -0.4200 -0.0581
     8 N(14)  Bbb    -0.0774    -2.985    -1.065    -0.996  0.4238  0.9013  0.0896
              Bcc     0.1887     7.278     2.597     2.428  0.0148 -0.1058  0.9943
 
              Baa    -0.0308    -4.130    -1.474    -1.378  0.0040 -0.1090  0.9940
     9 C(13)  Bbb    -0.0023    -0.305    -0.109    -0.102 -0.4819  0.8708  0.0975
              Bcc     0.0331     4.435     1.583     1.479  0.8762  0.4795  0.0491
 
              Baa    -0.0809    -3.122    -1.114    -1.041  0.9220  0.3848  0.0436
    10 N(14)  Bbb    -0.0588    -2.269    -0.810    -0.757 -0.3873  0.9163  0.1020
              Bcc     0.1398     5.390     1.923     1.798 -0.0007 -0.1109  0.9938
 
              Baa    -0.0359    -4.821    -1.720    -1.608  0.0189 -0.1035  0.9944
    11 C(13)  Bbb    -0.0026    -0.353    -0.126    -0.118 -0.5178  0.8499  0.0983
              Bcc     0.0386     5.175     1.846     1.726  0.8553  0.5167  0.0376
 
              Baa    -0.0948    -3.656    -1.305    -1.220  0.8131  0.5806  0.0414
    12 N(14)  Bbb    -0.0681    -2.626    -0.937    -0.876 -0.5817  0.8079  0.0947
              Bcc     0.1629     6.282     2.241     2.095  0.0215 -0.1011  0.9946
 
              Baa    -0.0345    -4.631    -1.653    -1.545  0.0079 -0.1064  0.9943
    13 C(13)  Bbb    -0.0025    -0.339    -0.121    -0.113  0.9998 -0.0178 -0.0099
              Bcc     0.0370     4.971     1.774     1.658  0.0188  0.9942  0.1063
 
              Baa    -0.0909    -3.506    -1.251    -1.169  0.0826  0.9900  0.1147
    14 N(14)  Bbb    -0.0657    -2.533    -0.904    -0.845  0.9965 -0.0810 -0.0180
              Bcc     0.1566     6.039     2.155     2.014  0.0085 -0.1158  0.9932
 
              Baa    -0.0399    -5.357    -1.911    -1.787 -0.0039 -0.0804  0.9968
    15 C(13)  Bbb    -0.0027    -0.366    -0.131    -0.122  0.9996  0.0258  0.0060
              Bcc     0.0426     5.723     2.042     1.909 -0.0262  0.9964  0.0803
 
              Baa    -0.1060    -4.088    -1.459    -1.364 -0.1133  0.9908  0.0741
    16 N(14)  Bbb    -0.0745    -2.874    -1.026    -0.959  0.9936  0.1127  0.0122
              Bcc     0.1805     6.962     2.484     2.322 -0.0037 -0.0750  0.9972
 
              Baa    -0.0426    -5.721    -2.041    -1.908  0.0026 -0.0789  0.9969
    17 C(13)  Bbb    -0.0031    -0.412    -0.147    -0.137  0.5216  0.8506  0.0660
              Bcc     0.0457     6.133     2.188     2.046  0.8532 -0.5199 -0.0433
 
              Baa    -0.1140    -4.395    -1.568    -1.466  0.8161 -0.5762 -0.0453
    18 N(14)  Bbb    -0.0800    -3.086    -1.101    -1.029  0.5780  0.8136  0.0632
              Bcc     0.1940     7.481     2.669     2.495  0.0004 -0.0778  0.9970
 

 ---------------------------------------------------------------------------------

   1 Symmetry operations used in ECPInt.
 ECPInt:  NShTT=    5886 NPrTT=   23670 LenC2=    5387 LenP2D=   14859.
 LDataN:  DoStor=T MaxTD1= 5 Len=  102
 D1PCM: PCM CHGder 1st derivatives, ID1Alg=3 FixD1E=F DoIter=F DoCFld=F I1PDM=0.
 Calling FoFJK, ICntrl=      2127 FMM=F ISym2X=0 I1Cent= 0 IOpClX= 1 NMat=1 NMatS=1 NMatT=0.
 -------------------------------------------------------------------
 Center     Atomic                   Forces (Hartrees/Bohr)
 Number     Number              X              Y              Z
 -------------------------------------------------------------------
      1        6           0.004319285   -0.103993514   -0.010144130
      2        6           0.012267584    0.064295822    0.006422520
      3        6          -0.091161964    0.053277171    0.006345330
      4        6           0.048119873   -0.029319993   -0.003759117
      5        6           0.080086273    0.043392585    0.003265936
      6        6          -0.036827098   -0.027420114   -0.002242468
      7        6          -0.002690063   -0.013693210   -0.001167020
      8        7           0.018216107   -0.004593217   -0.000811615
      9        6          -0.111967428   -0.071635818   -0.007074222
     10        7           0.082874503    0.042943038    0.004440134
     11        6          -0.062532065   -0.026102683   -0.001932045
     12        7           0.034667995    0.019090243    0.001479301
     13        6          -0.006641669    0.083887006    0.009210604
     14        7          -0.000418916   -0.055280083   -0.006135926
     15        6           0.015141805    0.028279685    0.002001024
     16        7          -0.004694955   -0.001160097   -0.000069042
     17        6           0.014418300    0.007552453    0.001068223
     18        7           0.006822434   -0.009519275   -0.000897488
 -------------------------------------------------------------------
 Cartesian Forces:  Max     0.111967428 RMS     0.039661780

 GradGradGradGradGradGradGradGradGradGradGradGradGradGradGradGradGradGrad
 Berny optimization.
 Search for a local minimum.
 Step number   1 out of a maximum of    2
 All quantities printed in internal units (Hartrees-Bohrs-Radians)
 Second derivative matrix not updated -- first step.
 ITU=  0
     Eigenvalues ---    0.00112   0.00163   0.00229   0.00293   0.00293
     Eigenvalues ---    0.00712   0.01503   0.01630   0.01943   0.01956
     Eigenvalues ---    0.03796   0.03944   0.05138   0.05204   0.10007
     Eigenvalues ---    0.16887   0.18596   0.19012   0.22676   0.24460
     Eigenvalues ---    0.24611   0.24713   0.30229   0.30466   0.42820
     Eigenvalues ---    0.63099   0.65669   0.67669   0.68247   0.73671
     Eigenvalues ---    0.97372   0.98026   1.04024   1.05852   1.33427
     Eigenvalues ---    1.55596   1.59465   1.87238   1.99148   2.29744
     Eigenvalues ---    2.31687   2.70731   2.74245   2.80419   2.88452
     Eigenvalues ---    3.00782   3.09855   3.28656
 Quadratic step=5.127D-01 exceeds max=3.000D-01 adjusted using Lamda=-4.366D-02.
 Angle between NR and scaled steps=  25.90 degrees.
 Angle between quadratic step and forces=  59.61 degrees.
 Linear search not attempted -- first point.
 B after Tr=     0.000217   -0.000350    0.000020
         Rot=    1.000000    0.000003    0.000001    0.000010 Ang=   0.00 deg.
 Variable       Old X    -DE/DX   Delta X   Delta X   Delta X     New X
                                 (Linear)    (Quad)   (Total)
    X1      -16.90472   0.00432   0.00000   0.00396   0.00414 -16.90059
    Y1       -1.62461  -0.10399   0.00000  -0.07385  -0.07386  -1.69847
    Z1        2.10134  -0.01014   0.00000  -0.00642  -0.00644   2.09490
    X2      -16.90285   0.01227   0.00000   0.00224   0.00246 -16.90038
    Y2        0.91088   0.06430   0.00000  -0.02313  -0.02314   0.88774
    Z2        2.36294   0.00642   0.00000  -0.00125  -0.00128   2.36166
    X3      -15.48390  -0.09116   0.00000  -0.06857  -0.06844 -15.55234
    Y3       -4.05463   0.05328   0.00000   0.03805   0.03801  -4.01661
    Z3        1.85126   0.00635   0.00000   0.00444   0.00444   1.85570
    X4      -13.27271   0.04812   0.00000  -0.02779  -0.02768 -13.30039
    Y4       -5.31985  -0.02932   0.00000   0.01565   0.01557  -5.30427
    Z4        1.69950  -0.00376   0.00000   0.00025   0.00027   1.69978
    X5      -18.29146   0.08009   0.00000   0.05853   0.05867 -18.23280
    Y5       -4.04038   0.04339   0.00000   0.02944   0.02946  -4.01092
    Z5        1.87887   0.00327   0.00000   0.00220   0.00220   1.88107
    X6      -20.52685  -0.03683   0.00000   0.03054   0.03065 -20.49621
    Y6       -5.31915  -0.02742   0.00000   0.01312   0.01318  -5.30596
    Z6        1.77276  -0.00224   0.00000   0.00102   0.00103   1.77378
    X7      -19.24052  -0.00269   0.00000   0.02764   0.02789 -19.21263
    Y7        2.36058  -0.01369   0.00000  -0.07003  -0.06999   2.29059
    Z7        2.53843  -0.00117   0.00000  -0.00682  -0.00686   2.53157
    X8      -21.22759   0.01822   0.00000   0.06104   0.06131 -21.16628
    Y8        3.30896  -0.00459   0.00000  -0.02940  -0.02933   3.27964
    Z8        2.66506  -0.00081   0.00000  -0.00534  -0.00540   2.65966
    X9      -14.50763  -0.11197   0.00000  -0.06574  -0.06548 -14.57311
    Y9        2.39971  -0.07164   0.00000  -0.10447  -0.10452   2.29519
    Z9        2.50487  -0.00707   0.00000  -0.00872  -0.00875   2.49611
   X10      -12.57362   0.08287   0.00000  -0.03738  -0.03711 -12.61072
   Y10        3.27277   0.04294   0.00000  -0.01806  -0.01815   3.25462
   Z10        2.60156   0.00444   0.00000  -0.00396  -0.00399   2.59756
   X11      -10.82712  -0.06253   0.00000  -0.09354  -0.09341 -10.92053
   Y11       -4.00929  -0.02610   0.00000   0.00553   0.00541  -4.00388
   Z11        1.79937  -0.00193   0.00000   0.00024   0.00026   1.79963
   X12       -9.04678   0.03467   0.00000  -0.03737  -0.03721  -9.08399
   Y12       -2.78822   0.01909   0.00000  -0.02388  -0.02404  -2.81226
   Z12        1.88623   0.00148   0.00000   0.00040   0.00041   1.88664
   X13      -13.19649  -0.00664   0.00000  -0.04622  -0.04616 -13.24265
   Y13       -8.08448   0.08389   0.00000   0.08136   0.08128  -8.00321
   Z13        1.39982   0.00921   0.00000   0.00778   0.00782   1.40764
   X14      -13.33684  -0.00042   0.00000  -0.00024  -0.00022 -13.33707
   Y14      -10.21556  -0.05528   0.00000   0.03842   0.03833 -10.17723
   Z14        1.15934  -0.00614   0.00000   0.00609   0.00614   1.16549
   X15      -20.62699   0.01514   0.00000   0.06550   0.06556 -20.56143
   Y15       -8.08255   0.02828   0.00000   0.07171   0.07177  -8.01078
   Z15        1.55258   0.00200   0.00000   0.00536   0.00538   1.55797
   X16      -20.40914  -0.00469   0.00000  -0.00274  -0.00272 -20.41186
   Y16      -10.25525  -0.00116   0.00000   0.06236   0.06241 -10.19284
   Z16        1.38531  -0.00007   0.00000   0.00321   0.00325   1.38855
   X17      -22.94653   0.01442   0.00000   0.07725   0.07739 -22.86915
   Y17       -4.02259   0.00755   0.00000   0.01902   0.01913  -4.00346
   Z17        1.87704   0.00107   0.00000   0.00266   0.00265   1.87969
   X18      -24.75388   0.00682   0.00000   0.05021   0.05037 -24.70351
   Y18       -2.77253  -0.00952   0.00000  -0.03166  -0.03152  -2.80405
   Z18        1.97808  -0.00090   0.00000  -0.00110  -0.00112   1.97696
         Item               Value     Threshold  Converged?
 Maximum Force            0.111967     0.000450     NO 
 RMS     Force            0.039662     0.000300     NO 
 Maximum Displacement     0.104518     0.001800     NO 
 RMS     Displacement     0.040900     0.001200     NO 
 Predicted change in Energy=-2.413215D-02
 GradGradGradGradGradGradGradGradGradGradGradGradGradGradGradGradGradGrad

 Unable to Open any file for archive entry.
 1\1\GINC-X10P1N4\Force\UwB97XD\def2SVP\C12N6(1-,2)\MAYUMIAO\11-Oct-202
 4\0\\# wb97xd def2svp scrf=(smd,solvent=acetonitrile) g09default scf=(
 xqc,maxcycle=64) force guess=read nosymm\\Title Card\\-1,2\C,-8.945594
 38,-0.85970648,1.11198053\C,-8.94460199,0.48201535,1.25041402\C,-8.193
 72587,-2.14561557,0.97964214\C,-7.02361455,-2.81514209,0.89933846\C,-9
 .67942419,-2.13807543,0.99425564\C,-10.86234212,-2.81477117,0.93810295
 \C,-10.18164441,1.24916257,1.34327907\N,-11.23315801,1.75102867,1.4102
 887\C,-7.67710515,1.26987245,1.3255187\N,-6.65367286,1.7318744,1.37668
 437\C,-5.72946729,-2.12162585,0.95218503\N,-4.78735085,-1.47546338,0.9
 981519\C,-6.98328218,-4.27812383,0.74075423\N,-7.05755334,-5.40584126,
 0.61349856\C,-10.9153332,-4.2771013,0.82159211\N,-10.800054,-5.4268448
 2,0.73307401\C,-12.14278282,-2.12866045,0.99328779\N,-13.09918762,-1.4
 6715975,1.04675676\\Version=ES64L-G16RevC.01\HF=-784.8301696\S2=0.7816
 1\S2-1=0.\S2A=0.750788\RMSD=5.151e-09\RMSF=3.966e-02\Dipole=0.1201739,
 0.0285964,-0.000177\Quadrupole=-205.9100028,73.8267241,132.0832787,-55
 .2836918,33.609851,1.1886353\PG=C01 [X(C12N6)]\\@
 The archive entry for this job was punched.


 ERWIN WITH HIS PSI CAN DO
 CALCULATIONS QUITE A FEW.
 BUT ONE THING HAS NOT BEEN SEEN
 JUST WHAT DOES PSI REALLY MEAN.
 -- WALTER HUCKEL, TRANS. BY FELIX BLOCH
 Job cpu time:       0 days  0 hours 14 minutes 13.7 seconds.
 Elapsed time:       0 days  0 hours  0 minutes 32.0 seconds.
 File lengths (MBytes):  RWF=    174 Int=      0 D2E=      0 Chk=      9 Scr=      1
 Normal termination of Gaussian 16 at Fri Oct 11 15:43:16 2024.
