 Entering Gaussian System, Link 0=g16
 Input=JOBS/18_A.gjf
 Output=JOBS/18_A.log
 Initial command:
 /data/app/gaussian/C01-avx2//g16/l1.exe "/tmp/Gau-2531473.inp" -scrdir="/tmp/"
 Entering Link 1 = /data/app/gaussian/C01-avx2//g16/l1.exe PID=   2531474.
  
 Copyright (c) 1988-2019, Gaussian, Inc.  All Rights Reserved.
  
 This is part of the Gaussian(R) 16 program.  It is based on
 the Gaussian(R) 09 system (copyright 2009, Gaussian, Inc.),
 the Gaussian(R) 03 system (copyright 2003, Gaussian, Inc.),
 the Gaussian(R) 98 system (copyright 1998, Gaussian, Inc.),
 the Gaussian(R) 94 system (copyright 1995, Gaussian, Inc.),
 the Gaussian 92(TM) system (copyright 1992, Gaussian, Inc.),
 the Gaussian 90(TM) system (copyright 1990, Gaussian, Inc.),
 the Gaussian 88(TM) system (copyright 1988, Gaussian, Inc.),
 the Gaussian 86(TM) system (copyright 1986, Carnegie Mellon
 University), and the Gaussian 82(TM) system (copyright 1983,
 Carnegie Mellon University). Gaussian is a federally registered
 trademark of Gaussian, Inc.
  
 This software contains proprietary and confidential information,
 including trade secrets, belonging to Gaussian, Inc.
  
 This software is provided under written license and may be
 used, copied, transmitted, or stored only in accord with that
 written license.
  
 The following legend is applicable only to US Government
 contracts under FAR:
  
                    RESTRICTED RIGHTS LEGEND
  
 Use, reproduction and disclosure by the US Government is
 subject to restrictions as set forth in subparagraphs (a)
 and (c) of the Commercial Computer Software - Restricted
 Rights clause in FAR 52.227-19.
  
 Gaussian, Inc.
 340 Quinnipiac St., Bldg. 40, Wallingford CT 06492
  
  
 ---------------------------------------------------------------
 Warning -- This program may not be used in any manner that
 competes with the business of Gaussian, Inc. or will provide
 assistance to any competitor of Gaussian, Inc.  The licensee
 of this program is prohibited from giving any competitor of
 Gaussian, Inc. access to this program.  By using this program,
 the user acknowledges that Gaussian, Inc. is engaged in the
 business of creating and licensing software in the field of
 computational chemistry and represents and warrants to the
 licensee that it is not a competitor of Gaussian, Inc. and that
 it will not use this program in any manner prohibited above.
 ---------------------------------------------------------------
  

 Cite this work as:
 Gaussian 16, Revision C.01,
 M. J. Frisch, G. W. Trucks, H. B. Schlegel, G. E. Scuseria, 
 M. A. Robb, J. R. Cheeseman, G. Scalmani, V. Barone, 
 G. A. Petersson, H. Nakatsuji, X. Li, M. Caricato, A. V. Marenich, 
 J. Bloino, B. G. Janesko, R. Gomperts, B. Mennucci, H. P. Hratchian, 
 J. V. Ortiz, A. F. Izmaylov, J. L. Sonnenberg, D. Williams-Young, 
 F. Ding, F. Lipparini, F. Egidi, J. Goings, B. Peng, A. Petrone, 
 T. Henderson, D. Ranasinghe, V. G. Zakrzewski, J. Gao, N. Rega, 
 G. Zheng, W. Liang, M. Hada, M. Ehara, K. Toyota, R. Fukuda, 
 J. Hasegawa, M. Ishida, T. Nakajima, Y. Honda, O. Kitao, H. Nakai, 
 T. Vreven, K. Throssell, J. A. Montgomery, Jr., J. E. Peralta, 
 F. Ogliaro, M. J. Bearpark, J. J. Heyd, E. N. Brothers, K. N. Kudin, 
 V. N. Staroverov, T. A. Keith, R. Kobayashi, J. Normand, 
 K. Raghavachari, A. P. Rendell, J. C. Burant, S. S. Iyengar, 
 J. Tomasi, M. Cossi, J. M. Millam, M. Klene, C. Adamo, R. Cammi, 
 J. W. Ochterski, R. L. Martin, K. Morokuma, O. Farkas, 
 J. B. Foresman, and D. J. Fox, Gaussian, Inc., Wallingford CT, 2019.
 
 ******************************************
 Gaussian 16:  ES64L-G16RevC.01  3-Jul-2019
                11-Oct-2024 
 ******************************************
 %chk=a.chk
 %nprocshared=28
 Will use up to   28 processors via shared memory.
 %mem=48gb
 ----------------------------------------------------------------------
 # wb97xd def2svp scrf=(smd,solvent=acetonitrile) g09default scf=(xqc,m
 axcycle=64) force guess=read nosymm
 ----------------------------------------------------------------------
 1/10=7,30=1,38=1,158=3,167=1/1,3;
 2/12=2,15=1,17=6,18=5,40=1/2;
 3/5=43,7=101,11=2,25=1,27=10,30=1,70=32201,71=1,72=2,74=-58,75=-4,116=-2,158=3/1,2,3;
 4/5=1,60=-1/1;
 5/5=2,7=64,8=3,13=1,38=6,53=2,87=10/2,8;
 6/7=2,8=2,9=2,10=2,28=1,87=10/1;
 7/29=1,30=1,87=10/1,2,3,16;
 1/10=7,30=1,158=3,167=1/3;
 99//99;
 Using 2006 physical constants.
 ----------
 Title Card
 ----------
 Symbolic Z-matrix:
 Charge = -2 Multiplicity = 1
 6                    -8.94103  -0.8664    1.11116 
 6                    -8.94108   0.49693   1.25154 
 6                    -8.20076  -2.139     0.98066 
 6                    -7.01779  -2.81631   0.89922 
 6                    -9.68786  -2.14542   0.99376 
 6                    -10.85636  -2.8138    0.93829 
 6                    -10.18397   1.25178   1.34365 
 7                    -11.2331   1.75241   1.41118 
 6                    -7.67877   1.27212   1.32523 
 7                    -6.65479   1.72851   1.37712 
 6                    -5.73778  -2.13065   0.95146 
 7                    -4.77599  -1.4696    0.99804 
 6                    -6.98194  -4.27992   0.74039 
 7                    -7.0557   -5.40954   0.61181 
 6                    -10.91781  -4.2874    0.82172 
 7                    -10.79784  -5.41854   0.73536 
 6                    -12.14288  -2.1312    0.99236 
 7                    -13.10443  -1.46414   1.04584 
 

 GradGradGradGradGradGradGradGradGradGradGradGradGradGradGradGradGradGrad
 Berny optimization.
 Initialization pass.
 Trust Radius=3.00D-01 FncErr=1.00D-07 GrdErr=1.00D-07 EigMax=2.50D+02 EigMin=1.00D-04
 Number of steps in this run=      2 maximum allowed number of steps=      2.
 GradGradGradGradGradGradGradGradGradGradGradGradGradGradGradGradGradGrad

                          Input orientation:                          
 ---------------------------------------------------------------------
 Center     Atomic      Atomic             Coordinates (Angstroms)
 Number     Number       Type             X           Y           Z
 ---------------------------------------------------------------------
      1          6           0       -8.941031   -0.866404    1.111162
      2          6           0       -8.941082    0.496925    1.251544
      3          6           0       -8.200761   -2.139001    0.980663
      4          6           0       -7.017788   -2.816312    0.899216
      5          6           0       -9.687860   -2.145417    0.993757
      6          6           0      -10.856364   -2.813802    0.938290
      7          6           0      -10.183972    1.251776    1.343653
      8          7           0      -11.233096    1.752410    1.411183
      9          6           0       -7.678770    1.272122    1.325233
     10          7           0       -6.654787    1.728512    1.377116
     11          6           0       -5.737783   -2.130647    0.951463
     12          7           0       -4.775986   -1.469604    0.998038
     13          6           0       -6.981940   -4.279921    0.740392
     14          7           0       -7.055699   -5.409539    0.611812
     15          6           0      -10.917814   -4.287402    0.821716
     16          7           0      -10.797843   -5.418537    0.735360
     17          6           0      -12.142884   -2.131201    0.992362
     18          7           0      -13.104434   -1.464136    1.045844
 ---------------------------------------------------------------------
                    Distance matrix (angstroms):
                    1          2          3          4          5
     1  C    0.000000
     2  C    1.370538   0.000000
     3  C    1.478017   2.751283   0.000000
     4  C    2.746985   3.847172   1.365580   0.000000
     5  C    1.485736   2.757917   1.487170   2.754690   0.000000
     6  C    2.736922   3.837623   2.740325   3.838776   1.347300
     7  C    2.466910   1.457073   3.944903   5.174127   3.451011
     8  N    3.493102   2.618216   4.952119   6.237319   4.213675
     9  C    2.492473   1.483169   3.467991   4.163373   3.978177
    10  N    3.468607   2.599946   4.183882   4.584276   4.934959
    11  C    3.447407   4.153951   2.463166   1.453025   3.950331
    12  N    4.210018   4.612974   3.489624   2.617072   4.958149
    13  C    3.953176   5.188234   2.475235   1.472637   3.455763
    14  N    4.944077   6.232997   3.484772   2.609380   4.210539
    15  C    3.961651   5.194421   3.467459   4.168970   2.475982
    16  N    4.930607   6.221471   4.190508   4.592084   3.465854
    17  C    3.444660   4.150393   3.942148   5.171524   2.455066
    18  N    4.206598   4.606688   4.950323   6.236756   3.484227
                    6          7          8          9         10
     6  C    0.000000
     7  C    4.140695   0.000000
     8  N    4.606066   1.164412   0.000000
     9  C    5.190530   2.505352   3.587659   0.000000
    10  N    6.203099   3.561396   4.578498   1.122286   0.000000
    11  C    5.163986   5.600286   6.744475   3.935222   3.989384
    12  N    6.227475   6.063965   7.228163   4.006279   3.728477
    13  C    4.147268   6.420016   7.410216   5.626081   6.050927
    14  N    4.614054   7.395594   8.329655   6.748465   7.190146
    15  C    1.479481   5.611902   6.076694   6.453932   7.394126
    16  N    2.613283   6.726064   7.215862   7.405503   8.285956
    17  C    1.457395   3.924955   4.010680   5.623319   6.720463
    18  N    2.624306   3.999246   3.739190   6.083008   7.204213
                   11         12         13         14         15
    11  C    0.000000
    12  N    1.167989   0.000000
    13  C    2.492360   3.581968   0.000000
    14  N    3.550127   4.568298   1.139303   0.000000
    15  C    5.612589   6.759669   3.936721   4.027304   0.000000
    16  N    6.038305   7.205958   3.982158   3.744193   1.140752
    17  C    6.405232   7.396548   5.596054   6.063973   2.485784
    18  N    7.397344   8.328587   6.745878   7.234762   3.578040
                   16         17         18
    16  N    0.000000
    17  C    3.561146   0.000000
    18  N    4.588469   1.171501   0.000000
 Symmetry turned off by external request.
 Stoichiometry    C12N6(2-)
 Framework group  C1[X(C12N6)]
 Deg. of freedom    48
 Full point group                 C1      NOp   1
 Rotational constants (GHZ):           0.4190501           0.4174641           0.2091504
 Standard basis: def2SVP (5D, 7F)
   252 basis functions,   450 primitive gaussians,   270 cartesian basis functions
    58 alpha electrons       58 beta electrons
       nuclear repulsion energy       952.9121453439 Hartrees.
 NAtoms=   18 NActive=   18 NUniq=   18 SFac= 1.00D+00 NAtFMM=   60 NAOKFM=F Big=F
 Integral buffers will be    131072 words long.
 Raffenetti 2 integral format.
 Two-electron integral symmetry is turned off.
 Nuclear repulsion after empirical dispersion term =      952.9007733860 Hartrees.
 Force PCM accuracy= 1.00D-10.
 ------------------------------------------------------------------------------
 Polarizable Continuum Model (PCM)
 =================================
 Model                : PCM (using non-symmetric T matrix).
 Atomic radii         : SMD-Coulomb.
 Polarization charges : Total charges.
 Charge compensation  : None.
 Solution method      : On-the-fly selection.
 Cavity type          : VdW (van der Waals Surface) (Alpha=1.000).
 Cavity algorithm     : GePol (No added spheres)
                        Default sphere list used, NSphG=   18.
                        Lebedev-Laikov grids with approx.  5.0 points / Ang**2.
                        Smoothing algorithm: York/Karplus (Gamma=1.0000).
                        Polarization charges: spherical gaussians, with
                                              point-specific exponents (IZeta= 3).
                        Self-potential: point-specific (ISelfS= 7).
                        Self-field    : sphere-specific E.n sum rule (ISelfD= 2).
 1st derivatives      : Analytical E(r).r(x)/FMM algorithm (CHGder, D1EAlg=3).
                        Cavity 1st derivative terms included.
 Solvent              : Acetonitrile, Eps=  35.688000 Eps(inf)=   1.806874
 ------------------------------------------------------------------------------
 Spheres list:
 ISph  on   Nord     Re0    Alpha      Xe            Ye            Ze
    1   C      1    1.8500  1.000     -8.941031     -0.866404      1.111162
    2   C      2    1.8500  1.000     -8.941082      0.496925      1.251544
    3   C      3    1.8500  1.000     -8.200761     -2.139001      0.980663
    4   C      4    1.8500  1.000     -7.017788     -2.816312      0.899216
    5   C      5    1.8500  1.000     -9.687860     -2.145417      0.993757
    6   C      6    1.8500  1.000    -10.856364     -2.813802      0.938290
    7   C      7    1.8500  1.000    -10.183972      1.251776      1.343653
    8   N      8    1.8900  1.000    -11.233096      1.752410      1.411183
    9   C      9    1.8500  1.000     -7.678770      1.272122      1.325233
   10   N     10    1.8900  1.000     -6.654787      1.728512      1.377116
   11   C     11    1.8500  1.000     -5.737783     -2.130647      0.951463
   12   N     12    1.8900  1.000     -4.775986     -1.469604      0.998038
   13   C     13    1.8500  1.000     -6.981940     -4.279921      0.740392
   14   N     14    1.8900  1.000     -7.055699     -5.409539      0.611812
   15   C     15    1.8500  1.000    -10.917814     -4.287402      0.821716
   16   N     16    1.8900  1.000    -10.797843     -5.418537      0.735360
   17   C     17    1.8500  1.000    -12.142884     -2.131201      0.992362
   18   N     18    1.8900  1.000    -13.104434     -1.464136      1.045844
 ------------------------------------------------------------------------------
 ------------------------------------------------------------------------------
 Atomic radii for non-electrostatic terms: SMD-CDS.
 ------------------------------------------------------------------------------
 Nuclear repulsion after PCM non-electrostatic terms =      952.9094170197 Hartrees.
 One-electron integrals computed using PRISM.
   1 Symmetry operations used in ECPInt.
 ECPInt:  NShTT=    5886 NPrTT=   23670 LenC2=    5386 LenP2D=   14849.
 LDataN:  DoStor=T MaxTD1= 4 Len=   56
 NBasis=   252 RedAO= T EigKep=  3.32D-04  NBF=   252
 NBsUse=   252 1.00D-06 EigRej= -1.00D+00 NBFU=   252
 Initial guess from the checkpoint file:  "a.chk"
 B after Tr=     0.000116   -0.000022   -0.000648
         Rot=    1.000000    0.000001   -0.000019    0.000006 Ang=   0.00 deg.
 Requested convergence on RMS density matrix=1.00D-08 within  64 cycles.
 Requested convergence on MAX density matrix=1.00D-06.
 Requested convergence on             energy=1.00D-06.
 No special actions if energy rises.
 Inv3:  Mode=1 IEnd=    19630092.
 Iteration    1 A*A^-1 deviation from unit magnitude is 3.11D-15 for   1516.
 Iteration    1 A*A^-1 deviation from orthogonality  is 4.42D-15 for   1892    233.
 Iteration    1 A^-1*A deviation from unit magnitude is 3.55D-15 for    229.
 Iteration    1 A^-1*A deviation from orthogonality  is 2.36D-12 for   1113   1109.
 Error on total polarization charges =  0.02223
 SCF Done:  E(RwB97XD) =  -784.988540958     A.U. after   13 cycles
            NFock= 13  Conv=0.70D-08     -V/T= 2.0102
 SMD-CDS (non-electrostatic) energy       (kcal/mol) =       5.42
 (included in total energy above)
 QCSCF skips out because SCF is already converged.

 **********************************************************************

            Population analysis using the SCF Density.

 **********************************************************************

 Alpha  occ. eigenvalues --  -14.43296 -14.43100 -14.42971 -14.42920 -14.42696
 Alpha  occ. eigenvalues --  -14.42404 -10.35442 -10.35411 -10.35387 -10.34223
 Alpha  occ. eigenvalues --  -10.34073 -10.33962 -10.33777 -10.33623 -10.33619
 Alpha  occ. eigenvalues --  -10.33552 -10.33466 -10.33302  -1.00432  -0.99991
 Alpha  occ. eigenvalues --   -0.99670  -0.98609  -0.98306  -0.98224  -0.97050
 Alpha  occ. eigenvalues --   -0.87971  -0.87616  -0.84094  -0.68463  -0.68098
 Alpha  occ. eigenvalues --   -0.64043  -0.63935  -0.63640  -0.63147  -0.50824
 Alpha  occ. eigenvalues --   -0.47488  -0.47432  -0.46146  -0.46123  -0.45395
 Alpha  occ. eigenvalues --   -0.45260  -0.45192  -0.44705  -0.44109  -0.43825
 Alpha  occ. eigenvalues --   -0.43526  -0.43234  -0.42702  -0.42478  -0.42351
 Alpha  occ. eigenvalues --   -0.42159  -0.41831  -0.41034  -0.40667  -0.40194
 Alpha  occ. eigenvalues --   -0.32529  -0.32264  -0.22327
 Alpha virt. eigenvalues --    0.06844   0.07060   0.09224   0.09420   0.09813
 Alpha virt. eigenvalues --    0.10862   0.13043   0.13215   0.13761   0.13959
 Alpha virt. eigenvalues --    0.14311   0.16128   0.20581   0.20652   0.23073
 Alpha virt. eigenvalues --    0.25133   0.27669   0.27768   0.27785   0.27902
 Alpha virt. eigenvalues --    0.29728   0.31834   0.32053   0.33138   0.33324
 Alpha virt. eigenvalues --    0.34330   0.36028   0.48481   0.48563   0.51554
 Alpha virt. eigenvalues --    0.51994   0.52359   0.53055   0.54886   0.54976
 Alpha virt. eigenvalues --    0.55509   0.56513   0.56715   0.58732   0.61432
 Alpha virt. eigenvalues --    0.61692   0.61842   0.62761   0.62908   0.64821
 Alpha virt. eigenvalues --    0.65746   0.70751   0.70998   0.71785   0.72637
 Alpha virt. eigenvalues --    0.72999   0.73687   0.73772   0.73980   0.74664
 Alpha virt. eigenvalues --    0.75147   0.75203   0.75717   0.76635   0.76722
 Alpha virt. eigenvalues --    0.79541   0.79675   0.81627   0.83342   0.83451
 Alpha virt. eigenvalues --    0.85846   0.86138   0.87846   0.89011   0.93894
 Alpha virt. eigenvalues --    0.94229   0.94863   0.94973   0.95765   0.96158
 Alpha virt. eigenvalues --    0.96970   0.99677   0.99881   1.01256   1.01416
 Alpha virt. eigenvalues --    1.02746   1.03057   1.03586   1.03955   1.04426
 Alpha virt. eigenvalues --    1.06289   1.06818   1.08793   1.09732   1.12317
 Alpha virt. eigenvalues --    1.13537   1.17856   1.18681   1.19272   1.20067
 Alpha virt. eigenvalues --    1.22570   1.23950   1.24383   1.27802   1.33377
 Alpha virt. eigenvalues --    1.35084   1.35436   1.42375   1.42603   1.45419
 Alpha virt. eigenvalues --    1.45827   1.46792   1.48102   1.48619   1.59012
 Alpha virt. eigenvalues --    1.61445   1.68907   1.70254   1.70414   1.70785
 Alpha virt. eigenvalues --    1.71023   1.71228   1.76301   1.76563   1.79396
 Alpha virt. eigenvalues --    1.79538   1.79813   1.80131   1.80324   1.81467
 Alpha virt. eigenvalues --    1.82031   1.82888   1.85505   1.92550   1.94987
 Alpha virt. eigenvalues --    1.95577   2.00307   2.00492   2.02063   2.02866
 Alpha virt. eigenvalues --    2.04194   2.04339   2.07446   2.11591   2.12251
 Alpha virt. eigenvalues --    2.13872   2.20518   2.20961   2.25059   2.27309
 Alpha virt. eigenvalues --    2.27909   2.30363   2.31130   2.34202   2.34671
 Alpha virt. eigenvalues --    2.35688   2.36006   2.37011   2.37063   2.37442
 Alpha virt. eigenvalues --    2.37744   2.38037   2.38132   2.38726   2.39315
 Alpha virt. eigenvalues --    2.40132   2.40472   2.57164   2.57488   2.57751
 Alpha virt. eigenvalues --    2.69437   2.69889   2.89703   2.93870   2.96427
 Alpha virt. eigenvalues --    2.96532   3.00202   3.00925   3.02416   3.05570
 Alpha virt. eigenvalues --    3.07355   3.08435   3.09304   3.10289   3.10746
 Alpha virt. eigenvalues --    3.11811   3.12838   3.19982   3.20579   3.30868
 Alpha virt. eigenvalues --    3.38985   3.41906   3.42452   3.50617   3.53143
 Alpha virt. eigenvalues --    3.54313   3.64918   3.66654   3.78094
          Condensed to atoms (all electrons):
               1          2          3          4          5          6
     1  C    4.937983   0.485162   0.328585  -0.108767   0.323684  -0.113709
     2  C    0.485162   5.541173  -0.107525  -0.006842  -0.103729  -0.007298
     3  C    0.328585  -0.107525   4.931911   0.483203   0.324542  -0.114986
     4  C   -0.108767  -0.006842   0.483203   5.552404  -0.107734  -0.007843
     5  C    0.323684  -0.103729   0.324542  -0.107734   4.918460   0.477834
     6  C   -0.113709  -0.007298  -0.114986  -0.007843   0.477834   5.569790
     7  C    0.005894   0.392161   0.005364  -0.000243  -0.015708   0.001014
     8  N    0.000186  -0.041215   0.000021  -0.000001  -0.000458   0.000068
     9  C    0.001056   0.381326  -0.014524   0.000989   0.005630  -0.000222
    10  N   -0.000202  -0.039823  -0.000527   0.000080   0.000037  -0.000001
    11  C   -0.016305   0.001004   0.004640   0.389721   0.005671  -0.000249
    12  N   -0.000482   0.000064  -0.000017  -0.042170   0.000023  -0.000001
    13  C    0.005312  -0.000228   0.003730   0.383883  -0.015154   0.000961
    14  N    0.000014  -0.000001  -0.000224  -0.039435  -0.000487   0.000056
    15  C    0.005988  -0.000205  -0.015181   0.000900   0.001666   0.378367
    16  N    0.000050  -0.000001  -0.000538   0.000072   0.000128  -0.039201
    17  C   -0.016424   0.000962   0.005504  -0.000234   0.004878   0.387820
    18  N   -0.000490   0.000074   0.000030  -0.000001   0.000327  -0.040486
               7          8          9         10         11         12
     1  C    0.005894   0.000186   0.001056  -0.000202  -0.016305  -0.000482
     2  C    0.392161  -0.041215   0.381326  -0.039823   0.001004   0.000064
     3  C    0.005364   0.000021  -0.014524  -0.000527   0.004640  -0.000017
     4  C   -0.000243  -0.000001   0.000989   0.000080   0.389721  -0.042170
     5  C   -0.015708  -0.000458   0.005630   0.000037   0.005671   0.000023
     6  C    0.001014   0.000068  -0.000222  -0.000001  -0.000249  -0.000001
     7  C    4.834494   0.923339  -0.024370   0.001483   0.000042   0.000001
     8  N    0.923339   6.179430   0.001484   0.000033   0.000000   0.000000
     9  C   -0.024370   0.001484   4.813241   0.971465   0.000439   0.000447
    10  N    0.001483   0.000033   0.971465   6.081572   0.000193  -0.000795
    11  C    0.000042   0.000000   0.000439   0.000193   4.836896   0.919173
    12  N    0.000001   0.000000   0.000447  -0.000795   0.919173   6.185243
    13  C   -0.000003  -0.000000   0.000035   0.000001  -0.024713   0.001714
    14  N   -0.000000   0.000000   0.000000   0.000000   0.001621   0.000040
    15  C    0.000039   0.000001  -0.000002  -0.000000   0.000039   0.000000
    16  N    0.000000   0.000000  -0.000000   0.000000   0.000001   0.000000
    17  C    0.000438   0.000214   0.000036   0.000000  -0.000002  -0.000000
    18  N    0.000341  -0.000758   0.000001   0.000000  -0.000000   0.000000
              13         14         15         16         17         18
     1  C    0.005312   0.000014   0.005988   0.000050  -0.016424  -0.000490
     2  C   -0.000228  -0.000001  -0.000205  -0.000001   0.000962   0.000074
     3  C    0.003730  -0.000224  -0.015181  -0.000538   0.005504   0.000030
     4  C    0.383883  -0.039435   0.000900   0.000072  -0.000234  -0.000001
     5  C   -0.015154  -0.000487   0.001666   0.000128   0.004878   0.000327
     6  C    0.000961   0.000056   0.378367  -0.039201   0.387820  -0.040486
     7  C   -0.000003  -0.000000   0.000039   0.000000   0.000438   0.000341
     8  N   -0.000000   0.000000   0.000001   0.000000   0.000214  -0.000758
     9  C    0.000035   0.000000  -0.000002  -0.000000   0.000036   0.000001
    10  N    0.000001   0.000000  -0.000000   0.000000   0.000000   0.000000
    11  C   -0.024713   0.001621   0.000039   0.000001  -0.000002  -0.000000
    12  N    0.001714   0.000040   0.000000   0.000000  -0.000000   0.000000
    13  C    4.823768   0.952930   0.000442   0.000491   0.000039   0.000000
    14  N    0.952930   6.114821   0.000167  -0.000785   0.000001   0.000000
    15  C    0.000442   0.000167   4.826213   0.949882  -0.022945   0.001402
    16  N    0.000491  -0.000785   0.949882   6.119835   0.001421   0.000027
    17  C    0.000039   0.000001  -0.022945   0.001421   4.840441   0.915511
    18  N    0.000000   0.000000   0.001402   0.000027   0.915511   6.191594
 Mulliken charges:
               1
     1  C    0.162465
     2  C   -0.495059
     3  C    0.165993
     4  C   -0.497981
     5  C    0.180391
     6  C   -0.491914
     7  C   -0.124285
     8  N   -0.062343
     9  C   -0.137031
    10  N   -0.013515
    11  C   -0.118171
    12  N   -0.063240
    13  C   -0.133206
    14  N   -0.028718
    15  C   -0.126773
    16  N   -0.031382
    17  C   -0.117660
    18  N   -0.067572
 Sum of Mulliken charges =  -2.00000
 Mulliken charges with hydrogens summed into heavy atoms:
               1
     1  C    0.162465
     2  C   -0.495059
     3  C    0.165993
     4  C   -0.497981
     5  C    0.180391
     6  C   -0.491914
     7  C   -0.124285
     8  N   -0.062343
     9  C   -0.137031
    10  N   -0.013515
    11  C   -0.118171
    12  N   -0.063240
    13  C   -0.133206
    14  N   -0.028718
    15  C   -0.126773
    16  N   -0.031382
    17  C   -0.117660
    18  N   -0.067572
 Electronic spatial extent (au):  <R**2>=          39443.3673
 Charge=             -2.0000 electrons
 Dipole moment (field-independent basis, Debye):
    X=             85.8645    Y=             16.1367    Z=             -9.9253  Tot=             87.9296
 Quadrupole moment (field-independent basis, Debye-Ang):
   XX=           -966.1364   YY=           -222.4017   ZZ=           -114.2560
   XY=           -142.7591   XZ=             89.7370   YZ=              7.4413
 Traceless Quadrupole moment (field-independent basis, Debye-Ang):
   XX=           -531.8717   YY=            211.8630   ZZ=            320.0087
   XY=           -142.7591   XZ=             89.7370   YZ=              7.4413
 Octapole moment (field-independent basis, Debye-Ang**2):
  XXX=          12186.8799  YYY=           1123.1239  ZZZ=           -331.8372  XYY=           1985.2951
  XXY=           1525.5929  XXZ=          -1021.7397  XZZ=           1023.5777  YZZ=            176.6158
  YYZ=           -191.8261  XYZ=            -67.3623
 Hexadecapole moment (field-independent basis, Debye-Ang**3):
 XXXX=        -161320.6578 YYYY=          -8677.1529 ZZZZ=           -810.4706 XXXY=         -18203.9758
 XXXZ=          13003.1821 YYYX=         -10015.7231 YYYZ=            748.1495 ZZZX=           2986.4273
 ZZZY=            380.4680 XXYY=         -19606.2926 XXZZ=          -9971.2146 YYZZ=          -1043.8823
 XXYZ=            790.3569 YYXZ=           1733.0191 ZZXY=          -1578.5856
 N-N= 9.529094170197D+02 E-N=-3.759558322882D+03  KE= 7.770761945766D+02
   1 Symmetry operations used in ECPInt.
 ECPInt:  NShTT=    5886 NPrTT=   23670 LenC2=    5386 LenP2D=   14849.
 LDataN:  DoStor=T MaxTD1= 5 Len=  102
 D1PCM: PCM CHGder 1st derivatives, ID1Alg=3 FixD1E=F DoIter=F DoCFld=F I1PDM=0.
 Calling FoFJK, ICntrl=      2127 FMM=F ISym2X=0 I1Cent= 0 IOpClX= 0 NMat=1 NMatS=1 NMatT=0.
 -------------------------------------------------------------------
 Center     Atomic                   Forces (Hartrees/Bohr)
 Number     Number              X              Y              Z
 -------------------------------------------------------------------
      1        6           0.001139320   -0.128515158   -0.012232115
      2        6           0.006788551    0.072355551    0.007036961
      3        6          -0.118611573    0.066669271    0.007474501
      4        6           0.059505827   -0.043213822   -0.004902286
      5        6           0.133627358    0.075224211    0.005947845
      6        6          -0.080409306   -0.053262703   -0.004319286
      7        6           0.019907060   -0.023002686   -0.002279460
      8        7           0.002229453    0.002737322    0.000163979
      9        6          -0.128379776   -0.077523076   -0.007656492
     10        7           0.097882448    0.049401503    0.005202863
     11        6          -0.021352242    0.001314201   -0.000057629
     12        7          -0.005291942   -0.008311962   -0.000486276
     13        6          -0.005908277    0.095287680    0.010245408
     14        7          -0.000777253   -0.060250785   -0.006741695
     15        6           0.011222893    0.093119237    0.007104196
     16        7           0.000198271   -0.056144623   -0.004198405
     17        6           0.015915826    0.007791812    0.001008405
     18        7           0.012313361   -0.013675972   -0.001310514
 -------------------------------------------------------------------
 Cartesian Forces:  Max     0.133627358 RMS     0.051014979

 GradGradGradGradGradGradGradGradGradGradGradGradGradGradGradGradGradGrad
 Berny optimization.
 Search for a local minimum.
 Step number   1 out of a maximum of    2
 All quantities printed in internal units (Hartrees-Bohrs-Radians)
 Second derivative matrix not updated -- first step.
 ITU=  0
     Eigenvalues ---    0.00108   0.00155   0.00228   0.00293   0.00293
     Eigenvalues ---    0.00710   0.01500   0.01626   0.01944   0.01948
     Eigenvalues ---    0.03781   0.03917   0.05103   0.05217   0.09993
     Eigenvalues ---    0.16511   0.18585   0.19054   0.22651   0.24367
     Eigenvalues ---    0.24648   0.24765   0.30048   0.30414   0.42977
     Eigenvalues ---    0.62426   0.65139   0.67861   0.68804   0.73925
     Eigenvalues ---    0.97343   0.97824   1.04059   1.04596   1.23685
     Eigenvalues ---    1.52869   1.57949   1.85780   2.01465   2.24160
     Eigenvalues ---    2.65547   2.70099   2.74072   2.77158   3.03729
     Eigenvalues ---    3.06651   3.10745   3.32449
 Quadratic step=4.545D-01 exceeds max=3.000D-01 adjusted using Lamda=-4.855D-02.
 Angle between NR and scaled steps=  20.61 degrees.
 Angle between quadratic step and forces=  52.69 degrees.
 Linear search not attempted -- first point.
 B after Tr=     0.000148   -0.000423    0.000003
         Rot=    1.000000    0.000003    0.000001    0.000009 Ang=   0.00 deg.
 Variable       Old X    -DE/DX   Delta X   Delta X   Delta X     New X
                                 (Linear)    (Quad)   (Total)
    X1      -16.89610   0.00114   0.00000   0.00345   0.00356 -16.89254
    Y1       -1.63727  -0.12852   0.00000  -0.08296  -0.08308  -1.72035
    Z1        2.09979  -0.01223   0.00000  -0.00722  -0.00725   2.09254
    X2      -16.89620   0.00679   0.00000  -0.00266  -0.00250 -16.89869
    Y2        0.93905   0.07236   0.00000  -0.01625  -0.01637   0.92268
    Z2        2.36507   0.00704   0.00000  -0.00099  -0.00103   2.36404
    X3      -15.49719  -0.11861   0.00000  -0.07507  -0.07499 -15.57218
    Y3       -4.04213   0.06667   0.00000   0.04605   0.04590  -3.99622
    Z3        1.85318   0.00747   0.00000   0.00495   0.00494   1.85813
    X4      -13.26170   0.05951   0.00000  -0.01063  -0.01057 -13.27227
    Y4       -5.32206  -0.04321   0.00000   0.00610   0.00592  -5.31614
    Z4        1.69927  -0.00490   0.00000   0.00007   0.00007   1.69935
    X5      -18.30740   0.13363   0.00000   0.08542   0.08550 -18.22190
    Y5       -4.05425   0.07522   0.00000   0.04986   0.04976  -4.00449
    Z5        1.87793   0.00595   0.00000   0.00405   0.00404   1.88197
    X6      -20.51556  -0.08041   0.00000  -0.00135  -0.00129 -20.51685
    Y6       -5.31731  -0.05326   0.00000   0.00178   0.00172  -5.31560
    Z6        1.77311  -0.00432   0.00000   0.00051   0.00050   1.77361
    X7      -19.24492   0.01991   0.00000   0.03991   0.04009 -19.20483
    Y7        2.36551  -0.02300   0.00000  -0.06537  -0.06545   2.30007
    Z7        2.53914  -0.00228   0.00000  -0.00609  -0.00615   2.53299
    X8      -21.22748   0.00223   0.00000   0.05836   0.05856 -21.16891
    Y8        3.31157   0.00274   0.00000  -0.02287  -0.02291   3.28866
    Z8        2.66675   0.00016   0.00000  -0.00367  -0.00373   2.66302
    X9      -14.51077  -0.12838   0.00000  -0.07113  -0.07095 -14.58172
    Y9        2.40396  -0.07752   0.00000  -0.09400  -0.09416   2.30980
    Z9        2.50433  -0.00766   0.00000  -0.00728  -0.00733   2.49700
   X10      -12.57573   0.09788   0.00000  -0.03267  -0.03247 -12.60819
   Y10        3.26641   0.04940   0.00000  -0.00561  -0.00580   3.26062
   Z10        2.60237   0.00520   0.00000  -0.00246  -0.00251   2.59986
   X11      -10.84284  -0.02135   0.00000  -0.07120  -0.07113 -10.91397
   Y11       -4.02634   0.00131   0.00000   0.00256   0.00234  -4.02400
   Z11        1.79800  -0.00006   0.00000  -0.00024  -0.00024   1.79776
   X12       -9.02531  -0.00529   0.00000  -0.04774  -0.04764  -9.07294
   Y12       -2.77715  -0.00831   0.00000  -0.04022  -0.04048  -2.81763
   Z12        1.88602  -0.00049   0.00000  -0.00146  -0.00146   1.88456
   X13      -13.19396  -0.00591   0.00000  -0.03397  -0.03396 -13.22792
   Y13       -8.08788   0.09529   0.00000   0.08736   0.08717  -8.00071
   Z13        1.39914   0.01025   0.00000   0.00751   0.00754   1.40668
   X14      -13.33334  -0.00078   0.00000   0.00392   0.00389 -13.32945
   Y14      -10.22255  -0.06025   0.00000   0.04091   0.04072 -10.18183
   Z14        1.15616  -0.00674   0.00000   0.00458   0.00462   1.16078
   X15      -20.63168   0.01122   0.00000   0.04868   0.04869 -20.58299
   Y15       -8.10202   0.09312   0.00000   0.08922   0.08915  -8.01286
   Z15        1.55282   0.00710   0.00000   0.00800   0.00801   1.56083
   X16      -20.40497   0.00020   0.00000  -0.01115  -0.01118 -20.41614
   Y16      -10.23955  -0.05614   0.00000   0.04172   0.04166 -10.19789
   Z16        1.38963  -0.00420   0.00000   0.00380   0.00382   1.39344
   X17      -22.94672   0.01592   0.00000   0.06705   0.06712 -22.87960
   Y17       -4.02739   0.00779   0.00000   0.00545   0.00543  -4.02196
   Z17        1.87529   0.00101   0.00000   0.00053   0.00050   1.87580
   X18      -24.76379   0.01231   0.00000   0.04918   0.04927 -24.71452
   Y18       -2.76682  -0.01368   0.00000  -0.04153  -0.04152  -2.80834
   Z18        1.97636  -0.00131   0.00000  -0.00431  -0.00435   1.97201
         Item               Value     Threshold  Converged?
 Maximum Force            0.133627     0.000450     NO 
 RMS     Force            0.051015     0.000300     NO 
 Maximum Displacement     0.094159     0.001800     NO 
 RMS     Displacement     0.040902     0.001200     NO 
 Predicted change in Energy=-3.633754D-02
 GradGradGradGradGradGradGradGradGradGradGradGradGradGradGradGradGradGrad

 Unable to Open any file for archive entry.
 1\1\GINC-X10P1N4\Force\RwB97XD\def2SVP\C12N6(2-)\MAYUMIAO\11-Oct-2024\
 0\\# wb97xd def2svp scrf=(smd,solvent=acetonitrile) g09default scf=(xq
 c,maxcycle=64) force guess=read nosymm\\Title Card\\-2,1\C,-8.94103126
 ,-0.86640426,1.1111621\C,-8.94108175,0.49692541,1.25154362\C,-8.200761
 ,-2.13900124,0.98066322\C,-7.01778848,-2.81631204,0.89921638\C,-9.6878
 5952,-2.14541746,0.99375685\C,-10.85636435,-2.81380183,0.93828974\C,-1
 0.1839721,1.25177625,1.34365312\N,-11.23309637,1.75241001,1.41118348\C
 ,-7.67877045,1.27212168,1.32523306\N,-6.65478724,1.72851203,1.37711639
 \C,-5.73778252,-2.1306465,0.95146289\N,-4.77598589,-1.46960406,0.99803
 751\C,-6.98194035,-4.27992077,0.74039204\N,-7.05569924,-5.40953899,0.6
 1181191\C,-10.91781402,-4.28740238,0.82171649\N,-10.79784272,-5.418536
 82,0.73535955\C,-12.14288379,-2.13120087,0.99236228\N,-13.10443373,-1.
 46413603,1.04584433\\Version=ES64L-G16RevC.01\HF=-784.988541\RMSD=7.00
 1e-09\RMSF=5.101e-02\Dipole=-0.0039951,-0.132834,-0.014322\Quadrupole=
 -395.4335722,157.5149426,237.9186296,-106.1378628,66.7172739,5.5324484
 \PG=C01 [X(C12N6)]\\@
 The archive entry for this job was punched.


 I WANT TO KNOW HOW GOD CREATED THE WORLD.  I AM NOT INTERESTED IN
 THIS OR THAT PHENOMENON, IN THE SPECTRUM OF THIS OR THAT ELEMENT.
 I WANT TO KNOW HIS THOUGHTS, THE REST ARE DETAILS.
     -- ALBERT EINSTEIN
 Job cpu time:       0 days  0 hours  9 minutes 38.7 seconds.
 Elapsed time:       0 days  0 hours  0 minutes 22.0 seconds.
 File lengths (MBytes):  RWF=    149 Int=      0 D2E=      0 Chk=      8 Scr=      1
 Normal termination of Gaussian 16 at Fri Oct 11 15:44:32 2024.
