 Entering Gaussian System, Link 0=g16
 Input=JOBS/18_B.gjf
 Output=JOBS/18_B.log
 Initial command:
 /data/app/gaussian/C01-avx2//g16/l1.exe "/tmp/Gau-2531012.inp" -scrdir="/tmp/"
 Entering Link 1 = /data/app/gaussian/C01-avx2//g16/l1.exe PID=   2531013.
  
 Copyright (c) 1988-2019, Gaussian, Inc.  All Rights Reserved.
  
 This is part of the Gaussian(R) 16 program.  It is based on
 the Gaussian(R) 09 system (copyright 2009, Gaussian, Inc.),
 the Gaussian(R) 03 system (copyright 2003, Gaussian, Inc.),
 the Gaussian(R) 98 system (copyright 1998, Gaussian, Inc.),
 the Gaussian(R) 94 system (copyright 1995, Gaussian, Inc.),
 the Gaussian 92(TM) system (copyright 1992, Gaussian, Inc.),
 the Gaussian 90(TM) system (copyright 1990, Gaussian, Inc.),
 the Gaussian 88(TM) system (copyright 1988, Gaussian, Inc.),
 the Gaussian 86(TM) system (copyright 1986, Carnegie Mellon
 University), and the Gaussian 82(TM) system (copyright 1983,
 Carnegie Mellon University). Gaussian is a federally registered
 trademark of Gaussian, Inc.
  
 This software contains proprietary and confidential information,
 including trade secrets, belonging to Gaussian, Inc.
  
 This software is provided under written license and may be
 used, copied, transmitted, or stored only in accord with that
 written license.
  
 The following legend is applicable only to US Government
 contracts under FAR:
  
                    RESTRICTED RIGHTS LEGEND
  
 Use, reproduction and disclosure by the US Government is
 subject to restrictions as set forth in subparagraphs (a)
 and (c) of the Commercial Computer Software - Restricted
 Rights clause in FAR 52.227-19.
  
 Gaussian, Inc.
 340 Quinnipiac St., Bldg. 40, Wallingford CT 06492
  
  
 ---------------------------------------------------------------
 Warning -- This program may not be used in any manner that
 competes with the business of Gaussian, Inc. or will provide
 assistance to any competitor of Gaussian, Inc.  The licensee
 of this program is prohibited from giving any competitor of
 Gaussian, Inc. access to this program.  By using this program,
 the user acknowledges that Gaussian, Inc. is engaged in the
 business of creating and licensing software in the field of
 computational chemistry and represents and warrants to the
 licensee that it is not a competitor of Gaussian, Inc. and that
 it will not use this program in any manner prohibited above.
 ---------------------------------------------------------------
  

 Cite this work as:
 Gaussian 16, Revision C.01,
 M. J. Frisch, G. W. Trucks, H. B. Schlegel, G. E. Scuseria, 
 M. A. Robb, J. R. Cheeseman, G. Scalmani, V. Barone, 
 G. A. Petersson, H. Nakatsuji, X. Li, M. Caricato, A. V. Marenich, 
 J. Bloino, B. G. Janesko, R. Gomperts, B. Mennucci, H. P. Hratchian, 
 J. V. Ortiz, A. F. Izmaylov, J. L. Sonnenberg, D. Williams-Young, 
 F. Ding, F. Lipparini, F. Egidi, J. Goings, B. Peng, A. Petrone, 
 T. Henderson, D. Ranasinghe, V. G. Zakrzewski, J. Gao, N. Rega, 
 G. Zheng, W. Liang, M. Hada, M. Ehara, K. Toyota, R. Fukuda, 
 J. Hasegawa, M. Ishida, T. Nakajima, Y. Honda, O. Kitao, H. Nakai, 
 T. Vreven, K. Throssell, J. A. Montgomery, Jr., J. E. Peralta, 
 F. Ogliaro, M. J. Bearpark, J. J. Heyd, E. N. Brothers, K. N. Kudin, 
 V. N. Staroverov, T. A. Keith, R. Kobayashi, J. Normand, 
 K. Raghavachari, A. P. Rendell, J. C. Burant, S. S. Iyengar, 
 J. Tomasi, M. Cossi, J. M. Millam, M. Klene, C. Adamo, R. Cammi, 
 J. W. Ochterski, R. L. Martin, K. Morokuma, O. Farkas, 
 J. B. Foresman, and D. J. Fox, Gaussian, Inc., Wallingford CT, 2019.
 
 ******************************************
 Gaussian 16:  ES64L-G16RevC.01  3-Jul-2019
                11-Oct-2024 
 ******************************************
 %chk=b.chk
 %nprocshared=28
 Will use up to   28 processors via shared memory.
 %mem=48gb
 ----------------------------------------------------------------------
 # wb97xd def2svp scrf=(smd,solvent=acetonitrile) g09default scf=(xqc,m
 axcycle=64) force guess=read nosymm
 ----------------------------------------------------------------------
 1/10=7,30=1,38=1,158=3,167=1/1,3;
 2/12=2,15=1,17=6,18=5,40=1/2;
 3/5=43,7=101,11=2,25=1,27=10,30=1,70=32201,71=1,72=2,74=-58,75=-4,116=-2,158=3/1,2,3;
 4/5=1,60=-1/1;
 5/5=2,7=64,8=3,13=1,38=6,53=2,87=10/2,8;
 6/7=2,8=2,9=2,10=2,28=1,87=10/1;
 7/29=1,30=1,87=10/1,2,3,16;
 1/10=7,30=1,158=3,167=1/3;
 99//99;
 Using 2006 physical constants.
 ----------
 Title Card
 ----------
 Symbolic Z-matrix:
 Charge = -1 Multiplicity = 2
 6                    -8.94103  -0.8664    1.11116 
 6                    -8.94108   0.49693   1.25154 
 6                    -8.20076  -2.139     0.98066 
 6                    -7.01779  -2.81631   0.89922 
 6                    -9.68786  -2.14542   0.99376 
 6                    -10.85636  -2.8138    0.93829 
 6                    -10.18397   1.25178   1.34365 
 7                    -11.2331   1.75241   1.41118 
 6                    -7.67877   1.27212   1.32523 
 7                    -6.65479   1.72851   1.37712 
 6                    -5.73778  -2.13065   0.95146 
 7                    -4.77599  -1.4696    0.99804 
 6                    -6.98194  -4.27992   0.74039 
 7                    -7.0557   -5.40954   0.61181 
 6                    -10.91781  -4.2874    0.82172 
 7                    -10.79784  -5.41854   0.73536 
 6                    -12.14288  -2.1312    0.99236 
 7                    -13.10443  -1.46414   1.04584 
 

 GradGradGradGradGradGradGradGradGradGradGradGradGradGradGradGradGradGrad
 Berny optimization.
 Initialization pass.
 Trust Radius=3.00D-01 FncErr=1.00D-07 GrdErr=1.00D-07 EigMax=2.50D+02 EigMin=1.00D-04
 Number of steps in this run=      2 maximum allowed number of steps=      2.
 GradGradGradGradGradGradGradGradGradGradGradGradGradGradGradGradGradGrad

                          Input orientation:                          
 ---------------------------------------------------------------------
 Center     Atomic      Atomic             Coordinates (Angstroms)
 Number     Number       Type             X           Y           Z
 ---------------------------------------------------------------------
      1          6           0       -8.941031   -0.866404    1.111162
      2          6           0       -8.941082    0.496925    1.251544
      3          6           0       -8.200761   -2.139001    0.980663
      4          6           0       -7.017788   -2.816312    0.899216
      5          6           0       -9.687860   -2.145417    0.993757
      6          6           0      -10.856364   -2.813802    0.938290
      7          6           0      -10.183972    1.251776    1.343653
      8          7           0      -11.233096    1.752410    1.411183
      9          6           0       -7.678770    1.272122    1.325233
     10          7           0       -6.654787    1.728512    1.377116
     11          6           0       -5.737783   -2.130647    0.951463
     12          7           0       -4.775986   -1.469604    0.998038
     13          6           0       -6.981940   -4.279921    0.740392
     14          7           0       -7.055699   -5.409539    0.611812
     15          6           0      -10.917814   -4.287402    0.821716
     16          7           0      -10.797843   -5.418537    0.735360
     17          6           0      -12.142884   -2.131201    0.992362
     18          7           0      -13.104434   -1.464136    1.045844
 ---------------------------------------------------------------------
                    Distance matrix (angstroms):
                    1          2          3          4          5
     1  C    0.000000
     2  C    1.370538   0.000000
     3  C    1.478017   2.751283   0.000000
     4  C    2.746985   3.847172   1.365580   0.000000
     5  C    1.485736   2.757917   1.487170   2.754690   0.000000
     6  C    2.736922   3.837623   2.740325   3.838776   1.347300
     7  C    2.466910   1.457073   3.944903   5.174127   3.451011
     8  N    3.493102   2.618216   4.952119   6.237319   4.213675
     9  C    2.492473   1.483169   3.467991   4.163373   3.978177
    10  N    3.468607   2.599946   4.183882   4.584276   4.934959
    11  C    3.447407   4.153951   2.463166   1.453025   3.950331
    12  N    4.210018   4.612974   3.489624   2.617072   4.958149
    13  C    3.953176   5.188234   2.475235   1.472637   3.455763
    14  N    4.944077   6.232997   3.484772   2.609380   4.210539
    15  C    3.961651   5.194421   3.467459   4.168970   2.475982
    16  N    4.930607   6.221471   4.190508   4.592084   3.465854
    17  C    3.444660   4.150393   3.942148   5.171524   2.455066
    18  N    4.206598   4.606688   4.950323   6.236756   3.484227
                    6          7          8          9         10
     6  C    0.000000
     7  C    4.140695   0.000000
     8  N    4.606066   1.164412   0.000000
     9  C    5.190530   2.505352   3.587659   0.000000
    10  N    6.203099   3.561396   4.578498   1.122286   0.000000
    11  C    5.163986   5.600286   6.744475   3.935222   3.989384
    12  N    6.227475   6.063965   7.228163   4.006279   3.728477
    13  C    4.147268   6.420016   7.410216   5.626081   6.050927
    14  N    4.614054   7.395594   8.329655   6.748465   7.190146
    15  C    1.479481   5.611902   6.076694   6.453932   7.394126
    16  N    2.613283   6.726064   7.215862   7.405503   8.285956
    17  C    1.457395   3.924955   4.010680   5.623319   6.720463
    18  N    2.624306   3.999246   3.739190   6.083008   7.204213
                   11         12         13         14         15
    11  C    0.000000
    12  N    1.167989   0.000000
    13  C    2.492360   3.581968   0.000000
    14  N    3.550127   4.568298   1.139303   0.000000
    15  C    5.612589   6.759669   3.936721   4.027304   0.000000
    16  N    6.038305   7.205958   3.982158   3.744193   1.140752
    17  C    6.405232   7.396548   5.596054   6.063973   2.485784
    18  N    7.397344   8.328587   6.745878   7.234762   3.578040
                   16         17         18
    16  N    0.000000
    17  C    3.561146   0.000000
    18  N    4.588469   1.171501   0.000000
 Symmetry turned off by external request.
 Stoichiometry    C12N6(1-,2)
 Framework group  C1[X(C12N6)]
 Deg. of freedom    48
 Full point group                 C1      NOp   1
 Rotational constants (GHZ):           0.4190501           0.4174641           0.2091504
 Standard basis: def2SVP (5D, 7F)
   252 basis functions,   450 primitive gaussians,   270 cartesian basis functions
    58 alpha electrons       57 beta electrons
       nuclear repulsion energy       952.9121453439 Hartrees.
 NAtoms=   18 NActive=   18 NUniq=   18 SFac= 1.00D+00 NAtFMM=   60 NAOKFM=F Big=F
 Integral buffers will be    131072 words long.
 Raffenetti 2 integral format.
 Two-electron integral symmetry is turned off.
 Nuclear repulsion after empirical dispersion term =      952.9007733860 Hartrees.
 Force PCM accuracy= 1.00D-10.
 ------------------------------------------------------------------------------
 Polarizable Continuum Model (PCM)
 =================================
 Model                : PCM (using non-symmetric T matrix).
 Atomic radii         : SMD-Coulomb.
 Polarization charges : Total charges.
 Charge compensation  : None.
 Solution method      : On-the-fly selection.
 Cavity type          : VdW (van der Waals Surface) (Alpha=1.000).
 Cavity algorithm     : GePol (No added spheres)
                        Default sphere list used, NSphG=   18.
                        Lebedev-Laikov grids with approx.  5.0 points / Ang**2.
                        Smoothing algorithm: York/Karplus (Gamma=1.0000).
                        Polarization charges: spherical gaussians, with
                                              point-specific exponents (IZeta= 3).
                        Self-potential: point-specific (ISelfS= 7).
                        Self-field    : sphere-specific E.n sum rule (ISelfD= 2).
 1st derivatives      : Analytical E(r).r(x)/FMM algorithm (CHGder, D1EAlg=3).
                        Cavity 1st derivative terms included.
 Solvent              : Acetonitrile, Eps=  35.688000 Eps(inf)=   1.806874
 ------------------------------------------------------------------------------
 Spheres list:
 ISph  on   Nord     Re0    Alpha      Xe            Ye            Ze
    1   C      1    1.8500  1.000     -8.941031     -0.866404      1.111162
    2   C      2    1.8500  1.000     -8.941082      0.496925      1.251544
    3   C      3    1.8500  1.000     -8.200761     -2.139001      0.980663
    4   C      4    1.8500  1.000     -7.017788     -2.816312      0.899216
    5   C      5    1.8500  1.000     -9.687860     -2.145417      0.993757
    6   C      6    1.8500  1.000    -10.856364     -2.813802      0.938290
    7   C      7    1.8500  1.000    -10.183972      1.251776      1.343653
    8   N      8    1.8900  1.000    -11.233096      1.752410      1.411183
    9   C      9    1.8500  1.000     -7.678770      1.272122      1.325233
   10   N     10    1.8900  1.000     -6.654787      1.728512      1.377116
   11   C     11    1.8500  1.000     -5.737783     -2.130647      0.951463
   12   N     12    1.8900  1.000     -4.775986     -1.469604      0.998038
   13   C     13    1.8500  1.000     -6.981940     -4.279921      0.740392
   14   N     14    1.8900  1.000     -7.055699     -5.409539      0.611812
   15   C     15    1.8500  1.000    -10.917814     -4.287402      0.821716
   16   N     16    1.8900  1.000    -10.797843     -5.418537      0.735360
   17   C     17    1.8500  1.000    -12.142884     -2.131201      0.992362
   18   N     18    1.8900  1.000    -13.104434     -1.464136      1.045844
 ------------------------------------------------------------------------------
 ------------------------------------------------------------------------------
 Atomic radii for non-electrostatic terms: SMD-CDS.
 ------------------------------------------------------------------------------
 Nuclear repulsion after PCM non-electrostatic terms =      952.9094170197 Hartrees.
 One-electron integrals computed using PRISM.
   1 Symmetry operations used in ECPInt.
 ECPInt:  NShTT=    5886 NPrTT=   23670 LenC2=    5386 LenP2D=   14849.
 LDataN:  DoStor=T MaxTD1= 4 Len=   56
 NBasis=   252 RedAO= T EigKep=  3.32D-04  NBF=   252
 NBsUse=   252 1.00D-06 EigRej= -1.00D+00 NBFU=   252
 Initial guess from the checkpoint file:  "b.chk"
 B after Tr=     0.000116   -0.000022   -0.000648
         Rot=    1.000000    0.000001   -0.000019    0.000006 Ang=   0.00 deg.
 Initial guess <Sx>= 0.0000 <Sy>= 0.0000 <Sz>= 0.5000 <S**2>= 0.7817 S= 0.5157
 Requested convergence on RMS density matrix=1.00D-08 within  64 cycles.
 Requested convergence on MAX density matrix=1.00D-06.
 Requested convergence on             energy=1.00D-06.
 No special actions if energy rises.
 Inv3:  Mode=1 IEnd=    19630092.
 Iteration    1 A*A^-1 deviation from unit magnitude is 3.22D-15 for    630.
 Iteration    1 A*A^-1 deviation from orthogonality  is 4.42D-15 for   1892    233.
 Iteration    1 A^-1*A deviation from unit magnitude is 3.77D-15 for   2201.
 Iteration    1 A^-1*A deviation from orthogonality  is 2.87D-12 for   1116   1109.
 Error on total polarization charges =  0.02011
 SCF Done:  E(UwB97XD) =  -784.831276361     A.U. after   18 cycles
            NFock= 18  Conv=0.69D-08     -V/T= 2.0102
 <Sx>= 0.0000 <Sy>= 0.0000 <Sz>= 0.5000 <S**2>= 0.7828 S= 0.5163
 <L.S>=  0.00000000000    
 SMD-CDS (non-electrostatic) energy       (kcal/mol) =       5.42
 (included in total energy above)
 Annihilation of the first spin contaminant:
 S**2 before annihilation     0.7828,   after     0.7508
 QCSCF skips out because SCF is already converged.

 **********************************************************************

            Population analysis using the SCF Density.

 **********************************************************************

 Alpha  occ. eigenvalues --  -14.46306 -14.46201 -14.46096 -14.45707 -14.45583
 Alpha  occ. eigenvalues --  -14.45235 -10.38944 -10.38887 -10.38868 -10.38850
 Alpha  occ. eigenvalues --  -10.38754 -10.38745 -10.36553 -10.36466 -10.36380
 Alpha  occ. eigenvalues --  -10.36013 -10.35927 -10.35600  -1.03304  -1.02629
 Alpha  occ. eigenvalues --   -1.02238  -1.01411  -1.00987  -1.00838  -1.00322
 Alpha  occ. eigenvalues --   -0.91810  -0.91556  -0.88223  -0.71997  -0.71673
 Alpha  occ. eigenvalues --   -0.67600  -0.67464  -0.67270  -0.66668  -0.54227
 Alpha  occ. eigenvalues --   -0.50542  -0.50509  -0.48867  -0.48778  -0.47649
 Alpha  occ. eigenvalues --   -0.47568  -0.47486  -0.47016  -0.46574  -0.46380
 Alpha  occ. eigenvalues --   -0.45827  -0.45747  -0.45220  -0.44939  -0.44914
 Alpha  occ. eigenvalues --   -0.44702  -0.44264  -0.43436  -0.43195  -0.42785
 Alpha  occ. eigenvalues --   -0.36218  -0.36062  -0.26679
 Alpha virt. eigenvalues --    0.04049   0.04211   0.06889   0.07130   0.07470
 Alpha virt. eigenvalues --    0.08267   0.10735   0.10848   0.11381   0.11532
 Alpha virt. eigenvalues --    0.11920   0.14241   0.18587   0.18687   0.19955
 Alpha virt. eigenvalues --    0.22448   0.24155   0.24207   0.25832   0.25973
 Alpha virt. eigenvalues --    0.27398   0.28855   0.29020   0.31068   0.31214
 Alpha virt. eigenvalues --    0.32104   0.34158   0.45814   0.45934   0.49611
 Alpha virt. eigenvalues --    0.50280   0.50827   0.51461   0.53152   0.53226
 Alpha virt. eigenvalues --    0.53286   0.54136   0.54373   0.56241   0.59826
 Alpha virt. eigenvalues --    0.60125   0.60300   0.60962   0.61131   0.63407
 Alpha virt. eigenvalues --    0.63548   0.68646   0.68861   0.69259   0.70464
 Alpha virt. eigenvalues --    0.70737   0.72067   0.72204   0.72296   0.73048
 Alpha virt. eigenvalues --    0.73307   0.73402   0.74117   0.74483   0.74519
 Alpha virt. eigenvalues --    0.77524   0.77668   0.78913   0.80882   0.80985
 Alpha virt. eigenvalues --    0.83412   0.83712   0.85609   0.86967   0.92042
 Alpha virt. eigenvalues --    0.92348   0.92890   0.93094   0.93523   0.94251
 Alpha virt. eigenvalues --    0.94860   0.97658   0.97917   0.98854   0.99092
 Alpha virt. eigenvalues --    1.00738   1.01033   1.01137   1.01409   1.02503
 Alpha virt. eigenvalues --    1.04098   1.04227   1.06218   1.07110   1.10242
 Alpha virt. eigenvalues --    1.11352   1.15419   1.16469   1.16984   1.17802
 Alpha virt. eigenvalues --    1.20150   1.21775   1.22189   1.23929   1.31547
 Alpha virt. eigenvalues --    1.32546   1.32870   1.38610   1.38868   1.42039
 Alpha virt. eigenvalues --    1.43405   1.44304   1.44770   1.44858   1.56576
 Alpha virt. eigenvalues --    1.58268   1.66504   1.67939   1.68144   1.68476
 Alpha virt. eigenvalues --    1.68631   1.68865   1.73666   1.73971   1.76308
 Alpha virt. eigenvalues --    1.76657   1.77205   1.77654   1.77986   1.78856
 Alpha virt. eigenvalues --    1.79448   1.79943   1.83166   1.89589   1.92292
 Alpha virt. eigenvalues --    1.92927   1.96896   1.97042   1.99618   1.99754
 Alpha virt. eigenvalues --    2.00901   2.01133   2.03755   2.08163   2.08933
 Alpha virt. eigenvalues --    2.10283   2.16801   2.17175   2.20859   2.23677
 Alpha virt. eigenvalues --    2.24376   2.26569   2.27392   2.31005   2.31513
 Alpha virt. eigenvalues --    2.32972   2.33233   2.34136   2.34205   2.34626
 Alpha virt. eigenvalues --    2.35052   2.35347   2.35377   2.36050   2.36496
 Alpha virt. eigenvalues --    2.37249   2.37649   2.53770   2.54006   2.54503
 Alpha virt. eigenvalues --    2.65476   2.65986   2.86880   2.91102   2.93684
 Alpha virt. eigenvalues --    2.93774   2.97650   2.98420   2.99823   3.02631
 Alpha virt. eigenvalues --    3.04290   3.05337   3.06192   3.07445   3.07743
 Alpha virt. eigenvalues --    3.08885   3.09946   3.17107   3.17702   3.27996
 Alpha virt. eigenvalues --    3.36107   3.38601   3.39152   3.47967   3.50416
 Alpha virt. eigenvalues --    3.51573   3.62022   3.63777   3.74858
  Beta  occ. eigenvalues --  -14.46132 -14.46020 -14.45915 -14.45567 -14.45436
  Beta  occ. eigenvalues --  -14.45099 -10.38924 -10.38892 -10.38869 -10.38559
  Beta  occ. eigenvalues --  -10.38419 -10.38405 -10.36639 -10.36555 -10.36470
  Beta  occ. eigenvalues --  -10.36086 -10.36003 -10.35672  -1.02969  -1.02357
  Beta  occ. eigenvalues --   -1.01965  -1.01108  -1.00684  -1.00546  -0.99959
  Beta  occ. eigenvalues --   -0.91097  -0.90797  -0.87208  -0.71828  -0.71499
  Beta  occ. eigenvalues --   -0.67369  -0.67226  -0.67052  -0.66401  -0.53212
  Beta  occ. eigenvalues --   -0.49320  -0.49279  -0.48680  -0.48592  -0.47340
  Beta  occ. eigenvalues --   -0.47246  -0.47177  -0.46731  -0.46413  -0.46208
  Beta  occ. eigenvalues --   -0.45664  -0.44920  -0.44547  -0.44406  -0.44245
  Beta  occ. eigenvalues --   -0.44129  -0.44031  -0.43317  -0.43072  -0.42650
  Beta  occ. eigenvalues --   -0.33772  -0.33438
  Beta virt. eigenvalues --   -0.09090   0.05130   0.05316   0.06983   0.07218
  Beta virt. eigenvalues --    0.07560   0.08266   0.11577   0.11617   0.11717
  Beta virt. eigenvalues --    0.11973   0.12163   0.14523   0.18881   0.18963
  Beta virt. eigenvalues --    0.21494   0.22366   0.25756   0.25860   0.26028
  Beta virt. eigenvalues --    0.26171   0.27650   0.28958   0.29156   0.31544
  Beta virt. eigenvalues --    0.31698   0.32703   0.34279   0.45988   0.46108
  Beta virt. eigenvalues --    0.49711   0.50359   0.50908   0.51545   0.53195
  Beta virt. eigenvalues --    0.53244   0.53347   0.54287   0.54518   0.56423
  Beta virt. eigenvalues --    0.59762   0.60026   0.60187   0.60996   0.61165
  Beta virt. eigenvalues --    0.63287   0.63728   0.68804   0.69034   0.69570
  Beta virt. eigenvalues --    0.70642   0.70918   0.72065   0.72323   0.72413
  Beta virt. eigenvalues --    0.73206   0.73491   0.73578   0.74241   0.74599
  Beta virt. eigenvalues --    0.74626   0.77535   0.77682   0.79873   0.81593
  Beta virt. eigenvalues --    0.81699   0.83553   0.83848   0.85898   0.87051
  Beta virt. eigenvalues --    0.92169   0.92497   0.93455   0.93590   0.93722
  Beta virt. eigenvalues --    0.94767   0.95477   0.98220   0.98439   0.99072
  Beta virt. eigenvalues --    0.99286   1.00883   1.01120   1.01286   1.01598
  Beta virt. eigenvalues --    1.02645   1.04224   1.04488   1.06493   1.07402
  Beta virt. eigenvalues --    1.10334   1.11460   1.15617   1.16693   1.17236
  Beta virt. eigenvalues --    1.18065   1.20530   1.22016   1.22437   1.24564
  Beta virt. eigenvalues --    1.31682   1.32730   1.33062   1.39228   1.39487
  Beta virt. eigenvalues --    1.42790   1.43518   1.44769   1.45120   1.45625
  Beta virt. eigenvalues --    1.56649   1.58258   1.66375   1.67789   1.67995
  Beta virt. eigenvalues --    1.68298   1.68433   1.68673   1.73631   1.73922
  Beta virt. eigenvalues --    1.76463   1.76816   1.77147   1.77586   1.77883
  Beta virt. eigenvalues --    1.78773   1.79342   1.80159   1.83067   1.89885
  Beta virt. eigenvalues --    1.92376   1.93000   1.97429   1.97588   1.99717
  Beta virt. eigenvalues --    2.00150   2.01036   2.01628   2.04354   2.08504
  Beta virt. eigenvalues --    2.09222   2.10557   2.17733   2.18131   2.21980
  Beta virt. eigenvalues --    2.24367   2.24980   2.27212   2.28052   2.31539
  Beta virt. eigenvalues --    2.32004   2.33582   2.33853   2.34709   2.34807
  Beta virt. eigenvalues --    2.35090   2.35599   2.35896   2.35922   2.36559
  Beta virt. eigenvalues --    2.37068   2.37810   2.38183   2.54017   2.54271
  Beta virt. eigenvalues --    2.54610   2.66034   2.66524   2.86957   2.91302
  Beta virt. eigenvalues --    2.93834   2.93910   2.97778   2.98526   2.99937
  Beta virt. eigenvalues --    3.03092   3.04783   3.05835   3.06388   3.07858
  Beta virt. eigenvalues --    3.07919   3.09315   3.10364   3.17339   3.17933
  Beta virt. eigenvalues --    3.28155   3.36299   3.38811   3.39351   3.48144
  Beta virt. eigenvalues --    3.50594   3.51755   3.62204   3.63957   3.75032
          Condensed to atoms (all electrons):
               1          2          3          4          5          6
     1  C    4.896037   0.551351   0.288770  -0.095194   0.283116  -0.100209
     2  C    0.551351   5.319837  -0.093383  -0.007788  -0.090447  -0.008318
     3  C    0.288770  -0.093383   4.885940   0.551629   0.283514  -0.100768
     4  C   -0.095194  -0.007788   0.551629   5.330747  -0.093853  -0.008702
     5  C    0.283116  -0.090447   0.283514  -0.093853   4.872925   0.548951
     6  C   -0.100209  -0.008318  -0.100768  -0.008702   0.548951   5.352413
     7  C    0.001981   0.389215   0.004760  -0.000227  -0.013738   0.000804
     8  N   -0.000632  -0.027466   0.000009  -0.000001  -0.000341   0.000060
     9  C   -0.002173   0.377599  -0.012707   0.000775   0.004951  -0.000208
    10  N   -0.000967  -0.026011  -0.000392   0.000067   0.000021  -0.000001
    11  C   -0.014305   0.000811   0.000841   0.387606   0.005052  -0.000230
    12  N   -0.000367   0.000063  -0.000830  -0.028439   0.000010  -0.000001
    13  C    0.004754  -0.000209   0.000531   0.380783  -0.013308   0.000735
    14  N    0.000003  -0.000001  -0.000971  -0.025855  -0.000363   0.000046
    15  C    0.005260  -0.000190  -0.013243   0.000675  -0.001587   0.375210
    16  N    0.000032  -0.000000  -0.000402   0.000062  -0.000707  -0.026329
    17  C   -0.014322   0.000744   0.004855  -0.000215   0.001124   0.385404
    18  N   -0.000363   0.000065   0.000016  -0.000000  -0.000531  -0.027516
               7          8          9         10         11         12
     1  C    0.001981  -0.000632  -0.002173  -0.000967  -0.014305  -0.000367
     2  C    0.389215  -0.027466   0.377599  -0.026011   0.000811   0.000063
     3  C    0.004760   0.000009  -0.012707  -0.000392   0.000841  -0.000830
     4  C   -0.000227  -0.000001   0.000775   0.000067   0.387606  -0.028439
     5  C   -0.013738  -0.000341   0.004951   0.000021   0.005052   0.000010
     6  C    0.000804   0.000060  -0.000208  -0.000001  -0.000230  -0.000001
     7  C    4.805849   0.908888  -0.023342   0.001128   0.000035   0.000001
     8  N    0.908888   6.127643   0.001121   0.000020   0.000000   0.000000
     9  C   -0.023342   0.001121   4.784344   0.957549   0.000375   0.000411
    10  N    0.001128   0.000020   0.957549   6.038287   0.000221  -0.000711
    11  C    0.000035   0.000000   0.000375   0.000221   4.807499   0.904649
    12  N    0.000001   0.000000   0.000411  -0.000711   0.904649   6.133774
    13  C   -0.000002  -0.000000   0.000028   0.000001  -0.023850   0.001307
    14  N   -0.000000   0.000000   0.000000   0.000000   0.001213   0.000026
    15  C    0.000032   0.000001  -0.000001  -0.000000   0.000032   0.000000
    16  N    0.000000   0.000000  -0.000000   0.000000   0.000001   0.000000
    17  C    0.000378   0.000218   0.000030   0.000000  -0.000002  -0.000000
    18  N    0.000341  -0.000681   0.000001   0.000000  -0.000000   0.000000
              13         14         15         16         17         18
     1  C    0.004754   0.000003   0.005260   0.000032  -0.014322  -0.000363
     2  C   -0.000209  -0.000001  -0.000190  -0.000000   0.000744   0.000065
     3  C    0.000531  -0.000971  -0.013243  -0.000402   0.004855   0.000016
     4  C    0.380783  -0.025855   0.000675   0.000062  -0.000215  -0.000000
     5  C   -0.013308  -0.000363  -0.001587  -0.000707   0.001124  -0.000531
     6  C    0.000735   0.000046   0.375210  -0.026329   0.385404  -0.027516
     7  C   -0.000002  -0.000000   0.000032   0.000000   0.000378   0.000341
     8  N   -0.000000   0.000000   0.000001   0.000000   0.000218  -0.000681
     9  C    0.000028   0.000000  -0.000001  -0.000000   0.000030   0.000001
    10  N    0.000001   0.000000  -0.000000   0.000000   0.000000   0.000000
    11  C   -0.023850   0.001213   0.000032   0.000001  -0.000002  -0.000000
    12  N    0.001307   0.000026   0.000000   0.000000  -0.000000   0.000000
    13  C    4.795681   0.938844   0.000399   0.000474   0.000032   0.000000
    14  N    0.938844   6.069521   0.000177  -0.000705   0.000001   0.000000
    15  C    0.000399   0.000177   4.798309   0.936544  -0.021827   0.001062
    16  N    0.000474  -0.000705   0.936544   6.075895   0.001091   0.000016
    17  C    0.000032   0.000001  -0.021827   0.001091   4.812378   0.901886
    18  N    0.000000   0.000000   0.001062   0.000016   0.901886   6.141204
          Atomic-Atomic Spin Densities.
               1          2          3          4          5          6
     1  C   -0.020267  -0.074593   0.037003  -0.006664   0.034600  -0.006734
     2  C   -0.074593   0.401019  -0.006669   0.000956  -0.006526   0.000969
     3  C    0.037003  -0.006669  -0.014326  -0.075324   0.034919  -0.006768
     4  C   -0.006664   0.000956  -0.075324   0.389931  -0.006491   0.000929
     5  C    0.034600  -0.006526   0.034919  -0.006491  -0.020974  -0.072170
     6  C   -0.006734   0.000969  -0.006768   0.000929  -0.072170   0.375548
     7  C   -0.000267   0.008128  -0.000107  -0.000009   0.000210  -0.000043
     8  N    0.000536  -0.005103   0.000008  -0.000000   0.000045  -0.000030
     9  C   -0.000384   0.005379   0.000176  -0.000028  -0.000083  -0.000008
    10  N    0.000486  -0.004727   0.000042  -0.000029   0.000007  -0.000000
    11  C    0.000209  -0.000034  -0.000087   0.008028  -0.000105  -0.000009
    12  N    0.000045  -0.000029   0.000556  -0.005042   0.000007  -0.000000
    13  C   -0.000100  -0.000009  -0.000284   0.006290   0.000200  -0.000038
    14  N    0.000007  -0.000000   0.000479  -0.004717   0.000042  -0.000027
    15  C   -0.000080  -0.000007   0.000169  -0.000027  -0.000226   0.005999
    16  N    0.000007  -0.000000   0.000043  -0.000028   0.000486  -0.004484
    17  C    0.000202  -0.000032  -0.000095  -0.000008  -0.000093   0.008034
    18  N    0.000045  -0.000029   0.000008  -0.000000   0.000527  -0.004802
               7          8          9         10         11         12
     1  C   -0.000267   0.000536  -0.000384   0.000486   0.000209   0.000045
     2  C    0.008128  -0.005103   0.005379  -0.004727  -0.000034  -0.000029
     3  C   -0.000107   0.000008   0.000176   0.000042  -0.000087   0.000556
     4  C   -0.000009  -0.000000  -0.000028  -0.000029   0.008028  -0.005042
     5  C    0.000210   0.000045  -0.000083   0.000007  -0.000105   0.000007
     6  C   -0.000043  -0.000030  -0.000008  -0.000000  -0.000009  -0.000000
     7  C   -0.073521  -0.002918  -0.001603   0.000019  -0.000001   0.000000
     8  N   -0.002918   0.112991   0.000029   0.000006  -0.000000   0.000000
     9  C   -0.001603   0.000029  -0.058432  -0.001365  -0.000001   0.000006
    10  N    0.000019   0.000006  -0.001365   0.084542   0.000007   0.000039
    11  C   -0.000001  -0.000000  -0.000001   0.000007  -0.073122  -0.002925
    12  N    0.000000   0.000000   0.000006   0.000039  -0.002925   0.112745
    13  C    0.000000  -0.000000  -0.000001   0.000000  -0.001526   0.000037
    14  N   -0.000000   0.000000  -0.000000   0.000000   0.000045   0.000006
    15  C   -0.000001   0.000000   0.000000  -0.000000  -0.000001  -0.000000
    16  N   -0.000000   0.000000  -0.000000   0.000000   0.000000   0.000000
    17  C   -0.000001   0.000007  -0.000001  -0.000000   0.000000  -0.000000
    18  N    0.000007   0.000041   0.000000   0.000000  -0.000000   0.000000
              13         14         15         16         17         18
     1  C   -0.000100   0.000007  -0.000080   0.000007   0.000202   0.000045
     2  C   -0.000009  -0.000000  -0.000007  -0.000000  -0.000032  -0.000029
     3  C   -0.000284   0.000479   0.000169   0.000043  -0.000095   0.000008
     4  C    0.006290  -0.004717  -0.000027  -0.000028  -0.000008  -0.000000
     5  C    0.000200   0.000042  -0.000226   0.000486  -0.000093   0.000527
     6  C   -0.000038  -0.000027   0.005999  -0.004484   0.008034  -0.004802
     7  C    0.000000  -0.000000  -0.000001  -0.000000  -0.000001   0.000007
     8  N   -0.000000   0.000000   0.000000   0.000000   0.000007   0.000041
     9  C   -0.000001  -0.000000   0.000000  -0.000000  -0.000001   0.000000
    10  N    0.000000   0.000000  -0.000000   0.000000  -0.000000   0.000000
    11  C   -0.001526   0.000045  -0.000001   0.000000   0.000000  -0.000000
    12  N    0.000037   0.000006  -0.000000   0.000000  -0.000000   0.000000
    13  C   -0.061578  -0.001813  -0.000002   0.000005  -0.000001  -0.000000
    14  N   -0.001813   0.091447   0.000006   0.000034   0.000000   0.000000
    15  C   -0.000002   0.000006  -0.059411  -0.001702  -0.001567   0.000027
    16  N    0.000005   0.000034  -0.001702   0.086677   0.000019   0.000005
    17  C   -0.000001   0.000000  -0.001567   0.000019  -0.071143  -0.002879
    18  N   -0.000000   0.000000   0.000027   0.000005  -0.002879   0.108543
 Mulliken charges and spin densities:
               1          2
     1  C    0.197228  -0.035949
     2  C   -0.385871   0.318693
     3  C    0.201832  -0.030256
     4  C   -0.392072   0.307766
     5  C    0.215209  -0.035622
     6  C   -0.391341   0.296365
     7  C   -0.076103  -0.070106
     8  N   -0.008839   0.105612
     9  C   -0.088752  -0.056315
    10  N    0.030789   0.079026
    11  C   -0.069949  -0.069523
    12  N   -0.009894   0.105445
    13  C   -0.086201  -0.058820
    14  N    0.018063   0.085508
    15  C   -0.080852  -0.056823
    16  N    0.014028   0.081062
    17  C   -0.071774  -0.067557
    18  N   -0.015499   0.101493
 Sum of Mulliken charges =  -1.00000   1.00000
 Mulliken charges and spin densities with hydrogens summed into heavy atoms:
               1          2
     1  C    0.197228  -0.035949
     2  C   -0.385871   0.318693
     3  C    0.201832  -0.030256
     4  C   -0.392072   0.307766
     5  C    0.215209  -0.035622
     6  C   -0.391341   0.296365
     7  C   -0.076103  -0.070106
     8  N   -0.008839   0.105612
     9  C   -0.088752  -0.056315
    10  N    0.030789   0.079026
    11  C   -0.069949  -0.069523
    12  N   -0.009894   0.105445
    13  C   -0.086201  -0.058820
    14  N    0.018063   0.085508
    15  C   -0.080852  -0.056823
    16  N    0.014028   0.081062
    17  C   -0.071774  -0.067557
    18  N   -0.015499   0.101493
 Electronic spatial extent (au):  <R**2>=          39100.1171
 Charge=             -1.0000 electrons
 Dipole moment (field-independent basis, Debye):
    X=             42.9401    Y=              8.1428    Z=             -4.9572  Tot=             43.9856
 Quadrupole moment (field-independent basis, Debye-Ang):
   XX=           -554.3575   YY=           -182.0711   ZZ=           -104.6822
   XY=            -71.9252   XZ=             45.0520   YZ=              1.4639
 Traceless Quadrupole moment (field-independent basis, Debye-Ang):
   XX=           -273.9872   YY=             98.2991   ZZ=            175.6881
   XY=            -71.9252   XZ=             45.0520   YZ=              1.4639
 Octapole moment (field-independent basis, Debye-Ang**2):
  XXX=           8003.7021  YYY=            965.1667  ZZZ=           -312.7598  XYY=           1625.8390
  XXY=            850.1334  XXZ=           -591.0607  XZZ=            937.4733  YZZ=            165.4493
  YYZ=           -157.5592  XYZ=            -13.9791
 Hexadecapole moment (field-independent basis, Debye-Ang**3):
 XXXX=        -116830.7727 YYYY=          -7846.2027 ZZZZ=           -768.2622 XXXY=         -11365.2212
 XXXZ=           8614.9242 YYYX=          -8611.6310 YYYZ=            630.7291 ZZZX=           2814.4463
 ZZZY=            361.8155 XXYY=         -16206.2668 XXZZ=          -9145.3283 YYZZ=           -981.1129
 XXYZ=            274.1529 YYXZ=           1424.3791 ZZXY=          -1479.0781
 N-N= 9.529094170197D+02 E-N=-3.741130931502D+03  KE= 7.768725272575D+02
                          Isotropic Fermi Contact Couplings
        Atom                 a.u.       MegaHertz       Gauss      10(-4) cm-1
     1  C(13)             -0.01587     -17.83927      -6.36550      -5.95054
     2  C(13)              0.05423      60.96488      21.75378      20.33569
     3  C(13)             -0.01471     -16.53431      -5.89985      -5.51525
     4  C(13)              0.05175      58.17499      20.75828      19.40509
     5  C(13)             -0.01539     -17.29812      -6.17240      -5.77003
     6  C(13)              0.04948      55.62681      19.84903      18.55511
     7  C(13)             -0.03338     -37.52115     -13.38848     -12.51571
     8  N(14)              0.02454       7.92970       2.82951       2.64506
     9  C(13)             -0.02999     -33.71088     -12.02888     -11.24474
    10  N(14)              0.01762       5.69421       2.03184       1.89939
    11  C(13)             -0.03278     -36.84613     -13.14762     -12.29055
    12  N(14)              0.02460       7.94839       2.83618       2.65130
    13  C(13)             -0.03023     -33.98918     -12.12818     -11.33757
    14  N(14)              0.01944       6.28018       2.24092       2.09484
    15  C(13)             -0.02918     -32.80250     -11.70475     -10.94174
    16  N(14)              0.01841       5.94990       2.12307       1.98467
    17  C(13)             -0.03173     -35.66517     -12.72622     -11.89662
    18  N(14)              0.02370       7.65795       2.73255       2.55442
 --------------------------------------------------------
       Center         ----  Spin Dipole Couplings  ----
                      3XX-RR        3YY-RR        3ZZ-RR
 --------------------------------------------------------
     1   Atom       -0.008214      0.019791     -0.011578
     2   Atom       -0.165083     -0.163153      0.328236
     3   Atom        0.010861     -0.003210     -0.007651
     4   Atom       -0.162104     -0.154872      0.316976
     5   Atom        0.015079      0.000320     -0.015399
     6   Atom       -0.155078     -0.149978      0.305056
     7   Atom        0.035166      0.007549     -0.042716
     8   Atom       -0.108613     -0.083475      0.192088
     9   Atom        0.026935      0.005533     -0.032468
    10   Atom       -0.083141     -0.064052      0.147193
    11   Atom        0.032783      0.009869     -0.042652
    12   Atom       -0.103134     -0.088643      0.191778
    13   Atom       -0.002558      0.037275     -0.034717
    14   Atom       -0.067619     -0.089788      0.157407
    15   Atom       -0.002181      0.035597     -0.033416
    16   Atom       -0.063798     -0.087017      0.150815
    17   Atom        0.031708      0.009791     -0.041499
    18   Atom       -0.099026     -0.086118      0.185144
 --------------------------------------------------------
                        XY            XZ            YZ
 --------------------------------------------------------
     1   Atom        0.000096     -0.002128      0.002693
     2   Atom       -0.000485      0.004606     -0.052127
     3   Atom       -0.012069      0.000498      0.001885
     4   Atom        0.000628      0.006156     -0.050570
     5   Atom        0.012460      0.001041      0.002071
     6   Atom       -0.001631     -0.000481     -0.036549
     7   Atom       -0.020510     -0.002968      0.005478
     8   Atom        0.012728      0.006099     -0.029845
     9   Atom        0.015834      0.001511      0.004170
    10   Atom       -0.008255     -0.001401     -0.024052
    11   Atom        0.021860      0.000805      0.005105
    12   Atom       -0.016971      0.004855     -0.028434
    13   Atom        0.000892     -0.000170      0.007827
    14   Atom       -0.002246      0.001708     -0.029480
    15   Atom       -0.000819      0.000058      0.005552
    16   Atom        0.003270     -0.000631     -0.017810
    17   Atom       -0.020805     -0.001782      0.004098
    18   Atom        0.016121      0.001327     -0.021213
 --------------------------------------------------------


 ---------------------------------------------------------------------------------
              Anisotropic Spin Dipole Couplings in Principal Axis System
 ---------------------------------------------------------------------------------

       Atom             a.u.   MegaHertz   Gauss  10(-4) cm-1        Axes

              Baa    -0.0128    -1.717    -0.613    -0.573  0.4213 -0.0759  0.9037
     1 C(13)  Bbb    -0.0072    -0.970    -0.346    -0.323  0.9069  0.0386 -0.4195
              Bcc     0.0200     2.687     0.959     0.896 -0.0030  0.9964  0.0851
 
              Baa    -0.1686   -22.627    -8.074    -7.548  0.0006  0.9945  0.1043
     2 C(13)  Bbb    -0.1651   -22.158    -7.907    -7.391  1.0000  0.0003 -0.0093
              Bcc     0.3337    44.786    15.981    14.939  0.0093 -0.1043  0.9945
 
              Baa    -0.0112    -1.497    -0.534    -0.499  0.4315  0.7677 -0.4738
     3 C(13)  Bbb    -0.0066    -0.892    -0.318    -0.298  0.2519  0.4018  0.8804
              Bcc     0.0178     2.389     0.853     0.797  0.8662 -0.4993 -0.0200
 
              Baa    -0.1628   -21.847    -7.796    -7.287  0.8965 -0.4392 -0.0578
     4 C(13)  Bbb    -0.1596   -21.417    -7.642    -7.144  0.4428  0.8922  0.0890
              Bcc     0.3224    43.264    15.438    14.431  0.0125 -0.1053  0.9944
 
              Baa    -0.0157    -2.104    -0.751    -0.702  0.0268 -0.1488  0.9885
     5 C(13)  Bbb    -0.0066    -0.885    -0.316    -0.295 -0.4984  0.8552  0.1423
              Bcc     0.0223     2.990     1.067     0.997  0.8665  0.4965  0.0512
 
              Baa    -0.1560   -20.931    -7.469    -6.982  0.8799  0.4736  0.0385
     6 C(13)  Bbb    -0.1520   -20.396    -7.278    -6.804 -0.4751  0.8772  0.0696
              Bcc     0.3080    41.327    14.747    13.785 -0.0008 -0.0796  0.9968
 
              Baa    -0.0433    -5.812    -2.074    -1.939  0.0108 -0.1028  0.9946
     7 C(13)  Bbb    -0.0031    -0.412    -0.147    -0.138  0.4761  0.8753  0.0853
              Bcc     0.0464     6.225     2.221     2.076  0.8793 -0.4726 -0.0583
 
              Baa    -0.1149    -4.433    -1.582    -1.479  0.9047 -0.4219 -0.0590
     8 N(14)  Bbb    -0.0804    -3.101    -1.107    -1.034  0.4257  0.9005  0.0891
              Bcc     0.1954     7.534     2.688     2.513  0.0155 -0.1057  0.9943
 
              Baa    -0.0329    -4.418    -1.576    -1.474  0.0038 -0.1094  0.9940
     9 C(13)  Bbb    -0.0026    -0.347    -0.124    -0.116 -0.4743  0.8749  0.0981
              Bcc     0.0355     4.764     1.700     1.589  0.8804  0.4718  0.0485
 
              Baa    -0.0867    -3.342    -1.193    -1.115  0.9219  0.3847  0.0451
    10 N(14)  Bbb    -0.0632    -2.439    -0.870    -0.814 -0.3873  0.9163  0.1021
              Bcc     0.1499     5.781     2.063     1.928 -0.0020 -0.1116  0.9937
 
              Baa    -0.0432    -5.793    -2.067    -1.932  0.0193 -0.1037  0.9944
    11 C(13)  Bbb    -0.0030    -0.398    -0.142    -0.133 -0.5208  0.8480  0.0985
              Bcc     0.0461     6.190     2.209     2.065  0.8535  0.5198  0.0376
 
              Baa    -0.1148    -4.428    -1.580    -1.477  0.8178  0.5742  0.0403
    12 N(14)  Bbb    -0.0800    -3.084    -1.100    -1.029 -0.5751  0.8125  0.0953
              Bcc     0.1948     7.512     2.680     2.506  0.0220 -0.1011  0.9946
 
              Baa    -0.0356    -4.772    -1.703    -1.592  0.0080 -0.1069  0.9942
    13 C(13)  Bbb    -0.0026    -0.345    -0.123    -0.115  0.9997 -0.0204 -0.0103
              Bcc     0.0381     5.117     1.826     1.707  0.0213  0.9941  0.1067
 
              Baa    -0.0934    -3.603    -1.286    -1.202  0.0785  0.9902  0.1158
    14 N(14)  Bbb    -0.0675    -2.602    -0.929    -0.868  0.9969 -0.0770 -0.0177
              Bcc     0.1609     6.205     2.214     2.070  0.0086 -0.1169  0.9931
 
              Baa    -0.0339    -4.544    -1.621    -1.516 -0.0039 -0.0797  0.9968
    15 C(13)  Bbb    -0.0022    -0.295    -0.105    -0.098  0.9998  0.0208  0.0056
              Bcc     0.0361     4.839     1.727     1.614 -0.0212  0.9966  0.0796
 
              Baa    -0.0888    -3.423    -1.221    -1.142 -0.1278  0.9891  0.0732
    16 N(14)  Bbb    -0.0634    -2.445    -0.872    -0.815  0.9918  0.1271  0.0135
              Bcc     0.1521     5.868     2.094     1.957 -0.0040 -0.0743  0.9972
 
              Baa    -0.0418    -5.612    -2.003    -1.872  0.0020 -0.0783  0.9969
    17 C(13)  Bbb    -0.0026    -0.348    -0.124    -0.116  0.5200  0.8516  0.0659
              Bcc     0.0444     5.961     2.127     1.988  0.8542 -0.5182 -0.0424
 
              Baa    -0.1105    -4.263    -1.521    -1.422  0.8151 -0.5776 -0.0451
    18 N(14)  Bbb    -0.0763    -2.942    -1.050    -0.981  0.5794  0.8126  0.0630
              Bcc     0.1868     7.204     2.571     2.403  0.0003 -0.0775  0.9970
 

 ---------------------------------------------------------------------------------

   1 Symmetry operations used in ECPInt.
 ECPInt:  NShTT=    5886 NPrTT=   23670 LenC2=    5386 LenP2D=   14849.
 LDataN:  DoStor=T MaxTD1= 5 Len=  102
 D1PCM: PCM CHGder 1st derivatives, ID1Alg=3 FixD1E=F DoIter=F DoCFld=F I1PDM=0.
 Calling FoFJK, ICntrl=      2127 FMM=F ISym2X=0 I1Cent= 0 IOpClX= 1 NMat=1 NMatS=1 NMatT=0.
 -------------------------------------------------------------------
 Center     Atomic                   Forces (Hartrees/Bohr)
 Number     Number              X              Y              Z
 -------------------------------------------------------------------
      1        6           0.000780480   -0.081804995   -0.007828707
      2        6           0.008027205    0.040152459    0.003882872
      3        6          -0.077200710    0.043033880    0.005136876
      4        6           0.030713055   -0.027473154   -0.003306366
      5        6           0.092620428    0.052044831    0.004018016
      6        6          -0.051743970   -0.037924993   -0.003104149
      7        6           0.004065240   -0.015369590   -0.001414989
      8        7           0.012168023   -0.002112168   -0.000490424
      9        6          -0.114358001   -0.070708665   -0.006984462
     10        7           0.088702333    0.045035516    0.004716334
     11        6          -0.006734267    0.011139167    0.000713474
     12        7          -0.014434689   -0.014419908   -0.000887882
     13        6          -0.007059580    0.079205044    0.008659684
     14        7          -0.000161540   -0.049963965   -0.005540768
     15        6           0.012309644    0.077733493    0.005749277
     16        7          -0.000604637   -0.046268351   -0.003519312
     17        6           0.001807010    0.017315700    0.001922189
     18        7           0.021103977   -0.019614300   -0.001721663
 -------------------------------------------------------------------
 Cartesian Forces:  Max     0.114358001 RMS     0.038707555

 GradGradGradGradGradGradGradGradGradGradGradGradGradGradGradGradGradGrad
 Berny optimization.
 Search for a local minimum.
 Step number   1 out of a maximum of    2
 All quantities printed in internal units (Hartrees-Bohrs-Radians)
 Second derivative matrix not updated -- first step.
 ITU=  0
     Eigenvalues ---    0.00108   0.00155   0.00228   0.00293   0.00293
     Eigenvalues ---    0.00710   0.01500   0.01626   0.01944   0.01948
     Eigenvalues ---    0.03781   0.03917   0.05103   0.05217   0.09993
     Eigenvalues ---    0.16511   0.18585   0.19054   0.22651   0.24367
     Eigenvalues ---    0.24648   0.24765   0.30048   0.30414   0.42977
     Eigenvalues ---    0.62426   0.65139   0.67861   0.68804   0.73925
     Eigenvalues ---    0.97343   0.97824   1.04059   1.04596   1.23685
     Eigenvalues ---    1.52869   1.57949   1.85780   2.01465   2.24160
     Eigenvalues ---    2.65547   2.70099   2.74072   2.77158   3.03729
     Eigenvalues ---    3.06651   3.10745   3.32449
 Quadratic step=5.323D-01 exceeds max=3.000D-01 adjusted using Lamda=-4.805D-02.
 Angle between NR and scaled steps=  25.41 degrees.
 Angle between quadratic step and forces=  60.30 degrees.
 Linear search not attempted -- first point.
 B after Tr=     0.000158   -0.000437    0.000010
         Rot=    1.000000    0.000004    0.000001    0.000009 Ang=   0.00 deg.
 Variable       Old X    -DE/DX   Delta X   Delta X   Delta X     New X
                                 (Linear)    (Quad)   (Total)
    X1      -16.89610   0.00078   0.00000   0.00406   0.00418 -16.89192
    Y1       -1.63727  -0.08180   0.00000  -0.06151  -0.06164  -1.69891
    Z1        2.09979  -0.00783   0.00000  -0.00520  -0.00522   2.09457
    X2      -16.89620   0.00803   0.00000  -0.00186  -0.00169 -16.89789
    Y2        0.93905   0.04015   0.00000  -0.04199  -0.04212   0.89693
    Z2        2.36507   0.00388   0.00000  -0.00331  -0.00335   2.36173
    X3      -15.49719  -0.07720   0.00000  -0.05557  -0.05549 -15.55268
    Y3       -4.04213   0.04303   0.00000   0.03594   0.03579  -4.00634
    Z3        1.85318   0.00514   0.00000   0.00418   0.00417   1.85736
    X4      -13.26170   0.03071   0.00000  -0.03249  -0.03243 -13.29413
    Y4       -5.32206  -0.02747   0.00000   0.01909   0.01890  -5.30316
    Z4        1.69927  -0.00331   0.00000   0.00079   0.00080   1.70007
    X5      -18.30740   0.09262   0.00000   0.06759   0.06768 -18.23973
    Y5       -4.05425   0.05204   0.00000   0.03997   0.03986  -4.01439
    Z5        1.87793   0.00402   0.00000   0.00323   0.00322   1.88115
    X6      -20.51556  -0.05174   0.00000   0.01915   0.01921 -20.49634
    Y6       -5.31731  -0.03792   0.00000   0.01342   0.01335  -5.30396
    Z6        1.77311  -0.00310   0.00000   0.00116   0.00116   1.77427
    X7      -19.24492   0.00407   0.00000   0.02865   0.02884 -19.21608
    Y7        2.36551  -0.01537   0.00000  -0.07751  -0.07759   2.28792
    Z7        2.53914  -0.00141   0.00000  -0.00761  -0.00768   2.53146
    X8      -21.22748   0.01217   0.00000   0.05884   0.05905 -21.16843
    Y8        3.31157  -0.00211   0.00000  -0.03070  -0.03074   3.28083
    Z8        2.66675  -0.00049   0.00000  -0.00555  -0.00562   2.66113
    X9      -14.51077  -0.11436   0.00000  -0.06095  -0.06076 -14.57153
    Y9        2.40396  -0.07071   0.00000  -0.10526  -0.10542   2.29854
    Z9        2.50433  -0.00698   0.00000  -0.00852  -0.00857   2.49576
   X10      -12.57573   0.08870   0.00000  -0.03139  -0.03118 -12.60690
   Y10        3.26641   0.04504   0.00000  -0.01282  -0.01302   3.25339
   Z10        2.60237   0.00472   0.00000  -0.00358  -0.00363   2.59875
   X11      -10.84284  -0.00673   0.00000  -0.07519  -0.07511 -10.91794
   Y11       -4.02634   0.01114   0.00000   0.01859   0.01835  -4.00799
   Z11        1.79800   0.00071   0.00000   0.00111   0.00112   1.79912
   X12       -9.02531  -0.01443   0.00000  -0.05423  -0.05413  -9.07944
   Y12       -2.77715  -0.01442   0.00000  -0.03619  -0.03646  -2.81360
   Z12        1.88602  -0.00089   0.00000  -0.00059  -0.00059   1.88543
   X13      -13.19396  -0.00706   0.00000  -0.04982  -0.04981 -13.24376
   Y13       -8.08788   0.07921   0.00000   0.08415   0.08396  -8.00392
   Z13        1.39914   0.00866   0.00000   0.00790   0.00794   1.40708
   X14      -13.33334  -0.00016   0.00000  -0.00245  -0.00248 -13.33582
   Y14      -10.22255  -0.04996   0.00000   0.04411   0.04392 -10.17863
   Z14        1.15616  -0.00554   0.00000   0.00697   0.00702   1.16318
   X15      -20.63168   0.01231   0.00000   0.06259   0.06260 -20.56908
   Y15       -8.10202   0.07773   0.00000   0.08556   0.08549  -8.01653
   Z15        1.55282   0.00575   0.00000   0.00620   0.00622   1.55904
   X16      -20.40497  -0.00060   0.00000  -0.00437  -0.00439 -20.40936
   Y16      -10.23955  -0.04627   0.00000   0.04438   0.04431 -10.19524
   Z16        1.38963  -0.00352   0.00000   0.00162   0.00165   1.39128
   X17      -22.94672   0.00181   0.00000   0.07040   0.07049 -22.87624
   Y17       -4.02739   0.01732   0.00000   0.02070   0.02068  -4.00671
   Z17        1.87529   0.00192   0.00000   0.00298   0.00296   1.87825
   X18      -24.76379   0.02110   0.00000   0.05532   0.05542 -24.70837
   Y18       -2.76682  -0.01961   0.00000  -0.03761  -0.03761  -2.80442
   Z18        1.97636  -0.00172   0.00000  -0.00157  -0.00161   1.97475
         Item               Value     Threshold  Converged?
 Maximum Force            0.114358     0.000450     NO 
 RMS     Force            0.038708     0.000300     NO 
 Maximum Displacement     0.105424     0.001800     NO 
 RMS     Displacement     0.040942     0.001200     NO 
 Predicted change in Energy=-2.337626D-02
 GradGradGradGradGradGradGradGradGradGradGradGradGradGradGradGradGradGrad

 Unable to Open any file for archive entry.
 1\1\GINC-X10P1N4\Force\UwB97XD\def2SVP\C12N6(1-,2)\MAYUMIAO\11-Oct-202
 4\0\\# wb97xd def2svp scrf=(smd,solvent=acetonitrile) g09default scf=(
 xqc,maxcycle=64) force guess=read nosymm\\Title Card\\-1,2\C,-8.941031
 26,-0.86640426,1.1111621\C,-8.94108175,0.49692541,1.25154362\C,-8.2007
 61,-2.13900124,0.98066322\C,-7.01778848,-2.81631204,0.89921638\C,-9.68
 785952,-2.14541746,0.99375685\C,-10.85636435,-2.81380183,0.93828974\C,
 -10.1839721,1.25177625,1.34365312\N,-11.23309637,1.75241001,1.41118348
 \C,-7.67877045,1.27212168,1.32523306\N,-6.65478724,1.72851203,1.377116
 39\C,-5.73778252,-2.1306465,0.95146289\N,-4.77598589,-1.46960406,0.998
 03751\C,-6.98194035,-4.27992077,0.74039204\N,-7.05569924,-5.40953899,0
 .61181191\C,-10.91781402,-4.28740238,0.82171649\N,-10.79784272,-5.4185
 3682,0.73535955\C,-12.14288379,-2.13120087,0.99236228\N,-13.10443373,-
 1.46413603,1.04584433\\Version=ES64L-G16RevC.01\HF=-784.8312764\S2=0.7
 828\S2-1=0.\S2A=0.750848\RMSD=6.904e-09\RMSF=3.871e-02\Dipole=0.001089
 6,-0.0371142,-0.0050143\Quadrupole=-203.7027805,73.0830117,130.6197688
 ,-53.4746247,33.4950567,1.0883822\PG=C01 [X(C12N6)]\\@
 The archive entry for this job was punched.


 TIMES HAVE CHANGED. IN THE BIBLE WHEN AN ASS
 SPOKE IT WAS CONSIDERED A MIRACLE.
 Job cpu time:       0 days  0 hours 13 minutes 25.3 seconds.
 Elapsed time:       0 days  0 hours  0 minutes 30.2 seconds.
 File lengths (MBytes):  RWF=    175 Int=      0 D2E=      0 Chk=      9 Scr=      1
 Normal termination of Gaussian 16 at Fri Oct 11 15:44:10 2024.
