 Entering Gaussian System, Link 0=g16
 Input=JOBS/19_A.gjf
 Output=JOBS/19_A.log
 Initial command:
 /data/app/gaussian/C01-avx2//g16/l1.exe "/tmp/Gau-2532398.inp" -scrdir="/tmp/"
 Entering Link 1 = /data/app/gaussian/C01-avx2//g16/l1.exe PID=   2532399.
  
 Copyright (c) 1988-2019, Gaussian, Inc.  All Rights Reserved.
  
 This is part of the Gaussian(R) 16 program.  It is based on
 the Gaussian(R) 09 system (copyright 2009, Gaussian, Inc.),
 the Gaussian(R) 03 system (copyright 2003, Gaussian, Inc.),
 the Gaussian(R) 98 system (copyright 1998, Gaussian, Inc.),
 the Gaussian(R) 94 system (copyright 1995, Gaussian, Inc.),
 the Gaussian 92(TM) system (copyright 1992, Gaussian, Inc.),
 the Gaussian 90(TM) system (copyright 1990, Gaussian, Inc.),
 the Gaussian 88(TM) system (copyright 1988, Gaussian, Inc.),
 the Gaussian 86(TM) system (copyright 1986, Carnegie Mellon
 University), and the Gaussian 82(TM) system (copyright 1983,
 Carnegie Mellon University). Gaussian is a federally registered
 trademark of Gaussian, Inc.
  
 This software contains proprietary and confidential information,
 including trade secrets, belonging to Gaussian, Inc.
  
 This software is provided under written license and may be
 used, copied, transmitted, or stored only in accord with that
 written license.
  
 The following legend is applicable only to US Government
 contracts under FAR:
  
                    RESTRICTED RIGHTS LEGEND
  
 Use, reproduction and disclosure by the US Government is
 subject to restrictions as set forth in subparagraphs (a)
 and (c) of the Commercial Computer Software - Restricted
 Rights clause in FAR 52.227-19.
  
 Gaussian, Inc.
 340 Quinnipiac St., Bldg. 40, Wallingford CT 06492
  
  
 ---------------------------------------------------------------
 Warning -- This program may not be used in any manner that
 competes with the business of Gaussian, Inc. or will provide
 assistance to any competitor of Gaussian, Inc.  The licensee
 of this program is prohibited from giving any competitor of
 Gaussian, Inc. access to this program.  By using this program,
 the user acknowledges that Gaussian, Inc. is engaged in the
 business of creating and licensing software in the field of
 computational chemistry and represents and warrants to the
 licensee that it is not a competitor of Gaussian, Inc. and that
 it will not use this program in any manner prohibited above.
 ---------------------------------------------------------------
  

 Cite this work as:
 Gaussian 16, Revision C.01,
 M. J. Frisch, G. W. Trucks, H. B. Schlegel, G. E. Scuseria, 
 M. A. Robb, J. R. Cheeseman, G. Scalmani, V. Barone, 
 G. A. Petersson, H. Nakatsuji, X. Li, M. Caricato, A. V. Marenich, 
 J. Bloino, B. G. Janesko, R. Gomperts, B. Mennucci, H. P. Hratchian, 
 J. V. Ortiz, A. F. Izmaylov, J. L. Sonnenberg, D. Williams-Young, 
 F. Ding, F. Lipparini, F. Egidi, J. Goings, B. Peng, A. Petrone, 
 T. Henderson, D. Ranasinghe, V. G. Zakrzewski, J. Gao, N. Rega, 
 G. Zheng, W. Liang, M. Hada, M. Ehara, K. Toyota, R. Fukuda, 
 J. Hasegawa, M. Ishida, T. Nakajima, Y. Honda, O. Kitao, H. Nakai, 
 T. Vreven, K. Throssell, J. A. Montgomery, Jr., J. E. Peralta, 
 F. Ogliaro, M. J. Bearpark, J. J. Heyd, E. N. Brothers, K. N. Kudin, 
 V. N. Staroverov, T. A. Keith, R. Kobayashi, J. Normand, 
 K. Raghavachari, A. P. Rendell, J. C. Burant, S. S. Iyengar, 
 J. Tomasi, M. Cossi, J. M. Millam, M. Klene, C. Adamo, R. Cammi, 
 J. W. Ochterski, R. L. Martin, K. Morokuma, O. Farkas, 
 J. B. Foresman, and D. J. Fox, Gaussian, Inc., Wallingford CT, 2019.
 
 ******************************************
 Gaussian 16:  ES64L-G16RevC.01  3-Jul-2019
                11-Oct-2024 
 ******************************************
 %chk=a.chk
 %nprocshared=28
 Will use up to   28 processors via shared memory.
 %mem=48gb
 ----------------------------------------------------------------------
 # wb97xd def2svp scrf=(smd,solvent=acetonitrile) g09default scf=(xqc,m
 axcycle=64) force guess=read nosymm
 ----------------------------------------------------------------------
 1/10=7,30=1,38=1,158=3,167=1/1,3;
 2/12=2,15=1,17=6,18=5,40=1/2;
 3/5=43,7=101,11=2,25=1,27=10,30=1,70=32201,71=1,72=2,74=-58,75=-4,116=-2,158=3/1,2,3;
 4/5=1,60=-1/1;
 5/5=2,7=64,8=3,13=1,38=6,53=2,87=10/2,8;
 6/7=2,8=2,9=2,10=2,28=1,87=10/1;
 7/29=1,30=1,87=10/1,2,3,16;
 1/10=7,30=1,158=3,167=1/3;
 99//99;
 Using 2006 physical constants.
 ----------
 Title Card
 ----------
 Symbolic Z-matrix:
 Charge = -2 Multiplicity = 1
 6                    -8.93873  -0.87621   1.11226 
 6                    -8.94433   0.53751   1.2552 
 6                    -8.20479  -2.13446   0.98128 
 6                    -6.98602  -2.83704   0.89852 
 6                    -9.68304  -2.14243   0.99342 
 6                    -10.89297  -2.83428   0.9363 
 6                    -10.17293   1.25047   1.34271 
 7                    -11.26197   1.76662   1.41391 
 6                    -7.66702   1.28111   1.32736 
 7                    -6.64565   1.73436   1.37788 
 6                    -5.71852  -2.12045   0.95099 
 7                    -4.7694   -1.46557   0.9975 
 6                    -6.97836  -4.27829   0.73932 
 7                    -7.0578   -5.43658   0.60656 
 6                    -10.91663  -4.3064    0.82057 
 7                    -10.79958  -5.42689   0.73647 
 6                    -12.14914  -2.12912   0.99318 
 7                    -13.123   -1.45253   1.04537 
 

 GradGradGradGradGradGradGradGradGradGradGradGradGradGradGradGradGradGrad
 Berny optimization.
 Initialization pass.
 Trust Radius=3.00D-01 FncErr=1.00D-07 GrdErr=1.00D-07 EigMax=2.50D+02 EigMin=1.00D-04
 Number of steps in this run=      2 maximum allowed number of steps=      2.
 GradGradGradGradGradGradGradGradGradGradGradGradGradGradGradGradGradGrad

                          Input orientation:                          
 ---------------------------------------------------------------------
 Center     Atomic      Atomic             Coordinates (Angstroms)
 Number     Number       Type             X           Y           Z
 ---------------------------------------------------------------------
      1          6           0       -8.938730   -0.876207    1.112264
      2          6           0       -8.944331    0.537510    1.255201
      3          6           0       -8.204788   -2.134460    0.981279
      4          6           0       -6.986024   -2.837040    0.898521
      5          6           0       -9.683044   -2.142428    0.993425
      6          6           0      -10.892974   -2.834279    0.936299
      7          6           0      -10.172933    1.250473    1.342709
      8          7           0      -11.261971    1.766624    1.413905
      9          6           0       -7.667022    1.281106    1.327357
     10          7           0       -6.645654    1.734359    1.377883
     11          6           0       -5.718518   -2.120455    0.950993
     12          7           0       -4.769398   -1.465573    0.997500
     13          6           0       -6.978359   -4.278285    0.739317
     14          7           0       -7.057804   -5.436582    0.606558
     15          6           0      -10.916629   -4.306398    0.820574
     16          7           0      -10.799580   -5.426894    0.736466
     17          6           0      -12.149137   -2.129115    0.993180
     18          7           0      -13.122998   -1.452534    1.045374
 ---------------------------------------------------------------------
                    Distance matrix (angstroms):
                    1          2          3          4          5
     1  C    0.000000
     2  C    1.420936   0.000000
     3  C    1.462542   2.785926   0.000000
     4  C    2.775539   3.917880   1.409203   0.000000
     5  C    1.473581   2.792184   1.478327   2.786649   0.000000
     6  C    2.772017   3.907412   2.778150   3.907134   1.394938
     7  C    2.469642   1.423178   3.932175   5.202063   3.445833
     8  N    3.531712   2.628186   4.975137   6.304211   4.236803
     9  C    2.513465   1.479750   3.474918   4.196045   3.987034
    10  N    3.484797   2.594497   4.189983   4.609049   4.939942
    11  C    3.455999   4.190846   2.486493   1.456990   3.964814
    12  N    4.212346   4.637761   3.499939   2.608476   4.960047
    13  C    3.944145   5.227147   2.481665   1.450032   3.455687
    14  N    4.958895   6.298373   3.515679   2.616871   4.230012
    15  C    3.970312   5.248077   3.478107   4.196993   2.496874
    16  N    4.930795   6.267787   4.199167   4.612680   3.478563
    17  C    3.448285   4.177359   3.944371   5.212279   2.466129
    18  N    4.224302   4.633094   4.965675   6.292923   3.508837
                    6          7          8          9         10
     6  C    0.000000
     7  C    4.167592   0.000000
     8  N    4.640320   1.207263   0.000000
     9  C    5.243671   2.506145   3.628619   0.000000
    10  N    6.253573   3.560489   4.616571   1.118564   0.000000
    11  C    5.223481   5.599858   6.786276   3.938139   3.987657
    12  N    6.274973   6.057580   7.264572   4.006156   3.728887
    13  C    4.177100   6.413778   7.439444   5.632662   6.055605
    14  N    4.646423   7.413680   8.379320   6.783660   7.224072
    15  C    1.476851   5.630678   6.111702   6.483593   7.419069
    16  N    2.601982   6.734051   7.240126   7.426933   8.303618
    17  C    1.441678   3.930543   4.017568   5.641865   6.735188
    18  N    2.625666   4.012174   3.736605   6.109008   7.226538
                   11         12         13         14         15
    11  C    0.000000
    12  N    1.154063   0.000000
    13  C    2.507636   3.585738   0.000000
    14  N    3.592913   4.599842   1.168584   0.000000
    15  C    5.640542   6.774219   3.939208   4.026618   0.000000
    16  N    6.065950   7.219646   3.990117   3.744043   1.129728
    17  C    6.430763   7.409511   5.605383   6.083624   2.507873
    18  N    7.435143   8.353748   6.770165   7.269923   3.614297
                   16         17         18
    16  N    0.000000
    17  C    3.572471   0.000000
    18  N    4.614025   1.186968   0.000000
 Symmetry turned off by external request.
 Stoichiometry    C12N6(2-)
 Framework group  C1[X(C12N6)]
 Deg. of freedom    48
 Full point group                 C1      NOp   1
 Rotational constants (GHZ):           0.4156147           0.4137329           0.2073597
 Standard basis: def2SVP (5D, 7F)
   252 basis functions,   450 primitive gaussians,   270 cartesian basis functions
    58 alpha electrons       58 beta electrons
       nuclear repulsion energy       948.4719516048 Hartrees.
 NAtoms=   18 NActive=   18 NUniq=   18 SFac= 1.00D+00 NAtFMM=   60 NAOKFM=F Big=F
 Integral buffers will be    131072 words long.
 Raffenetti 2 integral format.
 Two-electron integral symmetry is turned off.
 Nuclear repulsion after empirical dispersion term =      948.4606682908 Hartrees.
 Force PCM accuracy= 1.00D-10.
 ------------------------------------------------------------------------------
 Polarizable Continuum Model (PCM)
 =================================
 Model                : PCM (using non-symmetric T matrix).
 Atomic radii         : SMD-Coulomb.
 Polarization charges : Total charges.
 Charge compensation  : None.
 Solution method      : On-the-fly selection.
 Cavity type          : VdW (van der Waals Surface) (Alpha=1.000).
 Cavity algorithm     : GePol (No added spheres)
                        Default sphere list used, NSphG=   18.
                        Lebedev-Laikov grids with approx.  5.0 points / Ang**2.
                        Smoothing algorithm: York/Karplus (Gamma=1.0000).
                        Polarization charges: spherical gaussians, with
                                              point-specific exponents (IZeta= 3).
                        Self-potential: point-specific (ISelfS= 7).
                        Self-field    : sphere-specific E.n sum rule (ISelfD= 2).
 1st derivatives      : Analytical E(r).r(x)/FMM algorithm (CHGder, D1EAlg=3).
                        Cavity 1st derivative terms included.
 Solvent              : Acetonitrile, Eps=  35.688000 Eps(inf)=   1.806874
 ------------------------------------------------------------------------------
 Spheres list:
 ISph  on   Nord     Re0    Alpha      Xe            Ye            Ze
    1   C      1    1.8500  1.000     -8.938730     -0.876207      1.112264
    2   C      2    1.8500  1.000     -8.944331      0.537510      1.255201
    3   C      3    1.8500  1.000     -8.204788     -2.134460      0.981279
    4   C      4    1.8500  1.000     -6.986024     -2.837040      0.898521
    5   C      5    1.8500  1.000     -9.683044     -2.142428      0.993425
    6   C      6    1.8500  1.000    -10.892974     -2.834279      0.936299
    7   C      7    1.8500  1.000    -10.172933      1.250473      1.342709
    8   N      8    1.8900  1.000    -11.261971      1.766624      1.413905
    9   C      9    1.8500  1.000     -7.667022      1.281106      1.327357
   10   N     10    1.8900  1.000     -6.645654      1.734359      1.377883
   11   C     11    1.8500  1.000     -5.718518     -2.120455      0.950993
   12   N     12    1.8900  1.000     -4.769398     -1.465573      0.997500
   13   C     13    1.8500  1.000     -6.978359     -4.278285      0.739317
   14   N     14    1.8900  1.000     -7.057804     -5.436582      0.606558
   15   C     15    1.8500  1.000    -10.916629     -4.306398      0.820574
   16   N     16    1.8900  1.000    -10.799580     -5.426894      0.736466
   17   C     17    1.8500  1.000    -12.149137     -2.129115      0.993180
   18   N     18    1.8900  1.000    -13.122998     -1.452534      1.045374
 ------------------------------------------------------------------------------
 ------------------------------------------------------------------------------
 Atomic radii for non-electrostatic terms: SMD-CDS.
 ------------------------------------------------------------------------------
 Nuclear repulsion after PCM non-electrostatic terms =      948.4693316076 Hartrees.
 One-electron integrals computed using PRISM.
   1 Symmetry operations used in ECPInt.
 ECPInt:  NShTT=    5886 NPrTT=   23670 LenC2=    5385 LenP2D=   14823.
 LDataN:  DoStor=T MaxTD1= 4 Len=   56
 NBasis=   252 RedAO= T EigKep=  3.18D-04  NBF=   252
 NBsUse=   252 1.00D-06 EigRej= -1.00D+00 NBFU=   252
 Initial guess from the checkpoint file:  "a.chk"
 B after Tr=    -0.000770    0.000026   -0.001557
         Rot=    1.000000   -0.000052   -0.000055    0.000005 Ang=  -0.01 deg.
 Requested convergence on RMS density matrix=1.00D-08 within  64 cycles.
 Requested convergence on MAX density matrix=1.00D-06.
 Requested convergence on             energy=1.00D-06.
 No special actions if energy rises.
 Inv3:  Mode=1 IEnd=    19706907.
 Iteration    1 A*A^-1 deviation from unit magnitude is 3.33D-15 for    606.
 Iteration    1 A*A^-1 deviation from orthogonality  is 2.85D-15 for   1852    275.
 Iteration    1 A^-1*A deviation from unit magnitude is 3.33D-15 for    615.
 Iteration    1 A^-1*A deviation from orthogonality  is 1.50D-11 for   2201   1119.
 Error on total polarization charges =  0.02236
 SCF Done:  E(RwB97XD) =  -784.995679425     A.U. after   14 cycles
            NFock= 14  Conv=0.66D-08     -V/T= 2.0107
 SMD-CDS (non-electrostatic) energy       (kcal/mol) =       5.44
 (included in total energy above)
 QCSCF skips out because SCF is already converged.

 **********************************************************************

            Population analysis using the SCF Density.

 **********************************************************************

 Alpha  occ. eigenvalues --  -14.43520 -14.43475 -14.43185 -14.42993 -14.42762
 Alpha  occ. eigenvalues --  -14.42405 -10.36309 -10.36260 -10.36236 -10.34605
 Alpha  occ. eigenvalues --  -10.34541 -10.34219 -10.34027 -10.33988 -10.33856
 Alpha  occ. eigenvalues --  -10.33801 -10.33670 -10.33346  -1.00610  -1.00281
 Alpha  occ. eigenvalues --   -0.99501  -0.98437  -0.98132  -0.97437  -0.96530
 Alpha  occ. eigenvalues --   -0.87556  -0.87256  -0.84506  -0.68202  -0.67708
 Alpha  occ. eigenvalues --   -0.64494  -0.64327  -0.63825  -0.62968  -0.50776
 Alpha  occ. eigenvalues --   -0.47476  -0.47349  -0.46387  -0.46250  -0.45422
 Alpha  occ. eigenvalues --   -0.45314  -0.45207  -0.44718  -0.44403  -0.43999
 Alpha  occ. eigenvalues --   -0.43513  -0.43399  -0.42492  -0.42469  -0.42327
 Alpha  occ. eigenvalues --   -0.41951  -0.41447  -0.40983  -0.40680  -0.39486
 Alpha  occ. eigenvalues --   -0.32001  -0.31607  -0.23206
 Alpha virt. eigenvalues --    0.06276   0.06542   0.08563   0.09129   0.09201
 Alpha virt. eigenvalues --    0.11240   0.12633   0.12706   0.13183   0.13546
 Alpha virt. eigenvalues --    0.14235   0.16024   0.20597   0.20790   0.23140
 Alpha virt. eigenvalues --    0.25459   0.27100   0.27221   0.27711   0.27781
 Alpha virt. eigenvalues --    0.29627   0.31604   0.31936   0.33118   0.33233
 Alpha virt. eigenvalues --    0.33424   0.35425   0.47715   0.47828   0.51442
 Alpha virt. eigenvalues --    0.51538   0.52401   0.53354   0.54862   0.55017
 Alpha virt. eigenvalues --    0.55068   0.56265   0.56898   0.58118   0.61213
 Alpha virt. eigenvalues --    0.61711   0.61911   0.62374   0.62598   0.64841
 Alpha virt. eigenvalues --    0.65080   0.69850   0.70659   0.71049   0.71834
 Alpha virt. eigenvalues --    0.71920   0.73547   0.73616   0.73852   0.74463
 Alpha virt. eigenvalues --    0.74715   0.74740   0.75548   0.75873   0.76009
 Alpha virt. eigenvalues --    0.79331   0.79619   0.80994   0.82969   0.83130
 Alpha virt. eigenvalues --    0.85347   0.85703   0.87380   0.88336   0.93484
 Alpha virt. eigenvalues --    0.93840   0.94658   0.94894   0.95892   0.95992
 Alpha virt. eigenvalues --    0.96910   0.99608   0.99986   1.00587   1.00886
 Alpha virt. eigenvalues --    1.02156   1.02700   1.02827   1.02905   1.03725
 Alpha virt. eigenvalues --    1.05454   1.05961   1.07653   1.08685   1.12303
 Alpha virt. eigenvalues --    1.13119   1.17511   1.18060   1.18456   1.20236
 Alpha virt. eigenvalues --    1.22571   1.23369   1.24317   1.27377   1.33380
 Alpha virt. eigenvalues --    1.34950   1.35091   1.42146   1.42517   1.44819
 Alpha virt. eigenvalues --    1.45244   1.46983   1.47536   1.47993   1.57991
 Alpha virt. eigenvalues --    1.58678   1.68556   1.69972   1.70168   1.70738
 Alpha virt. eigenvalues --    1.71130   1.71593   1.76244   1.76419   1.78558
 Alpha virt. eigenvalues --    1.79079   1.79515   1.79560   1.80533   1.81524
 Alpha virt. eigenvalues --    1.81992   1.82181   1.85458   1.92106   1.93661
 Alpha virt. eigenvalues --    1.95119   2.00086   2.00380   2.01353   2.02632
 Alpha virt. eigenvalues --    2.04836   2.06115   2.06421   2.12745   2.13009
 Alpha virt. eigenvalues --    2.14473   2.20884   2.21262   2.22081   2.26217
 Alpha virt. eigenvalues --    2.26588   2.27096   2.27270   2.33639   2.33791
 Alpha virt. eigenvalues --    2.34986   2.35254   2.35986   2.36419   2.36839
 Alpha virt. eigenvalues --    2.37107   2.37272   2.38016   2.38502   2.38676
 Alpha virt. eigenvalues --    2.39587   2.40175   2.54146   2.55630   2.56267
 Alpha virt. eigenvalues --    2.65875   2.66404   2.88896   2.93098   2.95005
 Alpha virt. eigenvalues --    2.95747   2.98326   2.99281   3.00267   3.03022
 Alpha virt. eigenvalues --    3.05213   3.05730   3.06128   3.08404   3.11381
 Alpha virt. eigenvalues --    3.12083   3.13369   3.18845   3.19071   3.29292
 Alpha virt. eigenvalues --    3.36984   3.38777   3.39610   3.50094   3.53006
 Alpha virt. eigenvalues --    3.53581   3.62942   3.65597   3.73612
          Condensed to atoms (all electrons):
               1          2          3          4          5          6
     1  C    4.937815   0.476764   0.323307  -0.091282   0.321610  -0.092365
     2  C    0.476764   5.480727  -0.087665  -0.004256  -0.081958  -0.004308
     3  C    0.323307  -0.087665   4.922599   0.483942   0.316118  -0.092731
     4  C   -0.091282  -0.004256   0.483942   5.488604  -0.086891  -0.004832
     5  C    0.321610  -0.081958   0.316118  -0.086891   4.903173   0.488120
     6  C   -0.092365  -0.004308  -0.092731  -0.004832   0.488120   5.490537
     7  C    0.009237   0.397343   0.005862  -0.000202  -0.015641   0.001008
     8  N    0.000343  -0.046134   0.000028  -0.000000  -0.000323   0.000068
     9  C   -0.000887   0.378756  -0.013873   0.000979   0.005783  -0.000177
    10  N   -0.000254  -0.039904  -0.000471   0.000087   0.000041  -0.000001
    11  C   -0.015170   0.001009   0.002715   0.387169   0.005746  -0.000189
    12  N   -0.000442   0.000082  -0.000203  -0.041177   0.000024  -0.000001
    13  C    0.005716  -0.000181   0.005479   0.389828  -0.014872   0.000930
    14  N    0.000021  -0.000001  -0.000051  -0.041591  -0.000384   0.000061
    15  C    0.005904  -0.000176  -0.013915   0.000999   0.000618   0.379590
    16  N    0.000043  -0.000001  -0.000467   0.000092  -0.000222  -0.038949
    17  C   -0.015519   0.001106   0.005623  -0.000205   0.006283   0.390876
    18  N   -0.000379   0.000092   0.000026  -0.000001   0.000116  -0.042225
               7          8          9         10         11         12
     1  C    0.009237   0.000343  -0.000887  -0.000254  -0.015170  -0.000442
     2  C    0.397343  -0.046134   0.378756  -0.039904   0.001009   0.000082
     3  C    0.005862   0.000028  -0.013873  -0.000471   0.002715  -0.000203
     4  C   -0.000202  -0.000000   0.000979   0.000087   0.387169  -0.041177
     5  C   -0.015641  -0.000323   0.005783   0.000041   0.005746   0.000024
     6  C    0.001008   0.000068  -0.000177  -0.000001  -0.000189  -0.000001
     7  C    4.838076   0.873669  -0.024179   0.001659   0.000044   0.000001
     8  N    0.873669   6.290429   0.001634   0.000035   0.000000   0.000000
     9  C   -0.024179   0.001634   4.803653   0.975967   0.000508   0.000416
    10  N    0.001659   0.000035   0.975967   6.073075   0.000269  -0.000805
    11  C    0.000044   0.000000   0.000508   0.000269   4.821536   0.934845
    12  N    0.000001   0.000000   0.000416  -0.000805   0.934845   6.150852
    13  C   -0.000003  -0.000000   0.000036   0.000001  -0.025787   0.001731
    14  N   -0.000000   0.000000   0.000000   0.000000   0.001700   0.000041
    15  C    0.000039   0.000001  -0.000002  -0.000000   0.000035   0.000000
    16  N    0.000000   0.000000  -0.000000   0.000000   0.000001   0.000000
    17  C    0.000479   0.000341   0.000036   0.000000  -0.000003  -0.000000
    18  N    0.000163  -0.000705   0.000001   0.000000  -0.000000   0.000000
              13         14         15         16         17         18
     1  C    0.005716   0.000021   0.005904   0.000043  -0.015519  -0.000379
     2  C   -0.000181  -0.000001  -0.000176  -0.000001   0.001106   0.000092
     3  C    0.005479  -0.000051  -0.013915  -0.000467   0.005623   0.000026
     4  C    0.389828  -0.041591   0.000999   0.000092  -0.000205  -0.000001
     5  C   -0.014872  -0.000384   0.000618  -0.000222   0.006283   0.000116
     6  C    0.000930   0.000061   0.379590  -0.038949   0.390876  -0.042225
     7  C   -0.000003  -0.000000   0.000039   0.000000   0.000479   0.000163
     8  N   -0.000000   0.000000   0.000001   0.000000   0.000341  -0.000705
     9  C    0.000036   0.000000  -0.000002  -0.000000   0.000036   0.000001
    10  N    0.000001   0.000000  -0.000000   0.000000   0.000000   0.000000
    11  C   -0.025787   0.001700   0.000035   0.000001  -0.000003  -0.000000
    12  N    0.001731   0.000041   0.000000   0.000000  -0.000000   0.000000
    13  C    4.825758   0.918397   0.000501   0.000273   0.000042   0.000000
    14  N    0.918397   6.185504   0.000354  -0.000765   0.000001   0.000000
    15  C    0.000501   0.000354   4.809287   0.962584  -0.024436   0.001494
    16  N    0.000273  -0.000765   0.962584   6.094700   0.001524   0.000031
    17  C    0.000042   0.000001  -0.024436   0.001524   4.835139   0.897694
    18  N    0.000000   0.000000   0.001494   0.000031   0.897694   6.230673
 Mulliken charges:
               1
     1  C    0.135539
     2  C   -0.471296
     3  C    0.143677
     4  C   -0.481264
     5  C    0.152658
     6  C   -0.475413
     7  C   -0.087555
     8  N   -0.119384
     9  C   -0.128651
    10  N   -0.009702
    11  C   -0.114429
    12  N   -0.045365
    13  C   -0.107848
    14  N   -0.063286
    15  C   -0.122877
    16  N   -0.018844
    17  C   -0.098982
    18  N   -0.086979
 Sum of Mulliken charges =  -2.00000
 Mulliken charges with hydrogens summed into heavy atoms:
               1
     1  C    0.135539
     2  C   -0.471296
     3  C    0.143677
     4  C   -0.481264
     5  C    0.152658
     6  C   -0.475413
     7  C   -0.087555
     8  N   -0.119384
     9  C   -0.128651
    10  N   -0.009702
    11  C   -0.114429
    12  N   -0.045365
    13  C   -0.107848
    14  N   -0.063286
    15  C   -0.122877
    16  N   -0.018844
    17  C   -0.098982
    18  N   -0.086979
 Electronic spatial extent (au):  <R**2>=          39492.2334
 Charge=             -2.0000 electrons
 Dipole moment (field-independent basis, Debye):
    X=             86.3926    Y=             15.9116    Z=             -9.9470  Tot=             88.4070
 Quadrupole moment (field-independent basis, Debye-Ang):
   XX=           -976.6852   YY=           -224.0787   ZZ=           -114.5931
   XY=           -139.8355   XZ=             90.6567   YZ=              7.0002
 Traceless Quadrupole moment (field-independent basis, Debye-Ang):
   XX=           -538.2329   YY=            214.3736   ZZ=            323.8592
   XY=           -139.8355   XZ=             90.6567   YZ=              7.0002
 Octapole moment (field-independent basis, Debye-Ang**2):
  XXX=          12351.5222  YYY=           1132.2448  ZZZ=           -332.8987  XYY=           1997.4119
  XXY=           1489.8849  XXZ=          -1037.8694  XZZ=           1028.2422  YZZ=            176.1516
  YYZ=           -192.8621  XYZ=            -62.6785
 Hexadecapole moment (field-independent basis, Debye-Ang**3):
 XXXX=        -163703.0124 YYYY=          -8778.7695 ZZZZ=           -813.8842 XXXY=         -17786.3474
 XXXZ=          13240.8693 YYYX=         -10065.9900 YYYZ=            750.2237 ZZZX=           3000.4416
 ZZZY=            377.7454 XXYY=         -19704.0669 XXZZ=         -10035.6512 YYZZ=          -1052.2765
 XXYZ=            738.9607 YYXZ=           1742.1456 ZZXY=          -1571.9642
 N-N= 9.484693316076D+02 E-N=-3.750093364941D+03  KE= 7.766537032474D+02
   1 Symmetry operations used in ECPInt.
 ECPInt:  NShTT=    5886 NPrTT=   23670 LenC2=    5385 LenP2D=   14823.
 LDataN:  DoStor=T MaxTD1= 5 Len=  102
 D1PCM: PCM CHGder 1st derivatives, ID1Alg=3 FixD1E=F DoIter=F DoCFld=F I1PDM=0.
 Calling FoFJK, ICntrl=      2127 FMM=F ISym2X=0 I1Cent= 0 IOpClX= 0 NMat=1 NMatS=1 NMatT=0.
 -------------------------------------------------------------------
 Center     Atomic                   Forces (Hartrees/Bohr)
 Number     Number              X              Y              Z
 -------------------------------------------------------------------
      1        6          -0.000484816   -0.080552675   -0.007964595
      2        6           0.020609712    0.017532399    0.001545737
      3        6          -0.077889933    0.042234985    0.004894090
      4        6           0.022469232   -0.010611876   -0.001624894
      5        6           0.087491613    0.048844626    0.004082957
      6        6          -0.027428494   -0.029182420   -0.002253158
      7        6          -0.067663841    0.025000161    0.004163038
      8        7           0.077399219   -0.034156110   -0.004926993
      9        6          -0.139940914   -0.077121329   -0.007777667
     10        7           0.108256553    0.052577754    0.005570856
     11        6          -0.047765132   -0.021959709   -0.001592167
     12        7           0.020342721    0.010514294    0.000792451
     13        6          -0.005890363    0.015537527    0.001386851
     14        7           0.002829130    0.010814039    0.001309168
     15        6           0.002274897    0.123435972    0.009374507
     16        7           0.004505373   -0.085947721   -0.006434667
     17        6          -0.018314419    0.023833880    0.001947703
     18        7           0.039199463   -0.030793797   -0.002493216
 -------------------------------------------------------------------
 Cartesian Forces:  Max     0.139940914 RMS     0.045098514

 GradGradGradGradGradGradGradGradGradGradGradGradGradGradGradGradGradGrad
 Berny optimization.
 Search for a local minimum.
 Step number   1 out of a maximum of    2
 All quantities printed in internal units (Hartrees-Bohrs-Radians)
 Second derivative matrix not updated -- first step.
 ITU=  0
     Eigenvalues ---    0.00080   0.00124   0.00180   0.00291   0.00291
     Eigenvalues ---    0.00696   0.01472   0.01591   0.01908   0.01924
     Eigenvalues ---    0.03588   0.03667   0.04982   0.05149   0.09745
     Eigenvalues ---    0.14201   0.18784   0.19234   0.22756   0.23994
     Eigenvalues ---    0.24477   0.24746   0.28961   0.29392   0.43830
     Eigenvalues ---    0.59771   0.61863   0.69171   0.70790   0.74266
     Eigenvalues ---    0.96214   0.96730   1.03546   1.40206   1.44810
     Eigenvalues ---    1.56799   1.73355   1.81650   2.33108   2.50212
     Eigenvalues ---    2.69562   2.87544   3.20824   3.33518   3.39119
     Eigenvalues ---    3.44998   5.19110   5.50723
 Quadratic step=6.281D-01 exceeds max=3.000D-01 adjusted using Lamda=-8.516D-02.
 Angle between NR and scaled steps=  27.24 degrees.
 Angle between quadratic step and forces=  57.32 degrees.
 Linear search not attempted -- first point.
 B after Tr=     0.000395   -0.000277    0.000012
         Rot=    1.000000    0.000003    0.000001    0.000004 Ang=   0.00 deg.
 Variable       Old X    -DE/DX   Delta X   Delta X   Delta X     New X
                                 (Linear)    (Quad)   (Total)
    X1      -16.89175  -0.00048   0.00000   0.00051   0.00089 -16.89086
    Y1       -1.65579  -0.08055   0.00000  -0.06064  -0.06078  -1.71657
    Z1        2.10187  -0.00796   0.00000  -0.00582  -0.00584   2.09603
    X2      -16.90234   0.02061   0.00000  -0.00355  -0.00316 -16.90549
    Y2        1.01575   0.01753   0.00000  -0.05166  -0.05180   0.96395
    Z2        2.37199   0.00155   0.00000  -0.00440  -0.00444   2.36755
    X3      -15.50480  -0.07789   0.00000  -0.05877  -0.05841 -15.56321
    Y3       -4.03354   0.04223   0.00000   0.03470   0.03455  -3.99899
    Z3        1.85435   0.00489   0.00000   0.00355   0.00355   1.85790
    X4      -13.20167   0.02247   0.00000  -0.04148  -0.04113 -13.24281
    Y4       -5.36123  -0.01061   0.00000   0.02196   0.02179  -5.33943
    Z4        1.69796  -0.00162   0.00000   0.00109   0.00110   1.69905
    X5      -18.29830   0.08749   0.00000   0.06690   0.06726 -18.23104
    Y5       -4.04860   0.04884   0.00000   0.04049   0.04037  -4.00823
    Z5        1.87730   0.00408   0.00000   0.00366   0.00365   1.88095
    X6      -20.58474  -0.02743   0.00000   0.03306   0.03341 -20.55133
    Y6       -5.35601  -0.02918   0.00000   0.02307   0.02296  -5.33305
    Z6        1.76935  -0.00225   0.00000   0.00255   0.00254   1.77189
    X7      -19.22406  -0.06766   0.00000   0.00484   0.00525 -19.21881
    Y7        2.36305   0.02500   0.00000  -0.04735  -0.04747   2.31558
    Z7        2.53735   0.00416   0.00000  -0.00351  -0.00356   2.53379
    X8      -21.28204   0.07740   0.00000   0.09231   0.09273 -21.18931
    Y8        3.33843  -0.03416   0.00000  -0.03841  -0.03851   3.29993
    Z8        2.67189  -0.00493   0.00000  -0.00571  -0.00578   2.66612
    X9      -14.48857  -0.13994   0.00000  -0.07380  -0.07339 -14.56197
    Y9        2.42094  -0.07712   0.00000  -0.09243  -0.09258   2.32836
    Z9        2.50834  -0.00778   0.00000  -0.00777  -0.00781   2.50053
   X10      -12.55847   0.10826   0.00000  -0.02890  -0.02849 -12.58696
   Y10        3.27746   0.05258   0.00000  -0.00403  -0.00420   3.27327
   Z10        2.60382   0.00557   0.00000  -0.00163  -0.00167   2.60215
   X11      -10.80643  -0.04777   0.00000  -0.08333  -0.08297 -10.88940
   Y11       -4.00708  -0.02196   0.00000  -0.00621  -0.00639  -4.01347
   Z11        1.79712  -0.00159   0.00000  -0.00049  -0.00048   1.79664
   X12       -9.01286   0.02034   0.00000  -0.03904  -0.03867  -9.05152
   Y12       -2.76953   0.01051   0.00000  -0.03409  -0.03428  -2.80382
   Z12        1.88500   0.00079   0.00000  -0.00155  -0.00155   1.88345
   X13      -13.18719  -0.00589   0.00000  -0.03418  -0.03385 -13.22104
   Y13       -8.08479   0.01554   0.00000   0.06270   0.06254  -8.02225
   Z13        1.39711   0.00139   0.00000   0.00556   0.00558   1.40269
   X14      -13.33732   0.00283   0.00000   0.00734   0.00765 -13.32966
   Y14      -10.27365   0.01081   0.00000   0.06418   0.06401 -10.20964
   Z14        1.14623   0.00131   0.00000   0.00769   0.00773   1.15396
   X15      -20.62944   0.00227   0.00000   0.04370   0.04403 -20.58541
   Y15       -8.13791   0.12344   0.00000   0.09835   0.09824  -8.03967
   Z15        1.55066   0.00937   0.00000   0.00874   0.00874   1.55940
   X16      -20.40825   0.00451   0.00000  -0.01156  -0.01124 -20.41949
   Y16      -10.25534  -0.08595   0.00000   0.03310   0.03299 -10.22236
   Z16        1.39172  -0.00643   0.00000   0.00252   0.00253   1.39425
   X17      -22.95854  -0.01831   0.00000   0.05751   0.05787 -22.90067
   Y17       -4.02344   0.02383   0.00000   0.00979   0.00970  -4.01374
   Z17        1.87684   0.00195   0.00000   0.00038   0.00035   1.87719
   X18      -24.79887   0.03920   0.00000   0.06186   0.06223 -24.73665
   Y18       -2.74489  -0.03079   0.00000  -0.05109  -0.05116  -2.79605
   Z18        1.97547  -0.00249   0.00000  -0.00459  -0.00462   1.97085
         Item               Value     Threshold  Converged?
 Maximum Force            0.139941     0.000450     NO 
 RMS     Force            0.045099     0.000300     NO 
 Maximum Displacement     0.098244     0.001800     NO 
 RMS     Displacement     0.040835     0.001200     NO 
 Predicted change in Energy=-3.068198D-02
 GradGradGradGradGradGradGradGradGradGradGradGradGradGradGradGradGradGrad

 Unable to Open any file for archive entry.
 1\1\GINC-X10P1N4\Force\RwB97XD\def2SVP\C12N6(2-)\MAYUMIAO\11-Oct-2024\
 0\\# wb97xd def2svp scrf=(smd,solvent=acetonitrile) g09default scf=(xq
 c,maxcycle=64) force guess=read nosymm\\Title Card\\-2,1\C,-8.93873024
 ,-0.87620691,1.11226393\C,-8.94433124,0.53751021,1.25520143\C,-8.20478
 766,-2.1344599,0.98127897\C,-6.98602362,-2.83704026,0.89852088\C,-9.68
 304368,-2.1424278,0.99342451\C,-10.89297409,-2.83427863,0.93629922\C,-
 10.17293295,1.25047315,1.34270868\N,-11.26197121,1.76662366,1.41390515
 \C,-7.66702234,1.28110631,1.32735732\N,-6.6456538,1.73435934,1.3778826
 2\C,-5.71851809,-2.12045464,0.95099296\N,-4.76939786,-1.46557344,0.997
 49971\C,-6.9783594,-4.2782853,0.7393173\N,-7.05780403,-5.43658217,0.60
 655801\C,-10.91662931,-4.30639834,0.82057447\N,-10.79958011,-5.4268937
 5,0.73646614\C,-12.14913689,-2.12911532,0.99318002\N,-13.12299837,-1.4
 5253423,1.04537357\\Version=ES64L-G16RevC.01\HF=-784.9956794\RMSD=6.64
 8e-09\RMSF=4.510e-02\Dipole=0.2025873,-0.2213755,-0.0229116\Quadrupole
 =-400.1629835,159.3815637,240.7814199,-103.964293,67.4010578,5.2044892
 \PG=C01 [X(C12N6)]\\@
 The archive entry for this job was punched.


 ADAM SMITH SAID, "THE REAL PRICE OF ANYTHING IS THE TOIL AND TROUBLE
 OF ACQUIRING IT."  BUT IN ALL UNDERTAKINGS WITH NATURE WE SHOULD FIRST
 READ CAREFULLY THE SMALL PRINT IN THE CONTRACT. THIS MIGHT DISCLOSE
 THAT THE REAL PRICE IS TO BE PAID BY THOSE WHO INHERIT THE DEPLETION
 AND DESPOILATION THAT FOLLOWS.
                               -- E. R. HARRISON IN "COSMOLOGY" (1980)
 Job cpu time:       0 days  0 hours 10 minutes 16.4 seconds.
 Elapsed time:       0 days  0 hours  0 minutes 23.3 seconds.
 File lengths (MBytes):  RWF=    150 Int=      0 D2E=      0 Chk=      8 Scr=      1
 Normal termination of Gaussian 16 at Fri Oct 11 15:45:29 2024.
