 Entering Gaussian System, Link 0=g16
 Input=JOBS/19_B.gjf
 Output=JOBS/19_B.log
 Initial command:
 /data/app/gaussian/C01-avx2//g16/l1.exe "/tmp/Gau-2531935.inp" -scrdir="/tmp/"
 Entering Link 1 = /data/app/gaussian/C01-avx2//g16/l1.exe PID=   2531936.
  
 Copyright (c) 1988-2019, Gaussian, Inc.  All Rights Reserved.
  
 This is part of the Gaussian(R) 16 program.  It is based on
 the Gaussian(R) 09 system (copyright 2009, Gaussian, Inc.),
 the Gaussian(R) 03 system (copyright 2003, Gaussian, Inc.),
 the Gaussian(R) 98 system (copyright 1998, Gaussian, Inc.),
 the Gaussian(R) 94 system (copyright 1995, Gaussian, Inc.),
 the Gaussian 92(TM) system (copyright 1992, Gaussian, Inc.),
 the Gaussian 90(TM) system (copyright 1990, Gaussian, Inc.),
 the Gaussian 88(TM) system (copyright 1988, Gaussian, Inc.),
 the Gaussian 86(TM) system (copyright 1986, Carnegie Mellon
 University), and the Gaussian 82(TM) system (copyright 1983,
 Carnegie Mellon University). Gaussian is a federally registered
 trademark of Gaussian, Inc.
  
 This software contains proprietary and confidential information,
 including trade secrets, belonging to Gaussian, Inc.
  
 This software is provided under written license and may be
 used, copied, transmitted, or stored only in accord with that
 written license.
  
 The following legend is applicable only to US Government
 contracts under FAR:
  
                    RESTRICTED RIGHTS LEGEND
  
 Use, reproduction and disclosure by the US Government is
 subject to restrictions as set forth in subparagraphs (a)
 and (c) of the Commercial Computer Software - Restricted
 Rights clause in FAR 52.227-19.
  
 Gaussian, Inc.
 340 Quinnipiac St., Bldg. 40, Wallingford CT 06492
  
  
 ---------------------------------------------------------------
 Warning -- This program may not be used in any manner that
 competes with the business of Gaussian, Inc. or will provide
 assistance to any competitor of Gaussian, Inc.  The licensee
 of this program is prohibited from giving any competitor of
 Gaussian, Inc. access to this program.  By using this program,
 the user acknowledges that Gaussian, Inc. is engaged in the
 business of creating and licensing software in the field of
 computational chemistry and represents and warrants to the
 licensee that it is not a competitor of Gaussian, Inc. and that
 it will not use this program in any manner prohibited above.
 ---------------------------------------------------------------
  

 Cite this work as:
 Gaussian 16, Revision C.01,
 M. J. Frisch, G. W. Trucks, H. B. Schlegel, G. E. Scuseria, 
 M. A. Robb, J. R. Cheeseman, G. Scalmani, V. Barone, 
 G. A. Petersson, H. Nakatsuji, X. Li, M. Caricato, A. V. Marenich, 
 J. Bloino, B. G. Janesko, R. Gomperts, B. Mennucci, H. P. Hratchian, 
 J. V. Ortiz, A. F. Izmaylov, J. L. Sonnenberg, D. Williams-Young, 
 F. Ding, F. Lipparini, F. Egidi, J. Goings, B. Peng, A. Petrone, 
 T. Henderson, D. Ranasinghe, V. G. Zakrzewski, J. Gao, N. Rega, 
 G. Zheng, W. Liang, M. Hada, M. Ehara, K. Toyota, R. Fukuda, 
 J. Hasegawa, M. Ishida, T. Nakajima, Y. Honda, O. Kitao, H. Nakai, 
 T. Vreven, K. Throssell, J. A. Montgomery, Jr., J. E. Peralta, 
 F. Ogliaro, M. J. Bearpark, J. J. Heyd, E. N. Brothers, K. N. Kudin, 
 V. N. Staroverov, T. A. Keith, R. Kobayashi, J. Normand, 
 K. Raghavachari, A. P. Rendell, J. C. Burant, S. S. Iyengar, 
 J. Tomasi, M. Cossi, J. M. Millam, M. Klene, C. Adamo, R. Cammi, 
 J. W. Ochterski, R. L. Martin, K. Morokuma, O. Farkas, 
 J. B. Foresman, and D. J. Fox, Gaussian, Inc., Wallingford CT, 2019.
 
 ******************************************
 Gaussian 16:  ES64L-G16RevC.01  3-Jul-2019
                11-Oct-2024 
 ******************************************
 %chk=b.chk
 %nprocshared=28
 Will use up to   28 processors via shared memory.
 %mem=48gb
 ----------------------------------------------------------------------
 # wb97xd def2svp scrf=(smd,solvent=acetonitrile) g09default scf=(xqc,m
 axcycle=64) force guess=read nosymm
 ----------------------------------------------------------------------
 1/10=7,30=1,38=1,158=3,167=1/1,3;
 2/12=2,15=1,17=6,18=5,40=1/2;
 3/5=43,7=101,11=2,25=1,27=10,30=1,70=32201,71=1,72=2,74=-58,75=-4,116=-2,158=3/1,2,3;
 4/5=1,60=-1/1;
 5/5=2,7=64,8=3,13=1,38=6,53=2,87=10/2,8;
 6/7=2,8=2,9=2,10=2,28=1,87=10/1;
 7/29=1,30=1,87=10/1,2,3,16;
 1/10=7,30=1,158=3,167=1/3;
 99//99;
 Using 2006 physical constants.
 ----------
 Title Card
 ----------
 Symbolic Z-matrix:
 Charge = -1 Multiplicity = 2
 6                    -8.93873  -0.87621   1.11226 
 6                    -8.94433   0.53751   1.2552 
 6                    -8.20479  -2.13446   0.98128 
 6                    -6.98602  -2.83704   0.89852 
 6                    -9.68304  -2.14243   0.99342 
 6                    -10.89297  -2.83428   0.9363 
 6                    -10.17293   1.25047   1.34271 
 7                    -11.26197   1.76662   1.41391 
 6                    -7.66702   1.28111   1.32736 
 7                    -6.64565   1.73436   1.37788 
 6                    -5.71852  -2.12045   0.95099 
 7                    -4.7694   -1.46557   0.9975 
 6                    -6.97836  -4.27829   0.73932 
 7                    -7.0578   -5.43658   0.60656 
 6                    -10.91663  -4.3064    0.82057 
 7                    -10.79958  -5.42689   0.73647 
 6                    -12.14914  -2.12912   0.99318 
 7                    -13.123   -1.45253   1.04537 
 

 GradGradGradGradGradGradGradGradGradGradGradGradGradGradGradGradGradGrad
 Berny optimization.
 Initialization pass.
 Trust Radius=3.00D-01 FncErr=1.00D-07 GrdErr=1.00D-07 EigMax=2.50D+02 EigMin=1.00D-04
 Number of steps in this run=      2 maximum allowed number of steps=      2.
 GradGradGradGradGradGradGradGradGradGradGradGradGradGradGradGradGradGrad

                          Input orientation:                          
 ---------------------------------------------------------------------
 Center     Atomic      Atomic             Coordinates (Angstroms)
 Number     Number       Type             X           Y           Z
 ---------------------------------------------------------------------
      1          6           0       -8.938730   -0.876207    1.112264
      2          6           0       -8.944331    0.537510    1.255201
      3          6           0       -8.204788   -2.134460    0.981279
      4          6           0       -6.986024   -2.837040    0.898521
      5          6           0       -9.683044   -2.142428    0.993425
      6          6           0      -10.892974   -2.834279    0.936299
      7          6           0      -10.172933    1.250473    1.342709
      8          7           0      -11.261971    1.766624    1.413905
      9          6           0       -7.667022    1.281106    1.327357
     10          7           0       -6.645654    1.734359    1.377883
     11          6           0       -5.718518   -2.120455    0.950993
     12          7           0       -4.769398   -1.465573    0.997500
     13          6           0       -6.978359   -4.278285    0.739317
     14          7           0       -7.057804   -5.436582    0.606558
     15          6           0      -10.916629   -4.306398    0.820574
     16          7           0      -10.799580   -5.426894    0.736466
     17          6           0      -12.149137   -2.129115    0.993180
     18          7           0      -13.122998   -1.452534    1.045374
 ---------------------------------------------------------------------
                    Distance matrix (angstroms):
                    1          2          3          4          5
     1  C    0.000000
     2  C    1.420936   0.000000
     3  C    1.462542   2.785926   0.000000
     4  C    2.775539   3.917880   1.409203   0.000000
     5  C    1.473581   2.792184   1.478327   2.786649   0.000000
     6  C    2.772017   3.907412   2.778150   3.907134   1.394938
     7  C    2.469642   1.423178   3.932175   5.202063   3.445833
     8  N    3.531712   2.628186   4.975137   6.304211   4.236803
     9  C    2.513465   1.479750   3.474918   4.196045   3.987034
    10  N    3.484797   2.594497   4.189983   4.609049   4.939942
    11  C    3.455999   4.190846   2.486493   1.456990   3.964814
    12  N    4.212346   4.637761   3.499939   2.608476   4.960047
    13  C    3.944145   5.227147   2.481665   1.450032   3.455687
    14  N    4.958895   6.298373   3.515679   2.616871   4.230012
    15  C    3.970312   5.248077   3.478107   4.196993   2.496874
    16  N    4.930795   6.267787   4.199167   4.612680   3.478563
    17  C    3.448285   4.177359   3.944371   5.212279   2.466129
    18  N    4.224302   4.633094   4.965675   6.292923   3.508837
                    6          7          8          9         10
     6  C    0.000000
     7  C    4.167592   0.000000
     8  N    4.640320   1.207263   0.000000
     9  C    5.243671   2.506145   3.628619   0.000000
    10  N    6.253573   3.560489   4.616571   1.118564   0.000000
    11  C    5.223481   5.599858   6.786276   3.938139   3.987657
    12  N    6.274973   6.057580   7.264572   4.006156   3.728887
    13  C    4.177100   6.413778   7.439444   5.632662   6.055605
    14  N    4.646423   7.413680   8.379320   6.783660   7.224072
    15  C    1.476851   5.630678   6.111702   6.483593   7.419069
    16  N    2.601982   6.734051   7.240126   7.426933   8.303618
    17  C    1.441678   3.930543   4.017568   5.641865   6.735188
    18  N    2.625666   4.012174   3.736605   6.109008   7.226538
                   11         12         13         14         15
    11  C    0.000000
    12  N    1.154063   0.000000
    13  C    2.507636   3.585738   0.000000
    14  N    3.592913   4.599842   1.168584   0.000000
    15  C    5.640542   6.774219   3.939208   4.026618   0.000000
    16  N    6.065950   7.219646   3.990117   3.744043   1.129728
    17  C    6.430763   7.409511   5.605383   6.083624   2.507873
    18  N    7.435143   8.353748   6.770165   7.269923   3.614297
                   16         17         18
    16  N    0.000000
    17  C    3.572471   0.000000
    18  N    4.614025   1.186968   0.000000
 Symmetry turned off by external request.
 Stoichiometry    C12N6(1-,2)
 Framework group  C1[X(C12N6)]
 Deg. of freedom    48
 Full point group                 C1      NOp   1
 Rotational constants (GHZ):           0.4156147           0.4137329           0.2073597
 Standard basis: def2SVP (5D, 7F)
   252 basis functions,   450 primitive gaussians,   270 cartesian basis functions
    58 alpha electrons       57 beta electrons
       nuclear repulsion energy       948.4719516048 Hartrees.
 NAtoms=   18 NActive=   18 NUniq=   18 SFac= 1.00D+00 NAtFMM=   60 NAOKFM=F Big=F
 Integral buffers will be    131072 words long.
 Raffenetti 2 integral format.
 Two-electron integral symmetry is turned off.
 Nuclear repulsion after empirical dispersion term =      948.4606682908 Hartrees.
 Force PCM accuracy= 1.00D-10.
 ------------------------------------------------------------------------------
 Polarizable Continuum Model (PCM)
 =================================
 Model                : PCM (using non-symmetric T matrix).
 Atomic radii         : SMD-Coulomb.
 Polarization charges : Total charges.
 Charge compensation  : None.
 Solution method      : On-the-fly selection.
 Cavity type          : VdW (van der Waals Surface) (Alpha=1.000).
 Cavity algorithm     : GePol (No added spheres)
                        Default sphere list used, NSphG=   18.
                        Lebedev-Laikov grids with approx.  5.0 points / Ang**2.
                        Smoothing algorithm: York/Karplus (Gamma=1.0000).
                        Polarization charges: spherical gaussians, with
                                              point-specific exponents (IZeta= 3).
                        Self-potential: point-specific (ISelfS= 7).
                        Self-field    : sphere-specific E.n sum rule (ISelfD= 2).
 1st derivatives      : Analytical E(r).r(x)/FMM algorithm (CHGder, D1EAlg=3).
                        Cavity 1st derivative terms included.
 Solvent              : Acetonitrile, Eps=  35.688000 Eps(inf)=   1.806874
 ------------------------------------------------------------------------------
 Spheres list:
 ISph  on   Nord     Re0    Alpha      Xe            Ye            Ze
    1   C      1    1.8500  1.000     -8.938730     -0.876207      1.112264
    2   C      2    1.8500  1.000     -8.944331      0.537510      1.255201
    3   C      3    1.8500  1.000     -8.204788     -2.134460      0.981279
    4   C      4    1.8500  1.000     -6.986024     -2.837040      0.898521
    5   C      5    1.8500  1.000     -9.683044     -2.142428      0.993425
    6   C      6    1.8500  1.000    -10.892974     -2.834279      0.936299
    7   C      7    1.8500  1.000    -10.172933      1.250473      1.342709
    8   N      8    1.8900  1.000    -11.261971      1.766624      1.413905
    9   C      9    1.8500  1.000     -7.667022      1.281106      1.327357
   10   N     10    1.8900  1.000     -6.645654      1.734359      1.377883
   11   C     11    1.8500  1.000     -5.718518     -2.120455      0.950993
   12   N     12    1.8900  1.000     -4.769398     -1.465573      0.997500
   13   C     13    1.8500  1.000     -6.978359     -4.278285      0.739317
   14   N     14    1.8900  1.000     -7.057804     -5.436582      0.606558
   15   C     15    1.8500  1.000    -10.916629     -4.306398      0.820574
   16   N     16    1.8900  1.000    -10.799580     -5.426894      0.736466
   17   C     17    1.8500  1.000    -12.149137     -2.129115      0.993180
   18   N     18    1.8900  1.000    -13.122998     -1.452534      1.045374
 ------------------------------------------------------------------------------
 ------------------------------------------------------------------------------
 Atomic radii for non-electrostatic terms: SMD-CDS.
 ------------------------------------------------------------------------------
 Nuclear repulsion after PCM non-electrostatic terms =      948.4693316076 Hartrees.
 One-electron integrals computed using PRISM.
   1 Symmetry operations used in ECPInt.
 ECPInt:  NShTT=    5886 NPrTT=   23670 LenC2=    5385 LenP2D=   14823.
 LDataN:  DoStor=T MaxTD1= 4 Len=   56
 NBasis=   252 RedAO= T EigKep=  3.18D-04  NBF=   252
 NBsUse=   252 1.00D-06 EigRej= -1.00D+00 NBFU=   252
 Initial guess from the checkpoint file:  "b.chk"
 B after Tr=    -0.000770    0.000026   -0.001557
         Rot=    1.000000   -0.000052   -0.000055    0.000005 Ang=  -0.01 deg.
 Initial guess <Sx>= 0.0000 <Sy>= 0.0000 <Sz>= 0.5000 <S**2>= 0.7837 S= 0.5167
 Requested convergence on RMS density matrix=1.00D-08 within  64 cycles.
 Requested convergence on MAX density matrix=1.00D-06.
 Requested convergence on             energy=1.00D-06.
 No special actions if energy rises.
 Inv3:  Mode=1 IEnd=    19706907.
 Iteration    1 A*A^-1 deviation from unit magnitude is 3.11D-15 for    420.
 Iteration    1 A*A^-1 deviation from orthogonality  is 3.29D-15 for   1852    275.
 Iteration    1 A^-1*A deviation from unit magnitude is 3.33D-15 for    615.
 Iteration    1 A^-1*A deviation from orthogonality  is 1.54D-11 for   2201   1119.
 Error on total polarization charges =  0.02027
 SCF Done:  E(UwB97XD) =  -784.828848934     A.U. after   19 cycles
            NFock= 19  Conv=0.95D-08     -V/T= 2.0108
 <Sx>= 0.0000 <Sy>= 0.0000 <Sz>= 0.5000 <S**2>= 0.7908 S= 0.5202
 <L.S>=  0.00000000000    
 SMD-CDS (non-electrostatic) energy       (kcal/mol) =       5.44
 (included in total energy above)
 Annihilation of the first spin contaminant:
 S**2 before annihilation     0.7908,   after     0.7513
 QCSCF skips out because SCF is already converged.

 **********************************************************************

            Population analysis using the SCF Density.

 **********************************************************************

 Alpha  occ. eigenvalues --  -14.46965 -14.46629 -14.46242 -14.45953 -14.45475
 Alpha  occ. eigenvalues --  -14.45210 -10.39539 -10.39510 -10.39505 -10.39216
 Alpha  occ. eigenvalues --  -10.39150 -10.39109 -10.37161 -10.36887 -10.36563
 Alpha  occ. eigenvalues --  -10.36292 -10.35854 -10.35623  -1.03429  -1.02801
 Alpha  occ. eigenvalues --   -1.02251  -1.01372  -1.00788  -1.00240  -0.99579
 Alpha  occ. eigenvalues --   -0.91351  -0.91177  -0.88546  -0.71634  -0.71139
 Alpha  occ. eigenvalues --   -0.68034  -0.67812  -0.67285  -0.66549  -0.54022
 Alpha  occ. eigenvalues --   -0.50501  -0.50438  -0.49220  -0.48904  -0.47720
 Alpha  occ. eigenvalues --   -0.47643  -0.47590  -0.47064  -0.46838  -0.46558
 Alpha  occ. eigenvalues --   -0.46041  -0.45619  -0.44978  -0.44931  -0.44835
 Alpha  occ. eigenvalues --   -0.44705  -0.43873  -0.43355  -0.43175  -0.42112
 Alpha  occ. eigenvalues --   -0.35677  -0.35453  -0.27583
 Alpha virt. eigenvalues --    0.03591   0.03845   0.06082   0.06817   0.06855
 Alpha virt. eigenvalues --    0.08758   0.10206   0.10336   0.10792   0.11111
 Alpha virt. eigenvalues --    0.11940   0.14118   0.18664   0.18791   0.20026
 Alpha virt. eigenvalues --    0.22824   0.23659   0.23705   0.25827   0.25879
 Alpha virt. eigenvalues --    0.27303   0.28635   0.28913   0.31088   0.31196
 Alpha virt. eigenvalues --    0.31200   0.33510   0.45098   0.45201   0.49532
 Alpha virt. eigenvalues --    0.49840   0.50814   0.51689   0.52760   0.53233
 Alpha virt. eigenvalues --    0.53363   0.53989   0.54608   0.55593   0.59657
 Alpha virt. eigenvalues --    0.60191   0.60348   0.60577   0.60782   0.62927
 Alpha virt. eigenvalues --    0.63424   0.67464   0.68624   0.68957   0.69423
 Alpha virt. eigenvalues --    0.69478   0.71915   0.72062   0.72188   0.72635
 Alpha virt. eigenvalues --    0.72813   0.72942   0.73669   0.74247   0.74351
 Alpha virt. eigenvalues --    0.77358   0.77559   0.78281   0.80548   0.80649
 Alpha virt. eigenvalues --    0.82884   0.83326   0.85156   0.86259   0.91636
 Alpha virt. eigenvalues --    0.91930   0.92543   0.92996   0.93677   0.94032
 Alpha virt. eigenvalues --    0.94783   0.97523   0.98002   0.98103   0.98286
 Alpha virt. eigenvalues --    1.00058   1.00420   1.00754   1.00868   1.01674
 Alpha virt. eigenvalues --    1.02991   1.03782   1.05028   1.06200   1.10207
 Alpha virt. eigenvalues --    1.10938   1.15139   1.15798   1.16232   1.17900
 Alpha virt. eigenvalues --    1.20285   1.21203   1.22075   1.23696   1.31508
 Alpha virt. eigenvalues --    1.32521   1.32592   1.38445   1.38860   1.41529
 Alpha virt. eigenvalues --    1.42792   1.43290   1.44213   1.45554   1.55519
 Alpha virt. eigenvalues --    1.55613   1.66164   1.67710   1.67904   1.68437
 Alpha virt. eigenvalues --    1.68796   1.69103   1.73751   1.73921   1.75559
 Alpha virt. eigenvalues --    1.76110   1.77064   1.77217   1.78249   1.78887
 Alpha virt. eigenvalues --    1.79103   1.79610   1.83105   1.89267   1.90952
 Alpha virt. eigenvalues --    1.92500   1.96728   1.96945   1.98716   1.99790
 Alpha virt. eigenvalues --    2.01640   2.02918   2.02975   2.09257   2.09676
 Alpha virt. eigenvalues --    2.10928   2.17150   2.17441   2.17931   2.22562
 Alpha virt. eigenvalues --    2.22881   2.23473   2.23738   2.30377   2.30552
 Alpha virt. eigenvalues --    2.31822   2.32443   2.32917   2.33526   2.34010
 Alpha virt. eigenvalues --    2.34325   2.34355   2.35447   2.35852   2.35903
 Alpha virt. eigenvalues --    2.36926   2.37456   2.50580   2.52452   2.53132
 Alpha virt. eigenvalues --    2.62100   2.62657   2.86042   2.90292   2.92276
 Alpha virt. eigenvalues --    2.93023   2.95646   2.96732   2.97675   2.99826
 Alpha virt. eigenvalues --    3.02131   3.02705   3.03031   3.05485   3.08420
 Alpha virt. eigenvalues --    3.09296   3.10487   3.15956   3.16248   3.26461
 Alpha virt. eigenvalues --    3.34078   3.35647   3.36469   3.47193   3.50220
 Alpha virt. eigenvalues --    3.50793   3.60086   3.62833   3.70528
  Beta  occ. eigenvalues --  -14.46712 -14.46429 -14.46059 -14.45786 -14.45340
  Beta  occ. eigenvalues --  -14.45075 -10.39577 -10.39551 -10.39547 -10.38838
  Beta  occ. eigenvalues --  -10.38798 -10.38745 -10.37281 -10.36985 -10.36654
  Beta  occ. eigenvalues --  -10.36376 -10.35926 -10.35696  -1.03115  -1.02542
  Beta  occ. eigenvalues --   -1.01960  -1.01056  -1.00481  -0.99897  -0.99162
  Beta  occ. eigenvalues --   -0.90593  -0.90366  -0.87525  -0.71507  -0.71016
  Beta  occ. eigenvalues --   -0.67797  -0.67572  -0.67033  -0.66379  -0.53125
  Beta  occ. eigenvalues --   -0.49278  -0.49175  -0.49056  -0.48747  -0.47379
  Beta  occ. eigenvalues --   -0.47288  -0.47247  -0.46781  -0.46624  -0.46346
  Beta  occ. eigenvalues --   -0.45525  -0.45160  -0.44777  -0.44142  -0.44093
  Beta  occ. eigenvalues --   -0.43740  -0.43635  -0.43225  -0.43050  -0.41945
  Beta  occ. eigenvalues --   -0.32998  -0.32481
  Beta virt. eigenvalues --   -0.10110   0.04434   0.04743   0.06196   0.06902
  Beta virt. eigenvalues --    0.06944   0.08755   0.11141   0.11201   0.11249
  Beta virt. eigenvalues --    0.11568   0.11996   0.14412   0.18948   0.19078
  Beta virt. eigenvalues --    0.21550   0.22707   0.25232   0.25326   0.26038
  Beta virt. eigenvalues --    0.26066   0.27550   0.28747   0.29051   0.31564
  Beta virt. eigenvalues --    0.31651   0.31801   0.33640   0.45272   0.45352
  Beta virt. eigenvalues --    0.49644   0.49904   0.50904   0.51784   0.52926
  Beta virt. eigenvalues --    0.53208   0.53317   0.54097   0.54713   0.55747
  Beta virt. eigenvalues --    0.59583   0.60071   0.60206   0.60630   0.60835
  Beta virt. eigenvalues --    0.63002   0.63286   0.67834   0.68753   0.69111
  Beta virt. eigenvalues --    0.69573   0.69631   0.71978   0.72135   0.72307
  Beta virt. eigenvalues --    0.72841   0.73003   0.73105   0.73804   0.74349
  Beta virt. eigenvalues --    0.74461   0.77360   0.77550   0.79281   0.81278
  Beta virt. eigenvalues --    0.81423   0.83028   0.83449   0.85458   0.86355
  Beta virt. eigenvalues --    0.91770   0.92103   0.93235   0.93522   0.93901
  Beta virt. eigenvalues --    0.94597   0.95427   0.98139   0.98330   0.98530
  Beta virt. eigenvalues --    0.98588   1.00216   1.00589   1.00863   1.00975
  Beta virt. eigenvalues --    1.01868   1.03247   1.03891   1.05335   1.06451
  Beta virt. eigenvalues --    1.10302   1.11071   1.15346   1.16017   1.16474
  Beta virt. eigenvalues --    1.18192   1.20583   1.21458   1.22344   1.24253
  Beta virt. eigenvalues --    1.31653   1.32700   1.32783   1.39049   1.39458
  Beta virt. eigenvalues --    1.42304   1.42861   1.44011   1.44943   1.45637
  Beta virt. eigenvalues --    1.55549   1.55679   1.66022   1.67555   1.67735
  Beta virt. eigenvalues --    1.68224   1.68559   1.68813   1.73658   1.73835
  Beta virt. eigenvalues --    1.75688   1.76240   1.76971   1.77138   1.78110
  Beta virt. eigenvalues --    1.78788   1.79284   1.79461   1.82962   1.89431
  Beta virt. eigenvalues --    1.91065   1.92559   1.97265   1.97504   1.98899
  Beta virt. eigenvalues --    2.00094   2.02161   2.03004   2.03436   2.09678
  Beta virt. eigenvalues --    2.10007   2.11223   2.18125   2.18440   2.19077
  Beta virt. eigenvalues --    2.23277   2.23524   2.24083   2.24356   2.30937
  Beta virt. eigenvalues --    2.31121   2.32692   2.33131   2.33610   2.34214
  Beta virt. eigenvalues --    2.34542   2.34960   2.35009   2.35952   2.36396
  Beta virt. eigenvalues --    2.36461   2.37436   2.37961   2.50996   2.52549
  Beta virt. eigenvalues --    2.53209   2.62582   2.63127   2.86131   2.90511
  Beta virt. eigenvalues --    2.92385   2.93164   2.95807   2.96849   2.97787
  Beta virt. eigenvalues --    3.00389   3.02643   3.03201   3.03224   3.05648
  Beta virt. eigenvalues --    3.08881   3.09705   3.10907   3.16201   3.16481
  Beta virt. eigenvalues --    3.26628   3.34281   3.35851   3.36658   3.47396
  Beta virt. eigenvalues --    3.50407   3.50977   3.60272   3.63007   3.70697
          Condensed to atoms (all electrons):
               1          2          3          4          5          6
     1  C    4.899757   0.531477   0.292283  -0.079396   0.289751  -0.080839
     2  C    0.531477   5.266018  -0.075407  -0.005076  -0.071096  -0.005253
     3  C    0.292283  -0.075407   4.881636   0.539724   0.285058  -0.080621
     4  C   -0.079396  -0.005076   0.539724   5.277592  -0.075548  -0.005630
     5  C    0.289751  -0.071096   0.285058  -0.075548   4.864998   0.544669
     6  C   -0.080839  -0.005253  -0.080621  -0.005630   0.544669   5.284251
     7  C    0.004028   0.398752   0.005190  -0.000189  -0.013830   0.000885
     8  N   -0.000497  -0.032169   0.000016  -0.000000  -0.000244   0.000070
     9  C   -0.004387   0.376645  -0.012319   0.000802   0.005083  -0.000169
    10  N   -0.001006  -0.025960  -0.000358   0.000077   0.000026  -0.000000
    11  C   -0.013513   0.000843  -0.001231   0.386319   0.005170  -0.000174
    12  N   -0.000343   0.000079  -0.000939  -0.027648   0.000014  -0.000000
    13  C    0.005162  -0.000166   0.001396   0.389127  -0.013236   0.000774
    14  N    0.000010  -0.000000  -0.000784  -0.028174  -0.000293   0.000060
    15  C    0.005252  -0.000165  -0.012365   0.000812  -0.002759   0.377642
    16  N    0.000028  -0.000000  -0.000353   0.000080  -0.000921  -0.026046
    17  C   -0.013746   0.000936   0.005041  -0.000189   0.001942   0.390766
    18  N   -0.000283   0.000083   0.000015  -0.000000  -0.000636  -0.029288
               7          8          9         10         11         12
     1  C    0.004028  -0.000497  -0.004387  -0.001006  -0.013513  -0.000343
     2  C    0.398752  -0.032169   0.376645  -0.025960   0.000843   0.000079
     3  C    0.005190   0.000016  -0.012319  -0.000358  -0.001231  -0.000939
     4  C   -0.000189  -0.000000   0.000802   0.000077   0.386319  -0.027648
     5  C   -0.013830  -0.000244   0.005083   0.000026   0.005170   0.000014
     6  C    0.000885   0.000070  -0.000169  -0.000000  -0.000174  -0.000000
     7  C    4.807930   0.857358  -0.023542   0.001284   0.000037   0.000001
     8  N    0.857358   6.229699   0.001254   0.000024   0.000000   0.000000
     9  C   -0.023542   0.001254   4.775796   0.961229   0.000442   0.000387
    10  N    0.001284   0.000024   0.961229   6.031448   0.000278  -0.000716
    11  C    0.000037   0.000000   0.000442   0.000278   4.794179   0.919801
    12  N    0.000001   0.000000   0.000387  -0.000716   0.919801   6.104038
    13  C   -0.000002   0.000000   0.000029   0.000001  -0.025084   0.001326
    14  N   -0.000000   0.000000   0.000000   0.000000   0.001294   0.000028
    15  C    0.000033   0.000001  -0.000001  -0.000000   0.000029   0.000000
    16  N    0.000000   0.000000  -0.000000   0.000000   0.000001   0.000000
    17  C    0.000393   0.000308   0.000030   0.000000  -0.000002  -0.000000
    18  N    0.000192  -0.000637   0.000001   0.000000  -0.000000   0.000000
              13         14         15         16         17         18
     1  C    0.005162   0.000010   0.005252   0.000028  -0.013746  -0.000283
     2  C   -0.000166  -0.000000  -0.000165  -0.000000   0.000936   0.000083
     3  C    0.001396  -0.000784  -0.012365  -0.000353   0.005041   0.000015
     4  C    0.389127  -0.028174   0.000812   0.000080  -0.000189  -0.000000
     5  C   -0.013236  -0.000293  -0.002759  -0.000921   0.001942  -0.000636
     6  C    0.000774   0.000060   0.377642  -0.026046   0.390766  -0.029288
     7  C   -0.000002  -0.000000   0.000033   0.000000   0.000393   0.000192
     8  N    0.000000   0.000000   0.000001   0.000000   0.000308  -0.000637
     9  C    0.000029   0.000000  -0.000001  -0.000000   0.000030   0.000001
    10  N    0.000001   0.000000  -0.000000   0.000000   0.000000   0.000000
    11  C   -0.025084   0.001294   0.000029   0.000001  -0.000002  -0.000000
    12  N    0.001326   0.000028   0.000000   0.000000  -0.000000   0.000000
    13  C    4.798405   0.903277   0.000436   0.000293   0.000035   0.000000
    14  N    0.903277   6.135801   0.000324  -0.000684   0.000001   0.000000
    15  C    0.000436   0.000324   4.782874   0.948694  -0.023478   0.001143
    16  N    0.000293  -0.000684   0.948694   6.053649   0.001178   0.000021
    17  C    0.000035   0.000001  -0.023478   0.001178   4.807535   0.883247
    18  N    0.000000   0.000000   0.001143   0.000021   0.883247   6.178193
          Atomic-Atomic Spin Densities.
               1          2          3          4          5          6
     1  C   -0.034652  -0.071378   0.036653  -0.005609   0.033865  -0.005639
     2  C   -0.071378   0.402274  -0.005313   0.000783  -0.005203   0.000819
     3  C    0.036653  -0.005313  -0.036806  -0.069315   0.032781  -0.005393
     4  C   -0.005609   0.000783  -0.069315   0.389909  -0.005232   0.000782
     5  C    0.033865  -0.005203   0.032781  -0.005232  -0.043688  -0.066308
     6  C   -0.005639   0.000819  -0.005393   0.000782  -0.066308   0.378333
     7  C    0.001019   0.008870  -0.000125  -0.000009   0.000243  -0.000047
     8  N    0.000605  -0.005709   0.000008  -0.000000   0.000036  -0.000027
     9  C    0.000285   0.002919   0.000169  -0.000026  -0.000081  -0.000007
    10  N    0.000462  -0.004710   0.000030  -0.000025   0.000006  -0.000000
    11  C    0.000209  -0.000028   0.000406   0.004848  -0.000104  -0.000008
    12  N    0.000035  -0.000024   0.000495  -0.004855   0.000006  -0.000000
    13  C   -0.000128  -0.000009   0.000419   0.005861   0.000234  -0.000036
    14  N    0.000007  -0.000000   0.000498  -0.004980   0.000035  -0.000024
    15  C   -0.000092  -0.000007   0.000174  -0.000022   0.000163   0.003632
    16  N    0.000006  -0.000000   0.000032  -0.000024   0.000445  -0.004454
    17  C    0.000210  -0.000028  -0.000106  -0.000008   0.000613   0.006845
    18  N    0.000036  -0.000025   0.000007  -0.000000   0.000528  -0.004998
               7          8          9         10         11         12
     1  C    0.001019   0.000605   0.000285   0.000462   0.000209   0.000035
     2  C    0.008870  -0.005709   0.002919  -0.004710  -0.000028  -0.000024
     3  C   -0.000125   0.000008   0.000169   0.000030   0.000406   0.000495
     4  C   -0.000009  -0.000000  -0.000026  -0.000025   0.004848  -0.004855
     5  C    0.000243   0.000036  -0.000081   0.000006  -0.000104   0.000006
     6  C   -0.000047  -0.000027  -0.000007  -0.000000  -0.000008  -0.000000
     7  C   -0.098984  -0.004295  -0.001356   0.000057  -0.000001   0.000000
     8  N   -0.004295   0.156959   0.000071   0.000006  -0.000000   0.000000
     9  C   -0.001356   0.000071  -0.058422  -0.000515  -0.000002   0.000009
    10  N    0.000057   0.000006  -0.000515   0.082931   0.000009   0.000037
    11  C   -0.000001  -0.000000  -0.000002   0.000009  -0.068487  -0.001604
    12  N    0.000000   0.000000   0.000009   0.000037  -0.001604   0.102756
    13  C   -0.000000  -0.000000  -0.000001   0.000000  -0.001306   0.000062
    14  N   -0.000000   0.000000  -0.000000   0.000000   0.000070   0.000006
    15  C   -0.000001   0.000000   0.000000  -0.000000  -0.000001  -0.000000
    16  N   -0.000000   0.000000  -0.000000   0.000000   0.000000   0.000000
    17  C    0.000000   0.000012  -0.000001  -0.000000   0.000000  -0.000000
    18  N    0.000014   0.000047   0.000000   0.000000  -0.000000   0.000000
              13         14         15         16         17         18
     1  C   -0.000128   0.000007  -0.000092   0.000006   0.000210   0.000036
     2  C   -0.000009  -0.000000  -0.000007  -0.000000  -0.000028  -0.000025
     3  C    0.000419   0.000498   0.000174   0.000032  -0.000106   0.000007
     4  C    0.005861  -0.004980  -0.000022  -0.000024  -0.000008  -0.000000
     5  C    0.000234   0.000035   0.000163   0.000445   0.000613   0.000528
     6  C   -0.000036  -0.000024   0.003632  -0.004454   0.006845  -0.004998
     7  C   -0.000000  -0.000000  -0.000001  -0.000000   0.000000   0.000014
     8  N   -0.000000   0.000000   0.000000   0.000000   0.000012   0.000047
     9  C   -0.000001  -0.000000   0.000000  -0.000000  -0.000001   0.000000
    10  N    0.000000   0.000000  -0.000000   0.000000  -0.000000   0.000000
    11  C   -0.001306   0.000070  -0.000001   0.000000   0.000000  -0.000000
    12  N    0.000062   0.000006  -0.000000   0.000000  -0.000000   0.000000
    13  C   -0.074270  -0.002203  -0.000001   0.000009  -0.000001  -0.000000
    14  N   -0.002203   0.113211   0.000008   0.000035   0.000000   0.000000
    15  C   -0.000001   0.000008  -0.057853  -0.000835  -0.001318   0.000053
    16  N    0.000009   0.000035  -0.000835   0.082973   0.000043   0.000005
    17  C   -0.000001   0.000000  -0.001318   0.000043  -0.080504  -0.002869
    18  N   -0.000000   0.000000   0.000053   0.000005  -0.002869   0.123912
 Mulliken charges and spin densities:
               1          2
     1  C    0.166260  -0.044105
     2  C   -0.359539   0.323230
     3  C    0.174019  -0.045385
     4  C   -0.372683   0.312077
     5  C    0.181852  -0.051662
     6  C   -0.371096   0.303468
     7  C   -0.038520  -0.094615
     8  N   -0.055183   0.147713
     9  C   -0.081280  -0.056959
    10  N    0.033674   0.078288
    11  C   -0.068387  -0.066000
    12  N    0.003972   0.096922
    13  C   -0.061774  -0.071370
    14  N   -0.010858   0.106663
    15  C   -0.078470  -0.056101
    16  N    0.024062   0.078236
    17  C   -0.053998  -0.077112
    18  N   -0.032051   0.116710
 Sum of Mulliken charges =  -1.00000   1.00000
 Mulliken charges and spin densities with hydrogens summed into heavy atoms:
               1          2
     1  C    0.166260  -0.044105
     2  C   -0.359539   0.323230
     3  C    0.174019  -0.045385
     4  C   -0.372683   0.312077
     5  C    0.181852  -0.051662
     6  C   -0.371096   0.303468
     7  C   -0.038520  -0.094615
     8  N   -0.055183   0.147713
     9  C   -0.081280  -0.056959
    10  N    0.033674   0.078288
    11  C   -0.068387  -0.066000
    12  N    0.003972   0.096922
    13  C   -0.061774  -0.071370
    14  N   -0.010858   0.106663
    15  C   -0.078470  -0.056101
    16  N    0.024062   0.078236
    17  C   -0.053998  -0.077112
    18  N   -0.032051   0.116710
 Electronic spatial extent (au):  <R**2>=          39144.5918
 Charge=             -1.0000 electrons
 Dipole moment (field-independent basis, Debye):
    X=             43.2051    Y=              8.0651    Z=             -4.9626  Tot=             44.2307
 Quadrupole moment (field-independent basis, Debye-Ang):
   XX=           -559.7140   YY=           -183.0314   ZZ=           -105.0218
   XY=            -70.7870   XZ=             45.4652   YZ=              1.2873
 Traceless Quadrupole moment (field-independent basis, Debye-Ang):
   XX=           -277.1249   YY=             99.5577   ZZ=            177.5672
   XY=            -70.7870   XZ=             45.4652   YZ=              1.2873
 Octapole moment (field-independent basis, Debye-Ang**2):
  XXX=           8088.0902  YYY=            971.0087  ZZZ=           -313.8451  XYY=           1632.9861
  XXY=            834.7646  XXZ=           -598.8162  XZZ=            941.4891  YZZ=            165.5504
  YYZ=           -158.1490  XYZ=            -12.0741
 Hexadecapole moment (field-independent basis, Debye-Ang**3):
 XXXX=        -118076.1432 YYYY=          -7921.7057 ZZZZ=           -771.7683 XXXY=         -11169.5165
 XXXZ=           8733.0494 YYYX=          -8646.9977 YYYZ=            631.7708 ZZZX=           2827.2444
 ZZZY=            360.4257 XXYY=         -16267.7937 XXZZ=          -9196.7678 YYZZ=           -988.7823
 XXYZ=            252.0114 YYXZ=           1429.8068 ZZXY=          -1478.3136
 N-N= 9.484693316076D+02 E-N=-3.731775192492D+03  KE= 7.764507435674D+02
                          Isotropic Fermi Contact Couplings
        Atom                 a.u.       MegaHertz       Gauss      10(-4) cm-1
     1  C(13)             -0.01811     -20.36113      -7.26536      -6.79174
     2  C(13)              0.05722      64.33139      22.95504      21.45864
     3  C(13)             -0.01797     -20.20416      -7.20934      -6.73938
     4  C(13)              0.05474      61.53286      21.95645      20.52515
     5  C(13)             -0.01877     -21.09768      -7.52818      -7.03743
     6  C(13)              0.05308      59.67297      21.29280      19.90476
     7  C(13)             -0.03964     -44.56688     -15.90257     -14.86591
     8  N(14)              0.03520      11.37222       4.05789       3.79337
     9  C(13)             -0.03059     -34.39187     -12.27187     -11.47189
    10  N(14)              0.01730       5.58954       1.99449       1.86447
    11  C(13)             -0.03197     -35.94555     -12.82627     -11.99014
    12  N(14)              0.02227       7.19642       2.56786       2.40047
    13  C(13)             -0.03337     -37.51578     -13.38656     -12.51392
    14  N(14)              0.02481       8.01479       2.85988       2.67345
    15  C(13)             -0.02917     -32.79646     -11.70259     -10.93972
    16  N(14)              0.01752       5.66218       2.02041       1.88870
    17  C(13)             -0.03422     -38.46717     -13.72604     -12.83127
    18  N(14)              0.02746       8.87208       3.16578       2.95941
 --------------------------------------------------------
       Center         ----  Spin Dipole Couplings  ----
                      3XX-RR        3YY-RR        3ZZ-RR
 --------------------------------------------------------
     1   Atom       -0.001384      0.021133     -0.019748
     2   Atom       -0.169660     -0.166729      0.336389
     3   Atom        0.017593      0.005327     -0.022920
     4   Atom       -0.165517     -0.158657      0.324174
     5   Atom        0.021937      0.008851     -0.030789
     6   Atom       -0.160441     -0.155238      0.315679
     7   Atom        0.049678      0.009261     -0.058940
     8   Atom       -0.149284     -0.110458      0.259742
     9   Atom        0.027847      0.005074     -0.032921
    10   Atom       -0.082229     -0.063667      0.145896
    11   Atom        0.030080      0.010313     -0.040394
    12   Atom       -0.095269     -0.082063      0.177331
    13   Atom       -0.002613      0.046203     -0.043590
    14   Atom       -0.080466     -0.111588      0.192054
    15   Atom       -0.002021      0.034971     -0.032949
    16   Atom       -0.061924     -0.084217      0.146141
    17   Atom        0.035554      0.012678     -0.048233
    18   Atom       -0.113109     -0.096782      0.209891
 --------------------------------------------------------
                        XY            XZ            YZ
 --------------------------------------------------------
     1   Atom        0.000021     -0.001941      0.003341
     2   Atom       -0.000144      0.003921     -0.053084
     3   Atom       -0.010554      0.000207      0.003442
     4   Atom        0.000379      0.006910     -0.051875
     5   Atom        0.010862      0.000641      0.004296
     6   Atom       -0.001432      0.000023     -0.038008
     7   Atom       -0.027474     -0.004112      0.007492
     8   Atom        0.020863      0.009163     -0.040412
     9   Atom        0.015298      0.001456      0.004113
    10   Atom       -0.008450     -0.001439     -0.023397
    11   Atom        0.020806      0.000831      0.004918
    12   Atom       -0.015278      0.004566     -0.026094
    13   Atom        0.002130     -0.000169      0.009969
    14   Atom       -0.002826      0.002429     -0.036396
    15   Atom       -0.001716     -0.000032      0.005413
    16   Atom        0.002842     -0.000567     -0.016847
    17   Atom       -0.024507     -0.002047      0.004825
    18   Atom        0.019614      0.001132     -0.023536
 --------------------------------------------------------


 ---------------------------------------------------------------------------------
              Anisotropic Spin Dipole Couplings in Principal Axis System
 ---------------------------------------------------------------------------------

       Atom             a.u.   MegaHertz   Gauss  10(-4) cm-1        Axes

              Baa    -0.0202    -2.713    -0.968    -0.905  0.1023 -0.0802  0.9915
     1 C(13)  Bbb    -0.0012    -0.159    -0.057    -0.053  0.9947  0.0143 -0.1015
              Bcc     0.0214     2.872     1.025     0.958 -0.0060  0.9967  0.0812
 
              Baa    -0.1723   -23.120    -8.250    -7.712 -0.1007  0.9895  0.1040
     2 C(13)  Bbb    -0.1697   -22.767    -8.124    -7.594  0.9949  0.1010  0.0029
              Bcc     0.3420    45.888    16.374    15.306  0.0077 -0.1038  0.9946
 
              Baa    -0.0234    -3.139    -1.120    -1.047 -0.0393 -0.1332  0.9903
     3 C(13)  Bbb    -0.0003    -0.044    -0.016    -0.015  0.5017  0.8545  0.1348
              Bcc     0.0237     3.183     1.136     1.062  0.8642 -0.5021 -0.0332
 
              Baa    -0.1662   -22.304    -7.959    -7.440  0.8792 -0.4723 -0.0623
     4 C(13)  Bbb    -0.1636   -21.949    -7.832    -7.322  0.4762  0.8751  0.0863
              Bcc     0.3298    44.253    15.791    14.761  0.0138 -0.1056  0.9943
 
              Baa    -0.0313    -4.194    -1.497    -1.399  0.0103 -0.1093  0.9940
     5 C(13)  Bbb     0.0031     0.410     0.146     0.137 -0.4987  0.8610  0.0998
              Bcc     0.0282     3.784     1.350     1.262  0.8667  0.4968  0.0456
 
              Baa    -0.1612   -21.625    -7.716    -7.213  0.8952  0.4442  0.0354
     6 C(13)  Bbb    -0.1576   -21.145    -7.545    -7.053 -0.4456  0.8923  0.0717
              Bcc     0.3187    42.770    15.261    14.267  0.0003 -0.0799  0.9968
 
              Baa    -0.0598    -8.020    -2.862    -2.675  0.0114 -0.1034  0.9946
     7 C(13)  Bbb    -0.0042    -0.566    -0.202    -0.189  0.4577  0.8849  0.0867
              Bcc     0.0640     8.586     3.064     2.864  0.8890 -0.4542 -0.0574
 
              Baa    -0.1599    -6.166    -2.200    -2.057  0.9007 -0.4302 -0.0611
     8 N(14)  Bbb    -0.1043    -4.024    -1.436    -1.342  0.4342  0.8964  0.0886
              Bcc     0.2642    10.190     3.636     3.399  0.0167 -0.1063  0.9942
 
              Baa    -0.0334    -4.477    -1.597    -1.493  0.0033 -0.1077  0.9942
     9 C(13)  Bbb    -0.0023    -0.311    -0.111    -0.104 -0.4539  0.8857  0.0974
              Bcc     0.0357     4.787     1.708     1.597  0.8910  0.4516  0.0460
 
              Baa    -0.0859    -3.315    -1.183    -1.106  0.9172  0.3958  0.0456
    10 N(14)  Bbb    -0.0625    -2.412    -0.861    -0.804 -0.3984  0.9118  0.0996
              Bcc     0.1485     5.726     2.043     1.910 -0.0022 -0.1095  0.9940
 
              Baa    -0.0409    -5.487    -1.958    -1.830  0.0186 -0.1031  0.9945
    11 C(13)  Bbb    -0.0025    -0.332    -0.119    -0.111 -0.5377  0.8375  0.0968
              Bcc     0.0434     5.819     2.076     1.941  0.8429  0.5366  0.0399
 
              Baa    -0.1057    -4.078    -1.455    -1.360  0.8190  0.5724  0.0396
    12 N(14)  Bbb    -0.0743    -2.867    -1.023    -0.956 -0.5734  0.8138  0.0948
              Bcc     0.1801     6.945     2.478     2.316  0.0221 -0.1003  0.9947
 
              Baa    -0.0447    -5.997    -2.140    -2.000  0.0095 -0.1092  0.9940
    13 C(13)  Bbb    -0.0027    -0.362    -0.129    -0.121  0.9991 -0.0407 -0.0140
              Bcc     0.0474     6.359     2.269     2.121  0.0420  0.9932  0.1088
 
              Baa    -0.1161    -4.476    -1.597    -1.493  0.0707  0.9907  0.1165
    14 N(14)  Bbb    -0.0803    -3.098    -1.105    -1.033  0.9974 -0.0690 -0.0181
              Bcc     0.1964     7.574     2.703     2.526  0.0099 -0.1174  0.9930
 
              Baa    -0.0334    -4.479    -1.598    -1.494 -0.0033 -0.0790  0.9969
    15 C(13)  Bbb    -0.0021    -0.282    -0.101    -0.094  0.9990  0.0452  0.0069
              Bcc     0.0355     4.761     1.699     1.588 -0.0456  0.9958  0.0788
 
              Baa    -0.0858    -3.308    -1.180    -1.103 -0.1164  0.9906  0.0717
    16 N(14)  Bbb    -0.0616    -2.376    -0.848    -0.792  0.9932  0.1158  0.0121
              Bcc     0.1474     5.684     2.028     1.896 -0.0037 -0.0726  0.9974
 
              Baa    -0.0486    -6.523    -2.328    -2.176  0.0016 -0.0778  0.9970
    17 C(13)  Bbb    -0.0027    -0.367    -0.131    -0.122  0.5404  0.8389  0.0647
              Bcc     0.0513     6.890     2.459     2.298  0.8414 -0.5386 -0.0434
 
              Baa    -0.1268    -4.890    -1.745    -1.631  0.8206 -0.5699 -0.0426
    18 N(14)  Bbb    -0.0849    -3.274    -1.168    -1.092  0.5714  0.8182  0.0631
              Bcc     0.2117     8.164     2.913     2.723 -0.0011 -0.0761  0.9971
 

 ---------------------------------------------------------------------------------

   1 Symmetry operations used in ECPInt.
 ECPInt:  NShTT=    5886 NPrTT=   23670 LenC2=    5385 LenP2D=   14823.
 LDataN:  DoStor=T MaxTD1= 5 Len=  102
 D1PCM: PCM CHGder 1st derivatives, ID1Alg=3 FixD1E=F DoIter=F DoCFld=F I1PDM=0.
 Calling FoFJK, ICntrl=      2127 FMM=F ISym2X=0 I1Cent= 0 IOpClX= 1 NMat=1 NMatS=1 NMatT=0.
 -------------------------------------------------------------------
 Center     Atomic                   Forces (Hartrees/Bohr)
 Number     Number              X              Y              Z
 -------------------------------------------------------------------
      1        6          -0.001099941   -0.037851363   -0.003939611
      2        6           0.022740074   -0.011814793   -0.001308698
      3        6          -0.040760525    0.020520626    0.002781064
      4        6          -0.002664322    0.004389087   -0.000186700
      5        6           0.050970436    0.028051076    0.002337983
      6        6          -0.001966601   -0.016079950   -0.001197479
      7        6          -0.083794940    0.032667647    0.005039258
      8        7           0.087350819   -0.038948860   -0.005584140
      9        6          -0.126899040   -0.070785200   -0.007156574
     10        7           0.099616903    0.048491270    0.005119913
     11        6          -0.034820898   -0.013143705   -0.000861073
     12        7           0.012074603    0.004956556    0.000419687
     13        6          -0.007111495   -0.000592429   -0.000230843
     14        7           0.003493077    0.020985817    0.002504439
     15        6           0.003332832    0.109425019    0.008120530
     16        7           0.003747805   -0.076818361   -0.005806822
     17        6          -0.031788803    0.033055013    0.002822110
     18        7           0.047580016   -0.036507449   -0.002873046
 -------------------------------------------------------------------
 Cartesian Forces:  Max     0.126899040 RMS     0.039538923

 GradGradGradGradGradGradGradGradGradGradGradGradGradGradGradGradGradGrad
 Berny optimization.
 Search for a local minimum.
 Step number   1 out of a maximum of    2
 All quantities printed in internal units (Hartrees-Bohrs-Radians)
 Second derivative matrix not updated -- first step.
 ITU=  0
     Eigenvalues ---    0.00080   0.00124   0.00180   0.00291   0.00291
     Eigenvalues ---    0.00696   0.01472   0.01591   0.01908   0.01924
     Eigenvalues ---    0.03588   0.03667   0.04982   0.05149   0.09745
     Eigenvalues ---    0.14201   0.18784   0.19234   0.22756   0.23994
     Eigenvalues ---    0.24477   0.24746   0.28961   0.29392   0.43830
     Eigenvalues ---    0.59771   0.61863   0.69171   0.70790   0.74266
     Eigenvalues ---    0.96214   0.96730   1.03546   1.40206   1.44810
     Eigenvalues ---    1.56799   1.73355   1.81650   2.33108   2.50212
     Eigenvalues ---    2.69562   2.87544   3.20824   3.33518   3.39119
     Eigenvalues ---    3.44998   5.19110   5.50723
 Quadratic step=7.425D-01 exceeds max=3.000D-01 adjusted using Lamda=-9.497D-02.
 Angle between NR and scaled steps=  30.89 degrees.
 Angle between quadratic step and forces=  60.03 degrees.
 Linear search not attempted -- first point.
 B after Tr=     0.000415   -0.000288    0.000025
         Rot=    1.000000    0.000003    0.000002    0.000004 Ang=   0.00 deg.
 Variable       Old X    -DE/DX   Delta X   Delta X   Delta X     New X
                                 (Linear)    (Quad)   (Total)
    X1      -16.89175  -0.00110   0.00000   0.00057   0.00097 -16.89079
    Y1       -1.65579  -0.03785   0.00000  -0.03892  -0.03906  -1.69485
    Z1        2.10187  -0.00394   0.00000  -0.00380  -0.00382   2.09806
    X2      -16.90234   0.02274   0.00000  -0.00283  -0.00242 -16.90476
    Y2        1.01575  -0.01181   0.00000  -0.07357  -0.07370   0.94204
    Z2        2.37199  -0.00131   0.00000  -0.00650  -0.00654   2.36545
    X3      -15.50480  -0.04076   0.00000  -0.04000  -0.03962 -15.54442
    Y3       -4.03354   0.02052   0.00000   0.02461   0.02446  -4.00908
    Z3        1.85435   0.00278   0.00000   0.00283   0.00283   1.85717
    X4      -13.20167  -0.00266   0.00000  -0.05976  -0.05940 -13.26107
    Y4       -5.36123   0.00439   0.00000   0.03314   0.03297  -5.32826
    Z4        1.69796  -0.00019   0.00000   0.00160   0.00162   1.69957
    X5      -18.29830   0.05097   0.00000   0.04893   0.04930 -18.24900
    Y5       -4.04860   0.02805   0.00000   0.03058   0.03045  -4.01815
    Z5        1.87730   0.00234   0.00000   0.00294   0.00293   1.88023
    X6      -20.58474  -0.00197   0.00000   0.05018   0.05055 -20.53419
    Y6       -5.35601  -0.01608   0.00000   0.03260   0.03249  -5.32352
    Z6        1.76935  -0.00120   0.00000   0.00323   0.00322   1.77257
    X7      -19.22406  -0.08379   0.00000  -0.00623  -0.00580 -19.22986
    Y7        2.36305   0.03267   0.00000  -0.05332  -0.05344   2.30962
    Z7        2.53735   0.00504   0.00000  -0.00421  -0.00427   2.53308
    X8      -21.28204   0.08735   0.00000   0.09355   0.09399 -21.18806
    Y8        3.33843  -0.03895   0.00000  -0.04115  -0.04125   3.29719
    Z8        2.67189  -0.00558   0.00000  -0.00661  -0.00668   2.66522
    X9      -14.48857  -0.12690   0.00000  -0.06437  -0.06395 -14.55252
    Y9        2.42094  -0.07079   0.00000  -0.09687  -0.09703   2.32391
    Z9        2.50834  -0.00716   0.00000  -0.00837  -0.00840   2.49994
   X10      -12.55847   0.09962   0.00000  -0.02728  -0.02684 -12.58531
   Y10        3.27746   0.04849   0.00000  -0.00546  -0.00563   3.27183
   Z10        2.60382   0.00512   0.00000  -0.00193  -0.00197   2.60185
   X11      -10.80643  -0.03482   0.00000  -0.08257  -0.08219 -10.88862
   Y11       -4.00708  -0.01314   0.00000   0.00555   0.00536  -4.00172
   Z11        1.79712  -0.00086   0.00000   0.00051   0.00053   1.79764
   X12       -9.01286   0.01207   0.00000  -0.04007  -0.03969  -9.05254
   Y12       -2.76953   0.00496   0.00000  -0.03237  -0.03257  -2.80211
   Z12        1.88500   0.00042   0.00000  -0.00097  -0.00096   1.88404
   X13      -13.18719  -0.00711   0.00000  -0.04432  -0.04397 -13.23116
   Y13       -8.08479  -0.00059   0.00000   0.05638   0.05621  -8.02858
   Z13        1.39711  -0.00023   0.00000   0.00514   0.00517   1.40228
   X14      -13.33732   0.00349   0.00000   0.00575   0.00608 -13.33124
   Y14      -10.27365   0.02099   0.00000   0.06496   0.06478 -10.20887
   Z14        1.14623   0.00250   0.00000   0.00892   0.00896   1.15519
   X15      -20.62944   0.00333   0.00000   0.05165   0.05200 -20.57744
   Y15       -8.13791   0.10943   0.00000   0.09225   0.09213  -8.04578
   Z15        1.55066   0.00812   0.00000   0.00743   0.00744   1.55810
   X16      -20.40825   0.00375   0.00000  -0.00952  -0.00920 -20.41744
   Y16      -10.25534  -0.07682   0.00000   0.03239   0.03228 -10.22307
   Z16        1.39172  -0.00581   0.00000   0.00123   0.00125   1.39297
   X17      -22.95854  -0.03179   0.00000   0.05603   0.05641 -22.90213
   Y17       -4.02344   0.03306   0.00000   0.02143   0.02134  -4.00210
   Z17        1.87684   0.00282   0.00000   0.00197   0.00194   1.87878
   X18      -24.79887   0.04758   0.00000   0.06340   0.06379 -24.73508
   Y18       -2.74489  -0.03651   0.00000  -0.04972  -0.04980  -2.79469
   Z18        1.97547  -0.00287   0.00000  -0.00321  -0.00325   1.97222
         Item               Value     Threshold  Converged?
 Maximum Force            0.126899     0.000450     NO 
 RMS     Force            0.039539     0.000300     NO 
 Maximum Displacement     0.097026     0.001800     NO 
 RMS     Displacement     0.040836     0.001200     NO 
 Predicted change in Energy=-2.605433D-02
 GradGradGradGradGradGradGradGradGradGradGradGradGradGradGradGradGradGrad

 Unable to Open any file for archive entry.
 1\1\GINC-X10P1N4\Force\UwB97XD\def2SVP\C12N6(1-,2)\MAYUMIAO\11-Oct-202
 4\0\\# wb97xd def2svp scrf=(smd,solvent=acetonitrile) g09default scf=(
 xqc,maxcycle=64) force guess=read nosymm\\Title Card\\-1,2\C,-8.938730
 24,-0.87620691,1.11226393\C,-8.94433124,0.53751021,1.25520143\C,-8.204
 78766,-2.1344599,0.98127897\C,-6.98602362,-2.83704026,0.89852088\C,-9.
 68304368,-2.1424278,0.99342451\C,-10.89297409,-2.83427863,0.93629922\C
 ,-10.17293295,1.25047315,1.34270868\N,-11.26197121,1.76662366,1.413905
 15\C,-7.66702234,1.28110631,1.32735732\N,-6.6456538,1.73435934,1.37788
 262\C,-5.71851809,-2.12045464,0.95099296\N,-4.76939786,-1.46557344,0.9
 9749971\C,-6.9783594,-4.2782853,0.7393173\N,-7.05780403,-5.43658217,0.
 60655801\C,-10.91662931,-4.30639834,0.82057447\N,-10.79958011,-5.42689
 375,0.73646614\C,-12.14913689,-2.12911532,0.99318002\N,-13.12299837,-1
 .45253423,1.04537357\\Version=ES64L-G16RevC.01\HF=-784.8288489\S2=0.79
 08\S2-1=0.\S2A=0.751327\RMSD=9.480e-09\RMSF=3.954e-02\Dipole=0.1047482
 ,-0.0676889,-0.0071557\Quadrupole=-206.0356179,74.0187199,132.0168979,
 -52.628429,33.802272,0.9570935\PG=C01 [X(C12N6)]\\@
 The archive entry for this job was punched.


 EDUCATION WITHOUT COMMON SENSE IS A LOAD OF BOOKS ON THE BACK OF AN ASS.
 Job cpu time:       0 days  0 hours 14 minutes 33.1 seconds.
 Elapsed time:       0 days  0 hours  0 minutes 32.7 seconds.
 File lengths (MBytes):  RWF=    176 Int=      0 D2E=      0 Chk=      9 Scr=      1
 Normal termination of Gaussian 16 at Fri Oct 11 15:45:05 2024.
