 Entering Gaussian System, Link 0=g16
 Input=JOBS/1_B.gjf
 Output=JOBS/1_B.log
 Initial command:
 /data/app/gaussian/C01-avx2//g16/l1.exe "/tmp/Gau-2515286.inp" -scrdir="/tmp/"
 Entering Link 1 = /data/app/gaussian/C01-avx2//g16/l1.exe PID=   2515287.
  
 Copyright (c) 1988-2019, Gaussian, Inc.  All Rights Reserved.
  
 This is part of the Gaussian(R) 16 program.  It is based on
 the Gaussian(R) 09 system (copyright 2009, Gaussian, Inc.),
 the Gaussian(R) 03 system (copyright 2003, Gaussian, Inc.),
 the Gaussian(R) 98 system (copyright 1998, Gaussian, Inc.),
 the Gaussian(R) 94 system (copyright 1995, Gaussian, Inc.),
 the Gaussian 92(TM) system (copyright 1992, Gaussian, Inc.),
 the Gaussian 90(TM) system (copyright 1990, Gaussian, Inc.),
 the Gaussian 88(TM) system (copyright 1988, Gaussian, Inc.),
 the Gaussian 86(TM) system (copyright 1986, Carnegie Mellon
 University), and the Gaussian 82(TM) system (copyright 1983,
 Carnegie Mellon University). Gaussian is a federally registered
 trademark of Gaussian, Inc.
  
 This software contains proprietary and confidential information,
 including trade secrets, belonging to Gaussian, Inc.
  
 This software is provided under written license and may be
 used, copied, transmitted, or stored only in accord with that
 written license.
  
 The following legend is applicable only to US Government
 contracts under FAR:
  
                    RESTRICTED RIGHTS LEGEND
  
 Use, reproduction and disclosure by the US Government is
 subject to restrictions as set forth in subparagraphs (a)
 and (c) of the Commercial Computer Software - Restricted
 Rights clause in FAR 52.227-19.
  
 Gaussian, Inc.
 340 Quinnipiac St., Bldg. 40, Wallingford CT 06492
  
  
 ---------------------------------------------------------------
 Warning -- This program may not be used in any manner that
 competes with the business of Gaussian, Inc. or will provide
 assistance to any competitor of Gaussian, Inc.  The licensee
 of this program is prohibited from giving any competitor of
 Gaussian, Inc. access to this program.  By using this program,
 the user acknowledges that Gaussian, Inc. is engaged in the
 business of creating and licensing software in the field of
 computational chemistry and represents and warrants to the
 licensee that it is not a competitor of Gaussian, Inc. and that
 it will not use this program in any manner prohibited above.
 ---------------------------------------------------------------
  

 Cite this work as:
 Gaussian 16, Revision C.01,
 M. J. Frisch, G. W. Trucks, H. B. Schlegel, G. E. Scuseria, 
 M. A. Robb, J. R. Cheeseman, G. Scalmani, V. Barone, 
 G. A. Petersson, H. Nakatsuji, X. Li, M. Caricato, A. V. Marenich, 
 J. Bloino, B. G. Janesko, R. Gomperts, B. Mennucci, H. P. Hratchian, 
 J. V. Ortiz, A. F. Izmaylov, J. L. Sonnenberg, D. Williams-Young, 
 F. Ding, F. Lipparini, F. Egidi, J. Goings, B. Peng, A. Petrone, 
 T. Henderson, D. Ranasinghe, V. G. Zakrzewski, J. Gao, N. Rega, 
 G. Zheng, W. Liang, M. Hada, M. Ehara, K. Toyota, R. Fukuda, 
 J. Hasegawa, M. Ishida, T. Nakajima, Y. Honda, O. Kitao, H. Nakai, 
 T. Vreven, K. Throssell, J. A. Montgomery, Jr., J. E. Peralta, 
 F. Ogliaro, M. J. Bearpark, J. J. Heyd, E. N. Brothers, K. N. Kudin, 
 V. N. Staroverov, T. A. Keith, R. Kobayashi, J. Normand, 
 K. Raghavachari, A. P. Rendell, J. C. Burant, S. S. Iyengar, 
 J. Tomasi, M. Cossi, J. M. Millam, M. Klene, C. Adamo, R. Cammi, 
 J. W. Ochterski, R. L. Martin, K. Morokuma, O. Farkas, 
 J. B. Foresman, and D. J. Fox, Gaussian, Inc., Wallingford CT, 2019.
 
 ******************************************
 Gaussian 16:  ES64L-G16RevC.01  3-Jul-2019
                11-Oct-2024 
 ******************************************
 %chk=b.chk
 %nprocshared=28
 Will use up to   28 processors via shared memory.
 %mem=48gb
 ----------------------------------------------------------------------
 # wb97xd def2svp scrf=(smd,solvent=acetonitrile) g09default scf=(xqc,m
 axcycle=64) force guess=read nosymm
 ----------------------------------------------------------------------
 1/10=7,30=1,38=1,158=3,167=1/1,3;
 2/12=2,15=1,17=6,18=5,40=1/2;
 3/5=43,7=101,11=2,25=1,27=10,30=1,70=32201,71=1,72=2,74=-58,75=-4,116=-2,158=3/1,2,3;
 4/5=1,60=-1/1;
 5/5=2,7=64,8=3,13=1,38=6,53=2,87=10/2,8;
 6/7=2,8=2,9=2,10=2,28=1,87=10/1;
 7/29=1,30=1,87=10/1,2,3,16;
 1/10=7,30=1,158=3,167=1/3;
 99//99;
 Using 2006 physical constants.
 ----------
 Title Card
 ----------
 Symbolic Z-matrix:
 Charge = -1 Multiplicity = 2
 6                    -8.93929  -0.87063   1.11171 
 6                    -8.93844   0.43131   1.2464 
 6                    -8.20368  -2.13945   0.97956 
 6                    -7.0692   -2.78757   0.90024 
 6                    -9.67624  -2.13999   0.99235 
 6                    -10.81104  -2.79015   0.93931 
 6                    -10.18311   1.17877   1.33564 
 7                    -11.17227   1.72852   1.40213 
 6                    -7.69281   1.17899   1.31846 
 7                    -6.70312   1.72918   1.37187 
 6                    -5.79658  -2.08508   0.9555 
 7                    -4.82374  -1.5051    1.00106 
 6                    -7.03831  -4.23387   0.74855 
 7                    -7.05313  -5.36103   0.62876 
 6                    -10.84206  -4.23918   0.81725 
 7                    -10.82725  -5.36907   0.72679 
 6                    -12.08355  -2.08807   1.00256 
 7                    -13.05606  -1.50776   1.05066 
 

 GradGradGradGradGradGradGradGradGradGradGradGradGradGradGradGradGradGrad
 Berny optimization.
 Initialization pass.
 Trust Radius=3.00D-01 FncErr=1.00D-07 GrdErr=1.00D-07 EigMax=2.50D+02 EigMin=1.00D-04
 Number of steps in this run=      2 maximum allowed number of steps=      2.
 GradGradGradGradGradGradGradGradGradGradGradGradGradGradGradGradGradGrad

                          Input orientation:                          
 ---------------------------------------------------------------------
 Center     Atomic      Atomic             Coordinates (Angstroms)
 Number     Number       Type             X           Y           Z
 ---------------------------------------------------------------------
      1          6           0       -8.939293   -0.870629    1.111714
      2          6           0       -8.938444    0.431306    1.246397
      3          6           0       -8.203680   -2.139449    0.979560
      4          6           0       -7.069197   -2.787574    0.900235
      5          6           0       -9.676241   -2.139990    0.992347
      6          6           0      -10.811038   -2.790149    0.939313
      7          6           0      -10.183112    1.178769    1.335643
      8          7           0      -11.172271    1.728523    1.402128
      9          6           0       -7.692807    1.178989    1.318463
     10          7           0       -6.703120    1.729181    1.371872
     11          6           0       -5.796580   -2.085079    0.955497
     12          7           0       -4.823744   -1.505104    1.001059
     13          6           0       -7.038306   -4.233869    0.748548
     14          7           0       -7.053134   -5.361030    0.628765
     15          6           0      -10.842063   -4.239183    0.817248
     16          7           0      -10.827249   -5.369069    0.726794
     17          6           0      -12.083554   -2.088066    1.002557
     18          7           0      -13.056062   -1.507755    1.050665
 ---------------------------------------------------------------------
                    Distance matrix (angstroms):
                    1          2          3          4          5
     1  C    0.000000
     2  C    1.308883   0.000000
     3  C    1.472582   2.686980   0.000000
     4  C    2.686385   3.738329   1.308973   0.000000
     5  C    1.472623   2.687089   1.472617   2.687849   0.000000
     6  C    2.686580   3.738808   2.687629   3.742046   1.308924
     7  C    2.407750   1.454601   3.880144   5.061415   3.374749
     8  N    3.438913   2.587858   4.894110   6.122275   4.167903
     9  C    2.407780   1.454591   3.374593   4.037008   3.880204
    10  N    3.439064   2.587836   4.167959   4.556043   4.894279
    11  C    3.372824   4.035855   2.407834   1.454684   3.880225
    12  N    4.165639   4.554188   3.439014   2.587847   4.893862
    13  C    3.880338   5.061841   2.407915   1.454555   3.376755
    14  N    4.894337   6.122665   3.438807   2.587785   4.169890
    15  C    3.880000   5.061759   3.375840   4.043337   2.407574
    16  N    4.893721   6.122249   4.168627   4.562582   3.438356
    17  C    3.373492   4.037129   3.880283   5.063947   2.407894
    18  N    4.166226   4.555551   4.893843   6.123979   3.438940
                    6          7          8          9         10
     6  C    0.000000
     7  C    4.037782   0.000000
     8  N    4.556653   1.133616   0.000000
     9  C    5.061737   2.490364   3.523586   0.000000
    10  N    6.122617   3.523437   4.469254   1.133598   0.000000
    11  C    5.063810   5.480773   6.606141   3.792303   3.942557
    12  N    6.123956   6.003161   7.135895   3.941652   3.759009
    13  C    4.044036   6.287379   7.284707   5.481989   6.004901
    14  N    4.563738   7.284601   8.235724   6.607323   7.137633
    15  C    1.454497   5.482441   6.005384   6.286940   7.284217
    16  N    2.587712   6.607556   7.137992   7.283671   8.234665
    17  C    1.454723   3.794053   3.944166   5.481980   6.607332
    18  N    2.587869   3.943661   3.761075   6.004565   7.137282
                   11         12         13         14         15
    11  C    0.000000
    12  N    1.133515   0.000000
    13  C    2.490383   3.523379   0.000000
    14  N    3.523853   4.469558   1.133605   0.000000
    15  C    5.487821   6.612801   3.804382   3.956014   0.000000
    16  N    6.012032   7.144755   3.955407   3.775397   1.133598
    17  C    6.287151   7.283178   5.488490   6.013081   2.490571
    18  N    7.283024   8.232467   6.613347   7.145689   3.523772
                   16         17         18
    16  N    0.000000
    17  C    3.524107   0.000000
    18  N    4.470150   1.133511   0.000000
 Symmetry turned off by external request.
 Stoichiometry    C12N6(1-,2)
 Framework group  C1[X(C12N6)]
 Deg. of freedom    48
 Full point group                 C1      NOp   1
 Rotational constants (GHZ):           0.4315993           0.4310451           0.2156748
 Standard basis: def2SVP (5D, 7F)
   252 basis functions,   450 primitive gaussians,   270 cartesian basis functions
    58 alpha electrons       57 beta electrons
       nuclear repulsion energy       968.3234791731 Hartrees.
 NAtoms=   18 NActive=   18 NUniq=   18 SFac= 1.00D+00 NAtFMM=   60 NAOKFM=F Big=F
 Integral buffers will be    131072 words long.
 Raffenetti 2 integral format.
 Two-electron integral symmetry is turned off.
 Nuclear repulsion after empirical dispersion term =      968.3117061313 Hartrees.
 Force PCM accuracy= 1.00D-10.
 ------------------------------------------------------------------------------
 Polarizable Continuum Model (PCM)
 =================================
 Model                : PCM (using non-symmetric T matrix).
 Atomic radii         : SMD-Coulomb.
 Polarization charges : Total charges.
 Charge compensation  : None.
 Solution method      : On-the-fly selection.
 Cavity type          : VdW (van der Waals Surface) (Alpha=1.000).
 Cavity algorithm     : GePol (No added spheres)
                        Default sphere list used, NSphG=   18.
                        Lebedev-Laikov grids with approx.  5.0 points / Ang**2.
                        Smoothing algorithm: York/Karplus (Gamma=1.0000).
                        Polarization charges: spherical gaussians, with
                                              point-specific exponents (IZeta= 3).
                        Self-potential: point-specific (ISelfS= 7).
                        Self-field    : sphere-specific E.n sum rule (ISelfD= 2).
 1st derivatives      : Analytical E(r).r(x)/FMM algorithm (CHGder, D1EAlg=3).
                        Cavity 1st derivative terms included.
 Solvent              : Acetonitrile, Eps=  35.688000 Eps(inf)=   1.806874
 ------------------------------------------------------------------------------
 Spheres list:
 ISph  on   Nord     Re0    Alpha      Xe            Ye            Ze
    1   C      1    1.8500  1.000     -8.939293     -0.870629      1.111714
    2   C      2    1.8500  1.000     -8.938444      0.431306      1.246397
    3   C      3    1.8500  1.000     -8.203680     -2.139449      0.979560
    4   C      4    1.8500  1.000     -7.069197     -2.787574      0.900235
    5   C      5    1.8500  1.000     -9.676241     -2.139990      0.992347
    6   C      6    1.8500  1.000    -10.811038     -2.790149      0.939313
    7   C      7    1.8500  1.000    -10.183112      1.178769      1.335643
    8   N      8    1.8900  1.000    -11.172271      1.728523      1.402128
    9   C      9    1.8500  1.000     -7.692807      1.178989      1.318463
   10   N     10    1.8900  1.000     -6.703120      1.729181      1.371872
   11   C     11    1.8500  1.000     -5.796580     -2.085079      0.955497
   12   N     12    1.8900  1.000     -4.823744     -1.505104      1.001059
   13   C     13    1.8500  1.000     -7.038306     -4.233869      0.748548
   14   N     14    1.8900  1.000     -7.053134     -5.361030      0.628765
   15   C     15    1.8500  1.000    -10.842063     -4.239183      0.817248
   16   N     16    1.8900  1.000    -10.827249     -5.369069      0.726794
   17   C     17    1.8500  1.000    -12.083554     -2.088066      1.002557
   18   N     18    1.8900  1.000    -13.056062     -1.507755      1.050665
 ------------------------------------------------------------------------------
 ------------------------------------------------------------------------------
 Atomic radii for non-electrostatic terms: SMD-CDS.
 ------------------------------------------------------------------------------
 Nuclear repulsion after PCM non-electrostatic terms =      968.3203352806 Hartrees.
 One-electron integrals computed using PRISM.
   1 Symmetry operations used in ECPInt.
 ECPInt:  NShTT=    5886 NPrTT=   23670 LenC2=    5404 LenP2D=   14988.
 LDataN:  DoStor=T MaxTD1= 4 Len=   56
 NBasis=   252 RedAO= T EigKep=  2.28D-04  NBF=   252
 NBsUse=   252 1.00D-06 EigRej= -1.00D+00 NBFU=   252
 Initial guess from the checkpoint file:  "b.chk"
 B after Tr=    -0.000002    0.000027    0.000027
         Rot=    1.000000   -0.000003    0.000000   -0.000000 Ang=  -0.00 deg.
 Initial guess <Sx>= 0.0000 <Sy>= 0.0000 <Sz>= 0.5000 <S**2>= 0.7844 S= 0.5170
 Requested convergence on RMS density matrix=1.00D-08 within  64 cycles.
 Requested convergence on MAX density matrix=1.00D-06.
 Requested convergence on             energy=1.00D-06.
 No special actions if energy rises.
 Inv3:  Mode=1 IEnd=    19005867.
 Iteration    1 A*A^-1 deviation from unit magnitude is 3.11D-15 for    898.
 Iteration    1 A*A^-1 deviation from orthogonality  is 3.19D-15 for   1775    195.
 Iteration    1 A^-1*A deviation from unit magnitude is 3.55D-15 for   1277.
 Iteration    1 A^-1*A deviation from orthogonality  is 1.50D-10 for   1603   1555.
 Iteration    2 A*A^-1 deviation from unit magnitude is 4.55D-15 for   1991.
 Iteration    2 A*A^-1 deviation from orthogonality  is 5.03D-15 for   1168     28.
 Iteration    2 A^-1*A deviation from unit magnitude is 1.22D-15 for   1681.
 Iteration    2 A^-1*A deviation from orthogonality  is 6.49D-16 for   1814   1675.
 Error on total polarization charges =  0.01933
 SCF Done:  E(UwB97XD) =  -784.826215203     A.U. after   15 cycles
            NFock= 15  Conv=0.90D-08     -V/T= 2.0087
 <Sx>= 0.0000 <Sy>= 0.0000 <Sz>= 0.5000 <S**2>= 0.7750 S= 0.5124
 <L.S>=  0.00000000000    
 SMD-CDS (non-electrostatic) energy       (kcal/mol) =       5.41
 (included in total energy above)
 Annihilation of the first spin contaminant:
 S**2 before annihilation     0.7750,   after     0.7505
 QCSCF skips out because SCF is already converged.

 **********************************************************************

            Population analysis using the SCF Density.

 **********************************************************************

 Alpha  occ. eigenvalues --  -14.45309 -14.45308 -14.45307 -14.45304 -14.45304
 Alpha  occ. eigenvalues --  -14.45301 -10.37717 -10.37714 -10.37705 -10.37518
 Alpha  occ. eigenvalues --  -10.37493 -10.37483 -10.35566 -10.35565 -10.35565
 Alpha  occ. eigenvalues --  -10.35564 -10.35564 -10.35561  -1.03873  -1.02708
 Alpha  occ. eigenvalues --   -1.02704  -1.01759  -1.01757  -1.01686  -1.01083
 Alpha  occ. eigenvalues --   -0.92713  -0.92706  -0.88589  -0.72172  -0.72163
 Alpha  occ. eigenvalues --   -0.68150  -0.68144  -0.67969  -0.67269  -0.55045
 Alpha  occ. eigenvalues --   -0.51021  -0.51015  -0.48546  -0.48538  -0.47472
 Alpha  occ. eigenvalues --   -0.47358  -0.47355  -0.46888  -0.46290  -0.46289
 Alpha  occ. eigenvalues --   -0.45951  -0.45852  -0.45478  -0.45478  -0.45306
 Alpha  occ. eigenvalues --   -0.44827  -0.44824  -0.43644  -0.43222  -0.43220
 Alpha  occ. eigenvalues --   -0.36602  -0.36595  -0.25789
 Alpha virt. eigenvalues --    0.05197   0.05199   0.07609   0.08161   0.08170
 Alpha virt. eigenvalues --    0.09553   0.11497   0.11500   0.11973   0.13341
 Alpha virt. eigenvalues --    0.13346   0.14851   0.18866   0.18881   0.21153
 Alpha virt. eigenvalues --    0.22804   0.25619   0.25632   0.25920   0.25935
 Alpha virt. eigenvalues --    0.28024   0.30826   0.30842   0.31803   0.31833
 Alpha virt. eigenvalues --    0.33274   0.35378   0.47798   0.47802   0.49306
 Alpha virt. eigenvalues --    0.49820   0.51773   0.51783   0.53080   0.53094
 Alpha virt. eigenvalues --    0.54647   0.54674   0.55101   0.57501   0.59943
 Alpha virt. eigenvalues --    0.59956   0.60164   0.62004   0.62034   0.63661
 Alpha virt. eigenvalues --    0.64097   0.69372   0.69380   0.72077   0.72533
 Alpha virt. eigenvalues --    0.72562   0.72807   0.72836   0.73752   0.73777
 Alpha virt. eigenvalues --    0.74297   0.74346   0.75185   0.76020   0.76025
 Alpha virt. eigenvalues --    0.79935   0.80000   0.80042   0.81328   0.81342
 Alpha virt. eigenvalues --    0.85199   0.85223   0.87366   0.88005   0.93533
 Alpha virt. eigenvalues --    0.93549   0.93561   0.93679   0.93721   0.94566
 Alpha virt. eigenvalues --    0.96357   0.98905   0.98912   1.00445   1.00528
 Alpha virt. eigenvalues --    1.01739   1.01740   1.03588   1.03596   1.04636
 Alpha virt. eigenvalues --    1.07678   1.08432   1.09751   1.09756   1.13298
 Alpha virt. eigenvalues --    1.13300   1.17426   1.17532   1.18619   1.18651
 Alpha virt. eigenvalues --    1.21055   1.23956   1.23983   1.24409   1.32741
 Alpha virt. eigenvalues --    1.35544   1.35615   1.38836   1.38853   1.42329
 Alpha virt. eigenvalues --    1.43982   1.44045   1.45691   1.45743   1.57412
 Alpha virt. eigenvalues --    1.61429   1.66363   1.68033   1.68037   1.68055
 Alpha virt. eigenvalues --    1.68551   1.68552   1.75746   1.75770   1.77832
 Alpha virt. eigenvalues --    1.77887   1.78254   1.78261   1.78742   1.80981
 Alpha virt. eigenvalues --    1.81010   1.82182   1.85791   1.94132   1.95241
 Alpha virt. eigenvalues --    1.95246   1.97976   1.98751   1.98772   2.01027
 Alpha virt. eigenvalues --    2.01732   2.01770   2.04780   2.08416   2.08448
 Alpha virt. eigenvalues --    2.15176   2.19753   2.19762   2.23753   2.25554
 Alpha virt. eigenvalues --    2.28236   2.31195   2.31223   2.34315   2.34317
 Alpha virt. eigenvalues --    2.34657   2.34690   2.35290   2.35294   2.35731
 Alpha virt. eigenvalues --    2.36304   2.36309   2.36981   2.37088   2.37393
 Alpha virt. eigenvalues --    2.39628   2.39630   2.60760   2.60794   2.60958
 Alpha virt. eigenvalues --    2.72663   2.72699   2.93861   2.96738   2.98115
 Alpha virt. eigenvalues --    2.98120   3.01380   3.01412   3.01926   3.05487
 Alpha virt. eigenvalues --    3.08218   3.08228   3.12315   3.12353   3.12723
 Alpha virt. eigenvalues --    3.12725   3.13189   3.25014   3.25027   3.31024
 Alpha virt. eigenvalues --    3.44095   3.44318   3.44359   3.55672   3.58352
 Alpha virt. eigenvalues --    3.58374   3.67628   3.67640   3.83075
  Beta  occ. eigenvalues --  -14.45162 -14.45161 -14.45161 -14.45158 -14.45157
  Beta  occ. eigenvalues --  -14.45154 -10.37550 -10.37532 -10.37522 -10.37355
  Beta  occ. eigenvalues --  -10.37352 -10.37346 -10.35638 -10.35637 -10.35637
  Beta  occ. eigenvalues --  -10.35636 -10.35636 -10.35633  -1.03483  -1.02430
  Beta  occ. eigenvalues --   -1.02426  -1.01511  -1.01509  -1.01439  -1.00674
  Beta  occ. eigenvalues --   -0.92037  -0.92030  -0.87591  -0.71940  -0.71931
  Beta  occ. eigenvalues --   -0.67906  -0.67900  -0.67740  -0.67004  -0.53942
  Beta  occ. eigenvalues --   -0.49815  -0.49810  -0.48345  -0.48338  -0.47197
  Beta  occ. eigenvalues --   -0.47079  -0.47076  -0.46607  -0.46137  -0.46134
  Beta  occ. eigenvalues --   -0.45861  -0.44769  -0.44768  -0.44703  -0.44694
  Beta  occ. eigenvalues --   -0.44677  -0.44673  -0.43537  -0.43087  -0.43085
  Beta  occ. eigenvalues --   -0.34273  -0.34269
  Beta virt. eigenvalues --   -0.08117   0.06456   0.06458   0.07708   0.08250
  Beta virt. eigenvalues --    0.08259   0.09541   0.12401   0.12404   0.12644
  Beta virt. eigenvalues --    0.13397   0.13402   0.15075   0.19093   0.19108
  Beta virt. eigenvalues --    0.22681   0.22776   0.25815   0.25817   0.27550
  Beta virt. eigenvalues --    0.27555   0.28270   0.30992   0.31010   0.32282
  Beta virt. eigenvalues --    0.32310   0.33846   0.35470   0.47944   0.47949
  Beta virt. eigenvalues --    0.49388   0.49921   0.51871   0.51880   0.53031
  Beta virt. eigenvalues --    0.53045   0.54842   0.54870   0.55290   0.57687
  Beta virt. eigenvalues --    0.59876   0.59890   0.60143   0.62022   0.62053
  Beta virt. eigenvalues --    0.63559   0.64439   0.69541   0.69548   0.72282
  Beta virt. eigenvalues --    0.72684   0.72714   0.72916   0.72946   0.73876
  Beta virt. eigenvalues --    0.73950   0.74415   0.74465   0.75210   0.76200
  Beta virt. eigenvalues --    0.76204   0.79981   0.80049   0.80929   0.82014
  Beta virt. eigenvalues --    0.82027   0.85323   0.85346   0.87611   0.88086
  Beta virt. eigenvalues --    0.93712   0.93795   0.93845   0.94018   0.94038
  Beta virt. eigenvalues --    0.95035   0.96958   0.99416   0.99423   1.00557
  Beta virt. eigenvalues --    1.00641   1.01846   1.01848   1.03879   1.03885
  Beta virt. eigenvalues --    1.04724   1.08009   1.08503   1.10036   1.10042
  Beta virt. eigenvalues --    1.13396   1.13398   1.17608   1.17832   1.18852
  Beta virt. eigenvalues --    1.18885   1.21521   1.24165   1.24187   1.25120
  Beta virt. eigenvalues --    1.32863   1.35746   1.35818   1.39473   1.39492
  Beta virt. eigenvalues --    1.43083   1.44077   1.44133   1.46448   1.46493
  Beta virt. eigenvalues --    1.57470   1.61408   1.66246   1.67891   1.67895
  Beta virt. eigenvalues --    1.67917   1.68420   1.68421   1.75666   1.75690
  Beta virt. eigenvalues --    1.78051   1.78096   1.78220   1.78235   1.78704
  Beta virt. eigenvalues --    1.80986   1.81016   1.82442   1.85739   1.94410
  Beta virt. eigenvalues --    1.95307   1.95312   1.98158   1.99307   1.99324
  Beta virt. eigenvalues --    2.01175   2.02112   2.02152   2.05548   2.08770
  Beta virt. eigenvalues --    2.08803   2.15412   2.20638   2.20648   2.24791
  Beta virt. eigenvalues --    2.26139   2.28830   2.31822   2.31843   2.34834
  Beta virt. eigenvalues --    2.34837   2.35186   2.35221   2.35815   2.35819
  Beta virt. eigenvalues --    2.36264   2.36680   2.36686   2.37576   2.37595
  Beta virt. eigenvalues --    2.37834   2.40256   2.40258   2.60888   2.60917
  Beta virt. eigenvalues --    2.61423   2.73265   2.73302   2.93945   2.96943
  Beta virt. eigenvalues --    2.98232   2.98237   3.01515   3.01547   3.02039
  Beta virt. eigenvalues --    3.05915   3.08694   3.08704   3.12511   3.12550
  Beta virt. eigenvalues --    3.13154   3.13156   3.13614   3.25226   3.25239
  Beta virt. eigenvalues --    3.31193   3.44273   3.44542   3.44584   3.55830
  Beta virt. eigenvalues --    3.58514   3.58536   3.67810   3.67822   3.83254
          Condensed to atoms (all electrons):
               1          2          3          4          5          6
     1  C    4.923565   0.559566   0.278239  -0.125774   0.278200  -0.125874
     2  C    0.559566   5.407698  -0.125842  -0.013438  -0.125873  -0.013437
     3  C    0.278239  -0.125842   4.925326   0.559257   0.277385  -0.126346
     4  C   -0.125774  -0.013438   0.559257   5.408900  -0.126363  -0.013432
     5  C    0.278200  -0.125873   0.277385  -0.126363   4.925407   0.559274
     6  C   -0.125874  -0.013437  -0.126346  -0.013432   0.559274   5.409054
     7  C    0.009291   0.388820   0.005017  -0.000488  -0.019591   0.001849
     8  N   -0.002218  -0.023934  -0.000064  -0.000002  -0.000530   0.000083
     9  C    0.009327   0.388828  -0.019590   0.001859   0.005010  -0.000487
    10  N   -0.002219  -0.023930  -0.000530   0.000084  -0.000065  -0.000002
    11  C   -0.019642   0.001821   0.009447   0.388705   0.005024  -0.000478
    12  N   -0.000532   0.000082  -0.002212  -0.023921  -0.000064  -0.000002
    13  C    0.005065  -0.000482   0.009186   0.389111  -0.019611   0.001783
    14  N   -0.000063  -0.000002  -0.002219  -0.023989  -0.000535   0.000078
    15  C    0.005071  -0.000481  -0.019655   0.001774   0.009265   0.389100
    16  N   -0.000063  -0.000002  -0.000537   0.000077  -0.002219  -0.023997
    17  C   -0.019636   0.001815   0.005046  -0.000476   0.009397   0.388598
    18  N   -0.000532   0.000082  -0.000064  -0.000002  -0.002212  -0.023933
               7          8          9         10         11         12
     1  C    0.009291  -0.002218   0.009327  -0.002219  -0.019642  -0.000532
     2  C    0.388820  -0.023934   0.388828  -0.023930   0.001821   0.000082
     3  C    0.005017  -0.000064  -0.019590  -0.000530   0.009447  -0.002212
     4  C   -0.000488  -0.000002   0.001859   0.000084   0.388705  -0.023921
     5  C   -0.019591  -0.000530   0.005010  -0.000065   0.005024  -0.000064
     6  C    0.001849   0.000083  -0.000487  -0.000002  -0.000478  -0.000002
     7  C    4.826979   0.940676  -0.041689   0.001600   0.000081   0.000001
     8  N    0.940676   6.042155   0.001601   0.000055   0.000000   0.000000
     9  C   -0.041689   0.001601   4.826940   0.940670  -0.000142   0.000245
    10  N    0.001600   0.000055   0.940670   6.042158   0.000239  -0.000819
    11  C    0.000081   0.000000  -0.000142   0.000239   4.826622   0.940674
    12  N    0.000001   0.000000   0.000245  -0.000819   0.940674   6.041964
    13  C   -0.000009  -0.000000   0.000081   0.000001  -0.041505   0.001601
    14  N   -0.000000  -0.000000   0.000000   0.000000   0.001601   0.000055
    15  C    0.000081   0.000001  -0.000009  -0.000000   0.000080   0.000000
    16  N    0.000000   0.000000  -0.000000  -0.000000   0.000001   0.000000
    17  C   -0.000141   0.000239   0.000081   0.000000  -0.000009  -0.000000
    18  N    0.000243  -0.000816   0.000001   0.000000  -0.000000  -0.000000
              13         14         15         16         17         18
     1  C    0.005065  -0.000063   0.005071  -0.000063  -0.019636  -0.000532
     2  C   -0.000482  -0.000002  -0.000481  -0.000002   0.001815   0.000082
     3  C    0.009186  -0.002219  -0.019655  -0.000537   0.005046  -0.000064
     4  C    0.389111  -0.023989   0.001774   0.000077  -0.000476  -0.000002
     5  C   -0.019611  -0.000535   0.009265  -0.002219   0.009397  -0.002212
     6  C    0.001783   0.000078   0.389100  -0.023997   0.388598  -0.023933
     7  C   -0.000009  -0.000000   0.000081   0.000000  -0.000141   0.000243
     8  N   -0.000000  -0.000000   0.000001   0.000000   0.000239  -0.000816
     9  C    0.000081   0.000000  -0.000009  -0.000000   0.000081   0.000001
    10  N    0.000001   0.000000  -0.000000  -0.000000   0.000000   0.000000
    11  C   -0.041505   0.001601   0.000080   0.000001  -0.000009  -0.000000
    12  N    0.001601   0.000055   0.000000   0.000000  -0.000000  -0.000000
    13  C    4.826751   0.940767  -0.000140   0.000237   0.000080   0.000000
    14  N    0.940767   6.042130   0.000233  -0.000793   0.000001   0.000000
    15  C   -0.000140   0.000233   4.826771   0.940747  -0.041505   0.001602
    16  N    0.000237  -0.000793   0.940747   6.042173   0.001601   0.000055
    17  C    0.000080   0.000001  -0.041505   0.001601   4.826746   0.940711
    18  N    0.000000   0.000000   0.001602   0.000055   0.940711   6.041877
          Atomic-Atomic Spin Densities.
               1          2          3          4          5          6
     1  C   -0.000014  -0.079303   0.037838  -0.008269   0.037848  -0.008268
     2  C   -0.079303   0.381997  -0.008258   0.001318  -0.008263   0.001321
     3  C    0.037838  -0.008258   0.000139  -0.079458   0.037892  -0.008267
     4  C   -0.008269   0.001318  -0.079458   0.382485  -0.008263   0.001312
     5  C    0.037848  -0.008263   0.037892  -0.008263   0.000146  -0.079459
     6  C   -0.008268   0.001321  -0.008267   0.001312  -0.079459   0.382498
     7  C   -0.001263   0.008446  -0.000116  -0.000010   0.000304  -0.000068
     8  N    0.000541  -0.004983   0.000009  -0.000000   0.000061  -0.000035
     9  C   -0.001257   0.008443   0.000305  -0.000068  -0.000116  -0.000010
    10  N    0.000541  -0.004983   0.000061  -0.000035   0.000009  -0.000000
    11  C    0.000310  -0.000069  -0.001266   0.008441  -0.000116  -0.000010
    12  N    0.000061  -0.000035   0.000542  -0.004991   0.000009  -0.000000
    13  C   -0.000115  -0.000010  -0.001256   0.008463   0.000298  -0.000068
    14  N    0.000009  -0.000000   0.000542  -0.004985   0.000060  -0.000034
    15  C   -0.000115  -0.000010   0.000299  -0.000068  -0.001252   0.008457
    16  N    0.000009  -0.000000   0.000061  -0.000034   0.000544  -0.004990
    17  C    0.000308  -0.000068  -0.000116  -0.000010  -0.001264   0.008447
    18  N    0.000061  -0.000035   0.000009  -0.000000   0.000543  -0.004992
               7          8          9         10         11         12
     1  C   -0.001263   0.000541  -0.001257   0.000541   0.000310   0.000061
     2  C    0.008446  -0.004983   0.008443  -0.004983  -0.000069  -0.000035
     3  C   -0.000116   0.000009   0.000305   0.000061  -0.001266   0.000542
     4  C   -0.000010  -0.000000  -0.000068  -0.000035   0.008441  -0.004991
     5  C    0.000304   0.000061  -0.000116   0.000009  -0.000116   0.000009
     6  C   -0.000068  -0.000035  -0.000010  -0.000000  -0.000010  -0.000000
     7  C   -0.059672  -0.002316  -0.000819   0.000061  -0.000002   0.000000
     8  N   -0.002316   0.091364   0.000061   0.000008  -0.000000   0.000000
     9  C   -0.000819   0.000061  -0.059669  -0.002314   0.000015   0.000006
    10  N    0.000061   0.000008  -0.002314   0.091359   0.000006   0.000036
    11  C   -0.000002  -0.000000   0.000015   0.000006  -0.059744  -0.002318
    12  N    0.000000   0.000000   0.000006   0.000036  -0.002318   0.091420
    13  C    0.000000  -0.000000  -0.000002   0.000000  -0.000822   0.000061
    14  N   -0.000000   0.000000  -0.000000   0.000000   0.000061   0.000008
    15  C   -0.000002   0.000000   0.000000  -0.000000  -0.000002  -0.000000
    16  N   -0.000000   0.000000  -0.000000   0.000000   0.000000   0.000000
    17  C    0.000016   0.000006  -0.000002  -0.000000   0.000000  -0.000000
    18  N    0.000006   0.000035   0.000000   0.000000  -0.000000   0.000000
              13         14         15         16         17         18
     1  C   -0.000115   0.000009  -0.000115   0.000009   0.000308   0.000061
     2  C   -0.000010  -0.000000  -0.000010  -0.000000  -0.000068  -0.000035
     3  C   -0.001256   0.000542   0.000299   0.000061  -0.000116   0.000009
     4  C    0.008463  -0.004985  -0.000068  -0.000034  -0.000010  -0.000000
     5  C    0.000298   0.000060  -0.001252   0.000544  -0.001264   0.000543
     6  C   -0.000068  -0.000034   0.008457  -0.004990   0.008447  -0.004992
     7  C    0.000000  -0.000000  -0.000002  -0.000000   0.000016   0.000006
     8  N   -0.000000   0.000000   0.000000   0.000000   0.000006   0.000035
     9  C   -0.000002  -0.000000   0.000000  -0.000000  -0.000002   0.000000
    10  N    0.000000   0.000000  -0.000000   0.000000  -0.000000   0.000000
    11  C   -0.000822   0.000061  -0.000002   0.000000   0.000000  -0.000000
    12  N    0.000061   0.000008  -0.000000   0.000000  -0.000000   0.000000
    13  C   -0.059730  -0.002317   0.000015   0.000006  -0.000002  -0.000000
    14  N   -0.002317   0.091485   0.000006   0.000034   0.000000   0.000000
    15  C    0.000015   0.000006  -0.059736  -0.002318  -0.000819   0.000061
    16  N    0.000006   0.000034  -0.002318   0.091491   0.000061   0.000008
    17  C   -0.000002   0.000000  -0.000819   0.000061  -0.059741  -0.002318
    18  N   -0.000000   0.000000   0.000061   0.000008  -0.002318   0.091414
 Mulliken charges and spin densities:
               1          2
     1  C    0.228228  -0.021078
     2  C   -0.421292   0.295507
     3  C    0.228158  -0.021042
     4  C   -0.421882   0.295824
     5  C    0.228102  -0.021020
     6  C   -0.421829   0.295831
     7  C   -0.112720  -0.055435
     8  N    0.042755   0.084752
     9  C   -0.112727  -0.055428
    10  N    0.042757   0.084749
    11  C   -0.112520  -0.055516
    12  N    0.042928   0.084798
    13  C   -0.112917  -0.055481
    14  N    0.042735   0.084868
    15  C   -0.112934  -0.055486
    16  N    0.042720   0.084870
    17  C   -0.112549  -0.055504
    18  N    0.042989   0.084791
 Sum of Mulliken charges =  -1.00000   1.00000
 Mulliken charges and spin densities with hydrogens summed into heavy atoms:
               1          2
     1  C    0.228228  -0.021078
     2  C   -0.421292   0.295507
     3  C    0.228158  -0.021042
     4  C   -0.421882   0.295824
     5  C    0.228102  -0.021020
     6  C   -0.421829   0.295831
     7  C   -0.112720  -0.055435
     8  N    0.042755   0.084752
     9  C   -0.112727  -0.055428
    10  N    0.042757   0.084749
    11  C   -0.112520  -0.055516
    12  N    0.042928   0.084798
    13  C   -0.112917  -0.055481
    14  N    0.042735   0.084868
    15  C   -0.112934  -0.055486
    16  N    0.042720   0.084870
    17  C   -0.112549  -0.055504
    18  N    0.042989   0.084791
 Electronic spatial extent (au):  <R**2>=          38968.9081
 Charge=             -1.0000 electrons
 Dipole moment (field-independent basis, Debye):
    X=             42.9351    Y=              8.2285    Z=             -4.9535  Tot=             43.9962
 Quadrupole moment (field-independent basis, Debye-Ang):
   XX=           -552.8347   YY=           -182.4638   ZZ=           -103.7290
   XY=            -73.6061   XZ=             44.8615   YZ=              1.5309
 Traceless Quadrupole moment (field-independent basis, Debye-Ang):
   XX=           -273.1589   YY=             97.2121   ZZ=            175.9468
   XY=            -73.6061   XZ=             44.8615   YZ=              1.5309
 Octapole moment (field-independent basis, Debye-Ang**2):
  XXX=           7964.0701  YYY=            959.0702  ZZZ=           -309.7846  XYY=           1631.3986
  XXY=            879.2861  XXZ=           -586.0555  XZZ=            928.3994  YZZ=            164.0326
  YYZ=           -158.3731  XYZ=            -15.0948
 Hexadecapole moment (field-independent basis, Debye-Ang**3):
 XXXX=        -115981.7010 YYYY=          -7692.4461 ZZZZ=           -758.9608 XXXY=         -11814.9736
 XXXZ=           8521.6088 YYYX=          -8577.5445 YYYZ=            633.3120 ZZZX=           2784.9090
 ZZZY=            362.5955 XXYY=         -16259.9314 XXZZ=          -9035.7375 YYZZ=           -961.8443
 XXYZ=            296.4113 YYXZ=           1429.6894 ZZXY=          -1468.3539
 N-N= 9.683203352806D+02 E-N=-3.772947448802D+03  KE= 7.780396849234D+02
                          Isotropic Fermi Contact Couplings
        Atom                 a.u.       MegaHertz       Gauss      10(-4) cm-1
     1  C(13)             -0.01254     -14.09485      -5.02939      -4.70153
     2  C(13)              0.04563      51.30235      18.30595      17.11262
     3  C(13)             -0.01258     -14.13982      -5.04544      -4.71653
     4  C(13)              0.04566      51.33453      18.31744      17.12336
     5  C(13)             -0.01256     -14.11814      -5.03770      -4.70930
     6  C(13)              0.04566      51.33131      18.31629      17.12228
     7  C(13)             -0.02846     -31.99565     -11.41684     -10.67260
     8  N(14)              0.01940       6.26702       2.23623       2.09045
     9  C(13)             -0.02846     -31.99890     -11.41800     -10.67368
    10  N(14)              0.01940       6.26668       2.23611       2.09034
    11  C(13)             -0.02847     -32.00656     -11.42074     -10.67624
    12  N(14)              0.01941       6.26989       2.23725       2.09141
    13  C(13)             -0.02851     -32.04678     -11.43509     -10.68966
    14  N(14)              0.01942       6.27572       2.23933       2.09335
    15  C(13)             -0.02850     -32.04254     -11.43358     -10.68824
    16  N(14)              0.01942       6.27589       2.23939       2.09341
    17  C(13)             -0.02847     -32.01024     -11.42205     -10.67747
    18  N(14)              0.01940       6.26954       2.23713       2.09129
 --------------------------------------------------------
       Center         ----  Spin Dipole Couplings  ----
                      3XX-RR        3YY-RR        3ZZ-RR
 --------------------------------------------------------
     1   Atom       -0.017740      0.014542      0.003198
     2   Atom       -0.152193     -0.148892      0.301085
     3   Atom        0.006474     -0.009846      0.003372
     4   Atom       -0.153719     -0.147923      0.301642
     5   Atom        0.006454     -0.009829      0.003375
     6   Atom       -0.153807     -0.149504      0.303311
     7   Atom        0.027392      0.006313     -0.033705
     8   Atom       -0.087166     -0.071517      0.158683
     9   Atom        0.027434      0.006277     -0.033711
    10   Atom       -0.087195     -0.071448      0.158643
    11   Atom        0.026979      0.006808     -0.033787
    12   Atom       -0.086022     -0.072854      0.158876
    13   Atom       -0.003192      0.036634     -0.033442
    14   Atom       -0.068823     -0.089790      0.158613
    15   Atom       -0.003188      0.036892     -0.033704
    16   Atom       -0.068862     -0.091175      0.160037
    17   Atom        0.026974      0.006912     -0.033885
    18   Atom       -0.086055     -0.073811      0.159866
 --------------------------------------------------------
                        XY            XZ            YZ
 --------------------------------------------------------
     1   Atom        0.000184     -0.001670      0.000573
     2   Atom       -0.000346      0.003251     -0.048349
     3   Atom       -0.014004     -0.000140     -0.000406
     4   Atom        0.000150      0.006213     -0.047366
     5   Atom        0.013927      0.001084     -0.000560
     6   Atom       -0.000916      0.001461     -0.039153
     7   Atom       -0.017307     -0.002222      0.004313
     8   Atom        0.009687      0.003486     -0.024731
     9   Atom        0.017352      0.001526      0.004273
    10   Atom       -0.010089      0.000408     -0.024973
    11   Atom        0.017703      0.000892      0.003988
    12   Atom       -0.010994      0.002516     -0.024220
    13   Atom        0.000206     -0.000297      0.007324
    14   Atom       -0.000916      0.002494     -0.027099
    15   Atom       -0.000171     -0.000038      0.005975
    16   Atom        0.000620      0.000327     -0.019755
    17   Atom       -0.017635     -0.001663      0.003504
    18   Atom        0.010664      0.000656     -0.019158
 --------------------------------------------------------


 ---------------------------------------------------------------------------------
              Anisotropic Spin Dipole Couplings in Principal Axis System
 ---------------------------------------------------------------------------------

       Atom             a.u.   MegaHertz   Gauss  10(-4) cm-1        Axes

              Baa    -0.0179    -2.399    -0.856    -0.800  0.9968 -0.0071  0.0792
     1 C(13)  Bbb     0.0033     0.443     0.158     0.148 -0.0795 -0.0494  0.9956
              Bcc     0.0146     1.955     0.698     0.652  0.0031  0.9988  0.0498
 
              Baa    -0.1540   -20.669    -7.375    -6.894  0.0002  0.9944  0.1056
     2 C(13)  Bbb    -0.1522   -20.426    -7.289    -6.813  1.0000  0.0005 -0.0071
              Bcc     0.3062    41.095    14.664    13.708  0.0071 -0.1056  0.9944
 
              Baa    -0.0179    -2.402    -0.857    -0.801  0.4981  0.8669  0.0198
     3 C(13)  Bbb     0.0034     0.454     0.162     0.151 -0.0162 -0.0136  0.9998
              Bcc     0.0145     1.949     0.695     0.650  0.8669 -0.4983  0.0072
 
              Baa    -0.1543   -20.699    -7.386    -6.905  0.8690 -0.4908 -0.0628
     4 C(13)  Bbb    -0.1524   -20.452    -7.298    -6.822  0.4946  0.8651  0.0835
              Bcc     0.3067    41.151    14.684    13.726  0.0134 -0.1036  0.9945
 
              Baa    -0.0179    -2.398    -0.856    -0.800 -0.4979  0.8659  0.0482
     5 C(13)  Bbb     0.0034     0.454     0.162     0.152 -0.0277 -0.0715  0.9971
              Bcc     0.0145     1.944     0.694     0.648  0.8668  0.4951  0.0596
 
              Baa    -0.1543   -20.700    -7.386    -6.905  0.8705  0.4906  0.0392
     6 C(13)  Bbb    -0.1524   -20.453    -7.298    -6.822 -0.4922  0.8672  0.0761
              Bcc     0.3067    41.153    14.684    13.727  0.0033 -0.0855  0.9963
 
              Baa    -0.0342    -4.585    -1.636    -1.529  0.0069 -0.1030  0.9947
     7 C(13)  Bbb    -0.0032    -0.427    -0.152    -0.142  0.4955  0.8643  0.0861
              Bcc     0.0373     5.012     1.788     1.672  0.8686 -0.4923 -0.0570
 
              Baa    -0.0926    -3.572    -1.274    -1.191  0.8793 -0.4727 -0.0587
     8 N(14)  Bbb    -0.0687    -2.651    -0.946    -0.884  0.4763  0.8749  0.0878
              Bcc     0.1613     6.222     2.220     2.076  0.0098 -0.1052  0.9944
 
              Baa    -0.0342    -4.584    -1.636    -1.529  0.0057 -0.1075  0.9942
     9 C(13)  Bbb    -0.0032    -0.427    -0.152    -0.142 -0.4945  0.8639  0.0962
              Bcc     0.0373     5.011     1.788     1.672  0.8692  0.4921  0.0483
 
              Baa    -0.0926    -3.571    -1.274    -1.191  0.8797  0.4734  0.0456
    10 N(14)  Bbb    -0.0687    -2.651    -0.946    -0.884 -0.4755  0.8743  0.0969
              Bcc     0.1613     6.222     2.220     2.075  0.0060 -0.1069  0.9942
 
              Baa    -0.0342    -4.588    -1.637    -1.530  0.0154 -0.1034  0.9945
    11 C(13)  Bbb    -0.0032    -0.428    -0.153    -0.143 -0.5059  0.8571  0.0970
              Bcc     0.0374     5.016     1.790     1.673  0.8625  0.5046  0.0391
 
              Baa    -0.0927    -3.574    -1.275    -1.192  0.8510  0.5235  0.0419
    12 N(14)  Bbb    -0.0688    -2.652    -0.946    -0.885 -0.5250  0.8457  0.0958
              Bcc     0.1614     6.226     2.222     2.077  0.0147 -0.1035  0.9945
 
              Baa    -0.0342    -4.590    -1.638    -1.531  0.0102 -0.1029  0.9946
    13 C(13)  Bbb    -0.0032    -0.428    -0.153    -0.143  0.9999 -0.0032 -0.0106
              Bcc     0.0374     5.018     1.790     1.674  0.0043  0.9947  0.1028
 
              Baa    -0.0927    -3.576    -1.276    -1.193  0.0269  0.9939  0.1069
    14 N(14)  Bbb    -0.0688    -2.655    -0.947    -0.886  0.9996 -0.0256 -0.0140
              Bcc     0.1616     6.231     2.223     2.078  0.0112 -0.1072  0.9942
 
              Baa    -0.0342    -4.590    -1.638    -1.531  0.0008 -0.0837  0.9965
    15 C(13)  Bbb    -0.0032    -0.428    -0.153    -0.143  1.0000  0.0043 -0.0004
              Bcc     0.0374     5.018     1.791     1.674 -0.0043  0.9965  0.0837
 
              Baa    -0.0927    -3.577    -1.276    -1.193 -0.0270  0.9966  0.0779
    16 N(14)  Bbb    -0.0688    -2.655    -0.947    -0.886  0.9996  0.0270  0.0009
              Bcc     0.1616     6.232     2.224     2.079  0.0012 -0.0779  0.9970
 
              Baa    -0.0342    -4.587    -1.637    -1.530  0.0030 -0.0837  0.9965
    17 C(13)  Bbb    -0.0032    -0.428    -0.153    -0.143  0.5063  0.8594  0.0707
              Bcc     0.0374     5.015     1.790     1.673  0.8623 -0.5044 -0.0449
 
              Baa    -0.0927    -3.574    -1.275    -1.192  0.8507 -0.5240 -0.0420
    18 N(14)  Bbb    -0.0688    -2.652    -0.946    -0.885  0.5257  0.8478  0.0695
              Bcc     0.1614     6.226     2.222     2.077 -0.0009 -0.0812  0.9967
 

 ---------------------------------------------------------------------------------

   1 Symmetry operations used in ECPInt.
 ECPInt:  NShTT=    5886 NPrTT=   23670 LenC2=    5404 LenP2D=   14988.
 LDataN:  DoStor=T MaxTD1= 5 Len=  102
 D1PCM: PCM CHGder 1st derivatives, ID1Alg=3 FixD1E=F DoIter=F DoCFld=F I1PDM=0.
 Calling FoFJK, ICntrl=      2127 FMM=F ISym2X=0 I1Cent= 0 IOpClX= 1 NMat=1 NMatS=1 NMatT=0.
 -------------------------------------------------------------------
 Center     Atomic                   Forces (Hartrees/Bohr)
 Number     Number              X              Y              Z
 -------------------------------------------------------------------
      1        6          -0.000095553   -0.143038570   -0.014493865
      2        6           0.000058901    0.090938835    0.009538589
      3        6          -0.124468973    0.071247948    0.008412345
      4        6           0.079214627   -0.045133083   -0.005568788
      5        6           0.124582432    0.071437215    0.005885963
      6        6          -0.079290929   -0.045284300   -0.003703407
      7        6           0.071248160   -0.041942329   -0.005008627
      8        7          -0.057380941    0.032600722    0.003992347
      9        6          -0.071353360   -0.041966930   -0.004110351
     10        7           0.057469908    0.032660598    0.003220534
     11        6          -0.072401284   -0.040805662   -0.003167550
     12        7           0.057319915    0.033450884    0.002594929
     13        6          -0.000949871    0.082393451    0.008657380
     14        7          -0.000232014   -0.065796198   -0.007022276
     15        6           0.000951821    0.082578646    0.006677721
     16        7           0.000230813   -0.065975109   -0.005336098
     17        6           0.072414255   -0.040829889   -0.003395214
     18        7          -0.057317906    0.033463772    0.002826366
 -------------------------------------------------------------------
 Cartesian Forces:  Max     0.143038570 RMS     0.053516655

 GradGradGradGradGradGradGradGradGradGradGradGradGradGradGradGradGradGrad
 Berny optimization.
 Search for a local minimum.
 Step number   1 out of a maximum of    2
 All quantities printed in internal units (Hartrees-Bohrs-Radians)
 Second derivative matrix not updated -- first step.
 ITU=  0
     Eigenvalues ---    0.00282   0.00298   0.00298   0.00301   0.00302
     Eigenvalues ---    0.01193   0.01564   0.01719   0.02020   0.02024
     Eigenvalues ---    0.05183   0.05231   0.05423   0.05465   0.10470
     Eigenvalues ---    0.20734   0.20741   0.22714   0.24587   0.24688
     Eigenvalues ---    0.25005   0.25114   0.31678   0.31713   0.44874
     Eigenvalues ---    0.70464   0.70524   0.75474   0.91977   0.92300
     Eigenvalues ---    1.04383   1.04411   1.10800   1.78153   1.78395
     Eigenvalues ---    2.10599   3.15673   3.15725   3.15844   3.18568
     Eigenvalues ---    3.18632   3.18661  21.48277  21.92928  22.50072
     Eigenvalues ---   27.26066  28.06055  28.59156
 Angle between quadratic step and forces=  42.40 degrees.
 Linear search not attempted -- first point.
 B after Tr=    -0.000008    0.000023   -0.000005
         Rot=    1.000000   -0.000002   -0.000001   -0.000000 Ang=  -0.00 deg.
 Variable       Old X    -DE/DX   Delta X   Delta X   Delta X     New X
                                 (Linear)    (Quad)   (Total)
    X1      -16.89282  -0.00010   0.00000   0.00020   0.00020 -16.89262
    Y1       -1.64525  -0.14304   0.00000  -0.06752  -0.06751  -1.71276
    Z1        2.10083  -0.01449   0.00000  -0.00771  -0.00769   2.09315
    X2      -16.89121   0.00006   0.00000  -0.00000  -0.00001 -16.89122
    Y2        0.81505   0.09094   0.00000   0.04414   0.04415   0.85920
    Z2        2.35535   0.00954   0.00000   0.00338   0.00341   2.35876
    X3      -15.50271  -0.12447   0.00000  -0.05757  -0.05758 -15.56029
    Y3       -4.04297   0.07125   0.00000   0.03228   0.03229  -4.01068
    Z3        1.85110   0.00841   0.00000   0.00315   0.00316   1.85426
    X4      -13.35885   0.07921   0.00000   0.04006   0.04006 -13.31879
    Y4       -5.26775  -0.04513   0.00000  -0.02256  -0.02255  -5.29030
    Z4        1.70120  -0.00557   0.00000  -0.00242  -0.00242   1.69878
    X5      -18.28545   0.12458   0.00000   0.05814   0.05813 -18.22731
    Y5       -4.04399   0.07144   0.00000   0.03242   0.03244  -4.01156
    Z5        1.87526   0.00589   0.00000   0.00176   0.00178   1.87704
    X6      -20.42990  -0.07929   0.00000  -0.03973  -0.03973 -20.46963
    Y6       -5.27262  -0.04528   0.00000  -0.02224  -0.02223  -5.29484
    Z6        1.77504  -0.00370   0.00000  -0.00240  -0.00239   1.77266
    X7      -19.24329   0.07125   0.00000   0.03581   0.03581 -19.20749
    Y7        2.22755  -0.04194   0.00000   0.01770   0.01771   2.24526
    Z7        2.52400  -0.00501   0.00000  -0.00000   0.00004   2.52404
    X8      -21.11253  -0.05738   0.00000   0.00052   0.00051 -21.11202
    Y8        3.26643   0.03260   0.00000   0.04673   0.04673   3.31317
    Z8        2.64964   0.00399   0.00000   0.00309   0.00314   2.65277
    X9      -14.53730  -0.07135   0.00000  -0.03648  -0.03648 -14.57378
    Y9        2.22797  -0.04197   0.00000   0.01887   0.01888   2.24684
    Z9        2.49153  -0.00411   0.00000  -0.00016  -0.00013   2.49140
   X10      -12.66706   0.05747   0.00000  -0.00158  -0.00158 -12.66864
   Y10        3.26768   0.03266   0.00000   0.04881   0.04882   3.31650
   Z10        2.59246   0.00322   0.00000   0.00178   0.00181   2.59427
   X11      -10.95395  -0.07240   0.00000  -0.00125  -0.00126 -10.95521
   Y11       -3.94023  -0.04081   0.00000  -0.04009  -0.04008  -3.98030
   Z11        1.80563  -0.00317   0.00000  -0.00110  -0.00110   1.80453
   X12       -9.11556   0.05732   0.00000   0.04154   0.04153  -9.07402
   Y12       -2.84423   0.03345   0.00000  -0.02372  -0.02371  -2.86794
   Z12        1.89173   0.00259   0.00000   0.00229   0.00229   1.89402
   X13      -13.30047  -0.00095   0.00000   0.03698   0.03698 -13.26349
   Y13       -8.00085   0.08239   0.00000   0.02148   0.02149  -7.97936
   Z13        1.41455   0.00866   0.00000   0.00225   0.00224   1.41679
   X14      -13.32849  -0.00023   0.00000   0.04634   0.04634 -13.28216
   Y14      -10.13088  -0.06580   0.00000  -0.02353  -0.02352 -10.15440
   Z14        1.18819  -0.00702   0.00000  -0.00208  -0.00210   1.18610
   X15      -20.48853   0.00095   0.00000  -0.03723  -0.03724 -20.52576
   Y15       -8.01090   0.08258   0.00000   0.02209   0.02211  -7.98879
   Z15        1.54438   0.00668   0.00000  -0.00154  -0.00154   1.54284
   X16      -20.46054   0.00023   0.00000  -0.04698  -0.04699 -20.50752
   Y16      -10.14607  -0.06598   0.00000  -0.02270  -0.02268 -10.16875
   Z16        1.37344  -0.00534   0.00000  -0.00884  -0.00884   1.36460
   X17      -22.83461   0.07241   0.00000   0.00193   0.00192 -22.83268
   Y17       -3.94587  -0.04083   0.00000  -0.03945  -0.03944  -3.98531
   Z17        1.89456  -0.00340   0.00000   0.00093   0.00095   1.89551
   X18      -24.67238  -0.05732   0.00000  -0.04062  -0.04063 -24.71301
   Y18       -2.84924   0.03346   0.00000  -0.02291  -0.02290  -2.87214
   Z18        1.98547   0.00283   0.00000   0.00734   0.00737   1.99284
         Item               Value     Threshold  Converged?
 Maximum Force            0.143039     0.000450     NO 
 RMS     Force            0.053517     0.000300     NO 
 Maximum Displacement     0.067510     0.001800     NO 
 RMS     Displacement     0.028659     0.001200     NO 
 Predicted change in Energy=-3.057801D-02
 GradGradGradGradGradGradGradGradGradGradGradGradGradGradGradGradGradGrad

 Unable to Open any file for archive entry.
 1\1\GINC-X10P1N4\Force\UwB97XD\def2SVP\C12N6(1-,2)\MAYUMIAO\11-Oct-202
 4\0\\# wb97xd def2svp scrf=(smd,solvent=acetonitrile) g09default scf=(
 xqc,maxcycle=64) force guess=read nosymm\\Title Card\\-1,2\C,-8.939293
 ,-0.87062869,1.11171399\C,-8.93844409,0.43130623,1.24639682\C,-8.20367
 963,-2.13944901,0.97955956\C,-7.06919672,-2.78757419,0.90023545\C,-9.6
 7624128,-2.13998977,0.99234697\C,-10.81103775,-2.79014941,0.93931302\C
 ,-10.18311194,1.17876902,1.33564347\N,-11.17227143,1.72852289,1.402128
 2\C,-7.69280732,1.17898927,1.31846278\N,-6.7031202,1.72918056,1.371871
 93\C,-5.79657995,-2.08507894,0.95549698\N,-4.82374432,-1.50510397,1.00
 1059\C,-7.03830557,-4.23386861,0.74854776\N,-7.05313407,-5.36103001,0.
 62876477\C,-10.84206306,-4.23918316,0.81724813\N,-10.82724924,-5.36906
 92,0.72679412\C,-12.08355386,-2.08806596,1.00255714\N,-13.05606156,-1.
 50775505,1.05066491\\Version=ES64L-G16RevC.01\HF=-784.8262152\S2=0.775
 019\S2-1=0.\S2A=0.750494\RMSD=9.002e-09\RMSF=5.352e-02\Dipole=-0.00110
 34,-0.0034914,-0.0035141\Quadrupole=-203.086931,72.2747809,130.8121502
 ,-54.7243126,33.3534022,1.138166\PG=C01 [X(C12N6)]\\@
 The archive entry for this job was punched.


 I WANT IT ALL - RICH, THIN, AND CHOCOLATE.
 Job cpu time:       0 days  0 hours 12 minutes 21.0 seconds.
 Elapsed time:       0 days  0 hours  0 minutes 27.8 seconds.
 File lengths (MBytes):  RWF=    172 Int=      0 D2E=      0 Chk=      9 Scr=      1
 Normal termination of Gaussian 16 at Fri Oct 11 15:28:32 2024.
