 Entering Gaussian System, Link 0=g16
 Input=JOBS/20_B.gjf
 Output=JOBS/20_B.log
 Initial command:
 /data/app/gaussian/C01-avx2//g16/l1.exe "/tmp/Gau-2532861.inp" -scrdir="/tmp/"
 Entering Link 1 = /data/app/gaussian/C01-avx2//g16/l1.exe PID=   2532862.
  
 Copyright (c) 1988-2019, Gaussian, Inc.  All Rights Reserved.
  
 This is part of the Gaussian(R) 16 program.  It is based on
 the Gaussian(R) 09 system (copyright 2009, Gaussian, Inc.),
 the Gaussian(R) 03 system (copyright 2003, Gaussian, Inc.),
 the Gaussian(R) 98 system (copyright 1998, Gaussian, Inc.),
 the Gaussian(R) 94 system (copyright 1995, Gaussian, Inc.),
 the Gaussian 92(TM) system (copyright 1992, Gaussian, Inc.),
 the Gaussian 90(TM) system (copyright 1990, Gaussian, Inc.),
 the Gaussian 88(TM) system (copyright 1988, Gaussian, Inc.),
 the Gaussian 86(TM) system (copyright 1986, Carnegie Mellon
 University), and the Gaussian 82(TM) system (copyright 1983,
 Carnegie Mellon University). Gaussian is a federally registered
 trademark of Gaussian, Inc.
  
 This software contains proprietary and confidential information,
 including trade secrets, belonging to Gaussian, Inc.
  
 This software is provided under written license and may be
 used, copied, transmitted, or stored only in accord with that
 written license.
  
 The following legend is applicable only to US Government
 contracts under FAR:
  
                    RESTRICTED RIGHTS LEGEND
  
 Use, reproduction and disclosure by the US Government is
 subject to restrictions as set forth in subparagraphs (a)
 and (c) of the Commercial Computer Software - Restricted
 Rights clause in FAR 52.227-19.
  
 Gaussian, Inc.
 340 Quinnipiac St., Bldg. 40, Wallingford CT 06492
  
  
 ---------------------------------------------------------------
 Warning -- This program may not be used in any manner that
 competes with the business of Gaussian, Inc. or will provide
 assistance to any competitor of Gaussian, Inc.  The licensee
 of this program is prohibited from giving any competitor of
 Gaussian, Inc. access to this program.  By using this program,
 the user acknowledges that Gaussian, Inc. is engaged in the
 business of creating and licensing software in the field of
 computational chemistry and represents and warrants to the
 licensee that it is not a competitor of Gaussian, Inc. and that
 it will not use this program in any manner prohibited above.
 ---------------------------------------------------------------
  

 Cite this work as:
 Gaussian 16, Revision C.01,
 M. J. Frisch, G. W. Trucks, H. B. Schlegel, G. E. Scuseria, 
 M. A. Robb, J. R. Cheeseman, G. Scalmani, V. Barone, 
 G. A. Petersson, H. Nakatsuji, X. Li, M. Caricato, A. V. Marenich, 
 J. Bloino, B. G. Janesko, R. Gomperts, B. Mennucci, H. P. Hratchian, 
 J. V. Ortiz, A. F. Izmaylov, J. L. Sonnenberg, D. Williams-Young, 
 F. Ding, F. Lipparini, F. Egidi, J. Goings, B. Peng, A. Petrone, 
 T. Henderson, D. Ranasinghe, V. G. Zakrzewski, J. Gao, N. Rega, 
 G. Zheng, W. Liang, M. Hada, M. Ehara, K. Toyota, R. Fukuda, 
 J. Hasegawa, M. Ishida, T. Nakajima, Y. Honda, O. Kitao, H. Nakai, 
 T. Vreven, K. Throssell, J. A. Montgomery, Jr., J. E. Peralta, 
 F. Ogliaro, M. J. Bearpark, J. J. Heyd, E. N. Brothers, K. N. Kudin, 
 V. N. Staroverov, T. A. Keith, R. Kobayashi, J. Normand, 
 K. Raghavachari, A. P. Rendell, J. C. Burant, S. S. Iyengar, 
 J. Tomasi, M. Cossi, J. M. Millam, M. Klene, C. Adamo, R. Cammi, 
 J. W. Ochterski, R. L. Martin, K. Morokuma, O. Farkas, 
 J. B. Foresman, and D. J. Fox, Gaussian, Inc., Wallingford CT, 2019.
 
 ******************************************
 Gaussian 16:  ES64L-G16RevC.01  3-Jul-2019
                11-Oct-2024 
 ******************************************
 %chk=b.chk
 %nprocshared=28
 Will use up to   28 processors via shared memory.
 %mem=48gb
 ----------------------------------------------------------------------
 # wb97xd def2svp scrf=(smd,solvent=acetonitrile) g09default scf=(xqc,m
 axcycle=64) force guess=read nosymm
 ----------------------------------------------------------------------
 1/10=7,30=1,38=1,158=3,167=1/1,3;
 2/12=2,15=1,17=6,18=5,40=1/2;
 3/5=43,7=101,11=2,25=1,27=10,30=1,70=32201,71=1,72=2,74=-58,75=-4,116=-2,158=3/1,2,3;
 4/5=1,60=-1/1;
 5/5=2,7=64,8=3,13=1,38=6,53=2,87=10/2,8;
 6/7=2,8=2,9=2,10=2,28=1,87=10/1;
 7/29=1,30=1,87=10/1,2,3,16;
 1/10=7,30=1,158=3,167=1/3;
 99//99;
 Using 2006 physical constants.
 ----------
 Title Card
 ----------
 Symbolic Z-matrix:
 Charge = -1 Multiplicity = 2
 6                    -8.93771  -0.8874    1.11146 
 6                    -8.9426    0.53443   1.25469 
 6                    -8.21694  -2.12764   0.97993 
 6                    -6.98812  -2.83589   0.89858 
 6                    -9.67393  -2.1382    0.99416 
 6                    -10.88551  -2.8323    0.93659 
 6                    -10.17035   1.24613   1.34287 
 7                    -11.23841   1.75242   1.41075 
 6                    -7.67373   1.27076   1.32573 
 7                    -6.66647   1.7269    1.37625 
 6                    -5.73427  -2.12798   0.95113 
 7                    -4.78175  -1.46964   0.9985 
 6                    -6.97887  -4.25791   0.74255 
 7                    -7.06072  -5.42682   0.61073 
 6                    -10.91531  -4.27628   0.82191 
 7                    -10.80152  -5.42436   0.7334 
 6                    -12.13843  -2.13449   0.99266 
 7                    -13.10525  -1.4619    1.0469 
 

 GradGradGradGradGradGradGradGradGradGradGradGradGradGradGradGradGradGrad
 Berny optimization.
 Initialization pass.
 Trust Radius=3.00D-01 FncErr=1.00D-07 GrdErr=1.00D-07 EigMax=2.50D+02 EigMin=1.00D-04
 Number of steps in this run=      2 maximum allowed number of steps=      2.
 GradGradGradGradGradGradGradGradGradGradGradGradGradGradGradGradGradGrad

                          Input orientation:                          
 ---------------------------------------------------------------------
 Center     Atomic      Atomic             Coordinates (Angstroms)
 Number     Number       Type             X           Y           Z
 ---------------------------------------------------------------------
      1          6           0       -8.937715   -0.887404    1.111459
      2          6           0       -8.942603    0.534425    1.254689
      3          6           0       -8.216938   -2.127638    0.979932
      4          6           0       -6.988121   -2.835890    0.898580
      5          6           0       -9.673930   -2.138205    0.994163
      6          6           0      -10.885509   -2.832305    0.936592
      7          6           0      -10.170351    1.246134    1.342869
      8          7           0      -11.238414    1.752424    1.410750
      9          6           0       -7.673735    1.270757    1.325727
     10          7           0       -6.666469    1.726901    1.376253
     11          6           0       -5.734270   -2.127981    0.951133
     12          7           0       -4.781747   -1.469635    0.998502
     13          6           0       -6.978868   -4.257909    0.742553
     14          7           0       -7.060720   -5.426821    0.610735
     15          6           0      -10.915308   -4.276284    0.821911
     16          7           0      -10.801517   -5.424364    0.733396
     17          6           0      -12.138425   -2.134486    0.992657
     18          7           0      -13.105254   -1.461897    1.046905
 ---------------------------------------------------------------------
                    Distance matrix (angstroms):
                    1          2          3          4          5
     1  C    0.000000
     2  C    1.429034   0.000000
     3  C    1.440486   2.772844   0.000000
     4  C    2.764567   3.912267   1.420644   0.000000
     5  C    1.456116   2.783103   1.457099   2.776593   0.000000
     6  C    2.758101   3.900121   2.760380   3.897574   1.397502
     7  C    2.474858   1.421854   3.915339   5.194891   3.438281
     8  N    3.514468   2.603579   4.936578   6.275343   4.214041
     9  C    2.510222   1.468760   3.458863   4.185339   3.966325
    10  N    3.473221   2.572462   4.173547   4.598988   4.912215
    11  C    3.439011   4.180186   2.482836   1.440847   3.939909
    12  N    4.198074   4.625431   3.497693   2.597060   4.937657
    13  C    3.915799   5.204326   2.475322   1.430583   3.437996
    14  N    4.937625   6.284315   3.515359   2.607882   4.217924
    15  C    3.934364   5.217450   3.452948   4.183708   2.478321
    16  N    4.919421   6.263743   4.196335   4.611884   3.484006
    17  C    3.437132   4.171933   3.921514   5.198697   2.464499
    18  N    4.207445   4.621271   4.933896   6.271297   3.497736
                    6          7          8          9         10
     6  C    0.000000
     7  C    4.160550   0.000000
     8  N    4.622673   1.183933   0.000000
     9  C    5.225134   2.496796   3.598079   0.000000
    10  N    6.227355   3.536868   4.572146   1.106889   0.000000
    11  C    5.199187   5.587211   6.750141   3.931064   3.988714
    12  N    6.254327   6.044091   7.227736   3.997552   3.729976
    13  C    4.163153   6.390652   7.396913   5.602595   6.026368
    14  N    4.633217   7.398253   8.344741   6.763471   7.205358
    15  C    1.448832   5.596736   6.066007   6.444477   7.375510
    16  N    2.601368   6.727955   7.221909   7.413401   8.285679
    17  C    1.435234   3.927411   4.011594   5.624951   6.708186
    18  N    2.611026   4.004333   3.734881   6.086587   7.192694
                   11         12         13         14         15
    11  C    0.000000
    12  N    1.158862   0.000000
    13  C    2.475706   3.559118   0.000000
    14  N    3.571790   4.582947   1.179165   0.000000
    15  C    5.610264   6.747520   3.937283   4.028173   0.000000
    16  N    6.049012   7.207482   3.996667   3.742808   1.157097
    17  C    6.404294   7.386662   5.585026   6.063697   2.472341
    18  N    7.401639   8.323652   6.741137   7.242048   3.573130
                   16         17         18
    16  N    0.000000
    17  C    3.560596   0.000000
    18  N    4.594196   1.179015   0.000000
 Symmetry turned off by external request.
 Stoichiometry    C12N6(1-,2)
 Framework group  C1[X(C12N6)]
 Deg. of freedom    48
 Full point group                 C1      NOp   1
 Rotational constants (GHZ):           0.4184333           0.4170408           0.2088895
 Standard basis: def2SVP (5D, 7F)
   252 basis functions,   450 primitive gaussians,   270 cartesian basis functions
    58 alpha electrons       57 beta electrons
       nuclear repulsion energy       952.1297765507 Hartrees.
 NAtoms=   18 NActive=   18 NUniq=   18 SFac= 1.00D+00 NAtFMM=   60 NAOKFM=F Big=F
 Integral buffers will be    131072 words long.
 Raffenetti 2 integral format.
 Two-electron integral symmetry is turned off.
 Nuclear repulsion after empirical dispersion term =      952.1184314144 Hartrees.
 Force PCM accuracy= 1.00D-10.
 ------------------------------------------------------------------------------
 Polarizable Continuum Model (PCM)
 =================================
 Model                : PCM (using non-symmetric T matrix).
 Atomic radii         : SMD-Coulomb.
 Polarization charges : Total charges.
 Charge compensation  : None.
 Solution method      : On-the-fly selection.
 Cavity type          : VdW (van der Waals Surface) (Alpha=1.000).
 Cavity algorithm     : GePol (No added spheres)
                        Default sphere list used, NSphG=   18.
                        Lebedev-Laikov grids with approx.  5.0 points / Ang**2.
                        Smoothing algorithm: York/Karplus (Gamma=1.0000).
                        Polarization charges: spherical gaussians, with
                                              point-specific exponents (IZeta= 3).
                        Self-potential: point-specific (ISelfS= 7).
                        Self-field    : sphere-specific E.n sum rule (ISelfD= 2).
 1st derivatives      : Analytical E(r).r(x)/FMM algorithm (CHGder, D1EAlg=3).
                        Cavity 1st derivative terms included.
 Solvent              : Acetonitrile, Eps=  35.688000 Eps(inf)=   1.806874
 ------------------------------------------------------------------------------
 Spheres list:
 ISph  on   Nord     Re0    Alpha      Xe            Ye            Ze
    1   C      1    1.8500  1.000     -8.937715     -0.887404      1.111459
    2   C      2    1.8500  1.000     -8.942603      0.534425      1.254689
    3   C      3    1.8500  1.000     -8.216938     -2.127638      0.979932
    4   C      4    1.8500  1.000     -6.988121     -2.835890      0.898580
    5   C      5    1.8500  1.000     -9.673930     -2.138205      0.994163
    6   C      6    1.8500  1.000    -10.885509     -2.832305      0.936592
    7   C      7    1.8500  1.000    -10.170351      1.246134      1.342869
    8   N      8    1.8900  1.000    -11.238414      1.752424      1.410750
    9   C      9    1.8500  1.000     -7.673735      1.270757      1.325727
   10   N     10    1.8900  1.000     -6.666469      1.726901      1.376253
   11   C     11    1.8500  1.000     -5.734270     -2.127981      0.951133
   12   N     12    1.8900  1.000     -4.781747     -1.469635      0.998502
   13   C     13    1.8500  1.000     -6.978868     -4.257909      0.742553
   14   N     14    1.8900  1.000     -7.060720     -5.426821      0.610735
   15   C     15    1.8500  1.000    -10.915308     -4.276284      0.821911
   16   N     16    1.8900  1.000    -10.801517     -5.424364      0.733396
   17   C     17    1.8500  1.000    -12.138425     -2.134486      0.992657
   18   N     18    1.8900  1.000    -13.105254     -1.461897      1.046905
 ------------------------------------------------------------------------------
 ------------------------------------------------------------------------------
 Atomic radii for non-electrostatic terms: SMD-CDS.
 ------------------------------------------------------------------------------
 Nuclear repulsion after PCM non-electrostatic terms =      952.1270032295 Hartrees.
 One-electron integrals computed using PRISM.
   1 Symmetry operations used in ECPInt.
 ECPInt:  NShTT=    5886 NPrTT=   23670 LenC2=    5387 LenP2D=   14836.
 LDataN:  DoStor=T MaxTD1= 4 Len=   56
 NBasis=   252 RedAO= T EigKep=  2.98D-04  NBF=   252
 NBsUse=   252 1.00D-06 EigRej= -1.00D+00 NBFU=   252
 Initial guess from the checkpoint file:  "b.chk"
 B after Tr=     0.000275   -0.000294    0.002038
         Rot=    1.000000    0.000040    0.000068   -0.000007 Ang=   0.01 deg.
 Initial guess <Sx>= 0.0000 <Sy>= 0.0000 <Sz>= 0.5000 <S**2>= 0.7907 S= 0.5201
 Requested convergence on RMS density matrix=1.00D-08 within  64 cycles.
 Requested convergence on MAX density matrix=1.00D-06.
 Requested convergence on             energy=1.00D-06.
 No special actions if energy rises.
 Inv3:  Mode=1 IEnd=    19538112.
 Iteration    1 A*A^-1 deviation from unit magnitude is 3.11D-15 for    593.
 Iteration    1 A*A^-1 deviation from orthogonality  is 2.28D-15 for   1017     64.
 Iteration    1 A^-1*A deviation from unit magnitude is 3.11D-15 for     82.
 Iteration    1 A^-1*A deviation from orthogonality  is 2.83D-11 for   1820   1779.
 Error on total polarization charges =  0.02017
 SCF Done:  E(UwB97XD) =  -784.837878155     A.U. after   19 cycles
            NFock= 19  Conv=0.37D-08     -V/T= 2.0106
 <Sx>= 0.0000 <Sy>= 0.0000 <Sz>= 0.5000 <S**2>= 0.7914 S= 0.5205
 <L.S>=  0.00000000000    
 SMD-CDS (non-electrostatic) energy       (kcal/mol) =       5.38
 (included in total energy above)
 Annihilation of the first spin contaminant:
 S**2 before annihilation     0.7914,   after     0.7514
 QCSCF skips out because SCF is already converged.

 **********************************************************************

            Population analysis using the SCF Density.

 **********************************************************************

 Alpha  occ. eigenvalues --  -14.46456 -14.46415 -14.46378 -14.46004 -14.45992
 Alpha  occ. eigenvalues --  -14.44858 -10.39427 -10.39389 -10.39387 -10.39077
 Alpha  occ. eigenvalues --  -10.38832 -10.38807 -10.36634 -10.36632 -10.36610
 Alpha  occ. eigenvalues --  -10.36264 -10.36256 -10.35231  -1.03990  -1.03090
 Alpha  occ. eigenvalues --   -1.01799  -1.01321  -1.00489  -1.00449  -1.00314
 Alpha  occ. eigenvalues --   -0.91553  -0.91270  -0.89029  -0.71871  -0.71302
 Alpha  occ. eigenvalues --   -0.68206  -0.68098  -0.67639  -0.66728  -0.54350
 Alpha  occ. eigenvalues --   -0.50714  -0.50537  -0.49448  -0.49077  -0.47708
 Alpha  occ. eigenvalues --   -0.47621  -0.47524  -0.47041  -0.46944  -0.46654
 Alpha  occ. eigenvalues --   -0.46207  -0.45576  -0.45145  -0.44748  -0.44668
 Alpha  occ. eigenvalues --   -0.44621  -0.43977  -0.43346  -0.42778  -0.42451
 Alpha  occ. eigenvalues --   -0.35461  -0.35288  -0.27850
 Alpha virt. eigenvalues --    0.03676   0.04050   0.06415   0.06504   0.07054
 Alpha virt. eigenvalues --    0.08983   0.10027   0.10229   0.11137   0.11282
 Alpha virt. eigenvalues --    0.12160   0.14231   0.18985   0.19107   0.20318
 Alpha virt. eigenvalues --    0.23556   0.23872   0.24152   0.26150   0.26192
 Alpha virt. eigenvalues --    0.27309   0.29566   0.29852   0.31051   0.31397
 Alpha virt. eigenvalues --    0.31455   0.33813   0.45327   0.45429   0.49335
 Alpha virt. eigenvalues --    0.49751   0.51270   0.52162   0.53217   0.53341
 Alpha virt. eigenvalues --    0.53593   0.54517   0.54858   0.55971   0.59587
 Alpha virt. eigenvalues --    0.60176   0.60363   0.60501   0.60732   0.62866
 Alpha virt. eigenvalues --    0.63560   0.67319   0.68744   0.69051   0.69733
 Alpha virt. eigenvalues --    0.69745   0.72082   0.72146   0.72333   0.72823
 Alpha virt. eigenvalues --    0.72853   0.72973   0.74017   0.74164   0.74483
 Alpha virt. eigenvalues --    0.77637   0.77803   0.78514   0.80728   0.80825
 Alpha virt. eigenvalues --    0.83665   0.83783   0.85377   0.86371   0.91711
 Alpha virt. eigenvalues --    0.92043   0.92721   0.92994   0.93946   0.94143
 Alpha virt. eigenvalues --    0.94816   0.97592   0.98114   0.98526   0.98705
 Alpha virt. eigenvalues --    1.00167   1.00524   1.00835   1.00909   1.02212
 Alpha virt. eigenvalues --    1.03724   1.03808   1.05183   1.06703   1.09553
 Alpha virt. eigenvalues --    1.11250   1.15515   1.16094   1.16590   1.18121
 Alpha virt. eigenvalues --    1.19744   1.21288   1.22720   1.23697   1.31481
 Alpha virt. eigenvalues --    1.33255   1.33406   1.38416   1.38633   1.41439
 Alpha virt. eigenvalues --    1.43063   1.43538   1.44106   1.46041   1.54568
 Alpha virt. eigenvalues --    1.56952   1.65899   1.67558   1.68225   1.68545
 Alpha virt. eigenvalues --    1.68699   1.68914   1.74465   1.74590   1.75662
 Alpha virt. eigenvalues --    1.76053   1.77134   1.77962   1.78433   1.79095
 Alpha virt. eigenvalues --    1.79766   1.80299   1.83458   1.89605   1.90408
 Alpha virt. eigenvalues --    1.92571   1.97568   1.98064   1.98752   2.00143
 Alpha virt. eigenvalues --    2.02232   2.03799   2.04412   2.10634   2.10834
 Alpha virt. eigenvalues --    2.12685   2.17788   2.18028   2.18375   2.23169
 Alpha virt. eigenvalues --    2.23837   2.23964   2.24609   2.31202   2.31330
 Alpha virt. eigenvalues --    2.32408   2.32615   2.33615   2.33686   2.34111
 Alpha virt. eigenvalues --    2.34267   2.34711   2.34924   2.36023   2.36548
 Alpha virt. eigenvalues --    2.36571   2.38228   2.50907   2.54302   2.54573
 Alpha virt. eigenvalues --    2.63158   2.63499   2.87666   2.90843   2.92515
 Alpha virt. eigenvalues --    2.94018   2.96622   2.97076   2.98524   3.01398
 Alpha virt. eigenvalues --    3.02951   3.03779   3.03895   3.05762   3.07984
 Alpha virt. eigenvalues --    3.08799   3.12834   3.16532   3.17735   3.28043
 Alpha virt. eigenvalues --    3.35576   3.37381   3.38288   3.48323   3.50591
 Alpha virt. eigenvalues --    3.52542   3.59290   3.63855   3.72045
  Beta  occ. eigenvalues --  -14.46226 -14.46222 -14.46173 -14.45841 -14.45813
  Beta  occ. eigenvalues --  -14.44721 -10.39469 -10.39436 -10.39427 -10.38688
  Beta  occ. eigenvalues --  -10.38470 -10.38464 -10.36745 -10.36725 -10.36709
  Beta  occ. eigenvalues --  -10.36346 -10.36344 -10.35304  -1.03656  -1.02808
  Beta  occ. eigenvalues --   -1.01478  -1.00999  -1.00160  -1.00095  -0.99943
  Beta  occ. eigenvalues --   -0.90802  -0.90441  -0.88009  -0.71761  -0.71191
  Beta  occ. eigenvalues --   -0.67973  -0.67866  -0.67383  -0.66562  -0.53507
  Beta  occ. eigenvalues --   -0.49451  -0.49310  -0.49270  -0.48936  -0.47358
  Beta  occ. eigenvalues --   -0.47256  -0.47167  -0.46779  -0.46664  -0.46420
  Beta  occ. eigenvalues --   -0.45455  -0.45266  -0.44532  -0.44159  -0.43877
  Beta  occ. eigenvalues --   -0.43836  -0.43773  -0.43214  -0.42641  -0.42298
  Beta  occ. eigenvalues --   -0.32717  -0.32188
  Beta virt. eigenvalues --   -0.10447   0.04437   0.04841   0.06519   0.06602
  Beta virt. eigenvalues --    0.07147   0.08980   0.11013   0.11088   0.11335
  Beta virt. eigenvalues --    0.12025   0.12214   0.14516   0.19238   0.19365
  Beta virt. eigenvalues --    0.21853   0.23440   0.25421   0.25787   0.26335
  Beta virt. eigenvalues --    0.26374   0.27546   0.29705   0.30001   0.31628
  Beta virt. eigenvalues --    0.31876   0.31937   0.33936   0.45482   0.45576
  Beta virt. eigenvalues --    0.49457   0.49808   0.51378   0.52259   0.53175
  Beta virt. eigenvalues --    0.53285   0.53747   0.54631   0.54984   0.56131
  Beta virt. eigenvalues --    0.59505   0.60053   0.60227   0.60539   0.60776
  Beta virt. eigenvalues --    0.62928   0.63423   0.67697   0.68874   0.69212
  Beta virt. eigenvalues --    0.69869   0.69877   0.72218   0.72263   0.72354
  Beta virt. eigenvalues --    0.73009   0.73059   0.73152   0.74141   0.74284
  Beta virt. eigenvalues --    0.74598   0.77632   0.77797   0.79511   0.81473
  Beta virt. eigenvalues --    0.81592   0.83789   0.83923   0.85670   0.86466
  Beta virt. eigenvalues --    0.91858   0.92219   0.93371   0.93576   0.94178
  Beta virt. eigenvalues --    0.94732   0.95478   0.98226   0.98675   0.98788
  Beta virt. eigenvalues --    0.98951   1.00314   1.00702   1.00921   1.00994
  Beta virt. eigenvalues --    1.02391   1.03861   1.04052   1.05500   1.06993
  Beta virt. eigenvalues --    1.09660   1.11389   1.15724   1.16320   1.16851
  Beta virt. eigenvalues --    1.18403   1.20018   1.21542   1.22996   1.24230
  Beta virt. eigenvalues --    1.31631   1.33438   1.33604   1.39008   1.39211
  Beta virt. eigenvalues --    1.42206   1.43565   1.43864   1.44809   1.46110
  Beta virt. eigenvalues --    1.54610   1.57019   1.65760   1.67396   1.68027
  Beta virt. eigenvalues --    1.68305   1.68475   1.68673   1.74379   1.74481
  Beta virt. eigenvalues --    1.75778   1.76190   1.77029   1.77849   1.78299
  Beta virt. eigenvalues --    1.79302   1.79670   1.80160   1.83328   1.89783
  Beta virt. eigenvalues --    1.90449   1.92637   1.98108   1.98635   1.98850
  Beta virt. eigenvalues --    2.00533   2.02726   2.04336   2.04470   2.11040
  Beta virt. eigenvalues --    2.11239   2.12994   2.18760   2.19148   2.19391
  Beta virt. eigenvalues --    2.23734   2.24434   2.24670   2.25204   2.31771
  Beta virt. eigenvalues --    2.31932   2.33121   2.33341   2.34281   2.34375
  Beta virt. eigenvalues --    2.34661   2.34915   2.35328   2.35563   2.36683
  Beta virt. eigenvalues --    2.37066   2.37186   2.38745   2.51326   2.54374
  Beta virt. eigenvalues --    2.54650   2.63601   2.63939   2.87740   2.91027
  Beta virt. eigenvalues --    2.92671   2.94156   2.96767   2.97204   2.98658
  Beta virt. eigenvalues --    3.01899   3.03480   3.03969   3.04427   3.05922
  Beta virt. eigenvalues --    3.08438   3.09291   3.13270   3.16778   3.17980
  Beta virt. eigenvalues --    3.28215   3.35772   3.37584   3.38481   3.48508
  Beta virt. eigenvalues --    3.50781   3.52746   3.59482   3.64031   3.72216
          Condensed to atoms (all electrons):
               1          2          3          4          5          6
     1  C    4.899392   0.529719   0.300815  -0.080407   0.295331  -0.085127
     2  C    0.529719   5.268327  -0.077333  -0.004995  -0.072502  -0.005442
     3  C    0.300815  -0.077333   4.885944   0.530633   0.292183  -0.085960
     4  C   -0.080407  -0.004995   0.530633   5.283873  -0.076874  -0.005764
     5  C    0.295331  -0.072502   0.292183  -0.076874   4.857156   0.538729
     6  C   -0.085127  -0.005442  -0.085960  -0.005764   0.538729   5.299440
     7  C    0.003566   0.401130   0.005356  -0.000208  -0.014679   0.001027
     8  N   -0.000587  -0.031479   0.000013  -0.000000  -0.000297   0.000087
     9  C   -0.003555   0.381837  -0.013314   0.000975   0.005159  -0.000193
    10  N   -0.001091  -0.026826  -0.000405   0.000100   0.000019  -0.000001
    11  C   -0.015170   0.001036  -0.000840   0.389035   0.005447  -0.000214
    12  N   -0.000380   0.000096  -0.000906  -0.029364   0.000015  -0.000000
    13  C    0.005448  -0.000194   0.002656   0.392277  -0.014885   0.000977
    14  N    0.000013  -0.000000  -0.000711  -0.030578  -0.000312   0.000078
    15  C    0.005562  -0.000200  -0.014612   0.001022  -0.001099   0.384280
    16  N    0.000028  -0.000000  -0.000382   0.000103  -0.000763  -0.028735
    17  C   -0.015097   0.001097   0.005321  -0.000211   0.001525   0.389437
    18  N   -0.000337   0.000100   0.000018  -0.000000  -0.000659  -0.029941
               7          8          9         10         11         12
     1  C    0.003566  -0.000587  -0.003555  -0.001091  -0.015170  -0.000380
     2  C    0.401130  -0.031479   0.381837  -0.026826   0.001036   0.000096
     3  C    0.005356   0.000013  -0.013314  -0.000405  -0.000840  -0.000906
     4  C   -0.000208  -0.000000   0.000975   0.000100   0.389035  -0.029364
     5  C   -0.014679  -0.000297   0.005159   0.000019   0.005447   0.000015
     6  C    0.001027   0.000087  -0.000193  -0.000001  -0.000214  -0.000000
     7  C    4.801129   0.881952  -0.026466   0.001290   0.000045   0.000001
     8  N    0.881952   6.176694   0.001306   0.000028   0.000000   0.000000
     9  C   -0.026466   0.001306   4.768800   0.973561   0.000327   0.000458
    10  N    0.001290   0.000028   0.973561   6.008169   0.000175  -0.000730
    11  C    0.000045   0.000000   0.000327   0.000175   4.798866   0.912872
    12  N    0.000001   0.000000   0.000458  -0.000730   0.912872   6.115127
    13  C   -0.000003  -0.000000   0.000038   0.000001  -0.026967   0.001540
    14  N   -0.000000   0.000000   0.000000   0.000000   0.001491   0.000033
    15  C    0.000044   0.000001  -0.000002  -0.000000   0.000040   0.000000
    16  N    0.000000   0.000000  -0.000000   0.000000   0.000001   0.000000
    17  C    0.000263   0.000249   0.000036   0.000000  -0.000003  -0.000000
    18  N    0.000256  -0.000665   0.000001   0.000000  -0.000000   0.000000
              13         14         15         16         17         18
     1  C    0.005448   0.000013   0.005562   0.000028  -0.015097  -0.000337
     2  C   -0.000194  -0.000000  -0.000200  -0.000000   0.001097   0.000100
     3  C    0.002656  -0.000711  -0.014612  -0.000382   0.005321   0.000018
     4  C    0.392277  -0.030578   0.001022   0.000103  -0.000211  -0.000000
     5  C   -0.014885  -0.000312  -0.001099  -0.000763   0.001525  -0.000659
     6  C    0.000977   0.000078   0.384280  -0.028735   0.389437  -0.029941
     7  C   -0.000003  -0.000000   0.000044   0.000000   0.000263   0.000256
     8  N   -0.000000   0.000000   0.000001   0.000000   0.000249  -0.000665
     9  C    0.000038   0.000000  -0.000002  -0.000000   0.000036   0.000001
    10  N    0.000001   0.000000  -0.000000   0.000000   0.000000   0.000000
    11  C   -0.026967   0.001491   0.000040   0.000001  -0.000003  -0.000000
    12  N    0.001540   0.000033   0.000000   0.000000  -0.000000   0.000000
    13  C    4.804430   0.890388   0.000259   0.000292   0.000044   0.000000
    14  N    0.890388   6.159920   0.000248  -0.000671   0.000001   0.000000
    15  C    0.000259   0.000248   4.799827   0.916821  -0.024952   0.001305
    16  N    0.000292  -0.000671   0.916821   6.109895   0.001346   0.000025
    17  C    0.000044   0.000001  -0.024952   0.001346   4.807839   0.891888
    18  N    0.000000   0.000000   0.001305   0.000025   0.891888   6.159600
          Atomic-Atomic Spin Densities.
               1          2          3          4          5          6
     1  C   -0.051201  -0.068143   0.036656  -0.005156   0.033164  -0.005192
     2  C   -0.068143   0.411877  -0.005352   0.000783  -0.005156   0.000801
     3  C    0.036656  -0.005352  -0.037647  -0.068948   0.033333  -0.005493
     4  C   -0.005156   0.000783  -0.068948   0.388332  -0.005196   0.000764
     5  C    0.033164  -0.005156   0.033333  -0.005196  -0.044947  -0.065003
     6  C   -0.005192   0.000801  -0.005493   0.000764  -0.065003   0.367868
     7  C    0.000808   0.006879  -0.000132  -0.000010   0.000266  -0.000050
     8  N    0.000578  -0.005802   0.000009  -0.000000   0.000035  -0.000027
     9  C    0.000271   0.002329   0.000205  -0.000028  -0.000092  -0.000008
    10  N    0.000463  -0.004964   0.000029  -0.000025   0.000006  -0.000000
    11  C    0.000232  -0.000033   0.000729   0.004563  -0.000102  -0.000010
    12  N    0.000031  -0.000026   0.000525  -0.005133   0.000007  -0.000000
    13  C   -0.000125  -0.000010   0.000860   0.005991   0.000244  -0.000045
    14  N    0.000007  -0.000000   0.000542  -0.005339   0.000033  -0.000025
    15  C   -0.000095  -0.000009   0.000198  -0.000029   0.000611   0.004422
    16  N    0.000007  -0.000000   0.000032  -0.000025   0.000498  -0.004762
    17  C    0.000227  -0.000029  -0.000102  -0.000009   0.000816   0.005802
    18  N    0.000031  -0.000025   0.000008  -0.000000   0.000525  -0.004983
               7          8          9         10         11         12
     1  C    0.000808   0.000578   0.000271   0.000463   0.000232   0.000031
     2  C    0.006879  -0.005802   0.002329  -0.004964  -0.000033  -0.000026
     3  C   -0.000132   0.000009   0.000205   0.000029   0.000729   0.000525
     4  C   -0.000010  -0.000000  -0.000028  -0.000025   0.004563  -0.005133
     5  C    0.000266   0.000035  -0.000092   0.000006  -0.000102   0.000007
     6  C   -0.000050  -0.000027  -0.000008  -0.000000  -0.000010  -0.000000
     7  C   -0.090941  -0.003017  -0.001396   0.000061  -0.000002   0.000000
     8  N   -0.003017   0.143892   0.000069   0.000007  -0.000000   0.000000
     9  C   -0.001396   0.000069  -0.058666  -0.000123  -0.000001   0.000009
    10  N    0.000061   0.000007  -0.000123   0.084020   0.000011   0.000039
    11  C   -0.000002  -0.000000  -0.000001   0.000011  -0.072426  -0.001567
    12  N    0.000000   0.000000   0.000009   0.000039  -0.001567   0.110590
    13  C   -0.000000  -0.000000  -0.000001   0.000000  -0.001261   0.000083
    14  N   -0.000000   0.000000  -0.000000   0.000000   0.000094   0.000007
    15  C   -0.000001   0.000000   0.000000  -0.000000  -0.000001  -0.000000
    16  N   -0.000000   0.000000  -0.000000   0.000000   0.000000   0.000000
    17  C    0.000000   0.000012  -0.000001  -0.000000  -0.000000  -0.000000
    18  N    0.000013   0.000047   0.000000   0.000000  -0.000000   0.000000
              13         14         15         16         17         18
     1  C   -0.000125   0.000007  -0.000095   0.000007   0.000227   0.000031
     2  C   -0.000010  -0.000000  -0.000009  -0.000000  -0.000029  -0.000025
     3  C    0.000860   0.000542   0.000198   0.000032  -0.000102   0.000008
     4  C    0.005991  -0.005339  -0.000029  -0.000025  -0.000009  -0.000000
     5  C    0.000244   0.000033   0.000611   0.000498   0.000816   0.000525
     6  C   -0.000045  -0.000025   0.004422  -0.004762   0.005802  -0.004983
     7  C   -0.000000  -0.000000  -0.000001  -0.000000   0.000000   0.000013
     8  N   -0.000000   0.000000   0.000000   0.000000   0.000012   0.000047
     9  C   -0.000001  -0.000000   0.000000  -0.000000  -0.000001   0.000000
    10  N    0.000000   0.000000  -0.000000   0.000000  -0.000000   0.000000
    11  C   -0.001261   0.000094  -0.000001   0.000000  -0.000000  -0.000000
    12  N    0.000083   0.000007  -0.000000   0.000000  -0.000000   0.000000
    13  C   -0.081279  -0.002485  -0.000002   0.000011  -0.000001  -0.000000
    14  N   -0.002485   0.126748   0.000010   0.000040   0.000000   0.000000
    15  C   -0.000002   0.000010  -0.067068  -0.001428  -0.001287   0.000070
    16  N    0.000011   0.000040  -0.001428   0.100721   0.000062   0.000006
    17  C   -0.000001   0.000000  -0.001287   0.000062  -0.076555  -0.002270
    18  N   -0.000000   0.000000   0.000070   0.000006  -0.002270   0.117818
 Mulliken charges and spin densities:
               1          2
     1  C    0.161879  -0.057436
     2  C   -0.364371   0.333121
     3  C    0.171525  -0.044548
     4  C   -0.369617   0.310537
     5  C    0.186506  -0.050960
     6  C   -0.372679   0.294057
     7  C   -0.054706  -0.087521
     8  N   -0.027301   0.135801
     9  C   -0.088965  -0.057435
    10  N    0.045711   0.079523
    11  C   -0.066143  -0.069774
    12  N    0.001238   0.104565
    13  C   -0.056301  -0.078020
    14  N   -0.019899   0.119633
    15  C   -0.068545  -0.064607
    16  N    0.002041   0.095161
    17  C   -0.058784  -0.073337
    18  N   -0.021591   0.111238
 Sum of Mulliken charges =  -1.00000   1.00000
 Mulliken charges and spin densities with hydrogens summed into heavy atoms:
               1          2
     1  C    0.161879  -0.057436
     2  C   -0.364371   0.333121
     3  C    0.171525  -0.044548
     4  C   -0.369617   0.310537
     5  C    0.186506  -0.050960
     6  C   -0.372679   0.294057
     7  C   -0.054706  -0.087521
     8  N   -0.027301   0.135801
     9  C   -0.088965  -0.057435
    10  N    0.045711   0.079523
    11  C   -0.066143  -0.069774
    12  N    0.001238   0.104565
    13  C   -0.056301  -0.078020
    14  N   -0.019899   0.119633
    15  C   -0.068545  -0.064607
    16  N    0.002041   0.095161
    17  C   -0.058784  -0.073337
    18  N   -0.021591   0.111238
 Electronic spatial extent (au):  <R**2>=          39112.4947
 Charge=             -1.0000 electrons
 Dipole moment (field-independent basis, Debye):
    X=             43.1322    Y=              8.4213    Z=             -4.9301  Tot=             44.2223
 Quadrupole moment (field-independent basis, Debye-Ang):
   XX=           -558.3010   YY=           -184.3618   ZZ=           -104.7481
   XY=            -74.2371   XZ=             45.0590   YZ=              1.5886
 Traceless Quadrupole moment (field-independent basis, Debye-Ang):
   XX=           -275.8307   YY=             98.1085   ZZ=            177.7222
   XY=            -74.2371   XZ=             45.0590   YZ=              1.5886
 Octapole moment (field-independent basis, Debye-Ang**2):
  XXX=           8066.3515  YYY=            979.7741  ZZZ=           -312.8464  XYY=           1645.9523
  XXY=            871.2374  XXZ=           -593.8012  XZZ=            938.7244  YZZ=            166.3429
  YYZ=           -159.0051  XYZ=            -14.9304
 Hexadecapole moment (field-independent basis, Debye-Ang**3):
 XXXX=        -117732.7758 YYYY=          -7937.2608 ZZZZ=           -768.5356 XXXY=         -11576.9579
 XXXZ=           8670.8971 YYYX=          -8735.4951 YYYZ=            640.7266 ZZZX=           2817.1021
 ZZZY=            363.0785 XXYY=         -16395.7322 XXZZ=          -9164.1493 YYZZ=           -987.9162
 XXYZ=            282.5639 YYXZ=           1437.3152 ZZXY=          -1486.1997
 N-N= 9.521270032295D+02 E-N=-3.739211346874D+03  KE= 7.766353268834D+02
                          Isotropic Fermi Contact Couplings
        Atom                 a.u.       MegaHertz       Gauss      10(-4) cm-1
     1  C(13)             -0.02076     -23.34200      -8.32901      -7.78605
     2  C(13)              0.05864      65.92271      23.52286      21.98945
     3  C(13)             -0.01769     -19.88838      -7.09667      -6.63405
     4  C(13)              0.05390      60.59508      21.62183      20.21234
     5  C(13)             -0.01824     -20.49991      -7.31488      -6.83804
     6  C(13)              0.05058      56.86645      20.29136      18.96861
     7  C(13)             -0.03773     -42.42039     -15.13665     -14.14992
     8  N(14)              0.03192      10.31473       3.68055       3.44062
     9  C(13)             -0.03055     -34.34405     -12.25481     -11.45594
    10  N(14)              0.01740       5.62251       2.00625       1.87547
    11  C(13)             -0.03268     -36.73561     -13.10818     -12.25368
    12  N(14)              0.02413       7.79692       2.78214       2.60077
    13  C(13)             -0.03474     -39.05249     -13.93490     -13.02651
    14  N(14)              0.02803       9.05632       3.23152       3.02086
    15  C(13)             -0.03059     -34.38850     -12.27067     -11.47077
    16  N(14)              0.02190       7.07600       2.52489       2.36030
    17  C(13)             -0.03267     -36.72901     -13.10582     -12.25148
    18  N(14)              0.02603       8.40967       3.00078       2.80516
 --------------------------------------------------------
       Center         ----  Spin Dipole Couplings  ----
                      3XX-RR        3YY-RR        3ZZ-RR
 --------------------------------------------------------
     1   Atom        0.004092      0.026879     -0.030970
     2   Atom       -0.175097     -0.172094      0.347191
     3   Atom        0.016062      0.005101     -0.021162
     4   Atom       -0.165184     -0.158484      0.323668
     5   Atom        0.021439      0.009356     -0.030795
     6   Atom       -0.155561     -0.150626      0.306187
     7   Atom        0.046319      0.008676     -0.054995
     8   Atom       -0.138308     -0.104934      0.243242
     9   Atom        0.028542      0.004889     -0.033430
    10   Atom       -0.083507     -0.065731      0.149237
    11   Atom        0.032293      0.011228     -0.043521
    12   Atom       -0.102678     -0.088269      0.190947
    13   Atom       -0.002915      0.051462     -0.048547
    14   Atom       -0.089081     -0.125064      0.214146
    15   Atom       -0.002088      0.041944     -0.039856
    16   Atom       -0.072895     -0.101873      0.174768
    17   Atom        0.034138      0.012168     -0.046306
    18   Atom       -0.108237     -0.093080      0.201317
 --------------------------------------------------------
                        XY            XZ            YZ
 --------------------------------------------------------
     1   Atom       -0.000057     -0.001683      0.004946
     2   Atom       -0.000304      0.004490     -0.054899
     3   Atom       -0.009538      0.000520      0.003113
     4   Atom        0.000396      0.006400     -0.051483
     5   Atom        0.010058      0.000705      0.004211
     6   Atom       -0.001514     -0.000243     -0.036985
     7   Atom       -0.025474     -0.003784      0.006996
     8   Atom        0.017680      0.007646     -0.037650
     9   Atom        0.015834      0.001467      0.004123
    10   Atom       -0.008276     -0.001455     -0.024011
    11   Atom        0.022355      0.000941      0.005303
    12   Atom       -0.016437      0.004607     -0.027934
    13   Atom        0.002462     -0.000146      0.011011
    14   Atom       -0.003077      0.002431     -0.039858
    15   Atom       -0.002022     -0.000001      0.006597
    16   Atom        0.003220     -0.000809     -0.020950
    17   Atom       -0.023327     -0.002032      0.004679
    18   Atom        0.018071      0.001597     -0.022984
 --------------------------------------------------------


 ---------------------------------------------------------------------------------
              Anisotropic Spin Dipole Couplings in Principal Axis System
 ---------------------------------------------------------------------------------

       Atom             a.u.   MegaHertz   Gauss  10(-4) cm-1        Axes

              Baa    -0.0315    -4.223    -1.507    -1.409  0.0470 -0.0843  0.9953
     1 C(13)  Bbb     0.0042     0.559     0.200     0.187  0.9989  0.0125 -0.0461
              Bcc     0.0273     3.663     1.307     1.222 -0.0086  0.9964  0.0848
 
              Baa    -0.1778   -23.865    -8.516    -7.961 -0.0608  0.9927  0.1043
     2 C(13)  Bbb    -0.1751   -23.500    -8.385    -7.839  0.9981  0.0613 -0.0021
              Bcc     0.3530    47.365    16.901    15.799  0.0085 -0.1040  0.9945
 
              Baa    -0.0216    -2.899    -1.034    -0.967 -0.0472 -0.1323  0.9901
     3 C(13)  Bbb    -0.0000    -0.001    -0.000    -0.000  0.5022  0.8537  0.1380
              Bcc     0.0216     2.900     1.035     0.967  0.8635 -0.5038 -0.0262
 
              Baa    -0.1659   -22.256    -7.941    -7.424  0.8757 -0.4789 -0.0618
     4 C(13)  Bbb    -0.1633   -21.918    -7.821    -7.311  0.4827  0.8716  0.0858
              Bcc     0.3292    44.173    15.762    14.735  0.0128 -0.1050  0.9944
 
              Baa    -0.0312    -4.191    -1.496    -1.398  0.0067 -0.1048  0.9945
     5 C(13)  Bbb     0.0040     0.534     0.191     0.178 -0.4998  0.8610  0.0941
              Bcc     0.0273     3.657     1.305     1.220  0.8661  0.4976  0.0466
 
              Baa    -0.1564   -20.987    -7.489    -7.000  0.8774  0.4782  0.0387
     6 C(13)  Bbb    -0.1528   -20.500    -7.315    -6.838 -0.4798  0.8746  0.0702
              Bcc     0.3092    41.487    14.803    13.838 -0.0003 -0.0802  0.9968
 
              Baa    -0.0558    -7.483    -2.670    -2.496  0.0110 -0.1036  0.9946
     7 C(13)  Bbb    -0.0038    -0.507    -0.181    -0.169  0.4568  0.8853  0.0872
              Bcc     0.0595     7.990     2.851     2.665  0.8895 -0.4533 -0.0571
 
              Baa    -0.1472    -5.678    -2.026    -1.894  0.9012 -0.4293 -0.0590
     8 N(14)  Bbb    -0.1001    -3.861    -1.378    -1.288  0.4331  0.8970  0.0887
              Bcc     0.2474     9.540     3.404     3.182  0.0149 -0.1055  0.9943
 
              Baa    -0.0339    -4.545    -1.622    -1.516  0.0039 -0.1073  0.9942
     9 C(13)  Bbb    -0.0028    -0.369    -0.132    -0.123 -0.4530  0.8862  0.0974
              Bcc     0.0366     4.914     1.754     1.639  0.8915  0.4507  0.0452
 
              Baa    -0.0872    -3.365    -1.201    -1.122  0.9137  0.4036  0.0466
    10 N(14)  Bbb    -0.0647    -2.493    -0.890    -0.832 -0.4063  0.9083  0.0992
              Bcc     0.1519     5.858     2.090     1.954 -0.0023 -0.1096  0.9940
 
              Baa    -0.0441    -5.911    -2.109    -1.972  0.0178 -0.1026  0.9946
    11 C(13)  Bbb    -0.0026    -0.345    -0.123    -0.115 -0.5392  0.8367  0.0960
              Bcc     0.0466     6.256     2.232     2.087  0.8420  0.5379  0.0404
 
              Baa    -0.1139    -4.392    -1.567    -1.465  0.8205  0.5702  0.0399
    12 N(14)  Bbb    -0.0800    -3.084    -1.101    -1.029 -0.5712  0.8154  0.0938
              Bcc     0.1938     7.476     2.668     2.494  0.0210 -0.0997  0.9948
 
              Baa    -0.0497    -6.676    -2.382    -2.227  0.0088 -0.1084  0.9941
    13 C(13)  Bbb    -0.0030    -0.405    -0.144    -0.135  0.9990 -0.0424 -0.0135
              Bcc     0.0528     7.081     2.527     2.362  0.0436  0.9932  0.1079
 
              Baa    -0.1299    -5.009    -1.787    -1.671  0.0679  0.9911  0.1144
    14 N(14)  Bbb    -0.0889    -3.429    -1.224    -1.144  0.9976 -0.0665 -0.0167
              Bcc     0.2188     8.438     3.011     2.815  0.0090 -0.1152  0.9933
 
              Baa    -0.0404    -5.419    -1.934    -1.808 -0.0042 -0.0800  0.9968
    15 C(13)  Bbb    -0.0022    -0.292    -0.104    -0.098  0.9990  0.0446  0.0078
              Bcc     0.0426     5.712     2.038     1.905 -0.0451  0.9958  0.0797
 
              Baa    -0.1038    -4.002    -1.428    -1.335 -0.1015  0.9921  0.0743
    16 N(14)  Bbb    -0.0726    -2.799    -0.999    -0.934  0.9948  0.1009  0.0118
              Bcc     0.1764     6.801     2.427     2.269 -0.0042 -0.0751  0.9972
 
              Baa    -0.0467    -6.264    -2.235    -2.089  0.0025 -0.0783  0.9969
    17 C(13)  Bbb    -0.0024    -0.328    -0.117    -0.109  0.5391  0.8398  0.0646
              Bcc     0.0491     6.592     2.352     2.199  0.8423 -0.5373 -0.0443
 
              Baa    -0.1209    -4.662    -1.664    -1.555  0.8203 -0.5702 -0.0447
    18 N(14)  Bbb    -0.0822    -3.171    -1.131    -1.058  0.5719  0.8179  0.0631
              Bcc     0.2031     7.833     2.795     2.613  0.0006 -0.0773  0.9970
 

 ---------------------------------------------------------------------------------

   1 Symmetry operations used in ECPInt.
 ECPInt:  NShTT=    5886 NPrTT=   23670 LenC2=    5387 LenP2D=   14836.
 LDataN:  DoStor=T MaxTD1= 5 Len=  102
 D1PCM: PCM CHGder 1st derivatives, ID1Alg=3 FixD1E=F DoIter=F DoCFld=F I1PDM=0.
 Calling FoFJK, ICntrl=      2127 FMM=F ISym2X=0 I1Cent= 0 IOpClX= 1 NMat=1 NMatS=1 NMatT=0.
 -------------------------------------------------------------------
 Center     Atomic                   Forces (Hartrees/Bohr)
 Number     Number              X              Y              Z
 -------------------------------------------------------------------
      1        6          -0.002636335   -0.014534126   -0.001854732
      2        6           0.019921374   -0.021008818   -0.002110097
      3        6          -0.020736170    0.007992216    0.001898259
      4        6          -0.014866376    0.013360233    0.000792265
      5        6           0.036774914    0.020525794    0.001468359
      6        6           0.001667460   -0.004959093   -0.000362799
      7        6          -0.046220085    0.014297775    0.002273566
      8        7           0.047514745   -0.019829223   -0.002794154
      9        6          -0.156238008   -0.083990603   -0.008612062
     10        7           0.134344091    0.064950335    0.006897416
     11        6          -0.017401697   -0.000765726    0.000066826
     12        7           0.003347726   -0.001272561   -0.000023497
     13        6          -0.009817085   -0.034791846   -0.003921316
     14        7           0.005219242    0.042508669    0.004830581
     15        6           0.011595328    0.022201826    0.001418836
     16        7          -0.003610106   -0.005789843   -0.000397354
     17        6          -0.022646033    0.028557053    0.002791023
     18        7           0.033787014   -0.027452063   -0.002361120
 -------------------------------------------------------------------
 Cartesian Forces:  Max     0.156238008 RMS     0.036012395

 GradGradGradGradGradGradGradGradGradGradGradGradGradGradGradGradGradGrad
 Berny optimization.
 Search for a local minimum.
 Step number   1 out of a maximum of    2
 All quantities printed in internal units (Hartrees-Bohrs-Radians)
 Second derivative matrix not updated -- first step.
 ITU=  0
     Eigenvalues ---    0.00076   0.00087   0.00178   0.00293   0.00294
     Eigenvalues ---    0.00676   0.01484   0.01612   0.01924   0.01942
     Eigenvalues ---    0.03371   0.03787   0.05049   0.05174   0.09903
     Eigenvalues ---    0.14391   0.19366   0.19763   0.23273   0.24331
     Eigenvalues ---    0.24551   0.25084   0.29094   0.29570   0.45075
     Eigenvalues ---    0.62534   0.67362   0.71955   0.73775   0.76862
     Eigenvalues ---    0.98306   0.98587   1.05594   1.41209   1.46849
     Eigenvalues ---    1.77784   2.07209   2.47180   2.56088   2.59349
     Eigenvalues ---    2.59734   2.83061   2.84328   3.42905   3.61164
     Eigenvalues ---    3.75644   5.43103   6.08241
 Quadratic step=6.577D-01 exceeds max=3.000D-01 adjusted using Lamda=-6.184D-02.
 Angle between NR and scaled steps=  29.88 degrees.
 Angle between quadratic step and forces=  64.72 degrees.
 Linear search not attempted -- first point.
 B after Tr=     0.000332   -0.000172    0.000054
         Rot=    1.000000    0.000003    0.000002    0.000007 Ang=   0.00 deg.
 Variable       Old X    -DE/DX   Delta X   Delta X   Delta X     New X
                                 (Linear)    (Quad)   (Total)
    X1      -16.88983  -0.00264   0.00000   0.00209   0.00239 -16.88744
    Y1       -1.67695  -0.01453   0.00000  -0.02606  -0.02599  -1.70295
    Z1        2.10035  -0.00185   0.00000  -0.00273  -0.00273   2.09763
    X2      -16.89907   0.01992   0.00000  -0.00180  -0.00146 -16.90053
    Y2        1.00992  -0.02101   0.00000  -0.09035  -0.09028   0.91964
    Z2        2.37102  -0.00211   0.00000  -0.00813  -0.00815   2.36287
    X3      -15.52776  -0.02074   0.00000  -0.02664  -0.02637 -15.55413
    Y3       -4.02065   0.00799   0.00000   0.01902   0.01907  -4.00158
    Z3        1.85180   0.00190   0.00000   0.00294   0.00296   1.85476
    X4      -13.20564  -0.01487   0.00000  -0.07094  -0.07068 -13.27632
    Y4       -5.35905   0.01336   0.00000   0.03932   0.03934  -5.31972
    Z4        1.69807   0.00079   0.00000   0.00220   0.00224   1.70031
    X5      -18.28108   0.03677   0.00000   0.04348   0.04375 -18.23732
    Y5       -4.04062   0.02053   0.00000   0.02820   0.02829  -4.01233
    Z5        1.87870   0.00147   0.00000   0.00243   0.00244   1.88114
    X6      -20.57063   0.00167   0.00000   0.05699   0.05725 -20.51338
    Y6       -5.35228  -0.00496   0.00000   0.03606   0.03617  -5.31611
    Z6        1.76990  -0.00036   0.00000   0.00324   0.00325   1.77315
    X7      -19.21918  -0.04622   0.00000   0.00003   0.00038 -19.21880
    Y7        2.35485   0.01430   0.00000  -0.07344  -0.07334   2.28152
    Z7        2.53765   0.00227   0.00000  -0.00684  -0.00687   2.53078
    X8      -21.23753   0.04751   0.00000   0.06509   0.06545 -21.17207
    Y8        3.31160  -0.01983   0.00000  -0.03327  -0.03314   3.27846
    Z8        2.66593  -0.00279   0.00000  -0.00541  -0.00546   2.66047
    X9      -14.50126  -0.15624   0.00000  -0.05965  -0.05930 -14.56056
    Y9        2.40138  -0.08399   0.00000  -0.10890  -0.10886   2.29252
    Z9        2.50526  -0.00861   0.00000  -0.00945  -0.00947   2.49579
   X10      -12.59780   0.13434   0.00000  -0.01043  -0.01006 -12.60786
   Y10        3.26337   0.06495   0.00000  -0.00421  -0.00419   3.25918
   Z10        2.60074   0.00690   0.00000  -0.00221  -0.00222   2.59852
   X11      -10.83620  -0.01740   0.00000  -0.08116  -0.08089 -10.91709
   Y11       -4.02130  -0.00077   0.00000   0.02355   0.02354  -3.99776
   Z11        1.79738   0.00007   0.00000   0.00213   0.00216   1.79954
   X12       -9.03619   0.00335   0.00000  -0.04113  -0.04084  -9.07704
   Y12       -2.77721  -0.00127   0.00000  -0.02728  -0.02732  -2.80453
   Z12        1.88689  -0.00002   0.00000   0.00003   0.00006   1.88696
   X13      -13.18815  -0.00982   0.00000  -0.06044  -0.06022 -13.24837
   Y13       -8.04628  -0.03479   0.00000   0.04132   0.04133  -8.00495
   Z13        1.40322  -0.00392   0.00000   0.00351   0.00356   1.40678
   X14      -13.34283   0.00522   0.00000   0.00023   0.00043 -13.34240
   Y14      -10.25521   0.04251   0.00000   0.07001   0.07003 -10.18518
   Z14        1.15412   0.00483   0.00000   0.00958   0.00965   1.16377
   X15      -20.62694   0.01160   0.00000   0.06643   0.06665 -20.56030
   Y15       -8.08101   0.02220   0.00000   0.06123   0.06134  -8.01966
   Z15        1.55319   0.00142   0.00000   0.00478   0.00481   1.55800
   X16      -20.41191  -0.00361   0.00000  -0.00497  -0.00478 -20.41669
   Y16      -10.25056  -0.00579   0.00000   0.04781   0.04792 -10.20264
   Z16        1.38592  -0.00040   0.00000   0.00236   0.00240   1.38832
   X17      -22.93830  -0.02265   0.00000   0.06333   0.06360 -22.87470
   Y17       -4.03359   0.02856   0.00000   0.03376   0.03390  -3.99969
   Z17        1.87585   0.00279   0.00000   0.00358   0.00357   1.87942
   X18      -24.76534   0.03379   0.00000   0.05443   0.05472 -24.71063
   Y18       -2.76259  -0.02745   0.00000  -0.03799  -0.03782  -2.80040
   Z18        1.97836  -0.00236   0.00000  -0.00218  -0.00221   1.97616
         Item               Value     Threshold  Converged?
 Maximum Force            0.156238     0.000450     NO 
 RMS     Force            0.036012     0.000300     NO 
 Maximum Displacement     0.108859     0.001800     NO 
 RMS     Displacement     0.040895     0.001200     NO 
 Predicted change in Energy=-1.977519D-02
 GradGradGradGradGradGradGradGradGradGradGradGradGradGradGradGradGradGrad

 Unable to Open any file for archive entry.
 1\1\GINC-X10P1N4\Force\UwB97XD\def2SVP\C12N6(1-,2)\MAYUMIAO\11-Oct-202
 4\0\\# wb97xd def2svp scrf=(smd,solvent=acetonitrile) g09default scf=(
 xqc,maxcycle=64) force guess=read nosymm\\Title Card\\-1,2\C,-8.937714
 93,-0.88740385,1.11145878\C,-8.94260319,0.53442543,1.25468886\C,-8.216
 93839,-2.12763847,0.97993204\C,-6.98812127,-2.83588969,0.89858043\C,-9
 .67393004,-2.1382045,0.99416297\C,-10.88550855,-2.83230492,0.93659187\
 C,-10.17035069,1.24613381,1.34286899\N,-11.23841425,1.75242384,1.41075
 018\C,-7.67373491,1.27075663,1.3257272\N,-6.66646936,1.72690083,1.3762
 5291\C,-5.73426963,-2.12798098,0.95113255\N,-4.78174701,-1.46963529,0.
 99850155\C,-6.97886756,-4.25790896,0.74255307\N,-7.06072035,-5.4268208
 1,0.61073459\C,-10.91530822,-4.2762837,0.821911\N,-10.80151695,-5.4243
 6436,0.73339619\C,-12.13842533,-2.1344858,0.99265712\N,-13.10525422,-1
 .46189718,1.04690467\\Version=ES64L-G16RevC.01\HF=-784.8378782\S2=0.79
 1378\S2-1=0.\S2A=0.751368\RMSD=3.711e-09\RMSF=3.601e-02\Dipole=0.07614
 43,0.0720807,0.0055923\Quadrupole=-205.0733734,72.9412615,132.1321119,
 -55.1934898,33.5002273,1.1810681\PG=C01 [X(C12N6)]\\@
 The archive entry for this job was punched.


 IT IS NOT EASY TO DESCRIBE
     THE SEA WITH THE MOUTH

                   -- KOKYU
 Job cpu time:       0 days  0 hours 13 minutes 56.7 seconds.
 Elapsed time:       0 days  0 hours  0 minutes 31.3 seconds.
 File lengths (MBytes):  RWF=    175 Int=      0 D2E=      0 Chk=      9 Scr=      1
 Normal termination of Gaussian 16 at Fri Oct 11 15:46:00 2024.
