 Entering Gaussian System, Link 0=g16
 Input=JOBS/21_A.gjf
 Output=JOBS/21_A.log
 Initial command:
 /data/app/gaussian/C01-avx2//g16/l1.exe "/tmp/Gau-2534249.inp" -scrdir="/tmp/"
 Entering Link 1 = /data/app/gaussian/C01-avx2//g16/l1.exe PID=   2534250.
  
 Copyright (c) 1988-2019, Gaussian, Inc.  All Rights Reserved.
  
 This is part of the Gaussian(R) 16 program.  It is based on
 the Gaussian(R) 09 system (copyright 2009, Gaussian, Inc.),
 the Gaussian(R) 03 system (copyright 2003, Gaussian, Inc.),
 the Gaussian(R) 98 system (copyright 1998, Gaussian, Inc.),
 the Gaussian(R) 94 system (copyright 1995, Gaussian, Inc.),
 the Gaussian 92(TM) system (copyright 1992, Gaussian, Inc.),
 the Gaussian 90(TM) system (copyright 1990, Gaussian, Inc.),
 the Gaussian 88(TM) system (copyright 1988, Gaussian, Inc.),
 the Gaussian 86(TM) system (copyright 1986, Carnegie Mellon
 University), and the Gaussian 82(TM) system (copyright 1983,
 Carnegie Mellon University). Gaussian is a federally registered
 trademark of Gaussian, Inc.
  
 This software contains proprietary and confidential information,
 including trade secrets, belonging to Gaussian, Inc.
  
 This software is provided under written license and may be
 used, copied, transmitted, or stored only in accord with that
 written license.
  
 The following legend is applicable only to US Government
 contracts under FAR:
  
                    RESTRICTED RIGHTS LEGEND
  
 Use, reproduction and disclosure by the US Government is
 subject to restrictions as set forth in subparagraphs (a)
 and (c) of the Commercial Computer Software - Restricted
 Rights clause in FAR 52.227-19.
  
 Gaussian, Inc.
 340 Quinnipiac St., Bldg. 40, Wallingford CT 06492
  
  
 ---------------------------------------------------------------
 Warning -- This program may not be used in any manner that
 competes with the business of Gaussian, Inc. or will provide
 assistance to any competitor of Gaussian, Inc.  The licensee
 of this program is prohibited from giving any competitor of
 Gaussian, Inc. access to this program.  By using this program,
 the user acknowledges that Gaussian, Inc. is engaged in the
 business of creating and licensing software in the field of
 computational chemistry and represents and warrants to the
 licensee that it is not a competitor of Gaussian, Inc. and that
 it will not use this program in any manner prohibited above.
 ---------------------------------------------------------------
  

 Cite this work as:
 Gaussian 16, Revision C.01,
 M. J. Frisch, G. W. Trucks, H. B. Schlegel, G. E. Scuseria, 
 M. A. Robb, J. R. Cheeseman, G. Scalmani, V. Barone, 
 G. A. Petersson, H. Nakatsuji, X. Li, M. Caricato, A. V. Marenich, 
 J. Bloino, B. G. Janesko, R. Gomperts, B. Mennucci, H. P. Hratchian, 
 J. V. Ortiz, A. F. Izmaylov, J. L. Sonnenberg, D. Williams-Young, 
 F. Ding, F. Lipparini, F. Egidi, J. Goings, B. Peng, A. Petrone, 
 T. Henderson, D. Ranasinghe, V. G. Zakrzewski, J. Gao, N. Rega, 
 G. Zheng, W. Liang, M. Hada, M. Ehara, K. Toyota, R. Fukuda, 
 J. Hasegawa, M. Ishida, T. Nakajima, Y. Honda, O. Kitao, H. Nakai, 
 T. Vreven, K. Throssell, J. A. Montgomery, Jr., J. E. Peralta, 
 F. Ogliaro, M. J. Bearpark, J. J. Heyd, E. N. Brothers, K. N. Kudin, 
 V. N. Staroverov, T. A. Keith, R. Kobayashi, J. Normand, 
 K. Raghavachari, A. P. Rendell, J. C. Burant, S. S. Iyengar, 
 J. Tomasi, M. Cossi, J. M. Millam, M. Klene, C. Adamo, R. Cammi, 
 J. W. Ochterski, R. L. Martin, K. Morokuma, O. Farkas, 
 J. B. Foresman, and D. J. Fox, Gaussian, Inc., Wallingford CT, 2019.
 
 ******************************************
 Gaussian 16:  ES64L-G16RevC.01  3-Jul-2019
                11-Oct-2024 
 ******************************************
 %chk=a.chk
 %nprocshared=28
 Will use up to   28 processors via shared memory.
 %mem=48gb
 ----------------------------------------------------------------------
 # wb97xd def2svp scrf=(smd,solvent=acetonitrile) g09default scf=(xqc,m
 axcycle=64) force guess=read nosymm
 ----------------------------------------------------------------------
 1/10=7,30=1,38=1,158=3,167=1/1,3;
 2/12=2,15=1,17=6,18=5,40=1/2;
 3/5=43,7=101,11=2,25=1,27=10,30=1,70=32201,71=1,72=2,74=-58,75=-4,116=-2,158=3/1,2,3;
 4/5=1,60=-1/1;
 5/5=2,7=64,8=3,13=1,38=6,53=2,87=10/2,8;
 6/7=2,8=2,9=2,10=2,28=1,87=10/1;
 7/29=1,30=1,87=10/1,2,3,16;
 1/10=7,30=1,158=3,167=1/3;
 99//99;
 Using 2006 physical constants.
 ----------
 Title Card
 ----------
 Symbolic Z-matrix:
 Charge = -2 Multiplicity = 1
 6                    -8.93876  -0.8805    1.11049 
 6                    -8.93931   0.50544   1.25255 
 6                    -8.21125  -2.13132   0.98034 
 6                    -7.00864  -2.82478   0.89839 
 6                    -9.688    -2.146     0.99364 
 6                    -10.85106  -2.81454   0.9381 
 6                    -10.19299   1.2504    1.34367 
 7                    -11.21313   1.74105   1.40857 
 6                    -7.67117   1.26516   1.32504 
 7                    -6.67426   1.72419   1.37549 
 6                    -5.74949  -2.13193   0.95153 
 7                    -4.7806   -1.46939   0.99898 
 6                    -6.98367  -4.24291   0.74501 
 7                    -7.05976  -5.42705   0.61202 
 6                    -10.91447  -4.25954   0.82248 
 7                    -10.79966  -5.42985   0.73193 
 6                    -12.14256  -2.12713   0.99347 
 7                    -13.09111  -1.4715    1.0471 
 

 GradGradGradGradGradGradGradGradGradGradGradGradGradGradGradGradGradGrad
 Berny optimization.
 Initialization pass.
 Trust Radius=3.00D-01 FncErr=1.00D-07 GrdErr=1.00D-07 EigMax=2.50D+02 EigMin=1.00D-04
 Number of steps in this run=      2 maximum allowed number of steps=      2.
 GradGradGradGradGradGradGradGradGradGradGradGradGradGradGradGradGradGrad

                          Input orientation:                          
 ---------------------------------------------------------------------
 Center     Atomic      Atomic             Coordinates (Angstroms)
 Number     Number       Type             X           Y           Z
 ---------------------------------------------------------------------
      1          6           0       -8.938763   -0.880496    1.110486
      2          6           0       -8.939310    0.505437    1.252550
      3          6           0       -8.211251   -2.131319    0.980339
      4          6           0       -7.008639   -2.824782    0.898391
      5          6           0       -9.688002   -2.145997    0.993643
      6          6           0      -10.851061   -2.814538    0.938100
      7          6           0      -10.192989    1.250400    1.343674
      8          7           0      -11.213126    1.741050    1.408570
      9          6           0       -7.671174    1.265161    1.325044
     10          7           0       -6.674257    1.724194    1.375487
     11          6           0       -5.749487   -2.131934    0.951532
     12          7           0       -4.780602   -1.469386    0.998979
     13          6           0       -6.983666   -4.242906    0.745005
     14          7           0       -7.059760   -5.427047    0.612015
     15          6           0      -10.914475   -4.259544    0.822483
     16          7           0      -10.799663   -5.429847    0.731929
     17          6           0      -12.142558   -2.127125    0.993473
     18          7           0      -13.091110   -1.471501    1.047104
 ---------------------------------------------------------------------
                    Distance matrix (angstroms):
                    1          2          3          4          5
     1  C    0.000000
     2  C    1.393195   0.000000
     3  C    1.452849   2.748936   0.000000
     4  C    2.747837   3.865653   1.390641   0.000000
     5  C    1.475298   2.767251   1.476884   2.765648   0.000000
     6  C    2.725274   3.843944   2.727117   3.842640   1.342660
     7  C    2.483581   1.461159   3.936410   5.190902   3.451528
     8  N    3.483401   2.592551   4.918321   6.227745   4.196106
     9  C    2.501332   1.480069   3.456382   4.165167   3.976609
    10  N    3.461592   2.575062   4.169349   4.586132   4.920045
    11  C    3.429700   4.149856   2.461933   1.438168   3.938765
    12  N    4.201134   4.610757   3.493974   2.609859   4.953827
    13  C    3.906633   5.160321   2.453803   1.426614   3.431076
    14  N    4.944720   6.255987   3.510473   2.618475   4.221207
    15  C    3.924837   5.176029   3.444078   4.161713   2.449614
    16  N    4.929792   6.241759   4.200222   4.602818   3.476773
    17  C    3.439778   4.154312   3.931331   5.181977   2.454628
    18  N    4.194674   4.603036   4.924717   6.232971   3.469718
                    6          7          8          9         10
     6  C    0.000000
     7  C    4.137786   0.000000
     8  N    4.594107   1.133856   0.000000
     9  C    5.187037   2.521927   3.574755   0.000000
    10  N    6.183614   3.550629   4.539021   1.098680   0.000000
    11  C    5.147055   5.598095   6.712692   3.920796   3.988064
    12  N    6.218006   6.067123   7.200835   3.992427   3.731842
    13  C    4.127258   6.390193   7.357743   5.581032   6.008288
    14  N    4.615788   7.412203   8.322654   6.757802   7.202205
    15  C    1.451010   5.581367   6.036540   6.426035   7.354616
    16  N    2.623926   6.735576   7.214607   7.413660   8.283323
    17  C    1.464093   3.915500   3.999866   5.622350   6.699321
    18  N    2.614087   3.986955   3.738712   6.078016   7.176092
                   11         12         13         14         15
    11  C    0.000000
    12  N    1.174716   0.000000
    13  C    2.453988   3.551113   0.000000
    14  N    3.562283   4.583381   1.194013   0.000000
    15  C    5.587528   6.740958   3.931607   4.033136   0.000000
    16  N    6.035622   7.210108   3.996352   3.741826   1.179403
    17  C    6.393210   7.391281   5.581436   6.072053   2.466705
    18  N    7.371888   8.310647   6.713629   7.225845   3.544203
                   16         17         18
    16  N    0.000000
    17  C    3.574876   0.000000
    18  N    4.584601   1.154327   0.000000
 Symmetry turned off by external request.
 Stoichiometry    C12N6(2-)
 Framework group  C1[X(C12N6)]
 Deg. of freedom    48
 Full point group                 C1      NOp   1
 Rotational constants (GHZ):           0.4202545           0.4191352           0.2098678
 Standard basis: def2SVP (5D, 7F)
   252 basis functions,   450 primitive gaussians,   270 cartesian basis functions
    58 alpha electrons       58 beta electrons
       nuclear repulsion energy       954.4536623817 Hartrees.
 NAtoms=   18 NActive=   18 NUniq=   18 SFac= 1.00D+00 NAtFMM=   60 NAOKFM=F Big=F
 Integral buffers will be    131072 words long.
 Raffenetti 2 integral format.
 Two-electron integral symmetry is turned off.
 Nuclear repulsion after empirical dispersion term =      954.4422571011 Hartrees.
 Force PCM accuracy= 1.00D-10.
 ------------------------------------------------------------------------------
 Polarizable Continuum Model (PCM)
 =================================
 Model                : PCM (using non-symmetric T matrix).
 Atomic radii         : SMD-Coulomb.
 Polarization charges : Total charges.
 Charge compensation  : None.
 Solution method      : On-the-fly selection.
 Cavity type          : VdW (van der Waals Surface) (Alpha=1.000).
 Cavity algorithm     : GePol (No added spheres)
                        Default sphere list used, NSphG=   18.
                        Lebedev-Laikov grids with approx.  5.0 points / Ang**2.
                        Smoothing algorithm: York/Karplus (Gamma=1.0000).
                        Polarization charges: spherical gaussians, with
                                              point-specific exponents (IZeta= 3).
                        Self-potential: point-specific (ISelfS= 7).
                        Self-field    : sphere-specific E.n sum rule (ISelfD= 2).
 1st derivatives      : Analytical E(r).r(x)/FMM algorithm (CHGder, D1EAlg=3).
                        Cavity 1st derivative terms included.
 Solvent              : Acetonitrile, Eps=  35.688000 Eps(inf)=   1.806874
 ------------------------------------------------------------------------------
 Spheres list:
 ISph  on   Nord     Re0    Alpha      Xe            Ye            Ze
    1   C      1    1.8500  1.000     -8.938763     -0.880496      1.110486
    2   C      2    1.8500  1.000     -8.939310      0.505437      1.252550
    3   C      3    1.8500  1.000     -8.211251     -2.131319      0.980339
    4   C      4    1.8500  1.000     -7.008639     -2.824782      0.898391
    5   C      5    1.8500  1.000     -9.688002     -2.145997      0.993643
    6   C      6    1.8500  1.000    -10.851061     -2.814538      0.938100
    7   C      7    1.8500  1.000    -10.192989      1.250400      1.343674
    8   N      8    1.8900  1.000    -11.213126      1.741050      1.408570
    9   C      9    1.8500  1.000     -7.671174      1.265161      1.325044
   10   N     10    1.8900  1.000     -6.674257      1.724194      1.375487
   11   C     11    1.8500  1.000     -5.749487     -2.131934      0.951532
   12   N     12    1.8900  1.000     -4.780602     -1.469386      0.998979
   13   C     13    1.8500  1.000     -6.983666     -4.242906      0.745005
   14   N     14    1.8900  1.000     -7.059760     -5.427047      0.612015
   15   C     15    1.8500  1.000    -10.914475     -4.259544      0.822483
   16   N     16    1.8900  1.000    -10.799663     -5.429847      0.731929
   17   C     17    1.8500  1.000    -12.142558     -2.127125      0.993473
   18   N     18    1.8900  1.000    -13.091110     -1.471501      1.047104
 ------------------------------------------------------------------------------
 ------------------------------------------------------------------------------
 Atomic radii for non-electrostatic terms: SMD-CDS.
 ------------------------------------------------------------------------------
 Nuclear repulsion after PCM non-electrostatic terms =      954.4508781308 Hartrees.
 One-electron integrals computed using PRISM.
   1 Symmetry operations used in ECPInt.
 ECPInt:  NShTT=    5886 NPrTT=   23670 LenC2=    5391 LenP2D=   14868.
 LDataN:  DoStor=T MaxTD1= 4 Len=   56
 NBasis=   252 RedAO= T EigKep=  3.03D-04  NBF=   252
 NBsUse=   252 1.00D-06 EigRej= -1.00D+00 NBFU=   252
 Initial guess from the checkpoint file:  "a.chk"
 B after Tr=     0.000630   -0.000278    0.000644
         Rot=    1.000000    0.000024    0.000025   -0.000009 Ang=   0.00 deg.
 Requested convergence on RMS density matrix=1.00D-08 within  64 cycles.
 Requested convergence on MAX density matrix=1.00D-06.
 Requested convergence on             energy=1.00D-06.
 No special actions if energy rises.
 Inv3:  Mode=1 IEnd=    19553427.
 Iteration    1 A*A^-1 deviation from unit magnitude is 4.00D-15 for    867.
 Iteration    1 A*A^-1 deviation from orthogonality  is 3.81D-15 for   1001     68.
 Iteration    1 A^-1*A deviation from unit magnitude is 3.33D-15 for   1521.
 Iteration    1 A^-1*A deviation from orthogonality  is 6.80D-11 for   1107   1105.
 Error on total polarization charges =  0.02215
 SCF Done:  E(RwB97XD) =  -784.990623542     A.U. after   14 cycles
            NFock= 14  Conv=0.77D-08     -V/T= 2.0102
 SMD-CDS (non-electrostatic) energy       (kcal/mol) =       5.41
 (included in total energy above)
 QCSCF skips out because SCF is already converged.

 **********************************************************************

            Population analysis using the SCF Density.

 **********************************************************************

 Alpha  occ. eigenvalues --  -14.43618 -14.43335 -14.43225 -14.43150 -14.42331
 Alpha  occ. eigenvalues --  -14.41782 -10.35653 -10.35552 -10.35449 -10.34490
 Alpha  occ. eigenvalues --  -10.34357 -10.34120 -10.34063 -10.33655 -10.33504
 Alpha  occ. eigenvalues --  -10.33305 -10.33165 -10.32687  -1.01139  -0.99951
 Alpha  occ. eigenvalues --   -0.99440  -0.98878  -0.98098  -0.97486  -0.96951
 Alpha  occ. eigenvalues --   -0.88286  -0.87461  -0.84517  -0.68914  -0.67944
 Alpha  occ. eigenvalues --   -0.64915  -0.64181  -0.63627  -0.63154  -0.51068
 Alpha  occ. eigenvalues --   -0.47729  -0.47378  -0.46292  -0.46217  -0.45480
 Alpha  occ. eigenvalues --   -0.45192  -0.45088  -0.44707  -0.44400  -0.43940
 Alpha  occ. eigenvalues --   -0.43585  -0.43119  -0.42988  -0.42591  -0.42312
 Alpha  occ. eigenvalues --   -0.41598  -0.41585  -0.41112  -0.40243  -0.39868
 Alpha  occ. eigenvalues --   -0.32487  -0.31742  -0.22748
 Alpha virt. eigenvalues --    0.06438   0.07286   0.08498   0.08940   0.10575
 Alpha virt. eigenvalues --    0.11005   0.12056   0.12680   0.13819   0.14717
 Alpha virt. eigenvalues --    0.14801   0.16132   0.20677   0.20858   0.23282
 Alpha virt. eigenvalues --    0.25584   0.27518   0.27885   0.27983   0.28159
 Alpha virt. eigenvalues --    0.29732   0.32333   0.32849   0.33029   0.33656
 Alpha virt. eigenvalues --    0.34237   0.36047   0.48290   0.48704   0.51403
 Alpha virt. eigenvalues --    0.51821   0.52644   0.53533   0.54824   0.55019
 Alpha virt. eigenvalues --    0.56086   0.56590   0.57158   0.58778   0.61384
 Alpha virt. eigenvalues --    0.61599   0.61903   0.62624   0.62895   0.64987
 Alpha virt. eigenvalues --    0.65657   0.70769   0.70927   0.71187   0.72784
 Alpha virt. eigenvalues --    0.72844   0.73634   0.73767   0.74302   0.74541
 Alpha virt. eigenvalues --    0.75069   0.75147   0.75972   0.76390   0.76867
 Alpha virt. eigenvalues --    0.79663   0.80079   0.81618   0.83349   0.83465
 Alpha virt. eigenvalues --    0.85947   0.86474   0.87907   0.88752   0.93581
 Alpha virt. eigenvalues --    0.94467   0.94725   0.95040   0.95918   0.96216
 Alpha virt. eigenvalues --    0.97056   0.99683   1.00156   1.01243   1.01349
 Alpha virt. eigenvalues --    1.02540   1.03082   1.03231   1.03727   1.04835
 Alpha virt. eigenvalues --    1.05653   1.06223   1.07491   1.10487   1.12055
 Alpha virt. eigenvalues --    1.13618   1.17801   1.19115   1.19472   1.20855
 Alpha virt. eigenvalues --    1.22174   1.23906   1.25807   1.27570   1.33279
 Alpha virt. eigenvalues --    1.35503   1.36241   1.42056   1.42364   1.45196
 Alpha virt. eigenvalues --    1.45809   1.47455   1.47877   1.48583   1.59822
 Alpha virt. eigenvalues --    1.60355   1.68616   1.69970   1.70427   1.70946
 Alpha virt. eigenvalues --    1.71129   1.71515   1.76533   1.77143   1.79130
 Alpha virt. eigenvalues --    1.79192   1.79589   1.80363   1.81080   1.82304
 Alpha virt. eigenvalues --    1.82700   1.82867   1.86148   1.92245   1.94425
 Alpha virt. eigenvalues --    1.96397   2.00566   2.01353   2.01467   2.03217
 Alpha virt. eigenvalues --    2.04958   2.05605   2.07750   2.12536   2.12966
 Alpha virt. eigenvalues --    2.15447   2.20950   2.21934   2.24339   2.27806
 Alpha virt. eigenvalues --    2.28368   2.29286   2.30804   2.34395   2.34638
 Alpha virt. eigenvalues --    2.35092   2.35662   2.36720   2.36968   2.37290
 Alpha virt. eigenvalues --    2.37393   2.38053   2.38636   2.38991   2.39787
 Alpha virt. eigenvalues --    2.39925   2.41468   2.56581   2.58246   2.58351
 Alpha virt. eigenvalues --    2.69096   2.69827   2.89767   2.92717   2.94493
 Alpha virt. eigenvalues --    2.96647   2.99457   3.01194   3.03884   3.04708
 Alpha virt. eigenvalues --    3.06797   3.08780   3.09163   3.09818   3.10374
 Alpha virt. eigenvalues --    3.11236   3.16495   3.19573   3.21762   3.31404
 Alpha virt. eigenvalues --    3.39288   3.41947   3.43205   3.49160   3.50941
 Alpha virt. eigenvalues --    3.60352   3.61884   3.68418   3.79090
          Condensed to atoms (all electrons):
               1          2          3          4          5          6
     1  C    4.945129   0.495826   0.331098  -0.104153   0.316205  -0.118496
     2  C    0.495826   5.515111  -0.104025  -0.005549  -0.095822  -0.006973
     3  C    0.331098  -0.104025   4.950060   0.473049   0.325946  -0.119694
     4  C   -0.104153  -0.005549   0.473049   5.537726  -0.098431  -0.007363
     5  C    0.316205  -0.095822   0.325946  -0.098431   4.899414   0.478553
     6  C   -0.118496  -0.006973  -0.119694  -0.007363   0.478553   5.576640
     7  C    0.005952   0.394894   0.005566  -0.000223  -0.015215   0.001023
     8  N   -0.000059  -0.041165   0.000015  -0.000001  -0.000485   0.000067
     9  C    0.001661   0.386416  -0.014784   0.001115   0.005383  -0.000232
    10  N   -0.000493  -0.040810  -0.000566   0.000112   0.000016  -0.000001
    11  C   -0.018311   0.001275   0.004242   0.384455   0.006140  -0.000301
    12  N   -0.000505   0.000081  -0.000031  -0.044387   0.000027  -0.000001
    13  C    0.006063  -0.000267   0.008667   0.387600  -0.017912   0.001134
    14  N    0.000022  -0.000001   0.000164  -0.045926  -0.000418   0.000061
    15  C    0.006238  -0.000236  -0.017400   0.001160   0.004525   0.381319
    16  N    0.000042  -0.000001  -0.000526   0.000115   0.000272  -0.041656
    17  C   -0.016777   0.001143   0.005752  -0.000242   0.003941   0.380268
    18  N   -0.000549   0.000092   0.000031  -0.000001   0.000082  -0.038730
               7          8          9         10         11         12
     1  C    0.005952  -0.000059   0.001661  -0.000493  -0.018311  -0.000505
     2  C    0.394894  -0.041165   0.386416  -0.040810   0.001275   0.000081
     3  C    0.005566   0.000015  -0.014784  -0.000566   0.004242  -0.000031
     4  C   -0.000223  -0.000001   0.001115   0.000112   0.384455  -0.044387
     5  C   -0.015215  -0.000485   0.005383   0.000016   0.006140   0.000027
     6  C    0.001023   0.000067  -0.000232  -0.000001  -0.000301  -0.000001
     7  C    4.815277   0.957179  -0.027102   0.001424   0.000047   0.000001
     8  N    0.957179   6.111447   0.001472   0.000037   0.000000   0.000000
     9  C   -0.027102   0.001472   4.794448   0.999173   0.000384   0.000601
    10  N    0.001424   0.000037   0.999173   6.033391   0.000028  -0.000831
    11  C    0.000047   0.000000   0.000384   0.000028   4.844894   0.911955
    12  N    0.000001   0.000000   0.000601  -0.000831   0.911955   6.199836
    13  C   -0.000004  -0.000000   0.000048   0.000002  -0.026327   0.002204
    14  N   -0.000000   0.000000   0.000000   0.000000   0.002153   0.000051
    15  C    0.000047   0.000001  -0.000003  -0.000000   0.000052   0.000000
    16  N    0.000000   0.000000  -0.000000   0.000000   0.000001   0.000000
    17  C    0.000404   0.000199   0.000037   0.000000  -0.000003  -0.000000
    18  N    0.000407  -0.000802   0.000001   0.000000  -0.000000   0.000000
              13         14         15         16         17         18
     1  C    0.006063   0.000022   0.006238   0.000042  -0.016777  -0.000549
     2  C   -0.000267  -0.000001  -0.000236  -0.000001   0.001143   0.000092
     3  C    0.008667   0.000164  -0.017400  -0.000526   0.005752   0.000031
     4  C    0.387600  -0.045926   0.001160   0.000115  -0.000242  -0.000001
     5  C   -0.017912  -0.000418   0.004525   0.000272   0.003941   0.000082
     6  C    0.001134   0.000061   0.381319  -0.041656   0.380268  -0.038730
     7  C   -0.000004  -0.000000   0.000047   0.000000   0.000404   0.000407
     8  N   -0.000000   0.000000   0.000001   0.000000   0.000199  -0.000802
     9  C    0.000048   0.000000  -0.000003  -0.000000   0.000037   0.000001
    10  N    0.000002   0.000000  -0.000000   0.000000   0.000000   0.000000
    11  C   -0.026327   0.002153   0.000052   0.000001  -0.000003  -0.000000
    12  N    0.002204   0.000051   0.000000   0.000000  -0.000000   0.000000
    13  C    4.849438   0.891210   0.000225   0.000306   0.000050   0.000000
    14  N    0.891210   6.247214   0.000188  -0.000720   0.000001   0.000000
    15  C    0.000225   0.000188   4.846677   0.907598  -0.024086   0.001479
    16  N    0.000306  -0.000720   0.907598   6.203934   0.001571   0.000030
    17  C    0.000050   0.000001  -0.024086   0.001571   4.835223   0.934909
    18  N    0.000000   0.000000   0.001479   0.000030   0.934909   6.144762
 Mulliken charges:
               1
     1  C    0.151108
     2  C   -0.499991
     3  C    0.152436
     4  C   -0.479058
     5  C    0.187778
     6  C   -0.485615
     7  C   -0.139676
     8  N   -0.027905
     9  C   -0.148618
    10  N    0.008517
    11  C   -0.110684
    12  N   -0.069001
    13  C   -0.102437
    14  N   -0.094000
    15  C   -0.107786
    16  N   -0.070966
    17  C   -0.122390
    18  N   -0.041711
 Sum of Mulliken charges =  -2.00000
 Mulliken charges with hydrogens summed into heavy atoms:
               1
     1  C    0.151108
     2  C   -0.499991
     3  C    0.152436
     4  C   -0.479058
     5  C    0.187778
     6  C   -0.485615
     7  C   -0.139676
     8  N   -0.027905
     9  C   -0.148618
    10  N    0.008517
    11  C   -0.110684
    12  N   -0.069001
    13  C   -0.102437
    14  N   -0.094000
    15  C   -0.107786
    16  N   -0.070966
    17  C   -0.122390
    18  N   -0.041711
 Electronic spatial extent (au):  <R**2>=          39423.1736
 Charge=             -2.0000 electrons
 Dipole moment (field-independent basis, Debye):
    X=             85.1788    Y=             17.1252    Z=             -9.8217  Tot=             87.4366
 Quadrupole moment (field-independent basis, Debye-Ang):
   XX=           -953.1157   YY=           -227.8879   ZZ=           -113.9788
   XY=           -150.0661   XZ=             88.1552   YZ=              8.0831
 Traceless Quadrupole moment (field-independent basis, Debye-Ang):
   XX=           -521.4549   YY=            203.7729   ZZ=            317.6820
   XY=           -150.0661   XZ=             88.1552   YZ=              8.0831
 Octapole moment (field-independent basis, Debye-Ang**2):
  XXX=          11992.9495  YYY=           1160.0058  ZZZ=           -330.7189  XYY=           2027.6597
  XXY=           1582.5358  XXZ=          -1000.3600  XZZ=           1019.5678  YZZ=            178.7882
  YYZ=           -194.9979  XYZ=            -71.8910
 Hexadecapole moment (field-independent basis, Debye-Ang**3):
 XXXX=        -158633.0719 YYYY=          -8873.4108 ZZZZ=           -806.9928 XXXY=         -18669.3795
 XXXZ=          12725.8333 YYYX=         -10317.7960 YYYZ=            774.7180 ZZZX=           2973.0651
 ZZZY=            384.9228 XXYY=         -19949.1147 XXZZ=          -9916.5558 YYZZ=          -1052.4300
 XXYZ=            823.9421 YYXZ=           1755.7802 ZZXY=          -1595.2925
 N-N= 9.544508781308D+02 E-N=-3.762560557265D+03  KE= 7.770900909076D+02
   1 Symmetry operations used in ECPInt.
 ECPInt:  NShTT=    5886 NPrTT=   23670 LenC2=    5391 LenP2D=   14868.
 LDataN:  DoStor=T MaxTD1= 5 Len=  102
 D1PCM: PCM CHGder 1st derivatives, ID1Alg=3 FixD1E=F DoIter=F DoCFld=F I1PDM=0.
 Calling FoFJK, ICntrl=      2127 FMM=F ISym2X=0 I1Cent= 0 IOpClX= 0 NMat=1 NMatS=1 NMatT=0.
 -------------------------------------------------------------------
 Center     Atomic                   Forces (Hartrees/Bohr)
 Number     Number              X              Y              Z
 -------------------------------------------------------------------
      1        6          -0.000394287   -0.090293891   -0.008642026
      2        6           0.004592314    0.047132523    0.004606708
      3        6          -0.095425892    0.049362700    0.005888016
      4        6           0.033910883   -0.014576432   -0.001720211
      5        6           0.129976015    0.070852454    0.005477940
      6        6          -0.083465634   -0.040938785   -0.003353073
      7        6           0.093397015   -0.056330109   -0.006832032
      8        7          -0.068474613    0.036369517    0.004669486
      9        6          -0.199059510   -0.107748888   -0.010940741
     10        7           0.168140078    0.082285673    0.008706606
     11        6           0.000316318    0.013151152    0.000850878
     12        7          -0.017610465   -0.016029778   -0.001057851
     13        6          -0.011677617   -0.050642683   -0.006037196
     14        7           0.006408665    0.061038108    0.006876761
     15        6           0.019166165   -0.012929245   -0.001107998
     16        7          -0.008548752    0.034985496    0.002868735
     17        6           0.047882573   -0.013610832   -0.000698647
     18        7          -0.019133254    0.007923023    0.000444646
 -------------------------------------------------------------------
 Cartesian Forces:  Max     0.199059510 RMS     0.056194468

 GradGradGradGradGradGradGradGradGradGradGradGradGradGradGradGradGradGrad
 Berny optimization.
 Search for a local minimum.
 Step number   1 out of a maximum of    2
 All quantities printed in internal units (Hartrees-Bohrs-Radians)
 Second derivative matrix not updated -- first step.
 ITU=  0
     Eigenvalues ---    0.00094   0.00107   0.00227   0.00293   0.00295
     Eigenvalues ---    0.00671   0.01499   0.01632   0.01929   0.01970
     Eigenvalues ---    0.03443   0.04002   0.05151   0.05191   0.10055
     Eigenvalues ---    0.16160   0.18900   0.19750   0.23151   0.24216
     Eigenvalues ---    0.24556   0.25233   0.29757   0.30508   0.44044
     Eigenvalues ---    0.62889   0.69231   0.70182   0.71522   0.75772
     Eigenvalues ---    0.98030   0.99394   1.05501   1.42443   1.47158
     Eigenvalues ---    1.57790   1.86311   1.88957   2.06142   2.44855
     Eigenvalues ---    2.57222   2.64450   2.86421   3.15783   3.35346
     Eigenvalues ---    3.55414   3.76249   5.43887
 Quadratic step=4.241D-01 exceeds max=3.000D-01 adjusted using Lamda=-2.999D-02.
 Angle between NR and scaled steps=  22.34 degrees.
 Angle between quadratic step and forces=  55.91 degrees.
 Linear search not attempted -- first point.
 B after Tr=     0.000032    0.000014    0.000079
         Rot=    1.000000    0.000002    0.000002    0.000009 Ang=   0.00 deg.
 Variable       Old X    -DE/DX   Delta X   Delta X   Delta X     New X
                                 (Linear)    (Quad)   (Total)
    X1      -16.89181  -0.00039   0.00000   0.00707   0.00706 -16.88475
    Y1       -1.66390  -0.09029   0.00000  -0.05879  -0.05848  -1.72238
    Z1        2.09852  -0.00864   0.00000  -0.00519  -0.00516   2.09335
    X2      -16.89285   0.00459   0.00000  -0.00162  -0.00158 -16.89443
    Y2        0.95514   0.04713   0.00000  -0.03926  -0.03894   0.91619
    Z2        2.36698   0.00461   0.00000  -0.00357  -0.00356   2.36342
    X3      -15.51702  -0.09543   0.00000  -0.06091  -0.06095 -15.57797
    Y3       -4.02761   0.04936   0.00000   0.04245   0.04274  -3.98487
    Z3        1.85257   0.00589   0.00000   0.00505   0.00509   1.85766
    X4      -13.24441   0.03391   0.00000  -0.02765  -0.02771 -13.27212
    Y4       -5.33806  -0.01458   0.00000   0.01551   0.01576  -5.32231
    Z4        1.69771  -0.00172   0.00000   0.00109   0.00114   1.69886
    X5      -18.30767   0.12998   0.00000   0.08856   0.08851 -18.21916
    Y5       -4.05535   0.07085   0.00000   0.05169   0.05203  -4.00331
    Z5        1.87771   0.00548   0.00000   0.00412   0.00415   1.88186
    X6      -20.50553  -0.08347   0.00000   0.00270   0.00263 -20.50290
    Y6       -5.31871  -0.04094   0.00000   0.00186   0.00224  -5.31647
    Z6        1.77275  -0.00335   0.00000   0.00030   0.00033   1.77308
    X7      -19.26196   0.09340   0.00000   0.05840   0.05846 -19.20350
    Y7        2.36291  -0.05633   0.00000  -0.08560  -0.08525   2.27767
    Z7        2.53918  -0.00683   0.00000  -0.00875  -0.00876   2.53042
    X8      -21.18974  -0.06847   0.00000   0.03206   0.03214 -21.15760
    Y8        3.29011   0.03637   0.00000  -0.01708  -0.01669   3.27342
    Z8        2.66181   0.00467   0.00000  -0.00261  -0.00262   2.65919
    X9      -14.49642  -0.19906   0.00000  -0.08248  -0.08242 -14.57884
    Y9        2.39081  -0.10775   0.00000  -0.10425  -0.10398   2.28683
    Z9        2.50397  -0.01094   0.00000  -0.00879  -0.00877   2.49520
   X10      -12.61252   0.16814   0.00000  -0.01358  -0.01350 -12.62602
   Y10        3.25825   0.08229   0.00000  -0.00229  -0.00205   3.25621
   Z10        2.59929   0.00871   0.00000  -0.00183  -0.00181   2.59748
   X11      -10.86496   0.00032   0.00000  -0.06513  -0.06518 -10.93013
   Y11       -4.02877   0.01315   0.00000   0.01508   0.01529  -4.01348
   Z11        1.79814   0.00085   0.00000   0.00140   0.00146   1.79959
   X12       -9.03403  -0.01761   0.00000  -0.05196  -0.05198  -9.08601
   Y12       -2.77674  -0.01603   0.00000  -0.03651  -0.03633  -2.81307
   Z12        1.88780  -0.00106   0.00000  -0.00021  -0.00015   1.88765
   X13      -13.19722  -0.01168   0.00000  -0.04474  -0.04485 -13.24207
   Y13       -8.01793  -0.05064   0.00000   0.03218   0.03243  -7.98550
   Z13        1.40786  -0.00604   0.00000   0.00096   0.00103   1.40889
   X14      -13.34101   0.00641   0.00000  -0.00086  -0.00101 -13.34202
   Y14      -10.25563   0.06104   0.00000   0.08389   0.08414 -10.17150
   Z14        1.15654   0.00688   0.00000   0.00795   0.00803   1.16457
   X15      -20.62537   0.01917   0.00000   0.05299   0.05288 -20.57249
   Y15       -8.04937  -0.01293   0.00000   0.04890   0.04928  -8.00009
   Z15        1.55427  -0.00111   0.00000   0.00553   0.00557   1.55984
   X16      -20.40841  -0.00855   0.00000  -0.00973  -0.00987 -20.41828
   Y16      -10.26092   0.03499   0.00000   0.07180   0.07217 -10.18875
   Z16        1.38315   0.00287   0.00000   0.00738   0.00743   1.39058
   X17      -22.94611   0.04788   0.00000   0.08026   0.08022 -22.86589
   Y17       -4.01968  -0.01361   0.00000   0.00391   0.00433  -4.01535
   Z17        1.87739  -0.00070   0.00000   0.00024   0.00025   1.87765
   X18      -24.73861  -0.01913   0.00000   0.03718   0.03715 -24.70146
   Y18       -2.78073   0.00792   0.00000  -0.02913  -0.02869  -2.80942
   Z18        1.97874   0.00044   0.00000  -0.00365  -0.00365   1.97509
         Item               Value     Threshold  Converged?
 Maximum Force            0.199060     0.000450     NO 
 RMS     Force            0.056194     0.000300     NO 
 Maximum Displacement     0.103977     0.001800     NO 
 RMS     Displacement     0.040856     0.001200     NO 
 Predicted change in Energy=-3.609373D-02
 GradGradGradGradGradGradGradGradGradGradGradGradGradGradGradGradGradGrad

 Unable to Open any file for archive entry.
 1\1\GINC-X10P1N4\Force\RwB97XD\def2SVP\C12N6(2-)\MAYUMIAO\11-Oct-2024\
 0\\# wb97xd def2svp scrf=(smd,solvent=acetonitrile) g09default scf=(xq
 c,maxcycle=64) force guess=read nosymm\\Title Card\\-2,1\C,-8.93876343
 ,-0.88049578,1.11048644\C,-8.93930988,0.50543746,1.25254965\C,-8.21125
 13,-2.13131876,0.98033851\C,-7.0086394,-2.82478158,0.89839088\C,-9.688
 0024,-2.14599665,0.99364256\C,-10.85106067,-2.81453808,0.93810047\C,-1
 0.192989,1.25040019,1.34367447\N,-11.21312597,1.74105047,1.40856966\C,
 -7.67117392,1.26516088,1.32504369\N,-6.67425726,1.7241938,1.37548748\C
 ,-5.74948736,-2.13193352,0.95153247\N,-4.78060235,-1.46938636,0.998979
 01\C,-6.98366636,-4.24290618,0.74500535\N,-7.05975993,-5.42704734,0.61
 201535\C,-10.91447479,-4.25954356,0.82248301\N,-10.79966289,-5.4298466
 4,0.73192895\C,-12.14255782,-2.12712522,0.99347319\N,-13.09111011,-1.4
 7150105,1.04710384\\Version=ES64L-G16RevC.01\HF=-784.9906235\RMSD=7.75
 0e-09\RMSF=5.619e-02\Dipole=-0.2736753,0.2543834,0.0262717\Quadrupole=
 -387.6889466,151.5001712,236.1887754,-111.5704814,65.5412488,6.0095684
 \PG=C01 [X(C12N6)]\\@
 The archive entry for this job was punched.


 HE WHO LOVES TO READ, AND KNOWS HOW TO REFLECT,
 HAS LAID BY A PERPETUAL FEAST FOR HIS OLD AGE.
 -- UNCLE ESEK, "SCRIBNER'S MONTHLY", SEPT. 1880
 Job cpu time:       0 days  0 hours 10 minutes 31.3 seconds.
 Elapsed time:       0 days  0 hours  0 minutes 23.9 seconds.
 File lengths (MBytes):  RWF=    149 Int=      0 D2E=      0 Chk=      8 Scr=      1
 Normal termination of Gaussian 16 at Fri Oct 11 15:47:22 2024.
