 Entering Gaussian System, Link 0=g16
 Input=JOBS/21_B.gjf
 Output=JOBS/21_B.log
 Initial command:
 /data/app/gaussian/C01-avx2//g16/l1.exe "/tmp/Gau-2533787.inp" -scrdir="/tmp/"
 Entering Link 1 = /data/app/gaussian/C01-avx2//g16/l1.exe PID=   2533788.
  
 Copyright (c) 1988-2019, Gaussian, Inc.  All Rights Reserved.
  
 This is part of the Gaussian(R) 16 program.  It is based on
 the Gaussian(R) 09 system (copyright 2009, Gaussian, Inc.),
 the Gaussian(R) 03 system (copyright 2003, Gaussian, Inc.),
 the Gaussian(R) 98 system (copyright 1998, Gaussian, Inc.),
 the Gaussian(R) 94 system (copyright 1995, Gaussian, Inc.),
 the Gaussian 92(TM) system (copyright 1992, Gaussian, Inc.),
 the Gaussian 90(TM) system (copyright 1990, Gaussian, Inc.),
 the Gaussian 88(TM) system (copyright 1988, Gaussian, Inc.),
 the Gaussian 86(TM) system (copyright 1986, Carnegie Mellon
 University), and the Gaussian 82(TM) system (copyright 1983,
 Carnegie Mellon University). Gaussian is a federally registered
 trademark of Gaussian, Inc.
  
 This software contains proprietary and confidential information,
 including trade secrets, belonging to Gaussian, Inc.
  
 This software is provided under written license and may be
 used, copied, transmitted, or stored only in accord with that
 written license.
  
 The following legend is applicable only to US Government
 contracts under FAR:
  
                    RESTRICTED RIGHTS LEGEND
  
 Use, reproduction and disclosure by the US Government is
 subject to restrictions as set forth in subparagraphs (a)
 and (c) of the Commercial Computer Software - Restricted
 Rights clause in FAR 52.227-19.
  
 Gaussian, Inc.
 340 Quinnipiac St., Bldg. 40, Wallingford CT 06492
  
  
 ---------------------------------------------------------------
 Warning -- This program may not be used in any manner that
 competes with the business of Gaussian, Inc. or will provide
 assistance to any competitor of Gaussian, Inc.  The licensee
 of this program is prohibited from giving any competitor of
 Gaussian, Inc. access to this program.  By using this program,
 the user acknowledges that Gaussian, Inc. is engaged in the
 business of creating and licensing software in the field of
 computational chemistry and represents and warrants to the
 licensee that it is not a competitor of Gaussian, Inc. and that
 it will not use this program in any manner prohibited above.
 ---------------------------------------------------------------
  

 Cite this work as:
 Gaussian 16, Revision C.01,
 M. J. Frisch, G. W. Trucks, H. B. Schlegel, G. E. Scuseria, 
 M. A. Robb, J. R. Cheeseman, G. Scalmani, V. Barone, 
 G. A. Petersson, H. Nakatsuji, X. Li, M. Caricato, A. V. Marenich, 
 J. Bloino, B. G. Janesko, R. Gomperts, B. Mennucci, H. P. Hratchian, 
 J. V. Ortiz, A. F. Izmaylov, J. L. Sonnenberg, D. Williams-Young, 
 F. Ding, F. Lipparini, F. Egidi, J. Goings, B. Peng, A. Petrone, 
 T. Henderson, D. Ranasinghe, V. G. Zakrzewski, J. Gao, N. Rega, 
 G. Zheng, W. Liang, M. Hada, M. Ehara, K. Toyota, R. Fukuda, 
 J. Hasegawa, M. Ishida, T. Nakajima, Y. Honda, O. Kitao, H. Nakai, 
 T. Vreven, K. Throssell, J. A. Montgomery, Jr., J. E. Peralta, 
 F. Ogliaro, M. J. Bearpark, J. J. Heyd, E. N. Brothers, K. N. Kudin, 
 V. N. Staroverov, T. A. Keith, R. Kobayashi, J. Normand, 
 K. Raghavachari, A. P. Rendell, J. C. Burant, S. S. Iyengar, 
 J. Tomasi, M. Cossi, J. M. Millam, M. Klene, C. Adamo, R. Cammi, 
 J. W. Ochterski, R. L. Martin, K. Morokuma, O. Farkas, 
 J. B. Foresman, and D. J. Fox, Gaussian, Inc., Wallingford CT, 2019.
 
 ******************************************
 Gaussian 16:  ES64L-G16RevC.01  3-Jul-2019
                11-Oct-2024 
 ******************************************
 %chk=b.chk
 %nprocshared=28
 Will use up to   28 processors via shared memory.
 %mem=48gb
 ----------------------------------------------------------------------
 # wb97xd def2svp scrf=(smd,solvent=acetonitrile) g09default scf=(xqc,m
 axcycle=64) force guess=read nosymm
 ----------------------------------------------------------------------
 1/10=7,30=1,38=1,158=3,167=1/1,3;
 2/12=2,15=1,17=6,18=5,40=1/2;
 3/5=43,7=101,11=2,25=1,27=10,30=1,70=32201,71=1,72=2,74=-58,75=-4,116=-2,158=3/1,2,3;
 4/5=1,60=-1/1;
 5/5=2,7=64,8=3,13=1,38=6,53=2,87=10/2,8;
 6/7=2,8=2,9=2,10=2,28=1,87=10/1;
 7/29=1,30=1,87=10/1,2,3,16;
 1/10=7,30=1,158=3,167=1/3;
 99//99;
 Using 2006 physical constants.
 ----------
 Title Card
 ----------
 Symbolic Z-matrix:
 Charge = -1 Multiplicity = 2
 6                    -8.93876  -0.8805    1.11049 
 6                    -8.93931   0.50544   1.25255 
 6                    -8.21125  -2.13132   0.98034 
 6                    -7.00864  -2.82478   0.89839 
 6                    -9.688    -2.146     0.99364 
 6                    -10.85106  -2.81454   0.9381 
 6                    -10.19299   1.2504    1.34367 
 7                    -11.21313   1.74105   1.40857 
 6                    -7.67117   1.26516   1.32504 
 7                    -6.67426   1.72419   1.37549 
 6                    -5.74949  -2.13193   0.95153 
 7                    -4.7806   -1.46939   0.99898 
 6                    -6.98367  -4.24291   0.74501 
 7                    -7.05976  -5.42705   0.61202 
 6                    -10.91447  -4.25954   0.82248 
 7                    -10.79966  -5.42985   0.73193 
 6                    -12.14256  -2.12713   0.99347 
 7                    -13.09111  -1.4715    1.0471 
 

 GradGradGradGradGradGradGradGradGradGradGradGradGradGradGradGradGradGrad
 Berny optimization.
 Initialization pass.
 Trust Radius=3.00D-01 FncErr=1.00D-07 GrdErr=1.00D-07 EigMax=2.50D+02 EigMin=1.00D-04
 Number of steps in this run=      2 maximum allowed number of steps=      2.
 GradGradGradGradGradGradGradGradGradGradGradGradGradGradGradGradGradGrad

                          Input orientation:                          
 ---------------------------------------------------------------------
 Center     Atomic      Atomic             Coordinates (Angstroms)
 Number     Number       Type             X           Y           Z
 ---------------------------------------------------------------------
      1          6           0       -8.938763   -0.880496    1.110486
      2          6           0       -8.939310    0.505437    1.252550
      3          6           0       -8.211251   -2.131319    0.980339
      4          6           0       -7.008639   -2.824782    0.898391
      5          6           0       -9.688002   -2.145997    0.993643
      6          6           0      -10.851061   -2.814538    0.938100
      7          6           0      -10.192989    1.250400    1.343674
      8          7           0      -11.213126    1.741050    1.408570
      9          6           0       -7.671174    1.265161    1.325044
     10          7           0       -6.674257    1.724194    1.375487
     11          6           0       -5.749487   -2.131934    0.951532
     12          7           0       -4.780602   -1.469386    0.998979
     13          6           0       -6.983666   -4.242906    0.745005
     14          7           0       -7.059760   -5.427047    0.612015
     15          6           0      -10.914475   -4.259544    0.822483
     16          7           0      -10.799663   -5.429847    0.731929
     17          6           0      -12.142558   -2.127125    0.993473
     18          7           0      -13.091110   -1.471501    1.047104
 ---------------------------------------------------------------------
                    Distance matrix (angstroms):
                    1          2          3          4          5
     1  C    0.000000
     2  C    1.393195   0.000000
     3  C    1.452849   2.748936   0.000000
     4  C    2.747837   3.865653   1.390641   0.000000
     5  C    1.475298   2.767251   1.476884   2.765648   0.000000
     6  C    2.725274   3.843944   2.727117   3.842640   1.342660
     7  C    2.483581   1.461159   3.936410   5.190902   3.451528
     8  N    3.483401   2.592551   4.918321   6.227745   4.196106
     9  C    2.501332   1.480069   3.456382   4.165167   3.976609
    10  N    3.461592   2.575062   4.169349   4.586132   4.920045
    11  C    3.429700   4.149856   2.461933   1.438168   3.938765
    12  N    4.201134   4.610757   3.493974   2.609859   4.953827
    13  C    3.906633   5.160321   2.453803   1.426614   3.431076
    14  N    4.944720   6.255987   3.510473   2.618475   4.221207
    15  C    3.924837   5.176029   3.444078   4.161713   2.449614
    16  N    4.929792   6.241759   4.200222   4.602818   3.476773
    17  C    3.439778   4.154312   3.931331   5.181977   2.454628
    18  N    4.194674   4.603036   4.924717   6.232971   3.469718
                    6          7          8          9         10
     6  C    0.000000
     7  C    4.137786   0.000000
     8  N    4.594107   1.133856   0.000000
     9  C    5.187037   2.521927   3.574755   0.000000
    10  N    6.183614   3.550629   4.539021   1.098680   0.000000
    11  C    5.147055   5.598095   6.712692   3.920796   3.988064
    12  N    6.218006   6.067123   7.200835   3.992427   3.731842
    13  C    4.127258   6.390193   7.357743   5.581032   6.008288
    14  N    4.615788   7.412203   8.322654   6.757802   7.202205
    15  C    1.451010   5.581367   6.036540   6.426035   7.354616
    16  N    2.623926   6.735576   7.214607   7.413660   8.283323
    17  C    1.464093   3.915500   3.999866   5.622350   6.699321
    18  N    2.614087   3.986955   3.738712   6.078016   7.176092
                   11         12         13         14         15
    11  C    0.000000
    12  N    1.174716   0.000000
    13  C    2.453988   3.551113   0.000000
    14  N    3.562283   4.583381   1.194013   0.000000
    15  C    5.587528   6.740958   3.931607   4.033136   0.000000
    16  N    6.035622   7.210108   3.996352   3.741826   1.179403
    17  C    6.393210   7.391281   5.581436   6.072053   2.466705
    18  N    7.371888   8.310647   6.713629   7.225845   3.544203
                   16         17         18
    16  N    0.000000
    17  C    3.574876   0.000000
    18  N    4.584601   1.154327   0.000000
 Symmetry turned off by external request.
 Stoichiometry    C12N6(1-,2)
 Framework group  C1[X(C12N6)]
 Deg. of freedom    48
 Full point group                 C1      NOp   1
 Rotational constants (GHZ):           0.4202545           0.4191352           0.2098678
 Standard basis: def2SVP (5D, 7F)
   252 basis functions,   450 primitive gaussians,   270 cartesian basis functions
    58 alpha electrons       57 beta electrons
       nuclear repulsion energy       954.4536623817 Hartrees.
 NAtoms=   18 NActive=   18 NUniq=   18 SFac= 1.00D+00 NAtFMM=   60 NAOKFM=F Big=F
 Integral buffers will be    131072 words long.
 Raffenetti 2 integral format.
 Two-electron integral symmetry is turned off.
 Nuclear repulsion after empirical dispersion term =      954.4422571011 Hartrees.
 Force PCM accuracy= 1.00D-10.
 ------------------------------------------------------------------------------
 Polarizable Continuum Model (PCM)
 =================================
 Model                : PCM (using non-symmetric T matrix).
 Atomic radii         : SMD-Coulomb.
 Polarization charges : Total charges.
 Charge compensation  : None.
 Solution method      : On-the-fly selection.
 Cavity type          : VdW (van der Waals Surface) (Alpha=1.000).
 Cavity algorithm     : GePol (No added spheres)
                        Default sphere list used, NSphG=   18.
                        Lebedev-Laikov grids with approx.  5.0 points / Ang**2.
                        Smoothing algorithm: York/Karplus (Gamma=1.0000).
                        Polarization charges: spherical gaussians, with
                                              point-specific exponents (IZeta= 3).
                        Self-potential: point-specific (ISelfS= 7).
                        Self-field    : sphere-specific E.n sum rule (ISelfD= 2).
 1st derivatives      : Analytical E(r).r(x)/FMM algorithm (CHGder, D1EAlg=3).
                        Cavity 1st derivative terms included.
 Solvent              : Acetonitrile, Eps=  35.688000 Eps(inf)=   1.806874
 ------------------------------------------------------------------------------
 Spheres list:
 ISph  on   Nord     Re0    Alpha      Xe            Ye            Ze
    1   C      1    1.8500  1.000     -8.938763     -0.880496      1.110486
    2   C      2    1.8500  1.000     -8.939310      0.505437      1.252550
    3   C      3    1.8500  1.000     -8.211251     -2.131319      0.980339
    4   C      4    1.8500  1.000     -7.008639     -2.824782      0.898391
    5   C      5    1.8500  1.000     -9.688002     -2.145997      0.993643
    6   C      6    1.8500  1.000    -10.851061     -2.814538      0.938100
    7   C      7    1.8500  1.000    -10.192989      1.250400      1.343674
    8   N      8    1.8900  1.000    -11.213126      1.741050      1.408570
    9   C      9    1.8500  1.000     -7.671174      1.265161      1.325044
   10   N     10    1.8900  1.000     -6.674257      1.724194      1.375487
   11   C     11    1.8500  1.000     -5.749487     -2.131934      0.951532
   12   N     12    1.8900  1.000     -4.780602     -1.469386      0.998979
   13   C     13    1.8500  1.000     -6.983666     -4.242906      0.745005
   14   N     14    1.8900  1.000     -7.059760     -5.427047      0.612015
   15   C     15    1.8500  1.000    -10.914475     -4.259544      0.822483
   16   N     16    1.8900  1.000    -10.799663     -5.429847      0.731929
   17   C     17    1.8500  1.000    -12.142558     -2.127125      0.993473
   18   N     18    1.8900  1.000    -13.091110     -1.471501      1.047104
 ------------------------------------------------------------------------------
 ------------------------------------------------------------------------------
 Atomic radii for non-electrostatic terms: SMD-CDS.
 ------------------------------------------------------------------------------
 Nuclear repulsion after PCM non-electrostatic terms =      954.4508781308 Hartrees.
 One-electron integrals computed using PRISM.
   1 Symmetry operations used in ECPInt.
 ECPInt:  NShTT=    5886 NPrTT=   23670 LenC2=    5391 LenP2D=   14868.
 LDataN:  DoStor=T MaxTD1= 4 Len=   56
 NBasis=   252 RedAO= T EigKep=  3.03D-04  NBF=   252
 NBsUse=   252 1.00D-06 EigRej= -1.00D+00 NBFU=   252
 Initial guess from the checkpoint file:  "b.chk"
 B after Tr=     0.000630   -0.000278    0.000644
         Rot=    1.000000    0.000024    0.000025   -0.000009 Ang=   0.00 deg.
 Initial guess <Sx>= 0.0000 <Sy>= 0.0000 <Sz>= 0.5000 <S**2>= 0.7905 S= 0.5201
 Requested convergence on RMS density matrix=1.00D-08 within  64 cycles.
 Requested convergence on MAX density matrix=1.00D-06.
 Requested convergence on             energy=1.00D-06.
 No special actions if energy rises.
 Inv3:  Mode=1 IEnd=    19553427.
 Iteration    1 A*A^-1 deviation from unit magnitude is 4.00D-15 for    867.
 Iteration    1 A*A^-1 deviation from orthogonality  is 3.80D-15 for   1001     68.
 Iteration    1 A^-1*A deviation from unit magnitude is 2.89D-15 for     54.
 Iteration    1 A^-1*A deviation from orthogonality  is 9.43D-11 for   1107   1105.
 Error on total polarization charges =  0.02007
 SCF Done:  E(UwB97XD) =  -784.828702210     A.U. after   20 cycles
            NFock= 20  Conv=0.37D-08     -V/T= 2.0102
 <Sx>= 0.0000 <Sy>= 0.0000 <Sz>= 0.5000 <S**2>= 0.7856 S= 0.5176
 <L.S>=  0.00000000000    
 SMD-CDS (non-electrostatic) energy       (kcal/mol) =       5.41
 (included in total energy above)
 Annihilation of the first spin contaminant:
 S**2 before annihilation     0.7856,   after     0.7510
 QCSCF skips out because SCF is already converged.

 **********************************************************************

            Population analysis using the SCF Density.

 **********************************************************************

 Alpha  occ. eigenvalues --  -14.46643 -14.46534 -14.46309 -14.45987 -14.45409
 Alpha  occ. eigenvalues --  -14.44628 -10.39081 -10.38977 -10.38943 -10.38864
 Alpha  occ. eigenvalues --  -10.38583 -10.38476 -10.36835 -10.36735 -10.36533
 Alpha  occ. eigenvalues --  -10.36243 -10.35728 -10.35020  -1.03867  -1.03006
 Alpha  occ. eigenvalues --   -1.02112  -1.01672  -1.00762  -1.00378  -0.99804
 Alpha  occ. eigenvalues --   -0.92010  -0.91442  -0.88642  -0.72359  -0.71488
 Alpha  occ. eigenvalues --   -0.68487  -0.67563  -0.67308  -0.66776  -0.54414
 Alpha  occ. eigenvalues --   -0.50782  -0.50513  -0.49193  -0.48825  -0.47735
 Alpha  occ. eigenvalues --   -0.47632  -0.47375  -0.47013  -0.46879  -0.46470
 Alpha  occ. eigenvalues --   -0.46107  -0.45679  -0.45570  -0.44957  -0.44689
 Alpha  occ. eigenvalues --   -0.44269  -0.44067  -0.43519  -0.42828  -0.42366
 Alpha  occ. eigenvalues --   -0.36138  -0.35593  -0.27114
 Alpha virt. eigenvalues --    0.03682   0.04499   0.06071   0.06701   0.08218
 Alpha virt. eigenvalues --    0.08436   0.09534   0.10417   0.11397   0.12316
 Alpha virt. eigenvalues --    0.12385   0.14268   0.18771   0.18917   0.20145
 Alpha virt. eigenvalues --    0.22911   0.24022   0.24591   0.26014   0.26094
 Alpha virt. eigenvalues --    0.27435   0.29400   0.29797   0.30905   0.31536
 Alpha virt. eigenvalues --    0.32007   0.34166   0.45667   0.46148   0.49470
 Alpha virt. eigenvalues --    0.50091   0.50996   0.51895   0.53195   0.53301
 Alpha virt. eigenvalues --    0.53795   0.54260   0.54797   0.56276   0.59789
 Alpha virt. eigenvalues --    0.60010   0.60393   0.60828   0.61095   0.63471
 Alpha virt. eigenvalues --    0.63567   0.68428   0.68720   0.69024   0.70496
 Alpha virt. eigenvalues --    0.70648   0.72044   0.72218   0.72575   0.72915
 Alpha virt. eigenvalues --    0.73194   0.73399   0.74153   0.74393   0.74747
 Alpha virt. eigenvalues --    0.77683   0.77977   0.78916   0.80863   0.81028
 Alpha virt. eigenvalues --    0.83453   0.84031   0.85678   0.86698   0.91693
 Alpha virt. eigenvalues --    0.92598   0.92707   0.93126   0.93661   0.94257
 Alpha virt. eigenvalues --    0.94925   0.97652   0.98145   0.98887   0.99122
 Alpha virt. eigenvalues --    1.00313   1.00950   1.00972   1.01251   1.02869
 Alpha virt. eigenvalues --    1.02951   1.04080   1.04897   1.08343   1.09608
 Alpha virt. eigenvalues --    1.11410   1.15499   1.16841   1.17115   1.18584
 Alpha virt. eigenvalues --    1.19855   1.21749   1.23420   1.23784   1.31397
 Alpha virt. eigenvalues --    1.32989   1.33653   1.38337   1.38669   1.41522
 Alpha virt. eigenvalues --    1.43686   1.44100   1.44752   1.45479   1.57168
 Alpha virt. eigenvalues --    1.57434   1.66185   1.67604   1.68099   1.68676
 Alpha virt. eigenvalues --    1.68788   1.69090   1.73973   1.74596   1.76133
 Alpha virt. eigenvalues --    1.76493   1.76786   1.77904   1.78641   1.79778
 Alpha virt. eigenvalues --    1.79863   1.80104   1.83802   1.89397   1.91766
 Alpha virt. eigenvalues --    1.93675   1.97156   1.97925   1.98941   2.00212
 Alpha virt. eigenvalues --    2.01783   2.02346   2.04065   2.09126   2.09568
 Alpha virt. eigenvalues --    2.11841   2.17293   2.18079   2.20166   2.24219
 Alpha virt. eigenvalues --    2.24866   2.25501   2.27159   2.31290   2.31490
 Alpha virt. eigenvalues --    2.32209   2.32889   2.33759   2.33959   2.34552
 Alpha virt. eigenvalues --    2.34738   2.35212   2.35674   2.36029   2.36999
 Alpha virt. eigenvalues --    2.37134   2.38697   2.53037   2.55012   2.55105
 Alpha virt. eigenvalues --    2.65186   2.66047   2.86973   2.89886   2.91734
 Alpha virt. eigenvalues --    2.93970   2.96948   2.98465   3.00779   3.02116
 Alpha virt. eigenvalues --    3.03784   3.05637   3.06308   3.06742   3.07413
 Alpha virt. eigenvalues --    3.08198   3.13564   3.16662   3.18893   3.28496
 Alpha virt. eigenvalues --    3.36407   3.38680   3.39993   3.46444   3.48187
 Alpha virt. eigenvalues --    3.57524   3.58915   3.65503   3.75921
  Beta  occ. eigenvalues --  -14.46425 -14.46361 -14.46119 -14.45841 -14.45242
  Beta  occ. eigenvalues --  -14.44496 -10.39008 -10.38970 -10.38901 -10.38676
  Beta  occ. eigenvalues --  -10.38268 -10.38129 -10.36938 -10.36821 -10.36626
  Beta  occ. eigenvalues --  -10.36318 -10.35812 -10.35091  -1.03567  -1.02676
  Beta  occ. eigenvalues --   -1.01820  -1.01362  -1.00443  -1.00061  -0.99447
  Beta  occ. eigenvalues --   -0.91323  -0.90642  -0.87616  -0.72216  -0.71334
  Beta  occ. eigenvalues --   -0.68254  -0.67338  -0.67100  -0.66508  -0.53462
  Beta  occ. eigenvalues --   -0.49558  -0.49260  -0.49021  -0.48653  -0.47399
  Beta  occ. eigenvalues --   -0.47280  -0.47087  -0.46750  -0.46644  -0.46288
  Beta  occ. eigenvalues --   -0.45443  -0.45345  -0.44819  -0.44639  -0.43950
  Beta  occ. eigenvalues --   -0.43931  -0.43403  -0.43361  -0.42690  -0.42215
  Beta  occ. eigenvalues --   -0.33659  -0.32733
  Beta virt. eigenvalues --   -0.09592   0.04682   0.05467   0.06192   0.06795
  Beta virt. eigenvalues --    0.08284   0.08440   0.10558   0.11207   0.11445
  Beta virt. eigenvalues --    0.12403   0.13157   0.14548   0.19043   0.19176
  Beta virt. eigenvalues --    0.21676   0.22816   0.25587   0.26194   0.26249
  Beta virt. eigenvalues --    0.26291   0.27678   0.29477   0.29953   0.31429
  Beta virt. eigenvalues --    0.32004   0.32585   0.34284   0.45845   0.46288
  Beta virt. eigenvalues --    0.49575   0.50166   0.51104   0.51988   0.53146
  Beta virt. eigenvalues --    0.53259   0.53956   0.54412   0.54929   0.56437
  Beta virt. eigenvalues --    0.59710   0.59917   0.60265   0.60865   0.61133
  Beta virt. eigenvalues --    0.63430   0.63623   0.68746   0.68858   0.69213
  Beta virt. eigenvalues --    0.70656   0.70825   0.72141   0.72308   0.72653
  Beta virt. eigenvalues --    0.73067   0.73392   0.73564   0.74283   0.74501
  Beta virt. eigenvalues --    0.74870   0.77682   0.77993   0.79883   0.81609
  Beta virt. eigenvalues --    0.81735   0.83587   0.84174   0.85965   0.86784
  Beta virt. eigenvalues --    0.91842   0.92755   0.93317   0.93656   0.93873
  Beta virt. eigenvalues --    0.94807   0.95560   0.98227   0.98697   0.99115
  Beta virt. eigenvalues --    0.99325   1.00478   1.01073   1.01090   1.01410
  Beta virt. eigenvalues --    1.03068   1.03217   1.04160   1.05178   1.08491
  Beta virt. eigenvalues --    1.09837   1.11549   1.15672   1.17105   1.17381
  Beta virt. eigenvalues --    1.18820   1.20175   1.21981   1.23710   1.24378
  Beta virt. eigenvalues --    1.31536   1.33172   1.33856   1.38960   1.39243
  Beta virt. eigenvalues --    1.42244   1.43789   1.44805   1.45470   1.45652
  Beta virt. eigenvalues --    1.57178   1.57496   1.66055   1.67461   1.67928
  Beta virt. eigenvalues --    1.68490   1.68580   1.68838   1.73930   1.74507
  Beta virt. eigenvalues --    1.76249   1.76619   1.76769   1.77848   1.78520
  Beta virt. eigenvalues --    1.79663   1.79976   1.80116   1.83683   1.89630
  Beta virt. eigenvalues --    1.91807   1.93766   1.97688   1.98464   1.99083
  Beta virt. eigenvalues --    2.00544   2.02265   2.02471   2.04687   2.09452
  Beta virt. eigenvalues --    2.09933   2.12135   2.18205   2.19070   2.21289
  Beta virt. eigenvalues --    2.24902   2.25467   2.26126   2.27794   2.31817
  Beta virt. eigenvalues --    2.32117   2.32932   2.33531   2.34425   2.34472
  Beta virt. eigenvalues --    2.35034   2.35290   2.35808   2.36340   2.36613
  Beta virt. eigenvalues --    2.37560   2.37625   2.39206   2.53422   2.55140
  Beta virt. eigenvalues --    2.55199   2.65723   2.66530   2.87061   2.90092
  Beta virt. eigenvalues --    2.91871   2.94104   2.97063   2.98608   3.01300
  Beta virt. eigenvalues --    3.02231   3.04268   3.05842   3.06742   3.07212
  Beta virt. eigenvalues --    3.07579   3.08671   3.13991   3.16902   3.19126
  Beta virt. eigenvalues --    3.28663   3.36599   3.38893   3.40185   3.46626
  Beta virt. eigenvalues --    3.48371   3.57706   3.59105   3.65674   3.76098
          Condensed to atoms (all electrons):
               1          2          3          4          5          6
     1  C    4.911488   0.549681   0.297287  -0.091241   0.282540  -0.105449
     2  C    0.549681   5.294582  -0.089961  -0.006449  -0.083275  -0.007878
     3  C    0.297287  -0.089961   4.898659   0.539397   0.286994  -0.105702
     4  C   -0.091241  -0.006449   0.539397   5.313555  -0.085703  -0.008211
     5  C    0.282540  -0.083275   0.286994  -0.085703   4.852084   0.547026
     6  C   -0.105449  -0.007878  -0.105702  -0.008211   0.547026   5.365165
     7  C    0.001895   0.392195   0.004960  -0.000205  -0.013396   0.000821
     8  N   -0.000777  -0.026625   0.000005  -0.000001  -0.000370   0.000060
     9  C   -0.001900   0.383031  -0.012955   0.000891   0.004752  -0.000215
    10  N   -0.001164  -0.026083  -0.000433   0.000095   0.000006  -0.000001
    11  C   -0.016172   0.001080  -0.000160   0.385554   0.005355  -0.000286
    12  N   -0.000387   0.000080  -0.000944  -0.029871   0.000011  -0.000001
    13  C    0.005346  -0.000247   0.004175   0.389291  -0.015760   0.000942
    14  N    0.000009  -0.000000  -0.000732  -0.031422  -0.000312   0.000056
    15  C    0.005509  -0.000214  -0.015196   0.000922   0.000838   0.380733
    16  N    0.000026  -0.000000  -0.000400   0.000100  -0.000558  -0.029103
    17  C   -0.014790   0.000908   0.005060  -0.000221   0.000365   0.379272
    18  N   -0.000412   0.000080   0.000016  -0.000001  -0.000715  -0.026241
               7          8          9         10         11         12
     1  C    0.001895  -0.000777  -0.001900  -0.001164  -0.016172  -0.000387
     2  C    0.392195  -0.026625   0.383031  -0.026083   0.001080   0.000080
     3  C    0.004960   0.000005  -0.012955  -0.000433  -0.000160  -0.000944
     4  C   -0.000205  -0.000001   0.000891   0.000095   0.385554  -0.029871
     5  C   -0.013396  -0.000370   0.004752   0.000006   0.005355   0.000011
     6  C    0.000821   0.000060  -0.000215  -0.000001  -0.000286  -0.000001
     7  C    4.787009   0.941195  -0.025835   0.001062   0.000040   0.000001
     8  N    0.941195   6.064079   0.001102   0.000024   0.000000   0.000000
     9  C   -0.025835   0.001102   4.765511   0.983927   0.000330   0.000543
    10  N    0.001062   0.000024   0.983927   5.992587   0.000080  -0.000735
    11  C    0.000040   0.000000   0.000330   0.000080   4.813767   0.896513
    12  N    0.000001   0.000000   0.000543  -0.000735   0.896513   6.147274
    13  C   -0.000003  -0.000000   0.000039   0.000001  -0.025885   0.001725
    14  N   -0.000000   0.000000   0.000000   0.000000   0.001676   0.000036
    15  C    0.000039   0.000001  -0.000002  -0.000000   0.000043   0.000000
    16  N    0.000000   0.000000  -0.000000   0.000000   0.000001   0.000000
    17  C    0.000356   0.000196   0.000030   0.000000  -0.000003  -0.000000
    18  N    0.000411  -0.000715   0.000001   0.000000  -0.000000   0.000000
              13         14         15         16         17         18
     1  C    0.005346   0.000009   0.005509   0.000026  -0.014790  -0.000412
     2  C   -0.000247  -0.000000  -0.000214  -0.000000   0.000908   0.000080
     3  C    0.004175  -0.000732  -0.015196  -0.000400   0.005060   0.000016
     4  C    0.389291  -0.031422   0.000922   0.000100  -0.000221  -0.000001
     5  C   -0.015760  -0.000312   0.000838  -0.000558   0.000365  -0.000715
     6  C    0.000942   0.000056   0.380733  -0.029103   0.379272  -0.026241
     7  C   -0.000003  -0.000000   0.000039   0.000000   0.000356   0.000411
     8  N   -0.000000   0.000000   0.000001   0.000000   0.000196  -0.000715
     9  C    0.000039   0.000000  -0.000002  -0.000000   0.000030   0.000001
    10  N    0.000001   0.000000  -0.000000   0.000000   0.000000   0.000000
    11  C   -0.025885   0.001676   0.000043   0.000001  -0.000003  -0.000000
    12  N    0.001725   0.000036   0.000000   0.000000  -0.000000   0.000000
    13  C    4.817322   0.875587   0.000199   0.000321   0.000041   0.000000
    14  N    0.875587   6.190392   0.000178  -0.000653   0.000001   0.000000
    15  C    0.000199   0.000178   4.817981   0.894130  -0.022889   0.001121
    16  N    0.000321  -0.000653   0.894130   6.155132   0.001226   0.000019
    17  C    0.000041   0.000001  -0.022889   0.001226   4.808354   0.921497
    18  N    0.000000   0.000000   0.001121   0.000019   0.921497   6.100665
          Atomic-Atomic Spin Densities.
               1          2          3          4          5          6
     1  C   -0.046128  -0.070868   0.038963  -0.005726   0.031972  -0.005894
     2  C   -0.070868   0.426380  -0.006920   0.000915  -0.005907   0.000928
     3  C    0.038963  -0.006920  -0.002482  -0.077062   0.034286  -0.007096
     4  C   -0.005726   0.000915  -0.077062   0.380722  -0.005886   0.000874
     5  C    0.031972  -0.005907   0.034286  -0.005886  -0.032097  -0.067071
     6  C   -0.005894   0.000928  -0.007096   0.000874  -0.067071   0.353556
     7  C   -0.000457   0.005955  -0.000132  -0.000009   0.000256  -0.000051
     8  N    0.000492  -0.005263   0.000008  -0.000000   0.000041  -0.000029
     9  C   -0.000417   0.003933   0.000210  -0.000031  -0.000093  -0.000009
    10  N    0.000464  -0.004974   0.000042  -0.000027   0.000006  -0.000000
    11  C    0.000211  -0.000035   0.000611   0.006949  -0.000082  -0.000011
    12  N    0.000037  -0.000029   0.000589  -0.005210   0.000008  -0.000000
    13  C   -0.000114  -0.000011   0.000710   0.008684   0.000226  -0.000059
    14  N    0.000008  -0.000000   0.000609  -0.005460   0.000040  -0.000029
    15  C   -0.000093  -0.000008   0.000184  -0.000030   0.000329   0.006993
    16  N    0.000007  -0.000000   0.000044  -0.000027   0.000531  -0.004609
    17  C    0.000210  -0.000022  -0.000087  -0.000008   0.000057   0.005835
    18  N    0.000037  -0.000027   0.000007  -0.000000   0.000463  -0.004384
               7          8          9         10         11         12
     1  C   -0.000457   0.000492  -0.000417   0.000464   0.000211   0.000037
     2  C    0.005955  -0.005263   0.003933  -0.004974  -0.000035  -0.000029
     3  C   -0.000132   0.000008   0.000210   0.000042   0.000611   0.000589
     4  C   -0.000009  -0.000000  -0.000031  -0.000027   0.006949  -0.005210
     5  C    0.000256   0.000041  -0.000093   0.000006  -0.000082   0.000008
     6  C   -0.000051  -0.000029  -0.000009  -0.000000  -0.000011  -0.000000
     7  C   -0.068722  -0.001679  -0.001534   0.000021  -0.000002   0.000000
     8  N   -0.001679   0.103013   0.000026   0.000006  -0.000000   0.000000
     9  C   -0.001534   0.000026  -0.057547  -0.000583  -0.000001   0.000007
    10  N    0.000021   0.000006  -0.000583   0.081789   0.000010   0.000040
    11  C   -0.000002  -0.000000  -0.000001   0.000010  -0.075823  -0.002679
    12  N    0.000000   0.000000   0.000007   0.000040  -0.002679   0.117956
    13  C    0.000000  -0.000000  -0.000001   0.000000  -0.001290   0.000086
    14  N   -0.000000   0.000000  -0.000000   0.000000   0.000098   0.000008
    15  C   -0.000001   0.000000   0.000000  -0.000000  -0.000001  -0.000000
    16  N   -0.000000   0.000000  -0.000000   0.000000   0.000000   0.000000
    17  C    0.000000   0.000007  -0.000001  -0.000000  -0.000000  -0.000000
    18  N    0.000007   0.000037   0.000000   0.000000  -0.000000   0.000000
              13         14         15         16         17         18
     1  C   -0.000114   0.000008  -0.000093   0.000007   0.000210   0.000037
     2  C   -0.000011  -0.000000  -0.000008  -0.000000  -0.000022  -0.000027
     3  C    0.000710   0.000609   0.000184   0.000044  -0.000087   0.000007
     4  C    0.008684  -0.005460  -0.000030  -0.000027  -0.000008  -0.000000
     5  C    0.000226   0.000040   0.000329   0.000531   0.000057   0.000463
     6  C   -0.000059  -0.000029   0.006993  -0.004609   0.005835  -0.004384
     7  C    0.000000  -0.000000  -0.000001  -0.000000   0.000000   0.000007
     8  N   -0.000000   0.000000   0.000000   0.000000   0.000007   0.000037
     9  C   -0.000001  -0.000000   0.000000  -0.000000  -0.000001   0.000000
    10  N    0.000000   0.000000  -0.000000   0.000000  -0.000000   0.000000
    11  C   -0.001290   0.000098  -0.000001   0.000000  -0.000000  -0.000000
    12  N    0.000086   0.000008  -0.000000   0.000000  -0.000000   0.000000
    13  C   -0.085122  -0.003773  -0.000002   0.000010  -0.000001  -0.000000
    14  N   -0.003773   0.135288   0.000008   0.000042   0.000000   0.000000
    15  C   -0.000002   0.000008  -0.070654  -0.002579  -0.001360   0.000041
    16  N    0.000010   0.000042  -0.002579   0.106995   0.000035   0.000006
    17  C   -0.000001   0.000000  -0.001360   0.000035  -0.061326  -0.001705
    18  N   -0.000000   0.000000   0.000041   0.000006  -0.001705   0.090660
 Mulliken charges and spin densities:
               1          2
     1  C    0.178511  -0.057296
     2  C   -0.380904   0.344046
     3  C    0.189930  -0.017515
     4  C   -0.376482   0.298668
     5  C    0.220118  -0.042919
     6  C   -0.390989   0.278945
     7  C   -0.090545  -0.066347
     8  N    0.021827   0.096660
     9  C   -0.099248  -0.056042
    10  N    0.050635   0.076794
    11  C   -0.061934  -0.072045
    12  N   -0.014244   0.110811
    13  C   -0.053096  -0.080656
    14  N   -0.034815   0.126839
    15  C   -0.063395  -0.067174
    16  N   -0.020239   0.100454
    17  C   -0.079403  -0.058367
    18  N    0.004274   0.085143
 Sum of Mulliken charges =  -1.00000   1.00000
 Mulliken charges and spin densities with hydrogens summed into heavy atoms:
               1          2
     1  C    0.178511  -0.057296
     2  C   -0.380904   0.344046
     3  C    0.189930  -0.017515
     4  C   -0.376482   0.298668
     5  C    0.220118  -0.042919
     6  C   -0.390989   0.278945
     7  C   -0.090545  -0.066347
     8  N    0.021827   0.096660
     9  C   -0.099248  -0.056042
    10  N    0.050635   0.076794
    11  C   -0.061934  -0.072045
    12  N   -0.014244   0.110811
    13  C   -0.053096  -0.080656
    14  N   -0.034815   0.126839
    15  C   -0.063395  -0.067174
    16  N   -0.020239   0.100454
    17  C   -0.079403  -0.058367
    18  N    0.004274   0.085143
 Electronic spatial extent (au):  <R**2>=          39083.8095
 Charge=             -1.0000 electrons
 Dipole moment (field-independent basis, Debye):
    X=             42.6398    Y=              8.8175    Z=             -4.8878  Tot=             43.8154
 Quadrupole moment (field-independent basis, Debye-Ang):
   XX=           -548.8119   YY=           -185.2154   ZZ=           -104.4987
   XY=            -77.3486   XZ=             44.1390   YZ=              1.9729
 Traceless Quadrupole moment (field-independent basis, Debye-Ang):
   XX=           -269.3032   YY=             94.2933   ZZ=            175.0100
   XY=            -77.3486   XZ=             44.1390   YZ=              1.9729
 Octapole moment (field-independent basis, Debye-Ang**2):
  XXX=           7922.6843  YYY=            986.8383  ZZZ=           -311.8842  XYY=           1651.1289
  XXY=            897.6940  XXZ=           -579.6871  XZZ=            934.9501  YZZ=            167.4929
  YYZ=           -159.4696  XYZ=            -18.0280
 Hexadecapole moment (field-independent basis, Debye-Ang**3):
 XXXX=        -115710.8177 YYYY=          -7953.1108 ZZZZ=           -765.3832 XXXY=         -11815.0865
 XXXZ=           8474.8824 YYYX=          -8795.1491 YYYZ=            647.7948 ZZZX=           2804.4460
 ZZZY=            366.3731 XXYY=         -16423.6407 XXZZ=          -9111.2810 YYZZ=           -987.7321
 XXYZ=            309.6159 YYXZ=           1438.7011 ZZXY=          -1495.8949
 N-N= 9.544508781308D+02 E-N=-3.744144744854D+03  KE= 7.768860024631D+02
                          Isotropic Fermi Contact Couplings
        Atom                 a.u.       MegaHertz       Gauss      10(-4) cm-1
     1  C(13)             -0.02059     -23.14472      -8.25861      -7.72025
     2  C(13)              0.05968      67.08962      23.93924      22.37869
     3  C(13)             -0.01220     -13.71379      -4.89342      -4.57443
     4  C(13)              0.04993      56.13396      20.02999      18.72427
     5  C(13)             -0.01622     -18.23066      -6.50515      -6.08109
     6  C(13)              0.04620      51.93415      18.53140      17.32337
     7  C(13)             -0.03310     -37.20515     -13.27572     -12.41030
     8  N(14)              0.02187       7.06704       2.52170       2.35731
     9  C(13)             -0.03050     -34.28498     -12.23373     -11.43624
    10  N(14)              0.01668       5.38945       1.92309       1.79773
    11  C(13)             -0.03323     -37.35177     -13.32804     -12.45921
    12  N(14)              0.02594       8.38280       2.99119       2.79620
    13  C(13)             -0.03536     -39.75511     -14.18561     -13.26088
    14  N(14)              0.03008       9.71978       3.46826       3.24217
    15  C(13)             -0.03072     -34.53647     -12.32347     -11.52013
    16  N(14)              0.02355       7.61021       2.71551       2.53849
    17  C(13)             -0.02854     -32.08525     -11.44881     -10.70249
    18  N(14)              0.01958       6.32506       2.25694       2.10981
 --------------------------------------------------------
       Center         ----  Spin Dipole Couplings  ----
                      3XX-RR        3YY-RR        3ZZ-RR
 --------------------------------------------------------
     1   Atom        0.000066      0.028698     -0.028764
     2   Atom       -0.179249     -0.176873      0.356121
     3   Atom        0.002808     -0.007880      0.005072
     4   Atom       -0.158513     -0.152043      0.310556
     5   Atom        0.019566      0.005450     -0.025016
     6   Atom       -0.145527     -0.140799      0.286326
     7   Atom        0.033180      0.006515     -0.039696
     8   Atom       -0.100147     -0.078909      0.179056
     9   Atom        0.026864      0.004906     -0.031770
    10   Atom       -0.080914     -0.063931      0.144845
    11   Atom        0.034114      0.011065     -0.045179
    12   Atom       -0.108434     -0.092437      0.200871
    13   Atom       -0.003444      0.053636     -0.050192
    14   Atom       -0.092997     -0.132509      0.225506
    15   Atom       -0.002180      0.043539     -0.041359
    16   Atom       -0.074524     -0.107345      0.181868
    17   Atom        0.027128      0.008606     -0.035734
    18   Atom       -0.083697     -0.073302      0.156999
 --------------------------------------------------------
                        XY            XZ            YZ
 --------------------------------------------------------
     1   Atom       -0.000114     -0.001906      0.005222
     2   Atom       -0.000650      0.004731     -0.056675
     3   Atom       -0.009878      0.001025     -0.000131
     4   Atom        0.000364      0.005925     -0.049278
     5   Atom        0.012103      0.000900      0.003431
     6   Atom       -0.001908     -0.000374     -0.034727
     7   Atom       -0.019251     -0.002748      0.005063
     8   Atom        0.010591      0.005156     -0.027908
     9   Atom        0.015830      0.001460      0.003969
    10   Atom       -0.007670     -0.001101     -0.023484
    11   Atom        0.022994      0.000912      0.005471
    12   Atom       -0.017879      0.004757     -0.029631
    13   Atom        0.001866     -0.000182      0.011310
    14   Atom       -0.003074      0.002461     -0.041800
    15   Atom       -0.001206      0.000056      0.006860
    16   Atom        0.003651     -0.000672     -0.022030
    17   Atom       -0.017551     -0.001539      0.003596
    18   Atom        0.012954      0.001179     -0.018227
 --------------------------------------------------------


 ---------------------------------------------------------------------------------
              Anisotropic Spin Dipole Couplings in Principal Axis System
 ---------------------------------------------------------------------------------

       Atom             a.u.   MegaHertz   Gauss  10(-4) cm-1        Axes

              Baa    -0.0294    -3.939    -1.406    -1.314  0.0640 -0.0893  0.9939
     1 C(13)  Bbb     0.0002     0.025     0.009     0.008  0.9979  0.0155 -0.0629
              Bcc     0.0292     3.915     1.397     1.306 -0.0098  0.9959  0.0901
 
              Baa    -0.1828   -24.535    -8.755    -8.184  0.0428  0.9936  0.1041
     2 C(13)  Bbb    -0.1793   -24.058    -8.585    -8.025  0.9990 -0.0416 -0.0132
              Bcc     0.3621    48.593    17.339    16.209  0.0088 -0.1046  0.9945
 
              Baa    -0.0138    -1.849    -0.660    -0.617  0.5126  0.8583 -0.0219
     3 C(13)  Bbb     0.0048     0.651     0.232     0.217 -0.1944  0.1409  0.9707
              Bcc     0.0089     1.198     0.427     0.400  0.8363 -0.4934  0.2391
 
              Baa    -0.1591   -21.350    -7.618    -7.122  0.8850 -0.4618 -0.0596
     4 C(13)  Bbb    -0.1567   -21.030    -7.504    -7.015  0.4654  0.8808  0.0870
              Bcc     0.3158    42.380    15.122    14.136  0.0123 -0.1047  0.9944
 
              Baa    -0.0254    -3.409    -1.216    -1.137  0.0110 -0.1148  0.9933
     5 C(13)  Bbb    -0.0012    -0.166    -0.059    -0.055 -0.5035  0.8576  0.1047
              Bcc     0.0266     3.575     1.276     1.192  0.8639  0.5013  0.0483
 
              Baa    -0.1467   -19.689    -7.026    -6.568  0.8502  0.5248  0.0428
     6 C(13)  Bbb    -0.1424   -19.110    -6.819    -6.374 -0.5265  0.8474  0.0682
              Bcc     0.2891    38.799    13.844    12.942 -0.0005 -0.0805  0.9968
 
              Baa    -0.0403    -5.401    -1.927    -1.802  0.0101 -0.1035  0.9946
     7 C(13)  Bbb    -0.0033    -0.441    -0.158    -0.147  0.4701  0.8783  0.0867
              Bcc     0.0435     5.843     2.085     1.949  0.8825 -0.4667 -0.0575
 
              Baa    -0.1054    -4.066    -1.451    -1.356  0.9046 -0.4223 -0.0578
     8 N(14)  Bbb    -0.0767    -2.957    -1.055    -0.986  0.4260  0.9003  0.0897
              Bcc     0.1821     7.023     2.506     2.343  0.0142 -0.1057  0.9943
 
              Baa    -0.0322    -4.320    -1.542    -1.441  0.0044 -0.1082  0.9941
     9 C(13)  Bbb    -0.0031    -0.416    -0.149    -0.139 -0.4686  0.8780  0.0977
              Bcc     0.0353     4.736     1.690     1.580  0.8834  0.4663  0.0468
 
              Baa    -0.0843    -3.251    -1.160    -1.084  0.9166  0.3973  0.0451
    10 N(14)  Bbb    -0.0632    -2.436    -0.869    -0.813 -0.3999  0.9110  0.1007
              Bcc     0.1475     5.687     2.029     1.897 -0.0011 -0.1104  0.9939
 
              Baa    -0.0457    -6.137    -2.190    -2.047  0.0184 -0.1032  0.9945
    11 C(13)  Bbb    -0.0027    -0.365    -0.130    -0.122 -0.5287  0.8432  0.0973
              Bcc     0.0485     6.502     2.320     2.169  0.8486  0.5276  0.0391
 
              Baa    -0.1205    -4.648    -1.658    -1.550  0.8231  0.5665  0.0400
    12 N(14)  Bbb    -0.0835    -3.219    -1.149    -1.074 -0.5675  0.8179  0.0947
              Bcc     0.2040     7.867     2.807     2.624  0.0209 -0.1007  0.9947
 
              Baa    -0.0514    -6.899    -2.462    -2.301  0.0079 -0.1072  0.9942
    13 C(13)  Bbb    -0.0035    -0.470    -0.168    -0.157  0.9995 -0.0304 -0.0113
              Bcc     0.0549     7.369     2.629     2.458  0.0314  0.9938  0.1069
 
              Baa    -0.1375    -5.303    -1.892    -1.769  0.0622  0.9916  0.1138
    14 N(14)  Bbb    -0.0928    -3.581    -1.278    -1.194  0.9980 -0.0608 -0.0157
              Bcc     0.2303     8.884     3.170     2.963  0.0086 -0.1145  0.9934
 
              Baa    -0.0419    -5.624    -2.007    -1.876 -0.0038 -0.0801  0.9968
    15 C(13)  Bbb    -0.0022    -0.297    -0.106    -0.099  0.9997  0.0255  0.0059
              Bcc     0.0441     5.921     2.113     1.975 -0.0259  0.9965  0.0799
 
              Baa    -0.1094    -4.219    -1.505    -1.407 -0.1025  0.9919  0.0748
    16 N(14)  Bbb    -0.0742    -2.860    -1.021    -0.954  0.9947  0.1019  0.0114
              Bcc     0.1835     7.079     2.526     2.361 -0.0037 -0.0756  0.9971
 
              Baa    -0.0360    -4.834    -1.725    -1.612  0.0022 -0.0794  0.9968
    17 C(13)  Bbb    -0.0018    -0.245    -0.087    -0.082  0.5198  0.8517  0.0667
              Bcc     0.0378     5.079     1.812     1.694  0.8543 -0.5180 -0.0432
 
              Baa    -0.0930    -3.586    -1.279    -1.196  0.8142 -0.5788 -0.0460
    18 N(14)  Bbb    -0.0655    -2.525    -0.901    -0.842  0.5806  0.8117  0.0634
              Bcc     0.1584     6.110     2.180     2.038  0.0007 -0.0784  0.9969
 

 ---------------------------------------------------------------------------------

   1 Symmetry operations used in ECPInt.
 ECPInt:  NShTT=    5886 NPrTT=   23670 LenC2=    5391 LenP2D=   14868.
 LDataN:  DoStor=T MaxTD1= 5 Len=  102
 D1PCM: PCM CHGder 1st derivatives, ID1Alg=3 FixD1E=F DoIter=F DoCFld=F I1PDM=0.
 Calling FoFJK, ICntrl=      2127 FMM=F ISym2X=0 I1Cent= 0 IOpClX= 1 NMat=1 NMatS=1 NMatT=0.
 -------------------------------------------------------------------
 Center     Atomic                   Forces (Hartrees/Bohr)
 Number     Number              X              Y              Z
 -------------------------------------------------------------------
      1        6          -0.001422479   -0.047428800   -0.004603873
      2        6           0.005721502    0.017819490    0.001743468
      3        6          -0.053930357    0.026059694    0.003556054
      4        6           0.005622591    0.002310807   -0.000014388
      5        6           0.090311447    0.049581624    0.003736699
      6        6          -0.056837999   -0.025299185   -0.002115026
      7        6           0.078442407   -0.049087529   -0.005988686
      8        7          -0.058811933    0.031610447    0.004031205
      9        6          -0.185540638   -0.101108191   -0.010307557
     10        7           0.159101562    0.077887878    0.008235188
     11        6           0.014713395    0.022829858    0.001629523
     12        7          -0.026628681   -0.022031390   -0.001463231
     13        6          -0.012969419   -0.068721914   -0.007842772
     14        7           0.007094698    0.072185671    0.008188732
     15        6           0.020220216   -0.028902576   -0.002512923
     16        7          -0.009316650    0.044889304    0.003533296
     17        6           0.035462207   -0.005234601    0.000124153
     18        7          -0.011231869    0.002639413    0.000070139
 -------------------------------------------------------------------
 Cartesian Forces:  Max     0.185540638 RMS     0.048503974

 GradGradGradGradGradGradGradGradGradGradGradGradGradGradGradGradGradGrad
 Berny optimization.
 Search for a local minimum.
 Step number   1 out of a maximum of    2
 All quantities printed in internal units (Hartrees-Bohrs-Radians)
 Second derivative matrix not updated -- first step.
 ITU=  0
     Eigenvalues ---    0.00094   0.00107   0.00227   0.00293   0.00295
     Eigenvalues ---    0.00671   0.01499   0.01632   0.01929   0.01970
     Eigenvalues ---    0.03443   0.04002   0.05151   0.05191   0.10055
     Eigenvalues ---    0.16160   0.18900   0.19750   0.23151   0.24216
     Eigenvalues ---    0.24556   0.25233   0.29757   0.30508   0.44044
     Eigenvalues ---    0.62889   0.69231   0.70182   0.71522   0.75772
     Eigenvalues ---    0.98030   0.99394   1.05501   1.42443   1.47158
     Eigenvalues ---    1.57790   1.86311   1.88957   2.06142   2.44855
     Eigenvalues ---    2.57222   2.64450   2.86421   3.15783   3.35346
     Eigenvalues ---    3.55414   3.76249   5.43887
 Quadratic step=5.097D-01 exceeds max=3.000D-01 adjusted using Lamda=-3.905D-02.
 Angle between NR and scaled steps=  25.08 degrees.
 Angle between quadratic step and forces=  61.14 degrees.
 Linear search not attempted -- first point.
 B after Tr=     0.000042    0.000024    0.000087
         Rot=    1.000000    0.000003    0.000002    0.000009 Ang=   0.00 deg.
 Variable       Old X    -DE/DX   Delta X   Delta X   Delta X     New X
                                 (Linear)    (Quad)   (Total)
    X1      -16.89181  -0.00142   0.00000   0.00819   0.00819 -16.88362
    Y1       -1.66390  -0.04743   0.00000  -0.03896  -0.03864  -1.70253
    Z1        2.09852  -0.00460   0.00000  -0.00336  -0.00333   2.09519
    X2      -16.89285   0.00572   0.00000  -0.00003   0.00002 -16.89283
    Y2        0.95514   0.01782   0.00000  -0.06301  -0.06268   0.89245
    Z2        2.36698   0.00174   0.00000  -0.00575  -0.00574   2.36124
    X3      -15.51702  -0.05393   0.00000  -0.03913  -0.03916 -15.55618
    Y3       -4.02761   0.02606   0.00000   0.03183   0.03213  -3.99548
    Z3        1.85257   0.00356   0.00000   0.00410   0.00415   1.85672
    X4      -13.24441   0.00562   0.00000  -0.04847  -0.04852 -13.29293
    Y4       -5.33806   0.00231   0.00000   0.02868   0.02894  -5.30912
    Z4        1.69771  -0.00001   0.00000   0.00181   0.00188   1.69959
    X5      -18.30767   0.09031   0.00000   0.07073   0.07070 -18.23697
    Y5       -4.05535   0.04958   0.00000   0.04207   0.04242  -4.01292
    Z5        1.87771   0.00374   0.00000   0.00330   0.00334   1.88105
    X6      -20.50553  -0.05684   0.00000   0.01944   0.01939 -20.48615
    Y6       -5.31871  -0.02530   0.00000   0.01145   0.01184  -5.30687
    Z6        1.77275  -0.00212   0.00000   0.00075   0.00078   1.77354
    X7      -19.26196   0.07844   0.00000   0.04715   0.04722 -19.21474
    Y7        2.36291  -0.04909   0.00000  -0.09455  -0.09418   2.26874
    Z7        2.53918  -0.00599   0.00000  -0.00996  -0.00996   2.52921
    X8      -21.18974  -0.05881   0.00000   0.03035   0.03044 -21.15929
    Y8        3.29011   0.03161   0.00000  -0.02257  -0.02216   3.26795
    Z8        2.66181   0.00403   0.00000  -0.00413  -0.00415   2.65766
    X9      -14.49642  -0.18554   0.00000  -0.07042  -0.07035 -14.56677
    Y9        2.39081  -0.10111   0.00000  -0.11208  -0.11179   2.27901
    Z9        2.50397  -0.01031   0.00000  -0.00980  -0.00978   2.49419
   X10      -12.61252   0.15910   0.00000  -0.00915  -0.00906 -12.62158
   Y10        3.25825   0.07789   0.00000  -0.00704  -0.00678   3.25147
   Z10        2.59929   0.00824   0.00000  -0.00274  -0.00272   2.59657
   X11      -10.86496   0.01471   0.00000  -0.06658  -0.06662 -10.93157
   Y11       -4.02877   0.02283   0.00000   0.03111   0.03134  -3.99743
   Z11        1.79814   0.00163   0.00000   0.00252   0.00259   1.80072
   X12       -9.03403  -0.02663   0.00000  -0.05617  -0.05618  -9.09021
   Y12       -2.77674  -0.02203   0.00000  -0.03170  -0.03151  -2.80824
   Z12        1.88780  -0.00146   0.00000   0.00022   0.00028   1.88808
   X13      -13.19722  -0.01297   0.00000  -0.05968  -0.05978 -13.25700
   Y13       -8.01793  -0.06872   0.00000   0.02627   0.02653  -7.99141
   Z13        1.40786  -0.00784   0.00000   0.00164   0.00172   1.40958
   X14      -13.34101   0.00709   0.00000  -0.00594  -0.00608 -13.34709
   Y14      -10.25563   0.07219   0.00000   0.08671   0.08697 -10.16867
   Z14        1.15654   0.00819   0.00000   0.01150   0.01159   1.16813
   X15      -20.62537   0.02022   0.00000   0.06411   0.06401 -20.56136
   Y15       -8.04937  -0.02890   0.00000   0.04083   0.04122  -8.00815
   Z15        1.55427  -0.00251   0.00000   0.00274   0.00279   1.55706
   X16      -20.40841  -0.00932   0.00000  -0.00355  -0.00369 -20.41209
   Y16      -10.26092   0.04489   0.00000   0.07143   0.07182 -10.18911
   Z16        1.38315   0.00353   0.00000   0.00372   0.00378   1.38692
   X17      -22.94611   0.03546   0.00000   0.07982   0.07979 -22.86632
   Y17       -4.01968  -0.00523   0.00000   0.01736   0.01779  -4.00189
   Z17        1.87739   0.00012   0.00000   0.00290   0.00292   1.88031
   X18      -24.73861  -0.01123   0.00000   0.03970   0.03968 -24.69893
   Y18       -2.78073   0.00264   0.00000  -0.02369  -0.02323  -2.80397
   Z18        1.97874   0.00007   0.00000  -0.00013  -0.00013   1.97861
         Item               Value     Threshold  Converged?
 Maximum Force            0.185541     0.000450     NO 
 RMS     Force            0.048504     0.000300     NO 
 Maximum Displacement     0.111795     0.001800     NO 
 RMS     Displacement     0.040901     0.001200     NO 
 Predicted change in Energy=-2.761563D-02
 GradGradGradGradGradGradGradGradGradGradGradGradGradGradGradGradGradGrad

 Unable to Open any file for archive entry.
 1\1\GINC-X10P1N4\Force\UwB97XD\def2SVP\C12N6(1-,2)\MAYUMIAO\11-Oct-202
 4\0\\# wb97xd def2svp scrf=(smd,solvent=acetonitrile) g09default scf=(
 xqc,maxcycle=64) force guess=read nosymm\\Title Card\\-1,2\C,-8.938763
 43,-0.88049578,1.11048644\C,-8.93930988,0.50543746,1.25254965\C,-8.211
 2513,-2.13131876,0.98033851\C,-7.0086394,-2.82478158,0.89839088\C,-9.6
 880024,-2.14599665,0.99364256\C,-10.85106067,-2.81453808,0.93810047\C,
 -10.192989,1.25040019,1.34367447\N,-11.21312597,1.74105047,1.40856966\
 C,-7.67117392,1.26516088,1.32504369\N,-6.67425726,1.7241938,1.37548748
 \C,-5.74948736,-2.13193352,0.95153247\N,-4.78060235,-1.46938636,0.9989
 7901\C,-6.98366636,-4.24290618,0.74500535\N,-7.05975993,-5.42704734,0.
 61201535\C,-10.91447479,-4.25954356,0.82248301\N,-10.79966289,-5.42984
 664,0.73192895\C,-12.14255782,-2.12712522,0.99347319\N,-13.09111011,-1
 .47150105,1.04710384\\Version=ES64L-G16RevC.01\HF=-784.8287022\S2=0.78
 5591\S2-1=0.\S2A=0.751007\RMSD=3.676e-09\RMSF=4.850e-02\Dipole=-0.1170
 002,0.2274827,0.0222079\Quadrupole=-200.2203657,70.1047291,130.1156367
 ,-57.5067599,32.8162616,1.4668113\PG=C01 [X(C12N6)]\\@
 The archive entry for this job was punched.


 THE PROGRESS OF RIVERS TO THE SEA IS NOT AS RAPID
 AS THAT OF MAN TO ERROR.
                                              -- VOLTAIRE
 Job cpu time:       0 days  0 hours 14 minutes 49.0 seconds.
 Elapsed time:       0 days  0 hours  0 minutes 33.2 seconds.
 File lengths (MBytes):  RWF=    175 Int=      0 D2E=      0 Chk=      9 Scr=      1
 Normal termination of Gaussian 16 at Fri Oct 11 15:46:57 2024.
