 Entering Gaussian System, Link 0=g16
 Input=JOBS/22_A.gjf
 Output=JOBS/22_A.log
 Initial command:
 /data/app/gaussian/C01-avx2//g16/l1.exe "/tmp/Gau-2535174.inp" -scrdir="/tmp/"
 Entering Link 1 = /data/app/gaussian/C01-avx2//g16/l1.exe PID=   2535175.
  
 Copyright (c) 1988-2019, Gaussian, Inc.  All Rights Reserved.
  
 This is part of the Gaussian(R) 16 program.  It is based on
 the Gaussian(R) 09 system (copyright 2009, Gaussian, Inc.),
 the Gaussian(R) 03 system (copyright 2003, Gaussian, Inc.),
 the Gaussian(R) 98 system (copyright 1998, Gaussian, Inc.),
 the Gaussian(R) 94 system (copyright 1995, Gaussian, Inc.),
 the Gaussian 92(TM) system (copyright 1992, Gaussian, Inc.),
 the Gaussian 90(TM) system (copyright 1990, Gaussian, Inc.),
 the Gaussian 88(TM) system (copyright 1988, Gaussian, Inc.),
 the Gaussian 86(TM) system (copyright 1986, Carnegie Mellon
 University), and the Gaussian 82(TM) system (copyright 1983,
 Carnegie Mellon University). Gaussian is a federally registered
 trademark of Gaussian, Inc.
  
 This software contains proprietary and confidential information,
 including trade secrets, belonging to Gaussian, Inc.
  
 This software is provided under written license and may be
 used, copied, transmitted, or stored only in accord with that
 written license.
  
 The following legend is applicable only to US Government
 contracts under FAR:
  
                    RESTRICTED RIGHTS LEGEND
  
 Use, reproduction and disclosure by the US Government is
 subject to restrictions as set forth in subparagraphs (a)
 and (c) of the Commercial Computer Software - Restricted
 Rights clause in FAR 52.227-19.
  
 Gaussian, Inc.
 340 Quinnipiac St., Bldg. 40, Wallingford CT 06492
  
  
 ---------------------------------------------------------------
 Warning -- This program may not be used in any manner that
 competes with the business of Gaussian, Inc. or will provide
 assistance to any competitor of Gaussian, Inc.  The licensee
 of this program is prohibited from giving any competitor of
 Gaussian, Inc. access to this program.  By using this program,
 the user acknowledges that Gaussian, Inc. is engaged in the
 business of creating and licensing software in the field of
 computational chemistry and represents and warrants to the
 licensee that it is not a competitor of Gaussian, Inc. and that
 it will not use this program in any manner prohibited above.
 ---------------------------------------------------------------
  

 Cite this work as:
 Gaussian 16, Revision C.01,
 M. J. Frisch, G. W. Trucks, H. B. Schlegel, G. E. Scuseria, 
 M. A. Robb, J. R. Cheeseman, G. Scalmani, V. Barone, 
 G. A. Petersson, H. Nakatsuji, X. Li, M. Caricato, A. V. Marenich, 
 J. Bloino, B. G. Janesko, R. Gomperts, B. Mennucci, H. P. Hratchian, 
 J. V. Ortiz, A. F. Izmaylov, J. L. Sonnenberg, D. Williams-Young, 
 F. Ding, F. Lipparini, F. Egidi, J. Goings, B. Peng, A. Petrone, 
 T. Henderson, D. Ranasinghe, V. G. Zakrzewski, J. Gao, N. Rega, 
 G. Zheng, W. Liang, M. Hada, M. Ehara, K. Toyota, R. Fukuda, 
 J. Hasegawa, M. Ishida, T. Nakajima, Y. Honda, O. Kitao, H. Nakai, 
 T. Vreven, K. Throssell, J. A. Montgomery, Jr., J. E. Peralta, 
 F. Ogliaro, M. J. Bearpark, J. J. Heyd, E. N. Brothers, K. N. Kudin, 
 V. N. Staroverov, T. A. Keith, R. Kobayashi, J. Normand, 
 K. Raghavachari, A. P. Rendell, J. C. Burant, S. S. Iyengar, 
 J. Tomasi, M. Cossi, J. M. Millam, M. Klene, C. Adamo, R. Cammi, 
 J. W. Ochterski, R. L. Martin, K. Morokuma, O. Farkas, 
 J. B. Foresman, and D. J. Fox, Gaussian, Inc., Wallingford CT, 2019.
 
 ******************************************
 Gaussian 16:  ES64L-G16RevC.01  3-Jul-2019
                11-Oct-2024 
 ******************************************
 %chk=a.chk
 %nprocshared=28
 Will use up to   28 processors via shared memory.
 %mem=48gb
 ----------------------------------------------------------------------
 # wb97xd def2svp scrf=(smd,solvent=acetonitrile) g09default scf=(xqc,m
 axcycle=64) force guess=read nosymm
 ----------------------------------------------------------------------
 1/10=7,30=1,38=1,158=3,167=1/1,3;
 2/12=2,15=1,17=6,18=5,40=1/2;
 3/5=43,7=101,11=2,25=1,27=10,30=1,70=32201,71=1,72=2,74=-58,75=-4,116=-2,158=3/1,2,3;
 4/5=1,60=-1/1;
 5/5=2,7=64,8=3,13=1,38=6,53=2,87=10/2,8;
 6/7=2,8=2,9=2,10=2,28=1,87=10/1;
 7/29=1,30=1,87=10/1,2,3,16;
 1/10=7,30=1,158=3,167=1/3;
 99//99;
 Using 2006 physical constants.
 ----------
 Title Card
 ----------
 Symbolic Z-matrix:
 Charge = -2 Multiplicity = 1
 6                    -8.938    -0.88558   1.11251 
 6                    -8.9377    0.5383    1.25506 
 6                    -8.21394  -2.12965   0.98079 
 6                    -6.97882  -2.8387    0.89865 
 6                    -9.67667  -2.13966   0.9937 
 6                    -10.89158  -2.83831   0.93595 
 6                    -10.20397   1.26258   1.3447 
 7                    -11.22483   1.7487    1.41076 
 6                    -7.67173   1.27338   1.32712 
 7                    -6.65341   1.73318   1.37715 
 6                    -5.74623  -2.13537   0.94971 
 7                    -4.7571   -1.45599   0.99859 
 6                    -6.97944  -4.27032   0.73991 
 7                    -7.0586   -5.42978   0.60835 
 6                    -10.91747  -4.26454   0.82292 
 7                    -10.79814  -5.45263   0.73352 
 6                    -12.15763  -2.12093   0.99409 
 7                    -13.10465  -1.46485   1.04534 
 

 GradGradGradGradGradGradGradGradGradGradGradGradGradGradGradGradGradGrad
 Berny optimization.
 Initialization pass.
 Trust Radius=3.00D-01 FncErr=1.00D-07 GrdErr=1.00D-07 EigMax=2.50D+02 EigMin=1.00D-04
 Number of steps in this run=      2 maximum allowed number of steps=      2.
 GradGradGradGradGradGradGradGradGradGradGradGradGradGradGradGradGradGrad

                          Input orientation:                          
 ---------------------------------------------------------------------
 Center     Atomic      Atomic             Coordinates (Angstroms)
 Number     Number       Type             X           Y           Z
 ---------------------------------------------------------------------
      1          6           0       -8.937999   -0.885577    1.112510
      2          6           0       -8.937699    0.538304    1.255061
      3          6           0       -8.213939   -2.129646    0.980786
      4          6           0       -6.978821   -2.838700    0.898648
      5          6           0       -9.676672   -2.139661    0.993698
      6          6           0      -10.891577   -2.838313    0.935946
      7          6           0      -10.203970    1.262584    1.344697
      8          7           0      -11.224828    1.748701    1.410759
      9          6           0       -7.671729    1.273381    1.327123
     10          7           0       -6.653414    1.733178    1.377151
     11          6           0       -5.746226   -2.135374    0.949706
     12          7           0       -4.757100   -1.455994    0.998591
     13          6           0       -6.979436   -4.270318    0.739909
     14          7           0       -7.058600   -5.429784    0.608348
     15          6           0      -10.917467   -4.264538    0.822922
     16          7           0      -10.798137   -5.452634    0.733523
     17          6           0      -12.157628   -2.120933    0.994088
     18          7           0      -13.104654   -1.464853    1.045340
 ---------------------------------------------------------------------
                    Distance matrix (angstroms):
                    1          2          3          4          5
     1  C    0.000000
     2  C    1.430999   0.000000
     3  C    1.445449   2.777952   0.000000
     4  C    2.774671   3.920253   1.426541   0.000000
     5  C    1.460302   2.790321   1.462824   2.788564   0.000000
     6  C    2.767819   3.914207   2.770192   3.912933   1.402656
     7  C    2.504234   1.461526   3.949668   5.236513   3.460710
     8  N    3.501137   2.592347   4.928682   6.271768   4.205959
     9  C    2.512090   1.465678   3.463313   4.192006   3.972383
    10  N    3.485289   2.580811   4.184944   4.608354   4.928084
    11  C    3.431604   4.174601   2.467915   1.420058   3.930694
    12  N    4.221169   4.639009   3.521911   2.618761   4.966851
    13  C    3.928266   5.217569   2.482840   1.440392   3.446620
    14  N    4.943292   6.290256   3.516309   2.608516   4.222287
    15  C    3.926772   5.212823   3.448441   4.189473   2.466544
    16  N    4.945883   6.294805   4.216807   4.631100   3.507302
    17  C    3.450528   4.184208   3.943720   5.229181   2.481026
    18  N    4.207266   4.628189   4.936112   6.279713   3.494151
                    6          7          8          9         10
     6  C    0.000000
     7  C    4.178186   0.000000
     8  N    4.623549   1.132619   0.000000
     9  C    5.237029   2.532325   3.585727   0.000000
    10  N    6.249417   3.581753   4.571564   1.118428   0.000000
    11  C    5.193163   5.619040   6.731544   3.933143   3.996423
    12  N    6.288604   6.097446   7.229900   4.006555   3.729630
    13  C    4.170602   6.432448   7.396079   5.617534   6.046018
    14  N    4.638400   7.431241   8.338583   6.769415   7.215487
    15  C    1.430931   5.597357   6.049717   6.438757   7.379832
    16  N    2.623811   6.769101   7.245685   7.440838   8.320390
    17  C    1.456330   3.922741   4.002225   5.635208   6.730325
    18  N    2.606927   3.992806   3.740883   6.090485   7.208051
                   11         12         13         14         15
    11  C    0.000000
    12  N    1.200965   0.000000
    13  C    2.474430   3.595290   0.000000
    14  N    3.562581   4.608708   1.169588   0.000000
    15  C    5.593849   6.772658   3.938911   4.036669   0.000000
    16  N    6.047540   7.248276   3.997548   3.741701   1.197416
    17  C    6.411571   7.430341   5.612320   6.090761   2.482405
    18  N    7.389533   8.347689   6.744051   7.243370   3.559704
                   16         17         18
    16  N    0.000000
    17  C    3.607817   0.000000
    18  N    4.617321   1.153225   0.000000
 Symmetry turned off by external request.
 Stoichiometry    C12N6(2-)
 Framework group  C1[X(C12N6)]
 Deg. of freedom    48
 Full point group                 C1      NOp   1
 Rotational constants (GHZ):           0.4163333           0.4154436           0.2079671
 Standard basis: def2SVP (5D, 7F)
   252 basis functions,   450 primitive gaussians,   270 cartesian basis functions
    58 alpha electrons       58 beta electrons
       nuclear repulsion energy       949.9305412658 Hartrees.
 NAtoms=   18 NActive=   18 NUniq=   18 SFac= 1.00D+00 NAtFMM=   60 NAOKFM=F Big=F
 Integral buffers will be    131072 words long.
 Raffenetti 2 integral format.
 Two-electron integral symmetry is turned off.
 Nuclear repulsion after empirical dispersion term =      949.9192318377 Hartrees.
 Force PCM accuracy= 1.00D-10.
 ------------------------------------------------------------------------------
 Polarizable Continuum Model (PCM)
 =================================
 Model                : PCM (using non-symmetric T matrix).
 Atomic radii         : SMD-Coulomb.
 Polarization charges : Total charges.
 Charge compensation  : None.
 Solution method      : On-the-fly selection.
 Cavity type          : VdW (van der Waals Surface) (Alpha=1.000).
 Cavity algorithm     : GePol (No added spheres)
                        Default sphere list used, NSphG=   18.
                        Lebedev-Laikov grids with approx.  5.0 points / Ang**2.
                        Smoothing algorithm: York/Karplus (Gamma=1.0000).
                        Polarization charges: spherical gaussians, with
                                              point-specific exponents (IZeta= 3).
                        Self-potential: point-specific (ISelfS= 7).
                        Self-field    : sphere-specific E.n sum rule (ISelfD= 2).
 1st derivatives      : Analytical E(r).r(x)/FMM algorithm (CHGder, D1EAlg=3).
                        Cavity 1st derivative terms included.
 Solvent              : Acetonitrile, Eps=  35.688000 Eps(inf)=   1.806874
 ------------------------------------------------------------------------------
 Spheres list:
 ISph  on   Nord     Re0    Alpha      Xe            Ye            Ze
    1   C      1    1.8500  1.000     -8.937999     -0.885577      1.112510
    2   C      2    1.8500  1.000     -8.937699      0.538304      1.255061
    3   C      3    1.8500  1.000     -8.213939     -2.129646      0.980786
    4   C      4    1.8500  1.000     -6.978821     -2.838700      0.898648
    5   C      5    1.8500  1.000     -9.676672     -2.139661      0.993698
    6   C      6    1.8500  1.000    -10.891577     -2.838313      0.935946
    7   C      7    1.8500  1.000    -10.203970      1.262584      1.344697
    8   N      8    1.8900  1.000    -11.224828      1.748701      1.410759
    9   C      9    1.8500  1.000     -7.671729      1.273381      1.327123
   10   N     10    1.8900  1.000     -6.653414      1.733178      1.377151
   11   C     11    1.8500  1.000     -5.746226     -2.135374      0.949706
   12   N     12    1.8900  1.000     -4.757100     -1.455994      0.998591
   13   C     13    1.8500  1.000     -6.979436     -4.270318      0.739909
   14   N     14    1.8900  1.000     -7.058600     -5.429784      0.608348
   15   C     15    1.8500  1.000    -10.917467     -4.264538      0.822922
   16   N     16    1.8900  1.000    -10.798137     -5.452634      0.733523
   17   C     17    1.8500  1.000    -12.157628     -2.120933      0.994088
   18   N     18    1.8900  1.000    -13.104654     -1.464853      1.045340
 ------------------------------------------------------------------------------
 ------------------------------------------------------------------------------
 Atomic radii for non-electrostatic terms: SMD-CDS.
 ------------------------------------------------------------------------------
 Nuclear repulsion after PCM non-electrostatic terms =      949.9278516043 Hartrees.
 One-electron integrals computed using PRISM.
   1 Symmetry operations used in ECPInt.
 ECPInt:  NShTT=    5886 NPrTT=   23670 LenC2=    5387 LenP2D=   14824.
 LDataN:  DoStor=T MaxTD1= 4 Len=   56
 NBasis=   252 RedAO= T EigKep=  3.04D-04  NBF=   252
 NBsUse=   252 1.00D-06 EigRej= -1.00D+00 NBFU=   252
 Initial guess from the checkpoint file:  "a.chk"
 B after Tr=    -0.000104    0.001244   -0.002277
         Rot=    1.000000   -0.000063   -0.000079   -0.000024 Ang=  -0.01 deg.
 Requested convergence on RMS density matrix=1.00D-08 within  64 cycles.
 Requested convergence on MAX density matrix=1.00D-06.
 Requested convergence on             energy=1.00D-06.
 No special actions if energy rises.
 Inv3:  Mode=1 IEnd=    19538112.
 Iteration    1 A*A^-1 deviation from unit magnitude is 3.33D-15 for    602.
 Iteration    1 A*A^-1 deviation from orthogonality  is 2.91D-15 for   1798    283.
 Iteration    1 A^-1*A deviation from unit magnitude is 3.33D-15 for   1717.
 Iteration    1 A^-1*A deviation from orthogonality  is 2.36D-11 for    898    872.
 Error on total polarization charges =  0.02229
 SCF Done:  E(RwB97XD) =  -785.002271561     A.U. after   14 cycles
            NFock= 14  Conv=0.55D-08     -V/T= 2.0107
 SMD-CDS (non-electrostatic) energy       (kcal/mol) =       5.41
 (included in total energy above)
 QCSCF skips out because SCF is already converged.

 **********************************************************************

            Population analysis using the SCF Density.

 **********************************************************************

 Alpha  occ. eigenvalues --  -14.43706 -14.43510 -14.43171 -14.43119 -14.42401
 Alpha  occ. eigenvalues --  -14.42176 -10.36385 -10.36345 -10.36233 -10.34713
 Alpha  occ. eigenvalues --  -10.34580 -10.34176 -10.34047 -10.33894 -10.33877
 Alpha  occ. eigenvalues --  -10.33608 -10.33418 -10.33155  -1.00693  -0.99904
 Alpha  occ. eigenvalues --   -0.99486  -0.99036  -0.98154  -0.97232  -0.96835
 Alpha  occ. eigenvalues --   -0.87727  -0.87138  -0.84741  -0.68306  -0.67800
 Alpha  occ. eigenvalues --   -0.64903  -0.64567  -0.63679  -0.62968  -0.50984
 Alpha  occ. eigenvalues --   -0.47557  -0.47308  -0.46524  -0.46344  -0.45418
 Alpha  occ. eigenvalues --   -0.45248  -0.45149  -0.44672  -0.44392  -0.44191
 Alpha  occ. eigenvalues --   -0.43382  -0.43238  -0.43064  -0.42523  -0.42057
 Alpha  occ. eigenvalues --   -0.41740  -0.41636  -0.41057  -0.40016  -0.39832
 Alpha  occ. eigenvalues --   -0.31799  -0.31423  -0.23481
 Alpha virt. eigenvalues --    0.06085   0.06824   0.08268   0.08551   0.10159
 Alpha virt. eigenvalues --    0.11358   0.11880   0.12273   0.13626   0.14211
 Alpha virt. eigenvalues --    0.14434   0.15964   0.20772   0.20819   0.23286
 Alpha virt. eigenvalues --    0.25976   0.27002   0.27568   0.27786   0.27936
 Alpha virt. eigenvalues --    0.29553   0.32196   0.32378   0.33022   0.33424
 Alpha virt. eigenvalues --    0.33559   0.35511   0.47568   0.47950   0.51304
 Alpha virt. eigenvalues --    0.51413   0.52842   0.53537   0.54941   0.54991
 Alpha virt. eigenvalues --    0.56029   0.56161   0.56744   0.58205   0.61363
 Alpha virt. eigenvalues --    0.61487   0.61861   0.62241   0.62503   0.64862
 Alpha virt. eigenvalues --    0.64958   0.69541   0.70853   0.70969   0.71772
 Alpha virt. eigenvalues --    0.71958   0.73534   0.73599   0.74126   0.74441
 Alpha virt. eigenvalues --    0.74690   0.74735   0.75549   0.75985   0.76223
 Alpha virt. eigenvalues --    0.79455   0.79750   0.81044   0.83033   0.83153
 Alpha virt. eigenvalues --    0.85556   0.86086   0.87467   0.88279   0.93313
 Alpha virt. eigenvalues --    0.94153   0.94651   0.94932   0.96024   0.96125
 Alpha virt. eigenvalues --    0.96947   0.99753   1.00038   1.00802   1.00905
 Alpha virt. eigenvalues --    1.02056   1.02398   1.02795   1.02915   1.04241
 Alpha virt. eigenvalues --    1.05282   1.06385   1.06631   1.10536   1.11589
 Alpha virt. eigenvalues --    1.13071   1.17178   1.18532   1.19284   1.20173
 Alpha virt. eigenvalues --    1.21919   1.23610   1.24696   1.27313   1.33297
 Alpha virt. eigenvalues --    1.35226   1.35740   1.41983   1.42306   1.44938
 Alpha virt. eigenvalues --    1.46022   1.46749   1.47328   1.47784   1.57632
 Alpha virt. eigenvalues --    1.58465   1.68399   1.70070   1.70202   1.70762
 Alpha virt. eigenvalues --    1.71082   1.71442   1.76474   1.76800   1.78502
 Alpha virt. eigenvalues --    1.78832   1.78941   1.80463   1.80713   1.81895
 Alpha virt. eigenvalues --    1.82172   1.82713   1.85640   1.92329   1.93860
 Alpha virt. eigenvalues --    1.94977   2.00430   2.00686   2.01175   2.03950
 Alpha virt. eigenvalues --    2.04272   2.06828   2.07329   2.13604   2.13817
 Alpha virt. eigenvalues --    2.15684   2.21275   2.21636   2.21904   2.26093
 Alpha virt. eigenvalues --    2.26796   2.26879   2.27668   2.33641   2.34284
 Alpha virt. eigenvalues --    2.34775   2.35456   2.36374   2.36422   2.36640
 Alpha virt. eigenvalues --    2.37061   2.37808   2.38275   2.38454   2.38894
 Alpha virt. eigenvalues --    2.39293   2.40498   2.53972   2.56652   2.56708
 Alpha virt. eigenvalues --    2.66096   2.66359   2.89376   2.93197   2.93692
 Alpha virt. eigenvalues --    2.95513   2.98077   3.00059   3.02646   3.03103
 Alpha virt. eigenvalues --    3.04383   3.06869   3.07264   3.09129   3.10589
 Alpha virt. eigenvalues --    3.10690   3.15603   3.18322   3.20559   3.29617
 Alpha virt. eigenvalues --    3.37572   3.39071   3.40351   3.50063   3.51410
 Alpha virt. eigenvalues --    3.60003   3.60693   3.65034   3.74177
          Condensed to atoms (all electrons):
               1          2          3          4          5          6
     1  C    4.930376   0.489525   0.324696  -0.086054   0.317793  -0.093062
     2  C    0.489525   5.467809  -0.085939  -0.003792  -0.082014  -0.004309
     3  C    0.324696  -0.085939   4.930288   0.473034   0.324432  -0.092464
     4  C   -0.086054  -0.003792   0.473034   5.490715  -0.084889  -0.004563
     5  C    0.317793  -0.082014   0.324432  -0.084889   4.898863   0.481508
     6  C   -0.093062  -0.004309  -0.092464  -0.004563   0.481508   5.495794
     7  C    0.003892   0.392702   0.005625  -0.000186  -0.014065   0.001045
     8  N   -0.000073  -0.040842   0.000019  -0.000001  -0.000420   0.000087
     9  C    0.001209   0.390930  -0.014246   0.001085   0.005636  -0.000183
    10  N   -0.000341  -0.041557  -0.000461   0.000112   0.000026  -0.000001
    11  C   -0.017477   0.001274   0.006535   0.389413   0.006349  -0.000239
    12  N   -0.000401   0.000091   0.000011  -0.046806   0.000029  -0.000001
    13  C    0.006046  -0.000210   0.005159   0.382941  -0.015827   0.001165
    14  N    0.000022  -0.000001  -0.000115  -0.043405  -0.000377   0.000085
    15  C    0.006513  -0.000199  -0.017060   0.001160   0.005585   0.387395
    16  N    0.000045  -0.000000  -0.000447   0.000112   0.000226  -0.044980
    17  C   -0.015773   0.001158   0.005936  -0.000194   0.002970   0.381655
    18  N   -0.000466   0.000094   0.000034  -0.000001  -0.000035  -0.040234
               7          8          9         10         11         12
     1  C    0.003892  -0.000073   0.001209  -0.000341  -0.017477  -0.000401
     2  C    0.392702  -0.040842   0.390930  -0.041557   0.001274   0.000091
     3  C    0.005625   0.000019  -0.014246  -0.000461   0.006535   0.000011
     4  C   -0.000186  -0.000001   0.001085   0.000112   0.389413  -0.046806
     5  C   -0.014065  -0.000420   0.005636   0.000026   0.006349   0.000029
     6  C    0.001045   0.000087  -0.000183  -0.000001  -0.000239  -0.000001
     7  C    4.806893   0.958720  -0.027451   0.001442   0.000046   0.000001
     8  N    0.958720   6.109620   0.001413   0.000035   0.000000   0.000000
     9  C   -0.027451   0.001413   4.799327   0.975223   0.000440   0.000596
    10  N    0.001442   0.000035   0.975223   6.077090  -0.000004  -0.000793
    11  C    0.000046   0.000000   0.000440  -0.000004   4.843224   0.881613
    12  N    0.000001   0.000000   0.000596  -0.000793   0.881613   6.268568
    13  C   -0.000003  -0.000000   0.000043   0.000001  -0.027452   0.002088
    14  N   -0.000000  -0.000000   0.000000   0.000000   0.002111   0.000048
    15  C    0.000047   0.000001  -0.000003  -0.000000   0.000054   0.000000
    16  N    0.000000   0.000000  -0.000000   0.000000   0.000001   0.000000
    17  C    0.000490   0.000221   0.000038   0.000000  -0.000003  -0.000000
    18  N    0.000401  -0.000799   0.000001   0.000000  -0.000000   0.000000
              13         14         15         16         17         18
     1  C    0.006046   0.000022   0.006513   0.000045  -0.015773  -0.000466
     2  C   -0.000210  -0.000001  -0.000199  -0.000000   0.001158   0.000094
     3  C    0.005159  -0.000115  -0.017060  -0.000447   0.005936   0.000034
     4  C    0.382941  -0.043405   0.001160   0.000112  -0.000194  -0.000001
     5  C   -0.015827  -0.000377   0.005585   0.000226   0.002970  -0.000035
     6  C    0.001165   0.000085   0.387395  -0.044980   0.381655  -0.040234
     7  C   -0.000003  -0.000000   0.000047   0.000000   0.000490   0.000401
     8  N   -0.000000  -0.000000   0.000001   0.000000   0.000221  -0.000799
     9  C    0.000043   0.000000  -0.000003  -0.000000   0.000038   0.000001
    10  N    0.000001   0.000000  -0.000000   0.000000   0.000000   0.000000
    11  C   -0.027452   0.002111   0.000054   0.000001  -0.000003  -0.000000
    12  N    0.002088   0.000048   0.000000   0.000000  -0.000000   0.000000
    13  C    4.832250   0.918679   0.000337   0.000531   0.000044   0.000000
    14  N    0.918679   6.183468   0.000023  -0.000739   0.000001   0.000000
    15  C    0.000337   0.000023   4.841074   0.885895  -0.024899   0.001668
    16  N    0.000531  -0.000739   0.885895   6.256347   0.001722   0.000035
    17  C    0.000044   0.000001  -0.024899   0.001722   4.823477   0.935700
    18  N    0.000000   0.000000   0.001668   0.000035   0.935700   6.146396
 Mulliken charges:
               1
     1  C    0.133531
     2  C   -0.484720
     3  C    0.134962
     4  C   -0.468682
     5  C    0.154211
     6  C   -0.468697
     7  C   -0.129599
     8  N   -0.027982
     9  C   -0.134058
    10  N   -0.010772
    11  C   -0.085883
    12  N   -0.105045
    13  C   -0.105791
    14  N   -0.059799
    15  C   -0.087591
    16  N   -0.098749
    17  C   -0.112542
    18  N   -0.042794
 Sum of Mulliken charges =  -2.00000
 Mulliken charges with hydrogens summed into heavy atoms:
               1
     1  C    0.133531
     2  C   -0.484720
     3  C    0.134962
     4  C   -0.468682
     5  C    0.154211
     6  C   -0.468697
     7  C   -0.129599
     8  N   -0.027982
     9  C   -0.134058
    10  N   -0.010772
    11  C   -0.085883
    12  N   -0.105045
    13  C   -0.105791
    14  N   -0.059799
    15  C   -0.087591
    16  N   -0.098749
    17  C   -0.112542
    18  N   -0.042794
 Electronic spatial extent (au):  <R**2>=          39463.5871
 Charge=             -2.0000 electrons
 Dipole moment (field-independent basis, Debye):
    X=             85.2178    Y=             17.0091    Z=             -9.8371  Tot=             87.4537
 Quadrupole moment (field-independent basis, Debye-Ang):
   XX=           -956.0183   YY=           -228.2325   ZZ=           -114.2587
   XY=           -150.7592   XZ=             88.1927   YZ=              7.9815
 Traceless Quadrupole moment (field-independent basis, Debye-Ang):
   XX=           -523.1818   YY=            204.6039   ZZ=            318.5778
   XY=           -150.7592   XZ=             88.1927   YZ=              7.9815
 Octapole moment (field-independent basis, Debye-Ang**2):
  XXX=          12058.0813  YYY=           1162.4659  ZZZ=           -331.6438  XYY=           2039.2494
  XXY=           1605.1094  XXZ=          -1002.2094  XZZ=           1021.7503  YZZ=            178.8206
  YYZ=           -195.5064  XYZ=            -72.3158
 Hexadecapole moment (field-independent basis, Debye-Ang**3):
 XXXX=        -159758.8941 YYYY=          -8926.4933 ZZZZ=           -809.9564 XXXY=         -19031.0713
 XXXZ=          12773.4944 YYYX=         -10392.0969 YYYZ=            775.3803 ZZZX=           2980.4495
 ZZZY=            383.7514 XXYY=         -20141.5531 XXZZ=          -9943.6296 YYZZ=          -1058.5928
 XXYZ=            840.0910 YYXZ=           1766.7463 ZZXY=          -1598.7768
 N-N= 9.499278516043D+02 E-N=-3.753013816098D+03  KE= 7.767085634071D+02
   1 Symmetry operations used in ECPInt.
 ECPInt:  NShTT=    5886 NPrTT=   23670 LenC2=    5387 LenP2D=   14824.
 LDataN:  DoStor=T MaxTD1= 5 Len=  102
 D1PCM: PCM CHGder 1st derivatives, ID1Alg=3 FixD1E=F DoIter=F DoCFld=F I1PDM=0.
 Calling FoFJK, ICntrl=      2127 FMM=F ISym2X=0 I1Cent= 0 IOpClX= 0 NMat=1 NMatS=1 NMatT=0.
 -------------------------------------------------------------------
 Center     Atomic                   Forces (Hartrees/Bohr)
 Number     Number              X              Y              Z
 -------------------------------------------------------------------
      1        6          -0.001441717   -0.052199971   -0.005508586
      2        6          -0.000463676    0.011552745    0.001409814
      3        6          -0.062176405    0.029000183    0.003862196
      4        6          -0.002856025   -0.008883652   -0.001350276
      5        6           0.075245406    0.039894471    0.003256233
      6        6          -0.027606827   -0.002836162   -0.000201808
      7        6           0.098903770   -0.055446299   -0.006827559
      8        7          -0.071564822    0.036747704    0.004786532
      9        6          -0.137807681   -0.074858142   -0.007554937
     10        7           0.110051647    0.053890416    0.005636942
     11        6           0.051196847    0.042720653    0.003181017
     12        7          -0.060014279   -0.044108065   -0.003181029
     13        6          -0.005911428    0.005977291    0.000534456
     14        7           0.002833567    0.013094630    0.001441350
     15        6           0.016837825   -0.054327030   -0.004027078
     16        7          -0.010679878    0.068529980    0.005202084
     17        6           0.046608598   -0.019654139   -0.001437717
     18        7          -0.021154922    0.010905386    0.000778366
 -------------------------------------------------------------------
 Cartesian Forces:  Max     0.137807681 RMS     0.042233325

 GradGradGradGradGradGradGradGradGradGradGradGradGradGradGradGradGradGrad
 Berny optimization.
 Search for a local minimum.
 Step number   1 out of a maximum of    2
 All quantities printed in internal units (Hartrees-Bohrs-Radians)
 Second derivative matrix not updated -- first step.
 ITU=  0
     Eigenvalues ---    0.00073   0.00084   0.00171   0.00291   0.00293
     Eigenvalues ---    0.00657   0.01473   0.01600   0.01903   0.01938
     Eigenvalues ---    0.03292   0.03713   0.05050   0.05104   0.09775
     Eigenvalues ---    0.13980   0.18974   0.19692   0.23062   0.24196
     Eigenvalues ---    0.24423   0.24988   0.28869   0.29261   0.44609
     Eigenvalues ---    0.60143   0.64985   0.71527   0.72294   0.75634
     Eigenvalues ---    0.96536   0.97983   1.04626   1.39334   1.44637
     Eigenvalues ---    1.74837   2.35878   2.39057   2.41005   2.45784
     Eigenvalues ---    2.70035   2.88634   3.17584   3.40614   3.52340
     Eigenvalues ---    4.80197   5.01378   7.24169
 Quadratic step=6.013D-01 exceeds max=3.000D-01 adjusted using Lamda=-6.806D-02.
 Angle between NR and scaled steps=  27.96 degrees.
 Angle between quadratic step and forces=  59.87 degrees.
 Linear search not attempted -- first point.
 B after Tr=    -0.000024   -0.000487    0.000032
         Rot=    1.000000    0.000002    0.000001    0.000021 Ang=   0.00 deg.
 Variable       Old X    -DE/DX   Delta X   Delta X   Delta X     New X
                                 (Linear)    (Quad)   (Total)
    X1      -16.89037  -0.00144   0.00000  -0.00002  -0.00011 -16.89048
    Y1       -1.67350  -0.05220   0.00000  -0.04224  -0.04202  -1.71552
    Z1        2.10234  -0.00551   0.00000  -0.00440  -0.00439   2.09795
    X2      -16.88980  -0.00046   0.00000  -0.00416  -0.00415 -16.89395
    Y2        1.01725   0.01155   0.00000  -0.06729  -0.06707   0.95018
    Z2        2.37172   0.00141   0.00000  -0.00575  -0.00575   2.36597
    X3      -15.52210  -0.06218   0.00000  -0.04988  -0.05007 -15.57216
    Y3       -4.02445   0.02900   0.00000   0.03032   0.03048  -3.99397
    Z3        1.85342   0.00386   0.00000   0.00352   0.00354   1.85696
    X4      -13.18806  -0.00286   0.00000  -0.05156  -0.05180 -13.23986
    Y4       -5.36436  -0.00888   0.00000   0.03087   0.03094  -5.33343
    Z4        1.69820  -0.00135   0.00000   0.00177   0.00181   1.70001
    X5      -18.28626   0.07525   0.00000   0.06203   0.06184 -18.22442
    Y5       -4.04337   0.03989   0.00000   0.03681   0.03708  -4.00629
    Z5        1.87782   0.00326   0.00000   0.00321   0.00323   1.88105
    X6      -20.58210  -0.02761   0.00000   0.04203   0.04178 -20.54031
    Y6       -5.36363  -0.00284   0.00000   0.02233   0.02269  -5.34094
    Z6        1.76868  -0.00020   0.00000   0.00225   0.00228   1.77096
    X7      -19.28271   0.09890   0.00000   0.06138   0.06144 -19.22126
    Y7        2.38594  -0.05545   0.00000  -0.08488  -0.08457   2.30137
    Z7        2.54111  -0.00683   0.00000  -0.00838  -0.00838   2.53273
    X8      -21.21185  -0.07156   0.00000   0.03372   0.03382 -21.17803
    Y8        3.30457   0.03675   0.00000  -0.01271  -0.01231   3.29225
    Z8        2.66595   0.00479   0.00000  -0.00234  -0.00235   2.66360
    X9      -14.49747  -0.13781   0.00000  -0.06929  -0.06922 -14.56669
    Y9        2.40634  -0.07486   0.00000  -0.09567  -0.09555   2.31079
    Z9        2.50790  -0.00755   0.00000  -0.00830  -0.00830   2.49960
   X10      -12.57313   0.11005   0.00000  -0.02554  -0.02544 -12.59857
   Y10        3.27523   0.05389   0.00000  -0.00362  -0.00357   3.27166
   Z10        2.60244   0.00564   0.00000  -0.00137  -0.00137   2.60107
   X11      -10.85879   0.05120   0.00000  -0.04788  -0.04807 -10.90686
   Y11       -4.03527   0.04272   0.00000   0.02382   0.02379  -4.01148
   Z11        1.79468   0.00318   0.00000   0.00204   0.00208   1.79676
   X12       -8.98962  -0.06001   0.00000  -0.07310  -0.07324  -9.06285
   Y12       -2.75143  -0.04411   0.00000  -0.05480  -0.05490  -2.80633
   Z12        1.88706  -0.00318   0.00000  -0.00280  -0.00277   1.88429
   X13      -13.18922  -0.00591   0.00000  -0.04115  -0.04151 -13.23073
   Y13       -8.06973   0.00598   0.00000   0.05828   0.05834  -8.01139
   Z13        1.39823   0.00053   0.00000   0.00507   0.00511   1.40334
   X14      -13.33882   0.00283   0.00000   0.00507   0.00462 -13.33420
   Y14      -10.26080   0.01309   0.00000   0.06238   0.06245 -10.19835
   Z14        1.14961   0.00144   0.00000   0.00713   0.00719   1.15680
   X15      -20.63102   0.01684   0.00000   0.05256   0.05221 -20.57882
   Y15       -8.05881  -0.05433   0.00000   0.03599   0.03636  -8.02245
   Z15        1.55510  -0.00403   0.00000   0.00432   0.00436   1.55945
   X16      -20.40552  -0.01068   0.00000  -0.01405  -0.01450 -20.42002
   Y16      -10.30399   0.06853   0.00000   0.08917   0.08953 -10.21446
   Z16        1.38616   0.00520   0.00000   0.00714   0.00718   1.39334
   X17      -22.97459   0.04661   0.00000   0.08468   0.08448 -22.89010
   Y17       -4.00798  -0.01965   0.00000  -0.00066  -0.00020  -4.00818
   Z17        1.87855  -0.00144   0.00000  -0.00049  -0.00048   1.87808
   X18      -24.76421  -0.02115   0.00000   0.03803   0.03789 -24.72632
   Y18       -2.76817   0.01091   0.00000  -0.03200  -0.03146  -2.79963
   Z18        1.97541   0.00078   0.00000  -0.00301  -0.00300   1.97240
         Item               Value     Threshold  Converged?
 Maximum Force            0.137808     0.000450     NO 
 RMS     Force            0.042233     0.000300     NO 
 Maximum Displacement     0.095551     0.001800     NO 
 RMS     Displacement     0.040861     0.001200     NO 
 Predicted change in Energy=-2.645399D-02
 GradGradGradGradGradGradGradGradGradGradGradGradGradGradGradGradGradGrad

 Unable to Open any file for archive entry.
 1\1\GINC-X10P1N4\Force\RwB97XD\def2SVP\C12N6(2-)\MAYUMIAO\11-Oct-2024\
 0\\# wb97xd def2svp scrf=(smd,solvent=acetonitrile) g09default scf=(xq
 c,maxcycle=64) force guess=read nosymm\\Title Card\\-2,1\C,-8.93799866
 ,-0.88557664,1.11250953\C,-8.93769875,0.53830425,1.25506111\C,-8.21393
 926,-2.12964648,0.98078582\C,-6.97882145,-2.83869957,0.89864765\C,-9.6
 7667206,-2.13966122,0.99369798\C,-10.8915771,-2.83831297,0.93594581\C,
 -10.20396974,1.26258375,1.34469748\N,-11.22482802,1.74870104,1.4107590
 6\C,-7.67172873,1.27338085,1.32712295\N,-6.65341431,1.73317827,1.37715
 144\C,-5.74622639,-2.13537417,0.94970593\N,-4.75710023,-1.45599436,0.9
 9859113\C,-6.97943556,-4.27031781,0.73990916\N,-7.05859953,-5.42978375
 ,0.60834812\C,-10.91746732,-4.26453827,0.82292195\N,-10.79813652,-5.45
 263424,0.73352256\C,-12.15762752,-2.12093345,0.99408754\N,-13.10465382
 ,-1.4648533,1.04533966\\Version=ES64L-G16RevC.01\HF=-785.0022716\RMSD=
 5.509e-09\RMSF=4.223e-02\Dipole=-0.2575904,0.2090579,0.0201699\Quadrup
 ole=-388.9728412,152.1180285,236.8548128,-112.0857655,65.5691461,5.934
 0187\PG=C01 [X(C12N6)]\\@
 The archive entry for this job was punched.


 EXPERIENCE IS THE FRUIT OF THE TREE OF ERRORS.
 Job cpu time:       0 days  0 hours 10 minutes 21.3 seconds.
 Elapsed time:       0 days  0 hours  0 minutes 23.5 seconds.
 File lengths (MBytes):  RWF=    149 Int=      0 D2E=      0 Chk=      8 Scr=      1
 Normal termination of Gaussian 16 at Fri Oct 11 15:48:19 2024.
