 Entering Gaussian System, Link 0=g16
 Input=JOBS/22_B.gjf
 Output=JOBS/22_B.log
 Initial command:
 /data/app/gaussian/C01-avx2//g16/l1.exe "/tmp/Gau-2534711.inp" -scrdir="/tmp/"
 Entering Link 1 = /data/app/gaussian/C01-avx2//g16/l1.exe PID=   2534712.
  
 Copyright (c) 1988-2019, Gaussian, Inc.  All Rights Reserved.
  
 This is part of the Gaussian(R) 16 program.  It is based on
 the Gaussian(R) 09 system (copyright 2009, Gaussian, Inc.),
 the Gaussian(R) 03 system (copyright 2003, Gaussian, Inc.),
 the Gaussian(R) 98 system (copyright 1998, Gaussian, Inc.),
 the Gaussian(R) 94 system (copyright 1995, Gaussian, Inc.),
 the Gaussian 92(TM) system (copyright 1992, Gaussian, Inc.),
 the Gaussian 90(TM) system (copyright 1990, Gaussian, Inc.),
 the Gaussian 88(TM) system (copyright 1988, Gaussian, Inc.),
 the Gaussian 86(TM) system (copyright 1986, Carnegie Mellon
 University), and the Gaussian 82(TM) system (copyright 1983,
 Carnegie Mellon University). Gaussian is a federally registered
 trademark of Gaussian, Inc.
  
 This software contains proprietary and confidential information,
 including trade secrets, belonging to Gaussian, Inc.
  
 This software is provided under written license and may be
 used, copied, transmitted, or stored only in accord with that
 written license.
  
 The following legend is applicable only to US Government
 contracts under FAR:
  
                    RESTRICTED RIGHTS LEGEND
  
 Use, reproduction and disclosure by the US Government is
 subject to restrictions as set forth in subparagraphs (a)
 and (c) of the Commercial Computer Software - Restricted
 Rights clause in FAR 52.227-19.
  
 Gaussian, Inc.
 340 Quinnipiac St., Bldg. 40, Wallingford CT 06492
  
  
 ---------------------------------------------------------------
 Warning -- This program may not be used in any manner that
 competes with the business of Gaussian, Inc. or will provide
 assistance to any competitor of Gaussian, Inc.  The licensee
 of this program is prohibited from giving any competitor of
 Gaussian, Inc. access to this program.  By using this program,
 the user acknowledges that Gaussian, Inc. is engaged in the
 business of creating and licensing software in the field of
 computational chemistry and represents and warrants to the
 licensee that it is not a competitor of Gaussian, Inc. and that
 it will not use this program in any manner prohibited above.
 ---------------------------------------------------------------
  

 Cite this work as:
 Gaussian 16, Revision C.01,
 M. J. Frisch, G. W. Trucks, H. B. Schlegel, G. E. Scuseria, 
 M. A. Robb, J. R. Cheeseman, G. Scalmani, V. Barone, 
 G. A. Petersson, H. Nakatsuji, X. Li, M. Caricato, A. V. Marenich, 
 J. Bloino, B. G. Janesko, R. Gomperts, B. Mennucci, H. P. Hratchian, 
 J. V. Ortiz, A. F. Izmaylov, J. L. Sonnenberg, D. Williams-Young, 
 F. Ding, F. Lipparini, F. Egidi, J. Goings, B. Peng, A. Petrone, 
 T. Henderson, D. Ranasinghe, V. G. Zakrzewski, J. Gao, N. Rega, 
 G. Zheng, W. Liang, M. Hada, M. Ehara, K. Toyota, R. Fukuda, 
 J. Hasegawa, M. Ishida, T. Nakajima, Y. Honda, O. Kitao, H. Nakai, 
 T. Vreven, K. Throssell, J. A. Montgomery, Jr., J. E. Peralta, 
 F. Ogliaro, M. J. Bearpark, J. J. Heyd, E. N. Brothers, K. N. Kudin, 
 V. N. Staroverov, T. A. Keith, R. Kobayashi, J. Normand, 
 K. Raghavachari, A. P. Rendell, J. C. Burant, S. S. Iyengar, 
 J. Tomasi, M. Cossi, J. M. Millam, M. Klene, C. Adamo, R. Cammi, 
 J. W. Ochterski, R. L. Martin, K. Morokuma, O. Farkas, 
 J. B. Foresman, and D. J. Fox, Gaussian, Inc., Wallingford CT, 2019.
 
 ******************************************
 Gaussian 16:  ES64L-G16RevC.01  3-Jul-2019
                11-Oct-2024 
 ******************************************
 %chk=b.chk
 %nprocshared=28
 Will use up to   28 processors via shared memory.
 %mem=48gb
 ----------------------------------------------------------------------
 # wb97xd def2svp scrf=(smd,solvent=acetonitrile) g09default scf=(xqc,m
 axcycle=64) force guess=read nosymm
 ----------------------------------------------------------------------
 1/10=7,30=1,38=1,158=3,167=1/1,3;
 2/12=2,15=1,17=6,18=5,40=1/2;
 3/5=43,7=101,11=2,25=1,27=10,30=1,70=32201,71=1,72=2,74=-58,75=-4,116=-2,158=3/1,2,3;
 4/5=1,60=-1/1;
 5/5=2,7=64,8=3,13=1,38=6,53=2,87=10/2,8;
 6/7=2,8=2,9=2,10=2,28=1,87=10/1;
 7/29=1,30=1,87=10/1,2,3,16;
 1/10=7,30=1,158=3,167=1/3;
 99//99;
 Using 2006 physical constants.
 ----------
 Title Card
 ----------
 Symbolic Z-matrix:
 Charge = -1 Multiplicity = 2
 6                    -8.938    -0.88558   1.11251 
 6                    -8.9377    0.5383    1.25506 
 6                    -8.21394  -2.12965   0.98079 
 6                    -6.97882  -2.8387    0.89865 
 6                    -9.67667  -2.13966   0.9937 
 6                    -10.89158  -2.83831   0.93595 
 6                    -10.20397   1.26258   1.3447 
 7                    -11.22483   1.7487    1.41076 
 6                    -7.67173   1.27338   1.32712 
 7                    -6.65341   1.73318   1.37715 
 6                    -5.74623  -2.13537   0.94971 
 7                    -4.7571   -1.45599   0.99859 
 6                    -6.97944  -4.27032   0.73991 
 7                    -7.0586   -5.42978   0.60835 
 6                    -10.91747  -4.26454   0.82292 
 7                    -10.79814  -5.45263   0.73352 
 6                    -12.15763  -2.12093   0.99409 
 7                    -13.10465  -1.46485   1.04534 
 

 GradGradGradGradGradGradGradGradGradGradGradGradGradGradGradGradGradGrad
 Berny optimization.
 Initialization pass.
 Trust Radius=3.00D-01 FncErr=1.00D-07 GrdErr=1.00D-07 EigMax=2.50D+02 EigMin=1.00D-04
 Number of steps in this run=      2 maximum allowed number of steps=      2.
 GradGradGradGradGradGradGradGradGradGradGradGradGradGradGradGradGradGrad

                          Input orientation:                          
 ---------------------------------------------------------------------
 Center     Atomic      Atomic             Coordinates (Angstroms)
 Number     Number       Type             X           Y           Z
 ---------------------------------------------------------------------
      1          6           0       -8.937999   -0.885577    1.112510
      2          6           0       -8.937699    0.538304    1.255061
      3          6           0       -8.213939   -2.129646    0.980786
      4          6           0       -6.978821   -2.838700    0.898648
      5          6           0       -9.676672   -2.139661    0.993698
      6          6           0      -10.891577   -2.838313    0.935946
      7          6           0      -10.203970    1.262584    1.344697
      8          7           0      -11.224828    1.748701    1.410759
      9          6           0       -7.671729    1.273381    1.327123
     10          7           0       -6.653414    1.733178    1.377151
     11          6           0       -5.746226   -2.135374    0.949706
     12          7           0       -4.757100   -1.455994    0.998591
     13          6           0       -6.979436   -4.270318    0.739909
     14          7           0       -7.058600   -5.429784    0.608348
     15          6           0      -10.917467   -4.264538    0.822922
     16          7           0      -10.798137   -5.452634    0.733523
     17          6           0      -12.157628   -2.120933    0.994088
     18          7           0      -13.104654   -1.464853    1.045340
 ---------------------------------------------------------------------
                    Distance matrix (angstroms):
                    1          2          3          4          5
     1  C    0.000000
     2  C    1.430999   0.000000
     3  C    1.445449   2.777952   0.000000
     4  C    2.774671   3.920253   1.426541   0.000000
     5  C    1.460302   2.790321   1.462824   2.788564   0.000000
     6  C    2.767819   3.914207   2.770192   3.912933   1.402656
     7  C    2.504234   1.461526   3.949668   5.236513   3.460710
     8  N    3.501137   2.592347   4.928682   6.271768   4.205959
     9  C    2.512090   1.465678   3.463313   4.192006   3.972383
    10  N    3.485289   2.580811   4.184944   4.608354   4.928084
    11  C    3.431604   4.174601   2.467915   1.420058   3.930694
    12  N    4.221169   4.639009   3.521911   2.618761   4.966851
    13  C    3.928266   5.217569   2.482840   1.440392   3.446620
    14  N    4.943292   6.290256   3.516309   2.608516   4.222287
    15  C    3.926772   5.212823   3.448441   4.189473   2.466544
    16  N    4.945883   6.294805   4.216807   4.631100   3.507302
    17  C    3.450528   4.184208   3.943720   5.229181   2.481026
    18  N    4.207266   4.628189   4.936112   6.279713   3.494151
                    6          7          8          9         10
     6  C    0.000000
     7  C    4.178186   0.000000
     8  N    4.623549   1.132619   0.000000
     9  C    5.237029   2.532325   3.585727   0.000000
    10  N    6.249417   3.581753   4.571564   1.118428   0.000000
    11  C    5.193163   5.619040   6.731544   3.933143   3.996423
    12  N    6.288604   6.097446   7.229900   4.006555   3.729630
    13  C    4.170602   6.432448   7.396079   5.617534   6.046018
    14  N    4.638400   7.431241   8.338583   6.769415   7.215487
    15  C    1.430931   5.597357   6.049717   6.438757   7.379832
    16  N    2.623811   6.769101   7.245685   7.440838   8.320390
    17  C    1.456330   3.922741   4.002225   5.635208   6.730325
    18  N    2.606927   3.992806   3.740883   6.090485   7.208051
                   11         12         13         14         15
    11  C    0.000000
    12  N    1.200965   0.000000
    13  C    2.474430   3.595290   0.000000
    14  N    3.562581   4.608708   1.169588   0.000000
    15  C    5.593849   6.772658   3.938911   4.036669   0.000000
    16  N    6.047540   7.248276   3.997548   3.741701   1.197416
    17  C    6.411571   7.430341   5.612320   6.090761   2.482405
    18  N    7.389533   8.347689   6.744051   7.243370   3.559704
                   16         17         18
    16  N    0.000000
    17  C    3.607817   0.000000
    18  N    4.617321   1.153225   0.000000
 Symmetry turned off by external request.
 Stoichiometry    C12N6(1-,2)
 Framework group  C1[X(C12N6)]
 Deg. of freedom    48
 Full point group                 C1      NOp   1
 Rotational constants (GHZ):           0.4163333           0.4154436           0.2079671
 Standard basis: def2SVP (5D, 7F)
   252 basis functions,   450 primitive gaussians,   270 cartesian basis functions
    58 alpha electrons       57 beta electrons
       nuclear repulsion energy       949.9305412658 Hartrees.
 NAtoms=   18 NActive=   18 NUniq=   18 SFac= 1.00D+00 NAtFMM=   60 NAOKFM=F Big=F
 Integral buffers will be    131072 words long.
 Raffenetti 2 integral format.
 Two-electron integral symmetry is turned off.
 Nuclear repulsion after empirical dispersion term =      949.9192318377 Hartrees.
 Force PCM accuracy= 1.00D-10.
 ------------------------------------------------------------------------------
 Polarizable Continuum Model (PCM)
 =================================
 Model                : PCM (using non-symmetric T matrix).
 Atomic radii         : SMD-Coulomb.
 Polarization charges : Total charges.
 Charge compensation  : None.
 Solution method      : On-the-fly selection.
 Cavity type          : VdW (van der Waals Surface) (Alpha=1.000).
 Cavity algorithm     : GePol (No added spheres)
                        Default sphere list used, NSphG=   18.
                        Lebedev-Laikov grids with approx.  5.0 points / Ang**2.
                        Smoothing algorithm: York/Karplus (Gamma=1.0000).
                        Polarization charges: spherical gaussians, with
                                              point-specific exponents (IZeta= 3).
                        Self-potential: point-specific (ISelfS= 7).
                        Self-field    : sphere-specific E.n sum rule (ISelfD= 2).
 1st derivatives      : Analytical E(r).r(x)/FMM algorithm (CHGder, D1EAlg=3).
                        Cavity 1st derivative terms included.
 Solvent              : Acetonitrile, Eps=  35.688000 Eps(inf)=   1.806874
 ------------------------------------------------------------------------------
 Spheres list:
 ISph  on   Nord     Re0    Alpha      Xe            Ye            Ze
    1   C      1    1.8500  1.000     -8.937999     -0.885577      1.112510
    2   C      2    1.8500  1.000     -8.937699      0.538304      1.255061
    3   C      3    1.8500  1.000     -8.213939     -2.129646      0.980786
    4   C      4    1.8500  1.000     -6.978821     -2.838700      0.898648
    5   C      5    1.8500  1.000     -9.676672     -2.139661      0.993698
    6   C      6    1.8500  1.000    -10.891577     -2.838313      0.935946
    7   C      7    1.8500  1.000    -10.203970      1.262584      1.344697
    8   N      8    1.8900  1.000    -11.224828      1.748701      1.410759
    9   C      9    1.8500  1.000     -7.671729      1.273381      1.327123
   10   N     10    1.8900  1.000     -6.653414      1.733178      1.377151
   11   C     11    1.8500  1.000     -5.746226     -2.135374      0.949706
   12   N     12    1.8900  1.000     -4.757100     -1.455994      0.998591
   13   C     13    1.8500  1.000     -6.979436     -4.270318      0.739909
   14   N     14    1.8900  1.000     -7.058600     -5.429784      0.608348
   15   C     15    1.8500  1.000    -10.917467     -4.264538      0.822922
   16   N     16    1.8900  1.000    -10.798137     -5.452634      0.733523
   17   C     17    1.8500  1.000    -12.157628     -2.120933      0.994088
   18   N     18    1.8900  1.000    -13.104654     -1.464853      1.045340
 ------------------------------------------------------------------------------
 ------------------------------------------------------------------------------
 Atomic radii for non-electrostatic terms: SMD-CDS.
 ------------------------------------------------------------------------------
 Nuclear repulsion after PCM non-electrostatic terms =      949.9278516043 Hartrees.
 One-electron integrals computed using PRISM.
   1 Symmetry operations used in ECPInt.
 ECPInt:  NShTT=    5886 NPrTT=   23670 LenC2=    5387 LenP2D=   14824.
 LDataN:  DoStor=T MaxTD1= 4 Len=   56
 NBasis=   252 RedAO= T EigKep=  3.04D-04  NBF=   252
 NBsUse=   252 1.00D-06 EigRej= -1.00D+00 NBFU=   252
 Initial guess from the checkpoint file:  "b.chk"
 B after Tr=    -0.000104    0.001244   -0.002277
         Rot=    1.000000   -0.000063   -0.000079   -0.000024 Ang=  -0.01 deg.
 Initial guess <Sx>= 0.0000 <Sy>= 0.0000 <Sz>= 0.5000 <S**2>= 0.7864 S= 0.5180
 Requested convergence on RMS density matrix=1.00D-08 within  64 cycles.
 Requested convergence on MAX density matrix=1.00D-06.
 Requested convergence on             energy=1.00D-06.
 No special actions if energy rises.
 Inv3:  Mode=1 IEnd=    19538112.
 Iteration    1 A*A^-1 deviation from unit magnitude is 3.33D-15 for    602.
 Iteration    1 A*A^-1 deviation from orthogonality  is 2.92D-15 for   1798    283.
 Iteration    1 A^-1*A deviation from unit magnitude is 3.33D-15 for   1890.
 Iteration    1 A^-1*A deviation from orthogonality  is 2.58D-11 for    898    872.
 Error on total polarization charges =  0.02023
 SCF Done:  E(UwB97XD) =  -784.832380987     A.U. after   20 cycles
            NFock= 20  Conv=0.66D-08     -V/T= 2.0107
 <Sx>= 0.0000 <Sy>= 0.0000 <Sz>= 0.5000 <S**2>= 0.7919 S= 0.5207
 <L.S>=  0.00000000000    
 SMD-CDS (non-electrostatic) energy       (kcal/mol) =       5.41
 (included in total energy above)
 Annihilation of the first spin contaminant:
 S**2 before annihilation     0.7919,   after     0.7514
 QCSCF skips out because SCF is already converged.

 **********************************************************************

            Population analysis using the SCF Density.

 **********************************************************************

 Alpha  occ. eigenvalues --  -14.46838 -14.46824 -14.46240 -14.45934 -14.45439
 Alpha  occ. eigenvalues --  -14.45137 -10.39549 -10.39519 -10.39490 -10.39421
 Alpha  occ. eigenvalues --  -10.38921 -10.38865 -10.37039 -10.37035 -10.36527
 Alpha  occ. eigenvalues --  -10.36250 -10.35805 -10.35515  -1.03777  -1.02770
 Alpha  occ. eigenvalues --   -1.02130  -1.01696  -1.00986  -0.99943  -0.99686
 Alpha  occ. eigenvalues --   -0.91474  -0.91069  -0.88801  -0.71668  -0.71229
 Alpha  occ. eigenvalues --   -0.68421  -0.67961  -0.67294  -0.66541  -0.54197
 Alpha  occ. eigenvalues --   -0.50654  -0.50415  -0.49369  -0.49074  -0.47775
 Alpha  occ. eigenvalues --   -0.47669  -0.47465  -0.47057  -0.46890  -0.46706
 Alpha  occ. eigenvalues --   -0.45994  -0.45790  -0.45423  -0.44852  -0.44549
 Alpha  occ. eigenvalues --   -0.44289  -0.44186  -0.43466  -0.42457  -0.42405
 Alpha  occ. eigenvalues --   -0.35554  -0.35213  -0.27868
 Alpha virt. eigenvalues --    0.03442   0.04183   0.05848   0.06226   0.07826
 Alpha virt. eigenvalues --    0.08839   0.09391   0.09919   0.11259   0.11811
 Alpha virt. eigenvalues --    0.11998   0.14069   0.18807   0.18936   0.20143
 Alpha virt. eigenvalues --    0.23329   0.23563   0.24044   0.25925   0.26082
 Alpha virt. eigenvalues --    0.27246   0.29233   0.29408   0.30783   0.31344
 Alpha virt. eigenvalues --    0.31503   0.33602   0.44947   0.45371   0.49392
 Alpha virt. eigenvalues --    0.49716   0.51139   0.51889   0.53291   0.53300
 Alpha virt. eigenvalues --    0.53696   0.53905   0.54478   0.55707   0.59720
 Alpha virt. eigenvalues --    0.59994   0.60362   0.60433   0.60709   0.62739
 Alpha virt. eigenvalues --    0.63533   0.67185   0.68821   0.68892   0.69413
 Alpha virt. eigenvalues --    0.69541   0.71897   0.72032   0.72412   0.72688
 Alpha virt. eigenvalues --    0.72779   0.72911   0.73814   0.74276   0.74459
 Alpha virt. eigenvalues --    0.77468   0.77696   0.78335   0.80597   0.80690
 Alpha virt. eigenvalues --    0.83095   0.83671   0.85263   0.86210   0.91425
 Alpha virt. eigenvalues --    0.92267   0.92610   0.92954   0.93816   0.94085
 Alpha virt. eigenvalues --    0.94809   0.97705   0.97993   0.98282   0.98438
 Alpha virt. eigenvalues --    0.99883   1.00182   1.00719   1.00845   1.02109
 Alpha virt. eigenvalues --    1.02997   1.03757   1.04418   1.08262   1.09189
 Alpha virt. eigenvalues --    1.10873   1.14832   1.16264   1.16952   1.17870
 Alpha virt. eigenvalues --    1.19677   1.21411   1.22373   1.23691   1.31378
 Alpha virt. eigenvalues --    1.32773   1.33246   1.38320   1.38703   1.41278
 Alpha virt. eigenvalues --    1.43423   1.43886   1.44039   1.44955   1.54508
 Alpha virt. eigenvalues --    1.56063   1.65944   1.67705   1.67889   1.68424
 Alpha virt. eigenvalues --    1.68784   1.69056   1.73993   1.74319   1.75598
 Alpha virt. eigenvalues --    1.75845   1.76533   1.78113   1.78269   1.78955
 Alpha virt. eigenvalues --    1.79577   1.80181   1.83315   1.89565   1.91239
 Alpha virt. eigenvalues --    1.92232   1.97067   1.97736   1.98197   2.00900
 Alpha virt. eigenvalues --    2.01160   2.03308   2.04197   2.10165   2.10361
 Alpha virt. eigenvalues --    2.12113   2.17482   2.17584   2.18047   2.22444
 Alpha virt. eigenvalues --    2.23168   2.23283   2.24195   2.30436   2.31080
 Alpha virt. eigenvalues --    2.31842   2.32516   2.33372   2.33524   2.33756
 Alpha virt. eigenvalues --    2.34382   2.35024   2.35448   2.35500   2.36133
 Alpha virt. eigenvalues --    2.36488   2.37657   2.50419   2.53510   2.53596
 Alpha virt. eigenvalues --    2.62392   2.62669   2.86568   2.90395   2.90988
 Alpha virt. eigenvalues --    2.92827   2.95497   2.97329   2.99569   3.00452
 Alpha virt. eigenvalues --    3.01305   3.03842   3.04299   3.06167   3.07490
 Alpha virt. eigenvalues --    3.07812   3.12590   3.15438   3.17680   3.26745
 Alpha virt. eigenvalues --    3.34664   3.35967   3.37231   3.47327   3.48512
 Alpha virt. eigenvalues --    3.57156   3.57830   3.62131   3.71068
  Beta  occ. eigenvalues --  -14.46614 -14.46606 -14.46057 -14.45779 -14.45273
  Beta  occ. eigenvalues --  -14.44984 -10.39589 -10.39557 -10.39540 -10.39016
  Beta  occ. eigenvalues --  -10.38582 -10.38509 -10.37146 -10.37140 -10.36618
  Beta  occ. eigenvalues --  -10.36329 -10.35890 -10.35595  -1.03438  -1.02467
  Beta  occ. eigenvalues --   -1.01841  -1.01395  -1.00660  -0.99594  -0.99308
  Beta  occ. eigenvalues --   -0.90723  -0.90238  -0.87763  -0.71565  -0.71103
  Beta  occ. eigenvalues --   -0.68201  -0.67745  -0.67012  -0.66378  -0.53350
  Beta  occ. eigenvalues --   -0.49380  -0.49239  -0.49154  -0.48917  -0.47403
  Beta  occ. eigenvalues --   -0.47307  -0.47150  -0.46728  -0.46653  -0.46491
  Beta  occ. eigenvalues --   -0.45312  -0.45098  -0.44895  -0.44715  -0.44050
  Beta  occ. eigenvalues --   -0.43684  -0.43368  -0.43348  -0.42304  -0.42253
  Beta  occ. eigenvalues --   -0.32673  -0.32226
  Beta virt. eigenvalues --   -0.10441   0.04251   0.04922   0.05961   0.06326
  Beta virt. eigenvalues --    0.07899   0.08835   0.10403   0.10785   0.11302
  Beta virt. eigenvalues --    0.12045   0.12643   0.14378   0.19105   0.19185
  Beta virt. eigenvalues --    0.21676   0.23216   0.25107   0.25696   0.26120
  Beta virt. eigenvalues --    0.26270   0.27493   0.29355   0.29600   0.31326
  Beta virt. eigenvalues --    0.31862   0.31933   0.33728   0.45119   0.45513
  Beta virt. eigenvalues --    0.49515   0.49772   0.51257   0.51987   0.53239
  Beta virt. eigenvalues --    0.53267   0.53830   0.54069   0.54567   0.55844
  Beta virt. eigenvalues --    0.59629   0.59879   0.60233   0.60475   0.60760
  Beta virt. eigenvalues --    0.62795   0.63390   0.67565   0.68954   0.69045
  Beta virt. eigenvalues --    0.69548   0.69676   0.71982   0.72146   0.72501
  Beta virt. eigenvalues --    0.72875   0.72957   0.73093   0.73931   0.74402
  Beta virt. eigenvalues --    0.74574   0.77454   0.77696   0.79341   0.81354
  Beta virt. eigenvalues --    0.81451   0.83225   0.83799   0.85557   0.86302
  Beta virt. eigenvalues --    0.91584   0.92439   0.93248   0.93544   0.94053
  Beta virt. eigenvalues --    0.94670   0.95460   0.98294   0.98534   0.98602
  Beta virt. eigenvalues --    0.98683   1.00065   1.00370   1.00800   1.00932
  Beta virt. eigenvalues --    1.02333   1.03174   1.04064   1.04546   1.08465
  Beta virt. eigenvalues --    1.09401   1.11000   1.15007   1.16489   1.17251
  Beta virt. eigenvalues --    1.18110   1.19959   1.21666   1.22669   1.24223
  Beta virt. eigenvalues --    1.31528   1.32955   1.33438   1.38916   1.39275
  Beta virt. eigenvalues --    1.42014   1.44007   1.44158   1.44724   1.45071
  Beta virt. eigenvalues --    1.54553   1.56128   1.65800   1.67536   1.67706
  Beta virt. eigenvalues --    1.68218   1.68539   1.68778   1.73900   1.74205
  Beta virt. eigenvalues --    1.75681   1.76009   1.76437   1.78020   1.78136
  Beta virt. eigenvalues --    1.79172   1.79473   1.80014   1.83174   1.89743
  Beta virt. eigenvalues --    1.91253   1.92316   1.97607   1.98264   1.98361
  Beta virt. eigenvalues --    2.01308   2.01634   2.03833   2.04240   2.10560
  Beta virt. eigenvalues --    2.10789   2.12433   2.18535   2.18646   2.19067
  Beta virt. eigenvalues --    2.22997   2.23807   2.23981   2.24802   2.31037
  Beta virt. eigenvalues --    2.31671   2.32617   2.33264   2.33938   2.34205
  Beta virt. eigenvalues --    2.34371   2.34963   2.35616   2.36042   2.36147
  Beta virt. eigenvalues --    2.36691   2.37044   2.38231   2.50841   2.53589
  Beta virt. eigenvalues --    2.53667   2.62846   2.63102   2.86676   2.90566
  Beta virt. eigenvalues --    2.91122   2.92960   2.95628   2.97463   3.00095
  Beta virt. eigenvalues --    3.00583   3.01828   3.04025   3.04463   3.06631
  Beta virt. eigenvalues --    3.07990   3.08254   3.13056   3.15683   3.17922
  Beta virt. eigenvalues --    3.26921   3.34859   3.36166   3.37430   3.47509
  Beta virt. eigenvalues --    3.48708   3.57342   3.58020   3.62312   3.71249
          Condensed to atoms (all electrons):
               1          2          3          4          5          6
     1  C    4.900265   0.533568   0.299241  -0.075461   0.291824  -0.082050
     2  C    0.533568   5.255522  -0.073987  -0.004677  -0.070758  -0.005131
     3  C    0.299241  -0.073987   4.885008   0.527720   0.294085  -0.081090
     4  C   -0.075461  -0.004677   0.527720   5.276881  -0.073293  -0.005346
     5  C    0.291824  -0.070758   0.294085  -0.073293   4.855512   0.537232
     6  C   -0.082050  -0.005131  -0.081090  -0.005346   0.537232   5.291323
     7  C   -0.000401   0.391163   0.005005  -0.000173  -0.012477   0.000872
     8  N   -0.000770  -0.026550   0.000009  -0.000000  -0.000324   0.000080
     9  C   -0.002738   0.389298  -0.012628   0.000909   0.005004  -0.000170
    10  N   -0.001005  -0.026925  -0.000355   0.000098   0.000015  -0.000001
    11  C   -0.015609   0.001138   0.001365   0.392978   0.005624  -0.000227
    12  N   -0.000311   0.000094  -0.000841  -0.032727   0.000016  -0.000000
    13  C    0.005396  -0.000196   0.001002   0.384733  -0.014076   0.000990
    14  N    0.000011  -0.000000  -0.000886  -0.029283  -0.000280   0.000074
    15  C    0.005778  -0.000183  -0.015119   0.000990   0.001059   0.388972
    16  N    0.000030  -0.000000  -0.000352   0.000107  -0.000590  -0.031983
    17  C   -0.014087   0.000968   0.005262  -0.000180  -0.000995   0.381940
    18  N   -0.000354   0.000085   0.000020  -0.000000  -0.000798  -0.027247
               7          8          9         10         11         12
     1  C   -0.000401  -0.000770  -0.002738  -0.001005  -0.015609  -0.000311
     2  C    0.391163  -0.026550   0.389298  -0.026925   0.001138   0.000094
     3  C    0.005005   0.000009  -0.012628  -0.000355   0.001365  -0.000841
     4  C   -0.000173  -0.000000   0.000909   0.000098   0.392978  -0.032727
     5  C   -0.012477  -0.000324   0.005004   0.000015   0.005624   0.000016
     6  C    0.000872   0.000080  -0.000170  -0.000001  -0.000227  -0.000000
     7  C    4.780013   0.942327  -0.026383   0.001085   0.000039   0.000001
     8  N    0.942327   6.063779   0.001054   0.000023   0.000000   0.000000
     9  C   -0.026383   0.001054   4.771302   0.959098   0.000361   0.000529
    10  N    0.001085   0.000023   0.959098   6.033479   0.000050  -0.000704
    11  C    0.000039   0.000000   0.000361   0.000050   4.812393   0.865239
    12  N    0.000001   0.000000   0.000529  -0.000704   0.865239   6.211841
    13  C   -0.000002  -0.000000   0.000035   0.000001  -0.027158   0.001631
    14  N   -0.000000   0.000000   0.000000   0.000000   0.001644   0.000035
    15  C    0.000039   0.000001  -0.000002  -0.000000   0.000046   0.000000
    16  N    0.000000   0.000000  -0.000000   0.000000   0.000001   0.000000
    17  C    0.000428   0.000217   0.000031   0.000000  -0.000002  -0.000000
    18  N    0.000399  -0.000709   0.000001   0.000000  -0.000000   0.000000
              13         14         15         16         17         18
     1  C    0.005396   0.000011   0.005778   0.000030  -0.014087  -0.000354
     2  C   -0.000196  -0.000000  -0.000183  -0.000000   0.000968   0.000085
     3  C    0.001002  -0.000886  -0.015119  -0.000352   0.005262   0.000020
     4  C    0.384733  -0.029283   0.000990   0.000107  -0.000180  -0.000000
     5  C   -0.014076  -0.000280   0.001059  -0.000590  -0.000995  -0.000798
     6  C    0.000990   0.000074   0.388972  -0.031983   0.381940  -0.027247
     7  C   -0.000002  -0.000000   0.000039   0.000000   0.000428   0.000399
     8  N   -0.000000   0.000000   0.000001   0.000000   0.000217  -0.000709
     9  C    0.000035   0.000000  -0.000002  -0.000000   0.000031   0.000001
    10  N    0.000001   0.000000  -0.000000   0.000000   0.000000   0.000000
    11  C   -0.027158   0.001644   0.000046   0.000001  -0.000002  -0.000000
    12  N    0.001631   0.000035   0.000000   0.000000  -0.000000   0.000000
    13  C    4.802870   0.903077   0.000294   0.000492   0.000036   0.000000
    14  N    0.903077   6.133728   0.000051  -0.000666   0.000001   0.000000
    15  C    0.000294   0.000051   4.812193   0.871032  -0.024133   0.001293
    16  N    0.000492  -0.000666   0.871032   6.203290   0.001362   0.000025
    17  C    0.000036   0.000001  -0.024133   0.001362   4.797155   0.921350
    18  N    0.000000   0.000000   0.001293   0.000025   0.921350   6.102080
          Atomic-Atomic Spin Densities.
               1          2          3          4          5          6
     1  C   -0.064278  -0.065898   0.035789  -0.004686   0.032923  -0.004679
     2  C   -0.065898   0.428119  -0.005561   0.000798  -0.005171   0.000778
     3  C    0.035789  -0.005561  -0.028611  -0.070156   0.034223  -0.005610
     4  C   -0.004686   0.000798  -0.070156   0.380487  -0.005126   0.000739
     5  C    0.032923  -0.005171   0.034223  -0.005126  -0.042015  -0.065759
     6  C   -0.004679   0.000778  -0.005610   0.000739  -0.065759   0.365097
     7  C    0.000047   0.003894  -0.000128  -0.000008   0.000249  -0.000037
     8  N    0.000460  -0.005185   0.000007  -0.000000   0.000033  -0.000025
     9  C    0.000022   0.003011   0.000224  -0.000028  -0.000110  -0.000008
    10  N    0.000468  -0.005145   0.000033  -0.000025   0.000006  -0.000000
    11  C    0.000236  -0.000036   0.001318   0.006987  -0.000106  -0.000010
    12  N    0.000029  -0.000027   0.000597  -0.005451   0.000008  -0.000000
    13  C   -0.000111  -0.000009   0.000894   0.004620   0.000200  -0.000038
    14  N    0.000006  -0.000000   0.000515  -0.005088   0.000030  -0.000023
    15  C   -0.000110  -0.000009   0.000212  -0.000035   0.001106   0.006685
    16  N    0.000007  -0.000000   0.000036  -0.000025   0.000566  -0.005039
    17  C    0.000208  -0.000022  -0.000093  -0.000008   0.000592   0.004157
    18  N    0.000027  -0.000024   0.000006  -0.000000   0.000460  -0.004596
               7          8          9         10         11         12
     1  C    0.000047   0.000460   0.000022   0.000468   0.000236   0.000029
     2  C    0.003894  -0.005185   0.003011  -0.005145  -0.000036  -0.000027
     3  C   -0.000128   0.000007   0.000224   0.000033   0.001318   0.000597
     4  C   -0.000008  -0.000000  -0.000028  -0.000025   0.006987  -0.005451
     5  C    0.000249   0.000033  -0.000110   0.000006  -0.000106   0.000008
     6  C   -0.000037  -0.000025  -0.000008  -0.000000  -0.000010  -0.000000
     7  C   -0.069105  -0.000975  -0.001456   0.000034  -0.000002   0.000000
     8  N   -0.000975   0.102164   0.000044   0.000006  -0.000000   0.000000
     9  C   -0.001456   0.000044  -0.064656  -0.000537  -0.000000   0.000010
    10  N    0.000034   0.000006  -0.000537   0.094243   0.000014   0.000044
    11  C   -0.000002  -0.000000  -0.000000   0.000014  -0.090995  -0.003344
    12  N    0.000000   0.000000   0.000010   0.000044  -0.003344   0.143382
    13  C    0.000000  -0.000000  -0.000001   0.000000  -0.001075   0.000103
    14  N   -0.000000   0.000000  -0.000000   0.000000   0.000110   0.000007
    15  C   -0.000001   0.000000   0.000000  -0.000000  -0.000001  -0.000000
    16  N   -0.000000   0.000000  -0.000000   0.000000   0.000000   0.000000
    17  C   -0.000001   0.000010  -0.000001  -0.000000  -0.000000  -0.000000
    18  N    0.000009   0.000037   0.000000   0.000000  -0.000000   0.000000
              13         14         15         16         17         18
     1  C   -0.000111   0.000006  -0.000110   0.000007   0.000208   0.000027
     2  C   -0.000009  -0.000000  -0.000009  -0.000000  -0.000022  -0.000024
     3  C    0.000894   0.000515   0.000212   0.000036  -0.000093   0.000006
     4  C    0.004620  -0.005088  -0.000035  -0.000025  -0.000008  -0.000000
     5  C    0.000200   0.000030   0.001106   0.000566   0.000592   0.000460
     6  C   -0.000038  -0.000023   0.006685  -0.005039   0.004157  -0.004596
     7  C    0.000000  -0.000000  -0.000001  -0.000000  -0.000001   0.000009
     8  N   -0.000000   0.000000   0.000000   0.000000   0.000010   0.000037
     9  C   -0.000001  -0.000000   0.000000  -0.000000  -0.000001   0.000000
    10  N    0.000000   0.000000  -0.000000   0.000000  -0.000000   0.000000
    11  C   -0.001075   0.000110  -0.000001   0.000000  -0.000000  -0.000000
    12  N    0.000103   0.000007  -0.000000   0.000000  -0.000000   0.000000
    13  C   -0.073774  -0.001848  -0.000002   0.000012  -0.000001  -0.000000
    14  N   -0.001848   0.113121   0.000012   0.000041   0.000000   0.000000
    15  C   -0.000002   0.000012  -0.083936  -0.002999  -0.001228   0.000072
    16  N    0.000012   0.000041  -0.002999   0.129796   0.000064   0.000006
    17  C   -0.000001   0.000000  -0.001228   0.000064  -0.064225  -0.001242
    18  N   -0.000000   0.000000   0.000072   0.000006  -0.001242   0.095330
 Mulliken charges and spin densities:
               1          2
     1  C    0.156677  -0.069538
     2  C   -0.363428   0.349514
     3  C    0.166540  -0.036305
     4  C   -0.363275   0.302994
     5  C    0.183221  -0.047890
     6  C   -0.368238   0.291631
     7  C   -0.081934  -0.067478
     8  N    0.020862   0.096577
     9  C   -0.085702  -0.063486
    10  N    0.035140   0.089142
    11  C   -0.037880  -0.086902
    12  N   -0.044801   0.135359
    13  C   -0.059125  -0.071030
    14  N   -0.007504   0.106883
    15  C   -0.042311  -0.080234
    16  N   -0.042747   0.122465
    17  C   -0.069352  -0.061788
    18  N    0.003857   0.090087
 Sum of Mulliken charges =  -1.00000   1.00000
 Mulliken charges and spin densities with hydrogens summed into heavy atoms:
               1          2
     1  C    0.156677  -0.069538
     2  C   -0.363428   0.349514
     3  C    0.166540  -0.036305
     4  C   -0.363275   0.302994
     5  C    0.183221  -0.047890
     6  C   -0.368238   0.291631
     7  C   -0.081934  -0.067478
     8  N    0.020862   0.096577
     9  C   -0.085702  -0.063486
    10  N    0.035140   0.089142
    11  C   -0.037880  -0.086902
    12  N   -0.044801   0.135359
    13  C   -0.059125  -0.071030
    14  N   -0.007504   0.106883
    15  C   -0.042311  -0.080234
    16  N   -0.042747   0.122465
    17  C   -0.069352  -0.061788
    18  N    0.003857   0.090087
 Electronic spatial extent (au):  <R**2>=          39123.0167
 Charge=             -1.0000 electrons
 Dipole moment (field-independent basis, Debye):
    X=             42.6513    Y=              8.7697    Z=             -4.8930  Tot=             43.8177
 Quadrupole moment (field-independent basis, Debye-Ang):
   XX=           -550.1763   YY=           -185.4613   ZZ=           -104.7930
   XY=            -77.7661   XZ=             44.1327   YZ=              1.9370
 Traceless Quadrupole moment (field-independent basis, Debye-Ang):
   XX=           -270.0328   YY=             94.6823   ZZ=            175.3505
   XY=            -77.7661   XZ=             44.1327   YZ=              1.9370
 Octapole moment (field-independent basis, Debye-Ang**2):
  XXX=           7954.5666  YYY=            989.0927  ZZZ=           -312.8623  XYY=           1657.5483
  XXY=            908.6658  XXZ=           -580.4580  XZZ=            937.3491  YZZ=            167.7138
  YYZ=           -159.7469  XYZ=            -18.3745
 Hexadecapole moment (field-independent basis, Debye-Ang**3):
 XXXX=        -116287.0977 YYYY=          -8002.4277 ZZZZ=           -768.5324 XXXY=         -11977.9758
 XXXZ=           8498.6247 YYYX=          -8842.1627 YYYZ=            647.8016 ZZZX=           2812.5680
 ZZZY=            365.6418 XXYY=         -16527.8573 XXZZ=          -9139.0918 YYZZ=           -993.5921
 XXYZ=            317.8997 YYXZ=           1444.7062 ZZXY=          -1499.8564
 N-N= 9.499278516043D+02 E-N=-3.734694948043D+03  KE= 7.765052409054D+02
                          Isotropic Fermi Contact Couplings
        Atom                 a.u.       MegaHertz       Gauss      10(-4) cm-1
     1  C(13)             -0.02342     -26.32460      -9.39327      -8.78094
     2  C(13)              0.06266      70.44063      25.13497      23.49646
     3  C(13)             -0.01609     -18.08353      -6.45265      -6.03202
     4  C(13)              0.05286      59.42753      21.20522      19.82289
     5  C(13)             -0.01786     -20.08219      -7.16582      -6.69870
     6  C(13)              0.05068      56.97117      20.32873      19.00354
     7  C(13)             -0.03350     -37.65606     -13.43662     -12.56071
     8  N(14)              0.02175       7.02619       2.50712       2.34368
     9  C(13)             -0.03241     -36.43950     -13.00252     -12.15491
    10  N(14)              0.01978       6.39052       2.28030       2.13165
    11  C(13)             -0.03684     -41.41325     -14.77728     -13.81397
    12  N(14)              0.03213      10.37979       3.70377       3.46232
    13  C(13)             -0.03309     -37.19665     -13.27269     -12.40747
    14  N(14)              0.02484       8.02636       2.86400       2.67730
    15  C(13)             -0.03449     -38.77812     -13.83700     -12.93499
    16  N(14)              0.02899       9.36838       3.34287       3.12496
    17  C(13)             -0.03004     -33.76583     -12.04849     -11.26307
    18  N(14)              0.02065       6.67072       2.38028       2.22511
 --------------------------------------------------------
       Center         ----  Spin Dipole Couplings  ----
                      3XX-RR        3YY-RR        3ZZ-RR
 --------------------------------------------------------
     1   Atom        0.008328      0.033225     -0.041553
     2   Atom       -0.183309     -0.180249      0.363559
     3   Atom        0.011905      0.002028     -0.013934
     4   Atom       -0.161604     -0.154865      0.316469
     5   Atom        0.019974      0.008360     -0.028334
     6   Atom       -0.154003     -0.149725      0.303728
     7   Atom        0.034224      0.006124     -0.040348
     8   Atom       -0.099952     -0.078518      0.178470
     9   Atom        0.031894      0.005428     -0.037323
    10   Atom       -0.093256     -0.072718      0.165974
    11   Atom        0.040602      0.014336     -0.054938
    12   Atom       -0.130587     -0.109208      0.239795
    13   Atom       -0.002351      0.046328     -0.043977
    14   Atom       -0.080473     -0.111953      0.192425
    15   Atom       -0.002767      0.052915     -0.050148
    16   Atom       -0.087972     -0.130541      0.218513
    17   Atom        0.028046      0.010117     -0.038162
    18   Atom       -0.088691     -0.077275      0.165966
 --------------------------------------------------------
                        XY            XZ            YZ
 --------------------------------------------------------
     1   Atom        0.000042     -0.001804      0.006635
     2   Atom       -0.000583      0.004182     -0.057435
     3   Atom       -0.008710      0.000661      0.001923
     4   Atom        0.000069      0.006680     -0.050694
     5   Atom        0.009904      0.000635      0.003869
     6   Atom       -0.001468     -0.000010     -0.036971
     7   Atom       -0.018883     -0.002769      0.005101
     8   Atom        0.010779      0.005763     -0.027958
     9   Atom        0.017581      0.001645      0.004592
    10   Atom       -0.009671     -0.001461     -0.026415
    11   Atom        0.028410      0.001171      0.006716
    12   Atom       -0.023907      0.005589     -0.035085
    13   Atom        0.002451     -0.000139      0.010010
    14   Atom       -0.002577      0.002400     -0.036065
    15   Atom       -0.002799     -0.000016      0.008185
    16   Atom        0.004447     -0.000830     -0.025759
    17   Atom       -0.019151     -0.001650      0.003873
    18   Atom        0.013747      0.000792     -0.018735
 --------------------------------------------------------


 ---------------------------------------------------------------------------------
              Anisotropic Spin Dipole Couplings in Principal Axis System
 ---------------------------------------------------------------------------------

       Atom             a.u.   MegaHertz   Gauss  10(-4) cm-1        Axes

              Baa    -0.0422    -5.663    -2.021    -1.889  0.0356 -0.0876  0.9955
     1 C(13)  Bbb     0.0084     1.126     0.402     0.376  0.9994  0.0077 -0.0351
              Bcc     0.0338     4.537     1.619     1.513 -0.0046  0.9961  0.0878
 
              Baa    -0.1863   -24.994    -8.918    -8.337  0.0498  0.9934  0.1034
     2 C(13)  Bbb    -0.1833   -24.602    -8.779    -8.206  0.9987 -0.0488 -0.0128
              Bcc     0.3696    49.596    17.697    16.543  0.0076 -0.1039  0.9946
 
              Baa    -0.0143    -1.918    -0.684    -0.640 -0.0771 -0.1571  0.9846
     3 C(13)  Bbb    -0.0027    -0.361    -0.129    -0.120  0.4987  0.8490  0.1745
              Bcc     0.0170     2.279     0.813     0.760  0.8634 -0.5044 -0.0129
 
              Baa    -0.1620   -21.743    -7.759    -7.253  0.9166 -0.3960 -0.0547
     4 C(13)  Bbb    -0.1599   -21.459    -7.657    -7.158  0.3995  0.9122  0.0915
              Bcc     0.3220    43.203    15.416    14.411  0.0137 -0.1057  0.9943
 
              Baa    -0.0287    -3.857    -1.376    -1.286  0.0086 -0.1060  0.9943
     5 C(13)  Bbb     0.0030     0.400     0.143     0.133 -0.5039  0.8585  0.0958
              Bcc     0.0258     3.457     1.234     1.153  0.8637  0.5018  0.0460
 
              Baa    -0.1550   -20.794    -7.420    -6.936  0.8371  0.5453  0.0440
     6 C(13)  Bbb    -0.1518   -20.365    -7.267    -6.793 -0.5470  0.8344  0.0677
              Bcc     0.3067    41.159    14.687    13.729  0.0002 -0.0807  0.9967
 
              Baa    -0.0409    -5.490    -1.959    -1.831  0.0106 -0.1036  0.9946
     7 C(13)  Bbb    -0.0031    -0.412    -0.147    -0.137  0.4551  0.8861  0.0875
              Bcc     0.0440     5.902     2.106     1.969  0.8904 -0.4517 -0.0566
 
              Baa    -0.1054    -4.065    -1.451    -1.356  0.9033 -0.4247 -0.0602
     8 N(14)  Bbb    -0.0761    -2.937    -1.048    -0.980  0.4286  0.8991  0.0890
              Bcc     0.1816     7.002     2.498     2.336  0.0163 -0.1062  0.9942
 
              Baa    -0.0378    -5.074    -1.810    -1.692  0.0035 -0.1070  0.9943
     9 C(13)  Bbb    -0.0030    -0.405    -0.144    -0.135 -0.4513  0.8871  0.0971
              Bcc     0.0408     5.478     1.955     1.827  0.8923  0.4491  0.0452
 
              Baa    -0.0976    -3.764    -1.343    -1.256  0.9138  0.4035  0.0455
    10 N(14)  Bbb    -0.0713    -2.748    -0.981    -0.917 -0.4061  0.9085  0.0987
              Bcc     0.1689     6.513     2.324     2.172 -0.0015 -0.1086  0.9941
 
              Baa    -0.0556    -7.463    -2.663    -2.489  0.0183 -0.1029  0.9945
    11 C(13)  Bbb    -0.0033    -0.449    -0.160    -0.150 -0.5422  0.8347  0.0964
              Bcc     0.0590     7.911     2.823     2.639  0.8401  0.5410  0.0405
 
              Baa    -0.1467    -5.656    -2.018    -1.887  0.8251  0.5636  0.0392
    12 N(14)  Bbb    -0.0968    -3.734    -1.332    -1.245 -0.5646  0.8199  0.0948
              Bcc     0.2435     9.390     3.350     3.132  0.0213 -0.1004  0.9947
 
              Baa    -0.0451    -6.049    -2.158    -2.018  0.0095 -0.1091  0.9940
    13 C(13)  Bbb    -0.0025    -0.331    -0.118    -0.110  0.9988 -0.0471 -0.0147
              Bcc     0.0475     6.380     2.276     2.128  0.0485  0.9929  0.1085
 
              Baa    -0.1163    -4.486    -1.601    -1.496  0.0635  0.9913  0.1153
    14 N(14)  Bbb    -0.0804    -3.099    -1.106    -1.034  0.9979 -0.0620 -0.0170
              Bcc     0.1967     7.585     2.707     2.530  0.0097 -0.1161  0.9932
 
              Baa    -0.0508    -6.816    -2.432    -2.274 -0.0043 -0.0788  0.9969
    15 C(13)  Bbb    -0.0029    -0.390    -0.139    -0.130  0.9988  0.0489  0.0081
              Bcc     0.0537     7.206     2.571     2.404 -0.0494  0.9957  0.0785
 
              Baa    -0.1329    -5.124    -1.828    -1.709 -0.0970  0.9926  0.0725
    16 N(14)  Bbb    -0.0876    -3.377    -1.205    -1.126  0.9953  0.0965  0.0108
              Bcc     0.2204     8.501     3.033     2.836 -0.0037 -0.0732  0.9973
 
              Baa    -0.0385    -5.162    -1.842    -1.722  0.0021 -0.0786  0.9969
    17 C(13)  Bbb    -0.0019    -0.256    -0.091    -0.085  0.5401  0.8391  0.0651
              Bcc     0.0404     5.419     1.933     1.807  0.8416 -0.5382 -0.0442
 
              Baa    -0.0983    -3.793    -1.353    -1.265  0.8188 -0.5725 -0.0430
    18 N(14)  Bbb    -0.0691    -2.663    -0.950    -0.888  0.5741  0.8164  0.0631
              Bcc     0.1674     6.456     2.304     2.154 -0.0010 -0.0764  0.9971
 

 ---------------------------------------------------------------------------------

   1 Symmetry operations used in ECPInt.
 ECPInt:  NShTT=    5886 NPrTT=   23670 LenC2=    5387 LenP2D=   14824.
 LDataN:  DoStor=T MaxTD1= 5 Len=  102
 D1PCM: PCM CHGder 1st derivatives, ID1Alg=3 FixD1E=F DoIter=F DoCFld=F I1PDM=0.
 Calling FoFJK, ICntrl=      2127 FMM=F ISym2X=0 I1Cent= 0 IOpClX= 1 NMat=1 NMatS=1 NMatT=0.
 -------------------------------------------------------------------
 Center     Atomic                   Forces (Hartrees/Bohr)
 Number     Number              X              Y              Z
 -------------------------------------------------------------------
      1        6          -0.001801607   -0.013683812   -0.001886965
      2        6          -0.000018140   -0.014785225   -0.001105656
      3        6          -0.024620966    0.008663062    0.001855749
      4        6          -0.028486823    0.005166726   -0.000010916
      5        6           0.038480111    0.020071912    0.001620146
      6        6          -0.003341748    0.011853117    0.000988760
      7        6           0.085024588   -0.048757574   -0.006068372
      8        7          -0.062495556    0.032320705    0.004194214
      9        6          -0.124388707   -0.068300881   -0.006941371
     10        7           0.101134324    0.049613054    0.005183761
     11        6           0.065125868    0.052190418    0.003978800
     12        7          -0.068700737   -0.049937928   -0.003572317
     13        6          -0.007080747   -0.009841380   -0.001070528
     14        7           0.003481519    0.023059120    0.002630657
     15        6           0.018006806   -0.070336005   -0.005446423
     16        7          -0.011500506    0.078460477    0.005878866
     17        6           0.034647928   -0.011473745   -0.000638848
     18        7          -0.013465608    0.005717959    0.000410444
 -------------------------------------------------------------------
 Cartesian Forces:  Max     0.124388707 RMS     0.038385476

 GradGradGradGradGradGradGradGradGradGradGradGradGradGradGradGradGradGrad
 Berny optimization.
 Search for a local minimum.
 Step number   1 out of a maximum of    2
 All quantities printed in internal units (Hartrees-Bohrs-Radians)
 Second derivative matrix not updated -- first step.
 ITU=  0
     Eigenvalues ---    0.00073   0.00084   0.00171   0.00291   0.00293
     Eigenvalues ---    0.00657   0.01473   0.01600   0.01903   0.01938
     Eigenvalues ---    0.03292   0.03713   0.05050   0.05104   0.09775
     Eigenvalues ---    0.13980   0.18974   0.19692   0.23062   0.24196
     Eigenvalues ---    0.24423   0.24988   0.28869   0.29261   0.44609
     Eigenvalues ---    0.60143   0.64985   0.71527   0.72294   0.75634
     Eigenvalues ---    0.96536   0.97983   1.04626   1.39334   1.44637
     Eigenvalues ---    1.74837   2.35878   2.39057   2.41005   2.45784
     Eigenvalues ---    2.70035   2.88634   3.17584   3.40614   3.52340
     Eigenvalues ---    4.80197   5.01378   7.24169
 Quadratic step=7.240D-01 exceeds max=3.000D-01 adjusted using Lamda=-8.387D-02.
 Angle between NR and scaled steps=  31.35 degrees.
 Angle between quadratic step and forces=  60.90 degrees.
 Linear search not attempted -- first point.
 B after Tr=    -0.000017   -0.000494    0.000049
         Rot=    1.000000    0.000002    0.000001    0.000021 Ang=   0.00 deg.
 Variable       Old X    -DE/DX   Delta X   Delta X   Delta X     New X
                                 (Linear)    (Quad)   (Total)
    X1      -16.89037  -0.00180   0.00000   0.00072   0.00062 -16.88975
    Y1       -1.67350  -0.01368   0.00000  -0.02382  -0.02359  -1.69709
    Z1        2.10234  -0.00189   0.00000  -0.00267  -0.00265   2.09969
    X2      -16.88980  -0.00002   0.00000  -0.00349  -0.00347 -16.89327
    Y2        1.01725  -0.01479   0.00000  -0.08678  -0.08655   0.93069
    Z2        2.37172  -0.00111   0.00000  -0.00760  -0.00759   2.36413
    X3      -15.52210  -0.02462   0.00000  -0.02974  -0.02993 -15.55202
    Y3       -4.02445   0.00866   0.00000   0.02009   0.02025  -4.00420
    Z3        1.85342   0.00186   0.00000   0.00273   0.00276   1.85617
    X4      -13.18806  -0.02849   0.00000  -0.06889  -0.06913 -13.25720
    Y4       -5.36436   0.00517   0.00000   0.04121   0.04127  -5.32309
    Z4        1.69820  -0.00001   0.00000   0.00211   0.00216   1.70035
    X5      -18.28626   0.03848   0.00000   0.04364   0.04346 -18.24280
    Y5       -4.04337   0.02007   0.00000   0.02656   0.02683  -4.01654
    Z5        1.87782   0.00162   0.00000   0.00252   0.00254   1.88036
    X6      -20.58210  -0.00334   0.00000   0.05763   0.05738 -20.52472
    Y6       -5.36363   0.01185   0.00000   0.03138   0.03175  -5.33189
    Z6        1.76868   0.00099   0.00000   0.00296   0.00298   1.77167
    X7      -19.28271   0.08502   0.00000   0.05082   0.05089 -19.23181
    Y7        2.38594  -0.04876   0.00000  -0.08792  -0.08760   2.29834
    Z7        2.54111  -0.00607   0.00000  -0.00881  -0.00882   2.53229
    X8      -21.21185  -0.06250   0.00000   0.03166   0.03177 -21.18008
    Y8        3.30457   0.03232   0.00000  -0.01318  -0.01278   3.29179
    Z8        2.66595   0.00419   0.00000  -0.00285  -0.00286   2.66309
    X9      -14.49747  -0.12439   0.00000  -0.05882  -0.05874 -14.55621
    Y9        2.40634  -0.06830   0.00000  -0.09776  -0.09764   2.30871
    Z9        2.50790  -0.00694   0.00000  -0.00875  -0.00874   2.49916
   X10      -12.57313   0.10113   0.00000  -0.02245  -0.02233 -12.59546
   Y10        3.27523   0.04961   0.00000  -0.00422  -0.00418   3.27105
   Z10        2.60244   0.00518   0.00000  -0.00171  -0.00171   2.60073
   X11      -10.85879   0.06513   0.00000  -0.04546  -0.04565 -10.90444
   Y11       -4.03527   0.05219   0.00000   0.03569   0.03566  -3.99962
   Z11        1.79468   0.00398   0.00000   0.00299   0.00303   1.79771
   X12       -8.98962  -0.06870   0.00000  -0.07404  -0.07418  -9.06379
   Y12       -2.75143  -0.04994   0.00000  -0.05331  -0.05342  -2.80485
   Z12        1.88706  -0.00357   0.00000  -0.00225  -0.00221   1.88486
   X13      -13.18922  -0.00708   0.00000  -0.04994  -0.05030 -13.23952
   Y13       -8.06973  -0.00984   0.00000   0.05065   0.05072  -8.01901
   Z13        1.39823  -0.00107   0.00000   0.00463   0.00469   1.40291
   X14      -13.33882   0.00348   0.00000   0.00422   0.00378 -13.33504
   Y14      -10.26080   0.02306   0.00000   0.06157   0.06164 -10.19916
   Z14        1.14961   0.00263   0.00000   0.00844   0.00851   1.15812
   X15      -20.63102   0.01801   0.00000   0.05990   0.05954 -20.57148
   Y15       -8.05881  -0.07034   0.00000   0.02740   0.02777  -8.03104
   Z15        1.55510  -0.00545   0.00000   0.00270   0.00274   1.55784
   X16      -20.40552  -0.01150   0.00000  -0.01202  -0.01247 -20.41799
   Y16      -10.30399   0.07846   0.00000   0.08826   0.08863 -10.21536
   Z16        1.38616   0.00588   0.00000   0.00549   0.00554   1.39169
   X17      -22.97459   0.03465   0.00000   0.08170   0.08151 -22.89308
   Y17       -4.00798  -0.01147   0.00000   0.00985   0.01032  -3.99766
   Z17        1.87855  -0.00064   0.00000   0.00110   0.00112   1.87967
   X18      -24.76421  -0.01347   0.00000   0.03738   0.03724 -24.72697
   Y18       -2.76817   0.00572   0.00000  -0.02963  -0.02909  -2.79726
   Z18        1.97541   0.00041   0.00000  -0.00149  -0.00149   1.97392
         Item               Value     Threshold  Converged?
 Maximum Force            0.124389     0.000450     NO 
 RMS     Force            0.038385     0.000300     NO 
 Maximum Displacement     0.097635     0.001800     NO 
 RMS     Displacement     0.040834     0.001200     NO 
 Predicted change in Energy=-2.436097D-02
 GradGradGradGradGradGradGradGradGradGradGradGradGradGradGradGradGradGrad

 Unable to Open any file for archive entry.
 1\1\GINC-X10P1N4\Force\UwB97XD\def2SVP\C12N6(1-,2)\MAYUMIAO\11-Oct-202
 4\0\\# wb97xd def2svp scrf=(smd,solvent=acetonitrile) g09default scf=(
 xqc,maxcycle=64) force guess=read nosymm\\Title Card\\-1,2\C,-8.937998
 66,-0.88557664,1.11250953\C,-8.93769875,0.53830425,1.25506111\C,-8.213
 93926,-2.12964648,0.98078582\C,-6.97882145,-2.83869957,0.89864765\C,-9
 .67667206,-2.13966122,0.99369798\C,-10.8915771,-2.83831297,0.93594581\
 C,-10.20396974,1.26258375,1.34469748\N,-11.22482802,1.74870104,1.41075
 906\C,-7.67172873,1.27338085,1.32712295\N,-6.65341431,1.73317827,1.377
 15144\C,-5.74622639,-2.13537417,0.94970593\N,-4.75710023,-1.45599436,0
 .99859113\C,-6.97943556,-4.27031781,0.73990916\N,-7.05859953,-5.429783
 75,0.60834812\C,-10.91746732,-4.26453827,0.82292195\N,-10.79813652,-5.
 45263424,0.73352256\C,-12.15762752,-2.12093345,0.99408754\N,-13.104653
 82,-1.4648533,1.04533966\\Version=ES64L-G16RevC.01\HF=-784.832381\S2=0
 .791929\S2-1=0.\S2A=0.751402\RMSD=6.570e-09\RMSF=3.839e-02\Dipole=-0.1
 121001,0.208859,0.0201356\Quadrupole=-200.7627756,70.3939686,130.36880
 69,-57.8171934,32.8115688,1.4401301\PG=C01 [X(C12N6)]\\@
 The archive entry for this job was punched.


 REPARTEE - WHAT YOU THINK OF AFTER YOU BECOME A DEPARTEE.
 Job cpu time:       0 days  0 hours 14 minutes 40.2 seconds.
 Elapsed time:       0 days  0 hours  0 minutes 32.9 seconds.
 File lengths (MBytes):  RWF=    175 Int=      0 D2E=      0 Chk=      9 Scr=      1
 Normal termination of Gaussian 16 at Fri Oct 11 15:47:55 2024.
