 Entering Gaussian System, Link 0=g16
 Input=JOBS/23_B.gjf
 Output=JOBS/23_B.log
 Initial command:
 /data/app/gaussian/C01-avx2//g16/l1.exe "/tmp/Gau-2535636.inp" -scrdir="/tmp/"
 Entering Link 1 = /data/app/gaussian/C01-avx2//g16/l1.exe PID=   2535637.
  
 Copyright (c) 1988-2019, Gaussian, Inc.  All Rights Reserved.
  
 This is part of the Gaussian(R) 16 program.  It is based on
 the Gaussian(R) 09 system (copyright 2009, Gaussian, Inc.),
 the Gaussian(R) 03 system (copyright 2003, Gaussian, Inc.),
 the Gaussian(R) 98 system (copyright 1998, Gaussian, Inc.),
 the Gaussian(R) 94 system (copyright 1995, Gaussian, Inc.),
 the Gaussian 92(TM) system (copyright 1992, Gaussian, Inc.),
 the Gaussian 90(TM) system (copyright 1990, Gaussian, Inc.),
 the Gaussian 88(TM) system (copyright 1988, Gaussian, Inc.),
 the Gaussian 86(TM) system (copyright 1986, Carnegie Mellon
 University), and the Gaussian 82(TM) system (copyright 1983,
 Carnegie Mellon University). Gaussian is a federally registered
 trademark of Gaussian, Inc.
  
 This software contains proprietary and confidential information,
 including trade secrets, belonging to Gaussian, Inc.
  
 This software is provided under written license and may be
 used, copied, transmitted, or stored only in accord with that
 written license.
  
 The following legend is applicable only to US Government
 contracts under FAR:
  
                    RESTRICTED RIGHTS LEGEND
  
 Use, reproduction and disclosure by the US Government is
 subject to restrictions as set forth in subparagraphs (a)
 and (c) of the Commercial Computer Software - Restricted
 Rights clause in FAR 52.227-19.
  
 Gaussian, Inc.
 340 Quinnipiac St., Bldg. 40, Wallingford CT 06492
  
  
 ---------------------------------------------------------------
 Warning -- This program may not be used in any manner that
 competes with the business of Gaussian, Inc. or will provide
 assistance to any competitor of Gaussian, Inc.  The licensee
 of this program is prohibited from giving any competitor of
 Gaussian, Inc. access to this program.  By using this program,
 the user acknowledges that Gaussian, Inc. is engaged in the
 business of creating and licensing software in the field of
 computational chemistry and represents and warrants to the
 licensee that it is not a competitor of Gaussian, Inc. and that
 it will not use this program in any manner prohibited above.
 ---------------------------------------------------------------
  

 Cite this work as:
 Gaussian 16, Revision C.01,
 M. J. Frisch, G. W. Trucks, H. B. Schlegel, G. E. Scuseria, 
 M. A. Robb, J. R. Cheeseman, G. Scalmani, V. Barone, 
 G. A. Petersson, H. Nakatsuji, X. Li, M. Caricato, A. V. Marenich, 
 J. Bloino, B. G. Janesko, R. Gomperts, B. Mennucci, H. P. Hratchian, 
 J. V. Ortiz, A. F. Izmaylov, J. L. Sonnenberg, D. Williams-Young, 
 F. Ding, F. Lipparini, F. Egidi, J. Goings, B. Peng, A. Petrone, 
 T. Henderson, D. Ranasinghe, V. G. Zakrzewski, J. Gao, N. Rega, 
 G. Zheng, W. Liang, M. Hada, M. Ehara, K. Toyota, R. Fukuda, 
 J. Hasegawa, M. Ishida, T. Nakajima, Y. Honda, O. Kitao, H. Nakai, 
 T. Vreven, K. Throssell, J. A. Montgomery, Jr., J. E. Peralta, 
 F. Ogliaro, M. J. Bearpark, J. J. Heyd, E. N. Brothers, K. N. Kudin, 
 V. N. Staroverov, T. A. Keith, R. Kobayashi, J. Normand, 
 K. Raghavachari, A. P. Rendell, J. C. Burant, S. S. Iyengar, 
 J. Tomasi, M. Cossi, J. M. Millam, M. Klene, C. Adamo, R. Cammi, 
 J. W. Ochterski, R. L. Martin, K. Morokuma, O. Farkas, 
 J. B. Foresman, and D. J. Fox, Gaussian, Inc., Wallingford CT, 2019.
 
 ******************************************
 Gaussian 16:  ES64L-G16RevC.01  3-Jul-2019
                11-Oct-2024 
 ******************************************
 %chk=b.chk
 %nprocshared=28
 Will use up to   28 processors via shared memory.
 %mem=48gb
 ----------------------------------------------------------------------
 # wb97xd def2svp scrf=(smd,solvent=acetonitrile) g09default scf=(xqc,m
 axcycle=64) force guess=read nosymm
 ----------------------------------------------------------------------
 1/10=7,30=1,38=1,158=3,167=1/1,3;
 2/12=2,15=1,17=6,18=5,40=1/2;
 3/5=43,7=101,11=2,25=1,27=10,30=1,70=32201,71=1,72=2,74=-58,75=-4,116=-2,158=3/1,2,3;
 4/5=1,60=-1/1;
 5/5=2,7=64,8=3,13=1,38=6,53=2,87=10/2,8;
 6/7=2,8=2,9=2,10=2,28=1,87=10/1;
 7/29=1,30=1,87=10/1,2,3,16;
 1/10=7,30=1,158=3,167=1/3;
 99//99;
 Using 2006 physical constants.
 ----------
 Title Card
 ----------
 Symbolic Z-matrix:
 Charge = -1 Multiplicity = 2
 6                    -8.93757  -0.86443   1.11391 
 6                    -8.93717   0.52388   1.25366 
 6                    -8.19296  -2.14088   0.98177 
 6                    -6.99723  -2.8258    0.89968 
 6                    -9.68246  -2.14271   0.99304 
 6                    -10.89344  -2.84369   0.93536 
 6                    -10.21319   1.26071   1.34419 
 7                    -11.23376   1.75763   1.41281 
 6                    -7.67315   1.26965   1.32701 
 7                    -6.63547   1.74011   1.37871 
 6                    -5.73947  -2.12491   0.94999 
 7                    -4.74999  -1.45726   0.99763 
 6                    -6.98609  -4.29059   0.73728 
 7                    -7.05365  -5.42967   0.60606 
 6                    -10.912   -4.2654    0.82331 
 7                    -10.79536  -5.46542   0.7354 
 6                    -12.17463  -2.10029   0.996 
 7                    -13.1023  -1.47109   1.043 
 

 GradGradGradGradGradGradGradGradGradGradGradGradGradGradGradGradGradGrad
 Berny optimization.
 Initialization pass.
 Trust Radius=3.00D-01 FncErr=1.00D-07 GrdErr=1.00D-07 EigMax=2.50D+02 EigMin=1.00D-04
 Number of steps in this run=      2 maximum allowed number of steps=      2.
 GradGradGradGradGradGradGradGradGradGradGradGradGradGradGradGradGradGrad

                          Input orientation:                          
 ---------------------------------------------------------------------
 Center     Atomic      Atomic             Coordinates (Angstroms)
 Number     Number       Type             X           Y           Z
 ---------------------------------------------------------------------
      1          6           0       -8.937569   -0.864427    1.113915
      2          6           0       -8.937169    0.523877    1.253657
      3          6           0       -8.192964   -2.140879    0.981774
      4          6           0       -6.997230   -2.825801    0.899684
      5          6           0       -9.682459   -2.142707    0.993039
      6          6           0      -10.893435   -2.843695    0.935362
      7          6           0      -10.213194    1.260708    1.344187
      8          7           0      -11.233762    1.757629    1.412809
      9          6           0       -7.673149    1.269649    1.327007
     10          7           0       -6.635469    1.740108    1.378712
     11          6           0       -5.739473   -2.124913    0.949993
     12          7           0       -4.749986   -1.457260    0.997632
     13          6           0       -6.986094   -4.290594    0.737276
     14          7           0       -7.053649   -5.429670    0.606057
     15          6           0      -10.912002   -4.265399    0.823308
     16          7           0      -10.795364   -5.465422    0.735395
     17          6           0      -12.174627   -2.100295    0.996000
     18          7           0      -13.102300   -1.471088    1.042997
 ---------------------------------------------------------------------
                    Distance matrix (angstroms):
                    1          2          3          4          5
     1  C    0.000000
     2  C    1.395320   0.000000
     3  C    1.483653   2.780052   0.000000
     4  C    2.767272   3.887031   1.380448   0.000000
     5  C    1.484410   2.781016   1.489539   2.772325   0.000000
     6  C    2.788332   3.907535   2.790815   3.896410   1.400419
     7  C    2.489266   1.476264   3.972842   5.219154   3.462402
     8  N    3.498145   2.611860   4.962923   6.262534   4.218456
     9  C    2.489668   1.469457   3.467145   4.172791   3.974045
    10  N    3.486171   2.606278   4.200645   4.605200   4.950672
    11  C    3.441440   4.163360   2.453749   1.440739   3.943261
    12  N    4.230936   4.639284   3.510225   2.632984   4.979874
    13  C    3.960900   5.220390   2.477415   1.473811   3.456763
    14  N    4.964727   6.277878   3.500763   2.620980   4.226644
    15  C    3.943280   5.198301   3.454254   4.171777   2.458944
    16  N    4.976328   6.292312   4.229158   4.628220   3.513598
    17  C    3.466961   4.175380   3.981895   5.228869   2.492531
    18  N    4.209282   4.623048   4.955194   6.255211   3.485524
                    6          7          8          9         10
     6  C    0.000000
     7  C    4.180430   0.000000
     8  N    4.638530   1.137189   0.000000
     9  C    5.238628   2.540119   3.594920   0.000000
    10  N    6.272008   3.609867   4.598454   1.140520   0.000000
    11  C    5.203863   5.624234   6.743556   3.924830   3.990613
    12  N    6.298257   6.111799   7.248947   4.011160   3.731411
    13  C    4.171339   6.449765   7.421592   5.633482   6.074845
    14  N    4.641084   7.435639   8.353529   6.766419   7.223406
    15  C    1.426234   5.594418   6.060355   6.432779   7.393466
    16  N    2.631171   6.778671   7.267981   7.447108   8.344954
    17  C    1.482489   3.907019   3.992810   5.632884   6.751106
    18  N    2.602829   3.987525   3.748707   6.088348   7.228028
                   11         12         13         14         15
    11  C    0.000000
    12  N    1.194619   0.000000
    13  C    2.507885   3.618805   0.000000
    14  N    3.573062   4.608713   1.148598   0.000000
    15  C    5.599357   6.773956   3.926931   4.036039   0.000000
    16  N    6.063588   7.258149   3.986322   3.744120   1.208879
    17  C    6.435366   7.452435   5.637838   6.120556   2.512314
    18  N    7.392385   8.352448   6.741739   7.242062   3.557224
                   16         17         18
    16  N    0.000000
    17  C    3.646144   0.000000
    18  N    4.622908   1.121912   0.000000
 Symmetry turned off by external request.
 Stoichiometry    C12N6(1-,2)
 Framework group  C1[X(C12N6)]
 Deg. of freedom    48
 Full point group                 C1      NOp   1
 Rotational constants (GHZ):           0.4152040           0.4142962           0.2073998
 Standard basis: def2SVP (5D, 7F)
   252 basis functions,   450 primitive gaussians,   270 cartesian basis functions
    58 alpha electrons       57 beta electrons
       nuclear repulsion energy       948.5355507903 Hartrees.
 NAtoms=   18 NActive=   18 NUniq=   18 SFac= 1.00D+00 NAtFMM=   60 NAOKFM=F Big=F
 Integral buffers will be    131072 words long.
 Raffenetti 2 integral format.
 Two-electron integral symmetry is turned off.
 Nuclear repulsion after empirical dispersion term =      948.5242477028 Hartrees.
 Force PCM accuracy= 1.00D-10.
 ------------------------------------------------------------------------------
 Polarizable Continuum Model (PCM)
 =================================
 Model                : PCM (using non-symmetric T matrix).
 Atomic radii         : SMD-Coulomb.
 Polarization charges : Total charges.
 Charge compensation  : None.
 Solution method      : On-the-fly selection.
 Cavity type          : VdW (van der Waals Surface) (Alpha=1.000).
 Cavity algorithm     : GePol (No added spheres)
                        Default sphere list used, NSphG=   18.
                        Lebedev-Laikov grids with approx.  5.0 points / Ang**2.
                        Smoothing algorithm: York/Karplus (Gamma=1.0000).
                        Polarization charges: spherical gaussians, with
                                              point-specific exponents (IZeta= 3).
                        Self-potential: point-specific (ISelfS= 7).
                        Self-field    : sphere-specific E.n sum rule (ISelfD= 2).
 1st derivatives      : Analytical E(r).r(x)/FMM algorithm (CHGder, D1EAlg=3).
                        Cavity 1st derivative terms included.
 Solvent              : Acetonitrile, Eps=  35.688000 Eps(inf)=   1.806874
 ------------------------------------------------------------------------------
 Spheres list:
 ISph  on   Nord     Re0    Alpha      Xe            Ye            Ze
    1   C      1    1.8500  1.000     -8.937569     -0.864427      1.113915
    2   C      2    1.8500  1.000     -8.937169      0.523877      1.253657
    3   C      3    1.8500  1.000     -8.192964     -2.140879      0.981774
    4   C      4    1.8500  1.000     -6.997230     -2.825801      0.899684
    5   C      5    1.8500  1.000     -9.682459     -2.142707      0.993039
    6   C      6    1.8500  1.000    -10.893435     -2.843695      0.935362
    7   C      7    1.8500  1.000    -10.213194      1.260708      1.344187
    8   N      8    1.8900  1.000    -11.233762      1.757629      1.412809
    9   C      9    1.8500  1.000     -7.673149      1.269649      1.327007
   10   N     10    1.8900  1.000     -6.635469      1.740108      1.378712
   11   C     11    1.8500  1.000     -5.739473     -2.124913      0.949993
   12   N     12    1.8900  1.000     -4.749986     -1.457260      0.997632
   13   C     13    1.8500  1.000     -6.986094     -4.290594      0.737276
   14   N     14    1.8900  1.000     -7.053649     -5.429670      0.606057
   15   C     15    1.8500  1.000    -10.912002     -4.265399      0.823308
   16   N     16    1.8900  1.000    -10.795364     -5.465422      0.735395
   17   C     17    1.8500  1.000    -12.174627     -2.100295      0.996000
   18   N     18    1.8900  1.000    -13.102300     -1.471088      1.042997
 ------------------------------------------------------------------------------
 ------------------------------------------------------------------------------
 Atomic radii for non-electrostatic terms: SMD-CDS.
 ------------------------------------------------------------------------------
 Nuclear repulsion after PCM non-electrostatic terms =      948.5329748418 Hartrees.
 One-electron integrals computed using PRISM.
   1 Symmetry operations used in ECPInt.
 ECPInt:  NShTT=    5886 NPrTT=   23670 LenC2=    5383 LenP2D=   14825.
 LDataN:  DoStor=T MaxTD1= 4 Len=   56
 NBasis=   252 RedAO= T EigKep=  3.16D-04  NBF=   252
 NBsUse=   252 1.00D-06 EigRej= -1.00D+00 NBFU=   252
 Initial guess from the checkpoint file:  "b.chk"
 B after Tr=     0.000171    0.000442   -0.001429
         Rot=    1.000000   -0.000019   -0.000046   -0.000013 Ang=  -0.01 deg.
 Initial guess <Sx>= 0.0000 <Sy>= 0.0000 <Sz>= 0.5000 <S**2>= 0.7916 S= 0.5206
 Requested convergence on RMS density matrix=1.00D-08 within  64 cycles.
 Requested convergence on MAX density matrix=1.00D-06.
 Requested convergence on             energy=1.00D-06.
 No special actions if energy rises.
 Inv3:  Mode=1 IEnd=    19599408.
 Iteration    1 A*A^-1 deviation from unit magnitude is 3.33D-15 for    600.
 Iteration    1 A*A^-1 deviation from orthogonality  is 2.95D-15 for   1890    234.
 Iteration    1 A^-1*A deviation from unit magnitude is 3.89D-15 for    963.
 Iteration    1 A^-1*A deviation from orthogonality  is 8.09D-12 for   1895    699.
 Error on total polarization charges =  0.02021
 SCF Done:  E(UwB97XD) =  -784.825259686     A.U. after   19 cycles
            NFock= 19  Conv=0.82D-08     -V/T= 2.0107
 <Sx>= 0.0000 <Sy>= 0.0000 <Sz>= 0.5000 <S**2>= 0.7882 S= 0.5189
 <L.S>=  0.00000000000    
 SMD-CDS (non-electrostatic) energy       (kcal/mol) =       5.48
 (included in total energy above)
 Annihilation of the first spin contaminant:
 S**2 before annihilation     0.7882,   after     0.7512
 QCSCF skips out because SCF is already converged.

 **********************************************************************

            Population analysis using the SCF Density.

 **********************************************************************

 Alpha  occ. eigenvalues --  -14.47036 -14.46820 -14.45899 -14.45686 -14.45599
 Alpha  occ. eigenvalues --  -14.45257 -10.39451 -10.39394 -10.39334 -10.39304
 Alpha  occ. eigenvalues --  -10.39084 -10.38989 -10.37244 -10.37085 -10.36291
 Alpha  occ. eigenvalues --  -10.36065 -10.36013 -10.35690  -1.03215  -1.02660
 Alpha  occ. eigenvalues --   -1.02194  -1.01733  -1.01018  -1.00023  -0.99430
 Alpha  occ. eigenvalues --   -0.91525  -0.91244  -0.88242  -0.71654  -0.71175
 Alpha  occ. eigenvalues --   -0.68009  -0.67804  -0.67146  -0.66514  -0.53942
 Alpha  occ. eigenvalues --   -0.50491  -0.50415  -0.48919  -0.48868  -0.47773
 Alpha  occ. eigenvalues --   -0.47620  -0.47546  -0.47052  -0.46591  -0.46570
 Alpha  occ. eigenvalues --   -0.45804  -0.45661  -0.45456  -0.44805  -0.44736
 Alpha  occ. eigenvalues --   -0.44483  -0.44390  -0.43672  -0.42620  -0.42334
 Alpha  occ. eigenvalues --   -0.35897  -0.35686  -0.27211
 Alpha virt. eigenvalues --    0.03495   0.04029   0.06018   0.06375   0.07642
 Alpha virt. eigenvalues --    0.08654   0.09953   0.10330   0.11288   0.11554
 Alpha virt. eigenvalues --    0.11885   0.14030   0.18352   0.18603   0.19972
 Alpha virt. eigenvalues --    0.22409   0.23617   0.23862   0.25425   0.25768
 Alpha virt. eigenvalues --    0.27377   0.28320   0.28583   0.30884   0.31156
 Alpha virt. eigenvalues --    0.31550   0.33514   0.45153   0.45569   0.49621
 Alpha virt. eigenvalues --    0.49932   0.50885   0.51039   0.52956   0.53236
 Alpha virt. eigenvalues --    0.53324   0.53745   0.54268   0.55728   0.59907
 Alpha virt. eigenvalues --    0.60082   0.60233   0.60710   0.61081   0.63254
 Alpha virt. eigenvalues --    0.63412   0.68015   0.68751   0.68877   0.69635
 Alpha virt. eigenvalues --    0.69929   0.71908   0.72037   0.72337   0.72800
 Alpha virt. eigenvalues --    0.72916   0.72985   0.73902   0.74090   0.74472
 Alpha virt. eigenvalues --    0.77514   0.77680   0.78322   0.80529   0.80600
 Alpha virt. eigenvalues --    0.82656   0.83307   0.85276   0.86352   0.91764
 Alpha virt. eigenvalues --    0.92199   0.92572   0.93032   0.93385   0.93930
 Alpha virt. eigenvalues --    0.95006   0.97670   0.98067   0.98165   0.98319
 Alpha virt. eigenvalues --    0.99992   1.00352   1.00727   1.00932   1.01797
 Alpha virt. eigenvalues --    1.03214   1.03808   1.05460   1.07329   1.10125
 Alpha virt. eigenvalues --    1.11246   1.14286   1.16151   1.16847   1.17491
 Alpha virt. eigenvalues --    1.20640   1.21679   1.21940   1.23753   1.31609
 Alpha virt. eigenvalues --    1.32215   1.32594   1.38375   1.38990   1.41568
 Alpha virt. eigenvalues --    1.43148   1.43842   1.44308   1.44830   1.54940
 Alpha virt. eigenvalues --    1.56929   1.66317   1.67684   1.67995   1.68215
 Alpha virt. eigenvalues --    1.68758   1.69174   1.73439   1.73579   1.75884
 Alpha virt. eigenvalues --    1.76175   1.77001   1.77404   1.77930   1.78686
 Alpha virt. eigenvalues --    1.79466   1.79698   1.83192   1.90341   1.91404
 Alpha virt. eigenvalues --    1.93177   1.96211   1.96543   1.97947   1.99822
 Alpha virt. eigenvalues --    2.01257   2.01915   2.02444   2.08307   2.08769
 Alpha virt. eigenvalues --    2.10092   2.17053   2.17324   2.18578   2.22195
 Alpha virt. eigenvalues --    2.23577   2.23787   2.24201   2.29780   2.30944
 Alpha virt. eigenvalues --    2.31784   2.32460   2.32981   2.33613   2.34053
 Alpha virt. eigenvalues --    2.34562   2.35187   2.35234   2.35662   2.35953
 Alpha virt. eigenvalues --    2.36702   2.37275   2.51287   2.52627   2.52682
 Alpha virt. eigenvalues --    2.62377   2.63310   2.85395   2.90819   2.91729
 Alpha virt. eigenvalues --    2.93722   2.95661   2.96123   2.99394   2.99499
 Alpha virt. eigenvalues --    3.01039   3.04058   3.04732   3.05001   3.07578
 Alpha virt. eigenvalues --    3.09805   3.10269   3.16299   3.17070   3.25829
 Alpha virt. eigenvalues --    3.34416   3.35378   3.35887   3.47893   3.48267
 Alpha virt. eigenvalues --    3.53842   3.60397   3.62724   3.71039
  Beta  occ. eigenvalues --  -14.46795 -14.46615 -14.45754 -14.45529 -14.45449
  Beta  occ. eigenvalues --  -14.45128 -10.39478 -10.39433 -10.39364 -10.38932
  Beta  occ. eigenvalues --  -10.38725 -10.38646 -10.37359 -10.37185 -10.36366
  Beta  occ. eigenvalues --  -10.36146 -10.36091 -10.35759  -1.02909  -1.02393
  Beta  occ. eigenvalues --   -1.01909  -1.01471  -1.00691  -0.99671  -0.99033
  Beta  occ. eigenvalues --   -0.90785  -0.90457  -0.87222  -0.71507  -0.71026
  Beta  occ. eigenvalues --   -0.67780  -0.67572  -0.66881  -0.66327  -0.52986
  Beta  occ. eigenvalues --   -0.49254  -0.49191  -0.48749  -0.48676  -0.47427
  Beta  occ. eigenvalues --   -0.47282  -0.47244  -0.46752  -0.46424  -0.46380
  Beta  occ. eigenvalues --   -0.45551  -0.44906  -0.44742  -0.44605  -0.44256
  Beta  occ. eigenvalues --   -0.43946  -0.43562  -0.43535  -0.42478  -0.42174
  Beta  occ. eigenvalues --   -0.33246  -0.32939
  Beta virt. eigenvalues --   -0.09688   0.04508   0.04983   0.06125   0.06476
  Beta virt. eigenvalues --    0.07718   0.08644   0.10858   0.11226   0.11606
  Beta virt. eigenvalues --    0.11924   0.12084   0.14338   0.18653   0.18895
  Beta virt. eigenvalues --    0.21490   0.22308   0.25200   0.25485   0.25641
  Beta virt. eigenvalues --    0.25966   0.27630   0.28447   0.28706   0.31354
  Beta virt. eigenvalues --    0.31602   0.32150   0.33644   0.45327   0.45727
  Beta virt. eigenvalues --    0.49720   0.50004   0.50983   0.51138   0.53113
  Beta virt. eigenvalues --    0.53205   0.53297   0.53879   0.54365   0.55871
  Beta virt. eigenvalues --    0.59828   0.59982   0.60103   0.60759   0.61139
  Beta virt. eigenvalues --    0.63274   0.63373   0.68370   0.68885   0.69028
  Beta virt. eigenvalues --    0.69806   0.70094   0.72045   0.72086   0.72428
  Beta virt. eigenvalues --    0.72977   0.73114   0.73132   0.74015   0.74204
  Beta virt. eigenvalues --    0.74575   0.77512   0.77684   0.79313   0.81273
  Beta virt. eigenvalues --    0.81338   0.82798   0.83433   0.85565   0.86449
  Beta virt. eigenvalues --    0.91916   0.92347   0.93190   0.93555   0.93619
  Beta virt. eigenvalues --    0.94501   0.95608   0.98251   0.98408   0.98477
  Beta virt. eigenvalues --    0.98687   1.00217   1.00527   1.00820   1.01034
  Beta virt. eigenvalues --    1.01987   1.03381   1.04065   1.05621   1.07615
  Beta virt. eigenvalues --    1.10241   1.11358   1.14481   1.16362   1.17117
  Beta virt. eigenvalues --    1.17732   1.20977   1.21944   1.22206   1.24342
  Beta virt. eigenvalues --    1.31754   1.32398   1.32774   1.38989   1.39598
  Beta virt. eigenvalues --    1.42319   1.43234   1.44538   1.44848   1.45165
  Beta virt. eigenvalues --    1.55009   1.56935   1.66173   1.67531   1.67824
  Beta virt. eigenvalues --    1.68046   1.68513   1.68897   1.73366   1.73498
  Beta virt. eigenvalues --    1.76025   1.76318   1.76919   1.77334   1.77817
  Beta virt. eigenvalues --    1.78596   1.79522   1.79678   1.83062   1.90584
  Beta virt. eigenvalues --    1.91470   1.93219   1.96751   1.97085   1.98101
  Beta virt. eigenvalues --    2.00251   2.01568   2.02103   2.02935   2.08684
  Beta virt. eigenvalues --    2.09125   2.10365   2.18014   2.18304   2.19724
  Beta virt. eigenvalues --    2.22963   2.24213   2.24421   2.24832   2.30369
  Beta virt. eigenvalues --    2.31466   2.32598   2.33205   2.33631   2.34272
  Beta virt. eigenvalues --    2.34606   2.35109   2.35705   2.35775   2.36147
  Beta virt. eigenvalues --    2.36495   2.37243   2.37770   2.51651   2.52769
  Beta virt. eigenvalues --    2.52794   2.62900   2.63821   2.85512   2.90976
  Beta virt. eigenvalues --    2.91885   2.93839   2.95804   2.96255   2.99505
  Beta virt. eigenvalues --    3.00032   3.01572   3.04244   3.05157   3.05206
  Beta virt. eigenvalues --    3.08005   3.10226   3.10689   3.16531   3.17300
  Beta virt. eigenvalues --    3.25996   3.34613   3.35583   3.36090   3.48072
  Beta virt. eigenvalues --    3.48466   3.54017   3.60574   3.62902   3.71211
          Condensed to atoms (all electrons):
               1          2          3          4          5          6
     1  C    4.892877   0.548527   0.276036  -0.084584   0.286812  -0.077020
     2  C    0.548527   5.273949  -0.078966  -0.006209  -0.078347  -0.005423
     3  C    0.276036  -0.078966   4.874884   0.549468   0.284085  -0.074847
     4  C   -0.084584  -0.006209   0.549468   5.296532  -0.083710  -0.005883
     5  C    0.286812  -0.078347   0.284085  -0.083710   4.888909   0.542502
     6  C   -0.077020  -0.005423  -0.074847  -0.005883   0.542502   5.275158
     7  C    0.000076   0.383577   0.004737  -0.000188  -0.012241   0.000750
     8  N   -0.000890  -0.024919   0.000003  -0.000001  -0.000319   0.000065
     9  C   -0.000663   0.385766  -0.012500   0.000758   0.005170  -0.000147
    10  N   -0.000927  -0.026404  -0.000321   0.000064   0.000020  -0.000000
    11  C   -0.014203   0.000915   0.003165   0.388960   0.005287  -0.000207
    12  N   -0.000295   0.000070  -0.000870  -0.029576   0.000009  -0.000000
    13  C    0.004847  -0.000188   0.000586   0.376422  -0.012547   0.000859
    14  N   -0.000002  -0.000001  -0.001143  -0.025407  -0.000280   0.000066
    15  C    0.005746  -0.000190  -0.014671   0.000789   0.002487   0.393972
    16  N    0.000028  -0.000000  -0.000314   0.000075  -0.000609  -0.032682
    17  C   -0.012441   0.000810   0.004918  -0.000172  -0.002120   0.374335
    18  N   -0.000332   0.000057   0.000012  -0.000000  -0.001057  -0.024581
               7          8          9         10         11         12
     1  C    0.000076  -0.000890  -0.000663  -0.000927  -0.014203  -0.000295
     2  C    0.383577  -0.024919   0.385766  -0.026404   0.000915   0.000070
     3  C    0.004737   0.000003  -0.012500  -0.000321   0.003165  -0.000870
     4  C   -0.000188  -0.000001   0.000758   0.000064   0.388960  -0.029576
     5  C   -0.012241  -0.000319   0.005170   0.000020   0.005287   0.000009
     6  C    0.000750   0.000065  -0.000147  -0.000000  -0.000207  -0.000000
     7  C    4.787991   0.939430  -0.024802   0.001141   0.000033   0.000001
     8  N    0.939430   6.070083   0.001050   0.000023   0.000000   0.000000
     9  C   -0.024802   0.001050   4.786948   0.935211   0.000408   0.000408
    10  N    0.001141   0.000023   0.935211   6.075389   0.000175  -0.000687
    11  C    0.000033   0.000000   0.000408   0.000175   4.813681   0.874760
    12  N    0.000001   0.000000   0.000408  -0.000687   0.874760   6.191274
    13  C   -0.000002  -0.000000   0.000028   0.000001  -0.025266   0.001377
    14  N   -0.000000  -0.000000   0.000000   0.000000   0.001329   0.000029
    15  C    0.000036   0.000001  -0.000002  -0.000000   0.000042   0.000000
    16  N    0.000000   0.000000   0.000000   0.000000   0.000001   0.000000
    17  C    0.000559   0.000368   0.000026   0.000000  -0.000002  -0.000000
    18  N    0.000287  -0.000720   0.000001   0.000000  -0.000000   0.000000
              13         14         15         16         17         18
     1  C    0.004847  -0.000002   0.005746   0.000028  -0.012441  -0.000332
     2  C   -0.000188  -0.000001  -0.000190  -0.000000   0.000810   0.000057
     3  C    0.000586  -0.001143  -0.014671  -0.000314   0.004918   0.000012
     4  C    0.376422  -0.025407   0.000789   0.000075  -0.000172  -0.000000
     5  C   -0.012547  -0.000280   0.002487  -0.000609  -0.002120  -0.001057
     6  C    0.000859   0.000066   0.393972  -0.032682   0.374335  -0.024581
     7  C   -0.000002  -0.000000   0.000036   0.000000   0.000559   0.000287
     8  N   -0.000000  -0.000000   0.000001   0.000000   0.000368  -0.000720
     9  C    0.000028   0.000000  -0.000002   0.000000   0.000026   0.000001
    10  N    0.000001   0.000000  -0.000000   0.000000   0.000000   0.000000
    11  C   -0.025266   0.001329   0.000042   0.000001  -0.000002  -0.000000
    12  N    0.001377   0.000029   0.000000   0.000000  -0.000000   0.000000
    13  C    4.798534   0.929666   0.000419   0.000662   0.000026   0.000000
    14  N    0.929666   6.083897  -0.000061  -0.000693   0.000000   0.000000
    15  C    0.000419  -0.000061   4.813593   0.855870  -0.023927   0.001230
    16  N    0.000662  -0.000693   0.855870   6.232728   0.001330   0.000025
    17  C    0.000026   0.000000  -0.023927   0.001330   4.781725   0.958616
    18  N    0.000000   0.000000   0.001230   0.000025   0.958616   6.036169
          Atomic-Atomic Spin Densities.
               1          2          3          4          5          6
     1  C   -0.040305  -0.069706   0.033476  -0.005714   0.035624  -0.005290
     2  C   -0.069706   0.405002  -0.005878   0.000873  -0.005982   0.000836
     3  C    0.033476  -0.005878  -0.024533  -0.070850   0.034985  -0.005761
     4  C   -0.005714   0.000873  -0.070850   0.374452  -0.006013   0.000842
     5  C    0.035624  -0.005982   0.034985  -0.006013  -0.023394  -0.072889
     6  C   -0.005290   0.000836  -0.005761   0.000842  -0.072889   0.387067
     7  C   -0.000164   0.005059  -0.000108  -0.000007   0.000216  -0.000030
     8  N    0.000450  -0.004713   0.000006  -0.000000   0.000040  -0.000024
     9  C   -0.000192   0.005180   0.000202  -0.000033  -0.000108  -0.000007
    10  N    0.000489  -0.004878   0.000039  -0.000027   0.000007  -0.000000
    11  C    0.000217  -0.000034   0.000444   0.008040  -0.000117  -0.000008
    12  N    0.000039  -0.000026   0.000555  -0.004989   0.000008  -0.000000
    13  C   -0.000103  -0.000008   0.000098   0.004826   0.000175  -0.000025
    14  N    0.000005  -0.000000   0.000448  -0.004453   0.000036  -0.000022
    15  C   -0.000118  -0.000008   0.000221  -0.000045   0.000846   0.009573
    16  N    0.000008  -0.000000   0.000043  -0.000028   0.000639  -0.005489
    17  C    0.000172  -0.000025  -0.000078  -0.000007   0.000163   0.003866
    18  N    0.000033  -0.000024   0.000006  -0.000000   0.000442  -0.004501
               7          8          9         10         11         12
     1  C   -0.000164   0.000450  -0.000192   0.000489   0.000217   0.000039
     2  C    0.005059  -0.004713   0.005180  -0.004878  -0.000034  -0.000026
     3  C   -0.000108   0.000006   0.000202   0.000039   0.000444   0.000555
     4  C   -0.000007  -0.000000  -0.000033  -0.000027   0.008040  -0.004989
     5  C    0.000216   0.000040  -0.000108   0.000007  -0.000117   0.000008
     6  C   -0.000030  -0.000024  -0.000007  -0.000000  -0.000008  -0.000000
     7  C   -0.063636  -0.001401  -0.001365   0.000029  -0.000001   0.000000
     8  N   -0.001401   0.092877   0.000042   0.000005  -0.000000   0.000000
     9  C   -0.001365   0.000042  -0.065568  -0.001598   0.000001   0.000009
    10  N    0.000029   0.000005  -0.001598   0.097009   0.000010   0.000041
    11  C   -0.000001  -0.000000   0.000001   0.000010  -0.082115  -0.003434
    12  N    0.000000   0.000000   0.000009   0.000041  -0.003434   0.127257
    13  C    0.000000  -0.000000  -0.000001   0.000000  -0.001129   0.000064
    14  N   -0.000000   0.000000  -0.000000   0.000000   0.000071   0.000006
    15  C   -0.000001   0.000000   0.000000  -0.000000  -0.000002  -0.000000
    16  N   -0.000000   0.000000  -0.000000   0.000000   0.000000   0.000000
    17  C   -0.000001   0.000008  -0.000001  -0.000000  -0.000000  -0.000000
    18  N    0.000008   0.000032   0.000000   0.000000  -0.000000   0.000000
              13         14         15         16         17         18
     1  C   -0.000103   0.000005  -0.000118   0.000008   0.000172   0.000033
     2  C   -0.000008  -0.000000  -0.000008  -0.000000  -0.000025  -0.000024
     3  C    0.000098   0.000448   0.000221   0.000043  -0.000078   0.000006
     4  C    0.004826  -0.004453  -0.000045  -0.000028  -0.000007  -0.000000
     5  C    0.000175   0.000036   0.000846   0.000639   0.000163   0.000442
     6  C   -0.000025  -0.000022   0.009573  -0.005489   0.003866  -0.004501
     7  C    0.000000  -0.000000  -0.000001  -0.000000  -0.000001   0.000008
     8  N   -0.000000   0.000000   0.000000   0.000000   0.000008   0.000032
     9  C   -0.000001  -0.000000   0.000000  -0.000000  -0.000001   0.000000
    10  N    0.000000   0.000000  -0.000000   0.000000  -0.000000   0.000000
    11  C   -0.001129   0.000071  -0.000002   0.000000  -0.000000  -0.000000
    12  N    0.000064   0.000006  -0.000000   0.000000  -0.000000   0.000000
    13  C   -0.061105  -0.001477  -0.000001   0.000009  -0.000001  -0.000000
    14  N   -0.001477   0.089597   0.000012   0.000039   0.000000   0.000000
    15  C   -0.000001   0.000012  -0.094698  -0.004517  -0.001288   0.000064
    16  N    0.000009   0.000039  -0.004517   0.149842   0.000053   0.000006
    17  C   -0.000001   0.000000  -0.001288   0.000053  -0.055872  -0.000817
    18  N   -0.000000   0.000000   0.000064   0.000006  -0.000817   0.079677
 Mulliken charges and spin densities:
               1          2
     1  C    0.176410  -0.051077
     2  C   -0.373025   0.325670
     3  C    0.185739  -0.036684
     4  C   -0.377340   0.296867
     5  C    0.175949  -0.035321
     6  C   -0.366914   0.308138
     7  C   -0.081384  -0.061402
     8  N    0.015827   0.087322
     9  C   -0.077659  -0.063440
    10  N    0.016317   0.091128
    11  C   -0.049079  -0.078056
    12  N   -0.036498   0.119529
    13  C   -0.075425  -0.058675
    14  N    0.012598   0.084263
    15  C   -0.035336  -0.089962
    16  N   -0.056421   0.140604
    17  C   -0.084052  -0.053828
    18  N    0.030293   0.074926
 Sum of Mulliken charges =  -1.00000   1.00000
 Mulliken charges and spin densities with hydrogens summed into heavy atoms:
               1          2
     1  C    0.176410  -0.051077
     2  C   -0.373025   0.325670
     3  C    0.185739  -0.036684
     4  C   -0.377340   0.296867
     5  C    0.175949  -0.035321
     6  C   -0.366914   0.308138
     7  C   -0.081384  -0.061402
     8  N    0.015827   0.087322
     9  C   -0.077659  -0.063440
    10  N    0.016317   0.091128
    11  C   -0.049079  -0.078056
    12  N   -0.036498   0.119529
    13  C   -0.075425  -0.058675
    14  N    0.012598   0.084263
    15  C   -0.035336  -0.089962
    16  N   -0.056421   0.140604
    17  C   -0.084052  -0.053828
    18  N    0.030293   0.074926
 Electronic spatial extent (au):  <R**2>=          39132.7809
 Charge=             -1.0000 electrons
 Dipole moment (field-independent basis, Debye):
    X=             42.6666    Y=              8.6397    Z=             -4.9106  Tot=             43.8087
 Quadrupole moment (field-independent basis, Debye-Ang):
   XX=           -549.6062   YY=           -185.2506   ZZ=           -104.8986
   XY=            -77.1734   XZ=             44.2539   YZ=              1.8180
 Traceless Quadrupole moment (field-independent basis, Debye-Ang):
   XX=           -269.6878   YY=             94.6679   ZZ=            175.0199
   XY=            -77.1734   XZ=             44.2539   YZ=              1.8180
 Octapole moment (field-independent basis, Debye-Ang**2):
  XXX=           7933.9410  YYY=            986.2966  ZZZ=           -313.2797  XYY=           1658.2356
  XXY=            905.9010  XXZ=           -580.4182  XZZ=            938.0557  YZZ=            167.3121
  YYZ=           -159.8498  XYZ=            -17.7921
 Hexadecapole moment (field-independent basis, Debye-Ang**3):
 XXXX=        -115860.9367 YYYY=          -8005.5060 ZZZZ=           -769.9133 XXXY=         -11953.4210
 XXXZ=           8478.9663 YYYX=          -8833.1458 YYYZ=            644.9805 ZZZX=           2815.4803
 ZZZY=            364.3518 XXYY=         -16554.9332 XXZZ=          -9142.2128 YYZZ=           -994.8281
 XXYZ=            314.0040 YYXZ=           1447.9225 ZZXY=          -1497.6273
 N-N= 9.485329748418D+02 E-N=-3.731968478414D+03  KE= 7.764965488038D+02
                          Isotropic Fermi Contact Couplings
        Atom                 a.u.       MegaHertz       Gauss      10(-4) cm-1
     1  C(13)             -0.01927     -21.65777      -7.72803      -7.22425
     2  C(13)              0.05734      64.46492      23.00269      21.50318
     3  C(13)             -0.01579     -17.74717      -6.33263      -5.91982
     4  C(13)              0.05108      57.42924      20.49218      19.15633
     5  C(13)             -0.01616     -18.16239      -6.48079      -6.05832
     6  C(13)              0.05373      60.40612      21.55440      20.14931
     7  C(13)             -0.03148     -35.39144     -12.62855     -11.80532
     8  N(14)              0.01975       6.38247       2.27742       2.12896
     9  C(13)             -0.03189     -35.85006     -12.79219     -11.95829
    10  N(14)              0.02070       6.68901       2.38681       2.23121
    11  C(13)             -0.03453     -38.81319     -13.84951     -12.94669
    12  N(14)              0.02833       9.15328       3.26612       3.05321
    13  C(13)             -0.02991     -33.62042     -11.99660     -11.21456
    14  N(14)              0.01925       6.21837       2.21887       2.07422
    15  C(13)             -0.03804     -42.76086     -15.25814     -14.26349
    16  N(14)              0.03361      10.86096       3.87546       3.62283
    17  C(13)             -0.02933     -32.96924     -11.76425     -10.99736
    18  N(14)              0.01665       5.37856       1.91920       1.79409
 --------------------------------------------------------
       Center         ----  Spin Dipole Couplings  ----
                      3XX-RR        3YY-RR        3ZZ-RR
 --------------------------------------------------------
     1   Atom       -0.000171      0.027076     -0.026906
     2   Atom       -0.169862     -0.167354      0.337216
     3   Atom        0.014830      0.001890     -0.016720
     4   Atom       -0.156682     -0.149762      0.306443
     5   Atom        0.012652      0.000607     -0.013259
     6   Atom       -0.162912     -0.159143      0.322055
     7   Atom        0.030356      0.005983     -0.036339
     8   Atom       -0.090338     -0.070767      0.161105
     9   Atom        0.031743      0.005988     -0.037731
    10   Atom       -0.094958     -0.072792      0.167750
    11   Atom        0.036562      0.012051     -0.048613
    12   Atom       -0.115946     -0.096922      0.212868
    13   Atom       -0.001914      0.036782     -0.034868
    14   Atom       -0.065063     -0.088612      0.153674
    15   Atom       -0.004035      0.059776     -0.055741
    16   Atom       -0.099669     -0.149822      0.249492
    17   Atom        0.023432      0.008121     -0.031554
    18   Atom       -0.074976     -0.065944      0.140920
 --------------------------------------------------------
                        XY            XZ            YZ
 --------------------------------------------------------
     1   Atom        0.000236     -0.002072      0.004677
     2   Atom       -0.000462      0.003705     -0.053290
     3   Atom       -0.010976      0.000080      0.002454
     4   Atom        0.000450      0.006934     -0.049203
     5   Atom        0.010664      0.000682      0.001762
     6   Atom       -0.001234      0.000256     -0.039393
     7   Atom       -0.017111     -0.002484      0.004606
     8   Atom        0.009966      0.005678     -0.025368
     9   Atom        0.017711      0.001705      0.004737
    10   Atom       -0.010496     -0.001518     -0.026728
    11   Atom        0.024884      0.000968      0.005896
    12   Atom       -0.020773      0.005139     -0.031420
    13   Atom        0.001502     -0.000177      0.007946
    14   Atom       -0.001935      0.002109     -0.029298
    15   Atom       -0.003243     -0.000054      0.009047
    16   Atom        0.005091     -0.000694     -0.028621
    17   Atom       -0.016355     -0.001387      0.003187
    18   Atom        0.010476      0.000127     -0.015660
 --------------------------------------------------------


 ---------------------------------------------------------------------------------
              Anisotropic Spin Dipole Couplings in Principal Axis System
 ---------------------------------------------------------------------------------

       Atom             a.u.   MegaHertz   Gauss  10(-4) cm-1        Axes

              Baa    -0.0275    -3.686    -1.315    -1.229  0.0761 -0.0855  0.9934
     1 C(13)  Bbb    -0.0000    -0.002    -0.001    -0.001  0.9971  0.0044 -0.0760
              Bcc     0.0275     3.687     1.316     1.230  0.0021  0.9963  0.0856
 
              Baa    -0.1729   -23.205    -8.280    -7.740  0.0244  0.9943  0.1037
     2 C(13)  Bbb    -0.1699   -22.797    -8.135    -7.604  0.9997 -0.0236 -0.0098
              Bcc     0.3428    46.002    16.415    15.345  0.0073 -0.1039  0.9946
 
              Baa    -0.0171    -2.298    -0.820    -0.766 -0.0576 -0.1604  0.9854
     3 C(13)  Bbb    -0.0040    -0.538    -0.192    -0.180  0.4957  0.8522  0.1677
              Bcc     0.0211     2.836     1.012     0.946  0.8666 -0.4981 -0.0304
 
              Baa    -0.1574   -21.118    -7.535    -7.044  0.8944 -0.4432 -0.0604
     4 C(13)  Bbb    -0.1544   -20.721    -7.394    -6.912  0.4471  0.8901  0.0883
              Bcc     0.3118    41.839    14.929    13.956  0.0146 -0.1060  0.9943
 
              Baa    -0.0135    -1.812    -0.647    -0.604  0.0354 -0.1501  0.9880
     5 C(13)  Bbb    -0.0054    -0.730    -0.261    -0.244 -0.5063  0.8497  0.1473
              Bcc     0.0189     2.542     0.907     0.848  0.8616  0.5055  0.0459
 
              Baa    -0.1639   -21.990    -7.847    -7.335  0.7835  0.6195  0.0498
     6 C(13)  Bbb    -0.1614   -21.657    -7.728    -7.224 -0.6215  0.7808  0.0640
              Bcc     0.3253    43.647    15.574    14.559  0.0007 -0.0811  0.9967
 
              Baa    -0.0368    -4.944    -1.764    -1.649  0.0106 -0.1027  0.9947
     7 C(13)  Bbb    -0.0026    -0.346    -0.124    -0.116  0.4644  0.8814  0.0861
              Bcc     0.0394     5.290     1.888     1.765  0.8856 -0.4610 -0.0571
 
              Baa    -0.0955    -3.682    -1.314    -1.228  0.9017 -0.4279 -0.0623
     8 N(14)  Bbb    -0.0685    -2.641    -0.942    -0.881  0.4320  0.8975  0.0885
              Bcc     0.1639     6.322     2.256     2.109  0.0180 -0.1067  0.9941
 
              Baa    -0.0382    -5.131    -1.831    -1.712  0.0030 -0.1077  0.9942
     9 C(13)  Bbb    -0.0027    -0.362    -0.129    -0.121 -0.4590  0.8831  0.0971
              Bcc     0.0409     5.493     1.960     1.832  0.8884  0.4566  0.0468
 
              Baa    -0.0997    -3.843    -1.371    -1.282  0.9143  0.4024  0.0454
    10 N(14)  Bbb    -0.0710    -2.740    -0.978    -0.914 -0.4050  0.9089  0.0992
              Bcc     0.1707     6.583     2.349     2.196 -0.0014 -0.1091  0.9940
 
              Baa    -0.0492    -6.603    -2.356    -2.203  0.0188 -0.1033  0.9945
    11 C(13)  Bbb    -0.0030    -0.401    -0.143    -0.134 -0.5317  0.8413  0.0975
              Bcc     0.0522     7.005     2.499     2.336  0.8467  0.5306  0.0392
 
              Baa    -0.1298    -5.005    -1.786    -1.670  0.8273  0.5604  0.0390
    12 N(14)  Bbb    -0.0864    -3.332    -1.189    -1.112 -0.5613  0.8220  0.0959
              Bcc     0.2162     8.338     2.975     2.781  0.0217 -0.1013  0.9946
 
              Baa    -0.0357    -4.796    -1.711    -1.600  0.0101 -0.1091  0.9940
    13 C(13)  Bbb    -0.0020    -0.264    -0.094    -0.088  0.9993 -0.0359 -0.0140
              Bcc     0.0377     5.060     1.806     1.688  0.0372  0.9934  0.1087
 
              Baa    -0.0922    -3.556    -1.269    -1.186  0.0615  0.9912  0.1176
    14 N(14)  Bbb    -0.0650    -2.506    -0.894    -0.836  0.9981 -0.0598 -0.0176
              Bcc     0.1572     6.063     2.163     2.022  0.0105 -0.1184  0.9929
 
              Baa    -0.0564    -7.574    -2.703    -2.527 -0.0038 -0.0777  0.9970
    15 C(13)  Bbb    -0.0042    -0.563    -0.201    -0.188  0.9987  0.0496  0.0077
              Bcc     0.0606     8.138     2.904     2.714 -0.0500  0.9957  0.0774
 
              Baa    -0.1523    -5.876    -2.097    -1.960 -0.0950  0.9930  0.0706
    16 N(14)  Bbb    -0.0992    -3.826    -1.365    -1.276  0.9955  0.0946  0.0097
              Bcc     0.2515     9.701     3.462     3.236 -0.0030 -0.0712  0.9975
 
              Baa    -0.0318    -4.268    -1.523    -1.424  0.0017 -0.0789  0.9969
    17 C(13)  Bbb    -0.0022    -0.289    -0.103    -0.096  0.5400  0.8391  0.0655
              Bcc     0.0340     4.557     1.626     1.520  0.8417 -0.5382 -0.0440
 
              Baa    -0.0822    -3.171    -1.132    -1.058  0.8221 -0.5679 -0.0403
    18 N(14)  Bbb    -0.0599    -2.309    -0.824    -0.770  0.5694  0.8196  0.0636
              Bcc     0.1421     5.481     1.956     1.828 -0.0030 -0.0752  0.9972
 

 ---------------------------------------------------------------------------------

   1 Symmetry operations used in ECPInt.
 ECPInt:  NShTT=    5886 NPrTT=   23670 LenC2=    5383 LenP2D=   14825.
 LDataN:  DoStor=T MaxTD1= 5 Len=  102
 D1PCM: PCM CHGder 1st derivatives, ID1Alg=3 FixD1E=F DoIter=F DoCFld=F I1PDM=0.
 Calling FoFJK, ICntrl=      2127 FMM=F ISym2X=0 I1Cent= 0 IOpClX= 1 NMat=1 NMatS=1 NMatT=0.
 -------------------------------------------------------------------
 Center     Atomic                   Forces (Hartrees/Bohr)
 Number     Number              X              Y              Z
 -------------------------------------------------------------------
      1        6          -0.000907402   -0.062767950   -0.006453763
      2        6          -0.004269475    0.013808880    0.001707292
      3        6          -0.071144122    0.037226826    0.004494305
      4        6           0.009466585   -0.021396806   -0.003012350
      5        6           0.058257227    0.031996481    0.002863701
      6        6          -0.013420677    0.021088911    0.001774125
      7        6           0.078125324   -0.045926251   -0.005601566
      8        7          -0.049463399    0.026320745    0.003376684
      9        6          -0.066671577   -0.042359811   -0.004103431
     10        7           0.041825696    0.022817583    0.002273082
     11        6           0.046481176    0.039654731    0.003035918
     12        7          -0.061046980   -0.043965205   -0.003130015
     13        6          -0.003907493    0.055877184    0.006215010
     14        7           0.000435084   -0.024701703   -0.002744376
     15        6           0.016674247   -0.090613491   -0.006602984
     16        7          -0.012530053    0.098164453    0.007064825
     17        6           0.115749460   -0.069411347   -0.005265214
     18        7          -0.083653622    0.054186770    0.004108758
 -------------------------------------------------------------------
 Cartesian Forces:  Max     0.115749460 RMS     0.042158092

 GradGradGradGradGradGradGradGradGradGradGradGradGradGradGradGradGradGrad
 Berny optimization.
 Search for a local minimum.
 Step number   1 out of a maximum of    2
 All quantities printed in internal units (Hartrees-Bohrs-Radians)
 Second derivative matrix not updated -- first step.
 ITU=  0
     Eigenvalues ---    0.00113   0.00158   0.00177   0.00290   0.00291
     Eigenvalues ---    0.00772   0.01475   0.01593   0.01899   0.01935
     Eigenvalues ---    0.03673   0.03937   0.05065   0.05086   0.09726
     Eigenvalues ---    0.15070   0.18719   0.19132   0.22616   0.24023
     Eigenvalues ---    0.24375   0.24768   0.29298   0.29418   0.43228
     Eigenvalues ---    0.59022   0.62900   0.67798   0.68909   0.72730
     Eigenvalues ---    0.95874   0.96936   1.03318   1.43262   1.46526
     Eigenvalues ---    1.74205   2.09211   2.31209   2.42662   2.80177
     Eigenvalues ---    2.93289   3.04467   3.09900   3.33304   4.01810
     Eigenvalues ---    4.36159   4.56521   5.41795
 Quadratic step=6.965D-01 exceeds max=3.000D-01 adjusted using Lamda=-9.636D-02.
 Angle between NR and scaled steps=  29.15 degrees.
 Angle between quadratic step and forces=  57.65 degrees.
 Linear search not attempted -- first point.
 B after Tr=    -0.000095   -0.000723    0.000031
         Rot=    1.000000    0.000002    0.000001    0.000028 Ang=   0.00 deg.
 Variable       Old X    -DE/DX   Delta X   Delta X   Delta X     New X
                                 (Linear)    (Quad)   (Total)
    X1      -16.88956  -0.00091   0.00000  -0.00724  -0.00743 -16.89699
    Y1       -1.63353  -0.06277   0.00000  -0.05464  -0.05441  -1.68794
    Z1        2.10499  -0.00645   0.00000  -0.00529  -0.00527   2.09972
    X2      -16.88880  -0.00427   0.00000  -0.00532  -0.00537 -16.89417
    Y2        0.98998   0.01381   0.00000  -0.05910  -0.05886   0.93112
    Z2        2.36907   0.00171   0.00000  -0.00461  -0.00461   2.36446
    X3      -15.48246  -0.07114   0.00000  -0.06232  -0.06264 -15.54510
    Y3       -4.04568   0.03723   0.00000   0.03067   0.03082  -4.01485
    Z3        1.85528   0.00449   0.00000   0.00310   0.00313   1.85841
    X4      -13.22285   0.00947   0.00000  -0.04155  -0.04195 -13.26480
    Y4       -5.33999  -0.02140   0.00000   0.02199   0.02202  -5.31797
    Z4        1.70016  -0.00301   0.00000   0.00006   0.00010   1.70025
    X5      -18.29720   0.05826   0.00000   0.04906   0.04873 -18.24846
    Y5       -4.04913   0.03200   0.00000   0.03214   0.03244  -4.01669
    Z5        1.87657   0.00286   0.00000   0.00333   0.00335   1.87992
    X6      -20.58561  -0.01342   0.00000   0.05532   0.05493 -20.53068
    Y6       -5.37380   0.02109   0.00000   0.03293   0.03336  -5.34044
    Z6        1.76758   0.00177   0.00000   0.00348   0.00350   1.77108
    X7      -19.30014   0.07813   0.00000   0.05854   0.05857 -19.24157
    Y7        2.38239  -0.04593   0.00000  -0.07444  -0.07407   2.30832
    Z7        2.54015  -0.00560   0.00000  -0.00728  -0.00729   2.53286
    X8      -21.22873  -0.04946   0.00000   0.04060   0.04068 -21.18805
    Y8        3.32144   0.02632   0.00000  -0.01601  -0.01553   3.30591
    Z8        2.66982   0.00338   0.00000  -0.00332  -0.00334   2.66649
    X9      -14.50015  -0.06667   0.00000  -0.05323  -0.05320 -14.55335
    Y9        2.39929  -0.04236   0.00000  -0.08072  -0.08062   2.31867
    Z9        2.50768  -0.00410   0.00000  -0.00692  -0.00692   2.50076
   X10      -12.53922   0.04183   0.00000  -0.04392  -0.04384 -12.58306
   Y10        3.28833   0.02282   0.00000  -0.01273  -0.01273   3.27560
   Z10        2.60539   0.00227   0.00000  -0.00257  -0.00258   2.60281
   X11      -10.84603   0.04648   0.00000  -0.04622  -0.04654 -10.89257
   Y11       -4.01550   0.03965   0.00000   0.01544   0.01534  -4.00016
   Z11        1.79523   0.00304   0.00000   0.00110   0.00113   1.79636
   X12       -8.97617  -0.06105   0.00000  -0.07360  -0.07385  -9.05003
   Y12       -2.75382  -0.04397   0.00000  -0.05420  -0.05441  -2.80823
   Z12        1.88525  -0.00313   0.00000  -0.00263  -0.00260   1.88265
   X13      -13.20180  -0.00391   0.00000  -0.03218  -0.03273 -13.23454
   Y13       -8.10805   0.05588   0.00000   0.07563   0.07566  -8.03239
   Z13        1.39325   0.00622   0.00000   0.00719   0.00724   1.40049
   X14      -13.32947   0.00044   0.00000   0.00587   0.00520 -13.32427
   Y14      -10.26059  -0.02470   0.00000   0.05121   0.05124 -10.20935
   Z14        1.14528  -0.00274   0.00000   0.00728   0.00733   1.15261
   X15      -20.62070   0.01667   0.00000   0.04966   0.04911 -20.57159
   Y15       -8.06044  -0.09061   0.00000   0.02173   0.02217  -8.03827
   Z15        1.55583  -0.00660   0.00000   0.00267   0.00271   1.55854
   X16      -20.40028  -0.01253   0.00000  -0.01474  -0.01541 -20.41569
   Y16      -10.32815   0.09816   0.00000   0.10437   0.10480 -10.22335
   Z16        1.38970   0.00706   0.00000   0.00647   0.00652   1.39621
   X17      -23.00671   0.11575   0.00000   0.10352   0.10320 -22.90351
   Y17       -3.96898  -0.06941   0.00000  -0.01820  -0.01763  -3.98661
   Z17        1.88217  -0.00527   0.00000  -0.00150  -0.00149   1.88068
   X18      -24.75976  -0.08365   0.00000   0.02280   0.02255 -24.73721
   Y18       -2.77995   0.05419   0.00000  -0.02026  -0.01959  -2.79954
   Z18        1.97098   0.00411   0.00000  -0.00091  -0.00090   1.97008
         Item               Value     Threshold  Converged?
 Maximum Force            0.115749     0.000450     NO 
 RMS     Force            0.042158     0.000300     NO 
 Maximum Displacement     0.104799     0.001800     NO 
 RMS     Displacement     0.040829     0.001200     NO 
 Predicted change in Energy=-2.920309D-02
 GradGradGradGradGradGradGradGradGradGradGradGradGradGradGradGradGradGrad

 Unable to Open any file for archive entry.
 1\1\GINC-X10P1N4\Force\UwB97XD\def2SVP\C12N6(1-,2)\MAYUMIAO\11-Oct-202
 4\0\\# wb97xd def2svp scrf=(smd,solvent=acetonitrile) g09default scf=(
 xqc,maxcycle=64) force guess=read nosymm\\Title Card\\-1,2\C,-8.937568
 51,-0.86442703,1.11391471\C,-8.93716942,0.52387738,1.25365686\C,-8.192
 96387,-2.14087915,0.98177354\C,-6.99722987,-2.82580085,0.89968402\C,-9
 .68245871,-2.14270744,0.99303859\C,-10.89343507,-2.84369497,0.93536195
 \C,-10.21319412,1.26070834,1.34418721\N,-11.23376228,1.75762861,1.4128
 0938\C,-7.67314924,1.26964898,1.32700748\N,-6.63546851,1.74010819,1.37
 871187\C,-5.73947268,-2.12491278,0.94999313\N,-4.74998615,-1.45725954,
 0.99763169\C,-6.98609423,-4.29059361,0.73727633\N,-7.05364924,-5.42966
 987,0.60605733\C,-10.91200226,-4.26539941,0.82330849\N,-10.79536431,-5
 .46542223,0.73539546\C,-12.17462676,-2.10029471,0.99599989\N,-13.10229
 971,-1.471088,1.04299692\\Version=ES64L-G16RevC.01\HF=-784.8252597\S2=
 0.788207\S2-1=0.\S2A=0.751158\RMSD=8.202e-09\RMSF=4.216e-02\Dipole=-0.
 1056454,0.1576274,0.0132316\Quadrupole=-200.5062643,70.3832586,130.123
 0057,-57.3765409,32.9016644,1.3516366\PG=C01 [X(C12N6)]\\@
 The archive entry for this job was punched.


 THE MORE PROGRESS PHYSICAL SCIENCES MAKE, THE MORE THEY TEND TO ENTER
 THE DOMAIN OF MATHEMATICS, WHICH IS A KIND OF CENTRE TO WHICH THEY ALL
 CONVERGE.  WE MAY EVEN JUDGE THE DEGREE OF PERFECTION TO WHICH A 
 SCIENCE HAS ARRIVED BY THE FACILITY WITH WHICH IT MAY BE SUBMITTED
 TO CALCULATION.

                               -- ADOLPHE QUETELET, 1796-1874
 Job cpu time:       0 days  0 hours 14 minutes 32.2 seconds.
 Elapsed time:       0 days  0 hours  0 minutes 32.6 seconds.
 File lengths (MBytes):  RWF=    175 Int=      0 D2E=      0 Chk=      9 Scr=      1
 Normal termination of Gaussian 16 at Fri Oct 11 15:48:51 2024.
