 Entering Gaussian System, Link 0=g16
 Input=JOBS/24_A.gjf
 Output=JOBS/24_A.log
 Initial command:
 /data/app/gaussian/C01-avx2//g16/l1.exe "/tmp/Gau-2537026.inp" -scrdir="/tmp/"
 Entering Link 1 = /data/app/gaussian/C01-avx2//g16/l1.exe PID=   2537027.
  
 Copyright (c) 1988-2019, Gaussian, Inc.  All Rights Reserved.
  
 This is part of the Gaussian(R) 16 program.  It is based on
 the Gaussian(R) 09 system (copyright 2009, Gaussian, Inc.),
 the Gaussian(R) 03 system (copyright 2003, Gaussian, Inc.),
 the Gaussian(R) 98 system (copyright 1998, Gaussian, Inc.),
 the Gaussian(R) 94 system (copyright 1995, Gaussian, Inc.),
 the Gaussian 92(TM) system (copyright 1992, Gaussian, Inc.),
 the Gaussian 90(TM) system (copyright 1990, Gaussian, Inc.),
 the Gaussian 88(TM) system (copyright 1988, Gaussian, Inc.),
 the Gaussian 86(TM) system (copyright 1986, Carnegie Mellon
 University), and the Gaussian 82(TM) system (copyright 1983,
 Carnegie Mellon University). Gaussian is a federally registered
 trademark of Gaussian, Inc.
  
 This software contains proprietary and confidential information,
 including trade secrets, belonging to Gaussian, Inc.
  
 This software is provided under written license and may be
 used, copied, transmitted, or stored only in accord with that
 written license.
  
 The following legend is applicable only to US Government
 contracts under FAR:
  
                    RESTRICTED RIGHTS LEGEND
  
 Use, reproduction and disclosure by the US Government is
 subject to restrictions as set forth in subparagraphs (a)
 and (c) of the Commercial Computer Software - Restricted
 Rights clause in FAR 52.227-19.
  
 Gaussian, Inc.
 340 Quinnipiac St., Bldg. 40, Wallingford CT 06492
  
  
 ---------------------------------------------------------------
 Warning -- This program may not be used in any manner that
 competes with the business of Gaussian, Inc. or will provide
 assistance to any competitor of Gaussian, Inc.  The licensee
 of this program is prohibited from giving any competitor of
 Gaussian, Inc. access to this program.  By using this program,
 the user acknowledges that Gaussian, Inc. is engaged in the
 business of creating and licensing software in the field of
 computational chemistry and represents and warrants to the
 licensee that it is not a competitor of Gaussian, Inc. and that
 it will not use this program in any manner prohibited above.
 ---------------------------------------------------------------
  

 Cite this work as:
 Gaussian 16, Revision C.01,
 M. J. Frisch, G. W. Trucks, H. B. Schlegel, G. E. Scuseria, 
 M. A. Robb, J. R. Cheeseman, G. Scalmani, V. Barone, 
 G. A. Petersson, H. Nakatsuji, X. Li, M. Caricato, A. V. Marenich, 
 J. Bloino, B. G. Janesko, R. Gomperts, B. Mennucci, H. P. Hratchian, 
 J. V. Ortiz, A. F. Izmaylov, J. L. Sonnenberg, D. Williams-Young, 
 F. Ding, F. Lipparini, F. Egidi, J. Goings, B. Peng, A. Petrone, 
 T. Henderson, D. Ranasinghe, V. G. Zakrzewski, J. Gao, N. Rega, 
 G. Zheng, W. Liang, M. Hada, M. Ehara, K. Toyota, R. Fukuda, 
 J. Hasegawa, M. Ishida, T. Nakajima, Y. Honda, O. Kitao, H. Nakai, 
 T. Vreven, K. Throssell, J. A. Montgomery, Jr., J. E. Peralta, 
 F. Ogliaro, M. J. Bearpark, J. J. Heyd, E. N. Brothers, K. N. Kudin, 
 V. N. Staroverov, T. A. Keith, R. Kobayashi, J. Normand, 
 K. Raghavachari, A. P. Rendell, J. C. Burant, S. S. Iyengar, 
 J. Tomasi, M. Cossi, J. M. Millam, M. Klene, C. Adamo, R. Cammi, 
 J. W. Ochterski, R. L. Martin, K. Morokuma, O. Farkas, 
 J. B. Foresman, and D. J. Fox, Gaussian, Inc., Wallingford CT, 2019.
 
 ******************************************
 Gaussian 16:  ES64L-G16RevC.01  3-Jul-2019
                11-Oct-2024 
 ******************************************
 %chk=a.chk
 %nprocshared=28
 Will use up to   28 processors via shared memory.
 %mem=48gb
 ----------------------------------------------------------------------
 # wb97xd def2svp scrf=(smd,solvent=acetonitrile) g09default scf=(xqc,m
 axcycle=64) force guess=read nosymm
 ----------------------------------------------------------------------
 1/10=7,30=1,38=1,158=3,167=1/1,3;
 2/12=2,15=1,17=6,18=5,40=1/2;
 3/5=43,7=101,11=2,25=1,27=10,30=1,70=32201,71=1,72=2,74=-58,75=-4,116=-2,158=3/1,2,3;
 4/5=1,60=-1/1;
 5/5=2,7=64,8=3,13=1,38=6,53=2,87=10/2,8;
 6/7=2,8=2,9=2,10=2,28=1,87=10/1;
 7/29=1,30=1,87=10/1,2,3,16;
 1/10=7,30=1,158=3,167=1/3;
 99//99;
 Using 2006 physical constants.
 ----------
 Title Card
 ----------
 Symbolic Z-matrix:
 Charge = -2 Multiplicity = 1
 6                    -8.93852  -0.83918   1.11464 
 6                    -8.93616   0.49052   1.25076 
 6                    -8.17291  -2.1513    0.98301 
 6                    -7.02241  -2.81255   0.89991 
 6                    -9.69853  -2.15089   0.99207 
 6                    -10.87624  -2.8283    0.93653 
 6                    -10.24132   1.26424   1.34439 
 7                    -11.22064   1.75542   1.41299 
 6                    -7.66801   1.26402   1.32639 
 7                    -6.62699   1.74418   1.37958 
 6                    -5.72894  -2.10798   0.95139 
 7                    -4.75628  -1.4663    0.99667 
 6                    -6.9958   -4.29097   0.73777 
 7                    -7.0495   -5.43707   0.60416 
 6                    -10.90329  -4.28428   0.82205 
 7                    -10.79478  -5.45772   0.73727 
 6                    -12.15104  -2.10502   0.99627 
 7                    -13.12855  -1.45699   1.04297 
 

 GradGradGradGradGradGradGradGradGradGradGradGradGradGradGradGradGradGrad
 Berny optimization.
 Initialization pass.
 Trust Radius=3.00D-01 FncErr=1.00D-07 GrdErr=1.00D-07 EigMax=2.50D+02 EigMin=1.00D-04
 Number of steps in this run=      2 maximum allowed number of steps=      2.
 GradGradGradGradGradGradGradGradGradGradGradGradGradGradGradGradGradGrad

                          Input orientation:                          
 ---------------------------------------------------------------------
 Center     Atomic      Atomic             Coordinates (Angstroms)
 Number     Number       Type             X           Y           Z
 ---------------------------------------------------------------------
      1          6           0       -8.938522   -0.839184    1.114639
      2          6           0       -8.936159    0.490521    1.250757
      3          6           0       -8.172906   -2.151297    0.983005
      4          6           0       -7.022408   -2.812551    0.899906
      5          6           0       -9.698531   -2.150889    0.992070
      6          6           0      -10.876239   -2.828304    0.936528
      7          6           0      -10.241318    1.264237    1.344392
      8          7           0      -11.220644    1.755420    1.412994
      9          6           0       -7.668009    1.264016    1.326387
     10          7           0       -6.626988    1.744183    1.379580
     11          6           0       -5.728938   -2.107985    0.951389
     12          7           0       -4.756281   -1.466300    0.996667
     13          6           0       -6.995796   -4.290971    0.737771
     14          7           0       -7.049498   -5.437067    0.604161
     15          6           0      -10.903288   -4.284276    0.822045
     16          7           0      -10.794780   -5.457717    0.737270
     17          6           0      -12.151039   -2.105020    0.996274
     18          7           0      -13.128550   -1.456993    1.042969
 ---------------------------------------------------------------------
                    Distance matrix (angstroms):
                    1          2          3          4          5
     1  C    0.000000
     2  C    1.336656   0.000000
     3  C    1.524840   2.762870   0.000000
     4  C    2.758946   3.833514   1.329589   0.000000
     5  C    1.520923   2.761372   1.525652   2.758247   0.000000
     6  C    2.782637   3.857104   2.787205   3.854037   1.359770
     7  C    2.484843   1.520146   4.009339   5.213363   3.475893
     8  N    3.468294   2.616326   4.973534   6.225336   4.213461
     9  C    2.466270   1.487353   3.469466   4.149348   3.987024
    10  N    3.476660   2.630690   4.209738   4.598942   4.975552
    11  C    3.455132   4.138613   2.444556   1.473815   3.970033
    12  N    4.230642   4.622239   3.484642   2.637629   4.989440
    13  C    3.978825   5.185637   2.454370   1.487522   3.456790
    14  N    4.996953   6.254109   3.493116   2.641266   4.238728
    15  C    3.976754   5.181899   3.468500   4.151297   2.455950
    16  N    4.991888   6.252974   4.226940   4.610222   3.493107
    17  C    3.454941   4.139692   3.978424   5.178102   2.452940
    18  N    4.235937   4.627324   5.004405   6.256435   3.499874
                    6          7          8          9         10
     6  C    0.000000
     7  C    4.161535   0.000000
     8  N    4.621273   1.097746   0.000000
     9  C    5.214577   2.573372   3.587505   0.000000
    10  N    6.257801   3.646226   4.593791   1.147656   0.000000
    11  C    5.197479   5.646938   6.730365   3.907814   3.978572
    12  N    6.269972   6.136968   7.234694   4.005184   3.735421
    13  C    4.151715   6.462332   7.407031   5.626386   6.080380
    14  N    4.643281   7.459433   8.353714   6.768211   7.235340
    15  C    1.460716   5.612223   6.076830   6.442432   7.412145
    16  N    2.638210   6.771970   7.257224   7.436763   8.345682
    17  C    1.466910   3.888458   3.992779   5.617556   6.743769
    18  N    2.639078   3.978951   3.754546   6.107514   7.254732
                   11         12         13         14         15
    11  C    0.000000
    12  N    1.166135   0.000000
    13  C    2.532981   3.614031   0.000000
    14  N    3.598227   4.602162   1.155107   0.000000
    15  C    5.614879   6.764404   3.908406   4.028411   0.000000
    16  N    6.076949   7.243077   3.974113   3.747704   1.181492
    17  C    6.422258   7.422291   5.605509   6.105900   2.517220
    18  N    7.428758   8.372402   6.762785   7.279315   3.604737
                   16         17         18
    16  N    0.000000
    17  C    3.625893   0.000000
    18  N    4.641738   1.173733   0.000000
 Symmetry turned off by external request.
 Stoichiometry    C12N6(2-)
 Framework group  C1[X(C12N6)]
 Deg. of freedom    48
 Full point group                 C1      NOp   1
 Rotational constants (GHZ):           0.4155748           0.4141568           0.2074584
 Standard basis: def2SVP (5D, 7F)
   252 basis functions,   450 primitive gaussians,   270 cartesian basis functions
    58 alpha electrons       58 beta electrons
       nuclear repulsion energy       948.6899138684 Hartrees.
 NAtoms=   18 NActive=   18 NUniq=   18 SFac= 1.00D+00 NAtFMM=   60 NAOKFM=F Big=F
 Integral buffers will be    131072 words long.
 Raffenetti 2 integral format.
 Two-electron integral symmetry is turned off.
 Nuclear repulsion after empirical dispersion term =      948.6785768000 Hartrees.
 Force PCM accuracy= 1.00D-10.
 ------------------------------------------------------------------------------
 Polarizable Continuum Model (PCM)
 =================================
 Model                : PCM (using non-symmetric T matrix).
 Atomic radii         : SMD-Coulomb.
 Polarization charges : Total charges.
 Charge compensation  : None.
 Solution method      : On-the-fly selection.
 Cavity type          : VdW (van der Waals Surface) (Alpha=1.000).
 Cavity algorithm     : GePol (No added spheres)
                        Default sphere list used, NSphG=   18.
                        Lebedev-Laikov grids with approx.  5.0 points / Ang**2.
                        Smoothing algorithm: York/Karplus (Gamma=1.0000).
                        Polarization charges: spherical gaussians, with
                                              point-specific exponents (IZeta= 3).
                        Self-potential: point-specific (ISelfS= 7).
                        Self-field    : sphere-specific E.n sum rule (ISelfD= 2).
 1st derivatives      : Analytical E(r).r(x)/FMM algorithm (CHGder, D1EAlg=3).
                        Cavity 1st derivative terms included.
 Solvent              : Acetonitrile, Eps=  35.688000 Eps(inf)=   1.806874
 ------------------------------------------------------------------------------
 Spheres list:
 ISph  on   Nord     Re0    Alpha      Xe            Ye            Ze
    1   C      1    1.8500  1.000     -8.938522     -0.839184      1.114639
    2   C      2    1.8500  1.000     -8.936159      0.490521      1.250757
    3   C      3    1.8500  1.000     -8.172906     -2.151297      0.983005
    4   C      4    1.8500  1.000     -7.022408     -2.812551      0.899906
    5   C      5    1.8500  1.000     -9.698531     -2.150889      0.992070
    6   C      6    1.8500  1.000    -10.876239     -2.828304      0.936528
    7   C      7    1.8500  1.000    -10.241318      1.264237      1.344392
    8   N      8    1.8900  1.000    -11.220644      1.755420      1.412994
    9   C      9    1.8500  1.000     -7.668009      1.264016      1.326387
   10   N     10    1.8900  1.000     -6.626988      1.744183      1.379580
   11   C     11    1.8500  1.000     -5.728938     -2.107985      0.951389
   12   N     12    1.8900  1.000     -4.756281     -1.466300      0.996667
   13   C     13    1.8500  1.000     -6.995796     -4.290971      0.737771
   14   N     14    1.8900  1.000     -7.049498     -5.437067      0.604161
   15   C     15    1.8500  1.000    -10.903288     -4.284276      0.822045
   16   N     16    1.8900  1.000    -10.794780     -5.457717      0.737270
   17   C     17    1.8500  1.000    -12.151039     -2.105020      0.996274
   18   N     18    1.8900  1.000    -13.128550     -1.456993      1.042969
 ------------------------------------------------------------------------------
 ------------------------------------------------------------------------------
 Atomic radii for non-electrostatic terms: SMD-CDS.
 ------------------------------------------------------------------------------
 Nuclear repulsion after PCM non-electrostatic terms =      948.6874642175 Hartrees.
 One-electron integrals computed using PRISM.
   1 Symmetry operations used in ECPInt.
 ECPInt:  NShTT=    5886 NPrTT=   23670 LenC2=    5384 LenP2D=   14832.
 LDataN:  DoStor=T MaxTD1= 4 Len=   56
 NBasis=   252 RedAO= T EigKep=  3.31D-04  NBF=   252
 NBsUse=   252 1.00D-06 EigRej= -1.00D+00 NBFU=   252
 Initial guess from the checkpoint file:  "a.chk"
 B after Tr=     0.000247   -0.002127   -0.000707
         Rot=    1.000000    0.000001   -0.000021    0.000066 Ang=   0.01 deg.
 Requested convergence on RMS density matrix=1.00D-08 within  64 cycles.
 Requested convergence on MAX density matrix=1.00D-06.
 Requested convergence on             energy=1.00D-06.
 No special actions if energy rises.
 Inv3:  Mode=1 IEnd=    19614747.
 Iteration    1 A*A^-1 deviation from unit magnitude is 3.33D-15 for    614.
 Iteration    1 A*A^-1 deviation from orthogonality  is 1.92D-15 for   1720    252.
 Iteration    1 A^-1*A deviation from unit magnitude is 3.33D-15 for    506.
 Iteration    1 A^-1*A deviation from orthogonality  is 8.23D-11 for    718    702.
 Error on total polarization charges =  0.02222
 SCF Done:  E(RwB97XD) =  -784.956627918     A.U. after   15 cycles
            NFock= 15  Conv=0.37D-08     -V/T= 2.0104
 SMD-CDS (non-electrostatic) energy       (kcal/mol) =       5.58
 (included in total energy above)
 QCSCF skips out because SCF is already converged.

 **********************************************************************

            Population analysis using the SCF Density.

 **********************************************************************

 Alpha  occ. eigenvalues --  -14.43451 -14.43417 -14.43335 -14.43301 -14.43055
 Alpha  occ. eigenvalues --  -14.42173 -10.35476 -10.35368 -10.35350 -10.34489
 Alpha  occ. eigenvalues --  -10.34393 -10.34370 -10.34266 -10.34048 -10.34035
 Alpha  occ. eigenvalues --  -10.33814 -10.33590 -10.33094  -1.01336  -0.99583
 Alpha  occ. eigenvalues --   -0.99289  -0.98717  -0.98446  -0.97600  -0.95739
 Alpha  occ. eigenvalues --   -0.88157  -0.87782  -0.83109  -0.68162  -0.67762
 Alpha  occ. eigenvalues --   -0.64400  -0.64073  -0.63278  -0.62800  -0.50411
 Alpha  occ. eigenvalues --   -0.47583  -0.47181  -0.46099  -0.45993  -0.45533
 Alpha  occ. eigenvalues --   -0.45389  -0.45325  -0.44820  -0.44381  -0.43660
 Alpha  occ. eigenvalues --   -0.43468  -0.43037  -0.42566  -0.42518  -0.42310
 Alpha  occ. eigenvalues --   -0.41973  -0.41931  -0.40986  -0.40108  -0.40031
 Alpha  occ. eigenvalues --   -0.33135  -0.32524  -0.21728
 Alpha virt. eigenvalues --    0.06612   0.07204   0.08781   0.09134   0.09792
 Alpha virt. eigenvalues --    0.10663   0.12108   0.12682   0.13417   0.14255
 Alpha virt. eigenvalues --    0.14521   0.15987   0.19822   0.20294   0.22702
 Alpha virt. eigenvalues --    0.23944   0.26814   0.27210   0.27338   0.27633
 Alpha virt. eigenvalues --    0.29612   0.30407   0.30523   0.32548   0.33125
 Alpha virt. eigenvalues --    0.34776   0.35615   0.48109   0.48794   0.51603
 Alpha virt. eigenvalues --    0.51703   0.52122   0.52684   0.54798   0.54948
 Alpha virt. eigenvalues --    0.54999   0.55746   0.55998   0.58207   0.61236
 Alpha virt. eigenvalues --    0.61746   0.62142   0.62862   0.63500   0.64709
 Alpha virt. eigenvalues --    0.66313   0.70740   0.70978   0.71958   0.72987
 Alpha virt. eigenvalues --    0.73144   0.73627   0.73762   0.74179   0.74484
 Alpha virt. eigenvalues --    0.75024   0.75093   0.75629   0.76099   0.76762
 Alpha virt. eigenvalues --    0.79655   0.80156   0.81290   0.83002   0.83148
 Alpha virt. eigenvalues --    0.84944   0.85278   0.87910   0.88691   0.93775
 Alpha virt. eigenvalues --    0.94559   0.94584   0.94848   0.95187   0.95864
 Alpha virt. eigenvalues --    0.97182   0.99707   1.00027   1.00785   1.00864
 Alpha virt. eigenvalues --    1.02850   1.03250   1.03689   1.04126   1.04371
 Alpha virt. eigenvalues --    1.05361   1.06909   1.07493   1.10164   1.10970
 Alpha virt. eigenvalues --    1.13172   1.16658   1.18189   1.18662   1.20366
 Alpha virt. eigenvalues --    1.23632   1.24022   1.25306   1.28384   1.33127
 Alpha virt. eigenvalues --    1.34581   1.34745   1.42386   1.42741   1.45169
 Alpha virt. eigenvalues --    1.45526   1.46128   1.48367   1.49350   1.56778
 Alpha virt. eigenvalues --    1.63567   1.68884   1.69873   1.70560   1.70764
 Alpha virt. eigenvalues --    1.71064   1.71341   1.75300   1.75552   1.78936
 Alpha virt. eigenvalues --    1.79252   1.79515   1.80119   1.80590   1.81318
 Alpha virt. eigenvalues --    1.81381   1.83275   1.85605   1.93747   1.95187
 Alpha virt. eigenvalues --    1.97021   1.98486   1.98909   2.00400   2.01741
 Alpha virt. eigenvalues --    2.02112   2.03425   2.05316   2.09471   2.09746
 Alpha virt. eigenvalues --    2.11784   2.20086   2.20359   2.24956   2.25366
 Alpha virt. eigenvalues --    2.27026   2.30175   2.31360   2.33027   2.34004
 Alpha virt. eigenvalues --    2.35174   2.36035   2.36344   2.36368   2.36645
 Alpha virt. eigenvalues --    2.36875   2.37367   2.38052   2.38170   2.38794
 Alpha virt. eigenvalues --    2.39087   2.40716   2.55148   2.55871   2.58386
 Alpha virt. eigenvalues --    2.68094   2.69575   2.88836   2.92047   2.94441
 Alpha virt. eigenvalues --    2.96158   2.98834   2.99429   3.03142   3.03243
 Alpha virt. eigenvalues --    3.05367   3.07836   3.08108   3.08839   3.09595
 Alpha virt. eigenvalues --    3.09823   3.13977   3.19114   3.20649   3.27850
 Alpha virt. eigenvalues --    3.37680   3.39074   3.39991   3.49106   3.51498
 Alpha virt. eigenvalues --    3.56440   3.60921   3.66827   3.77428
          Condensed to atoms (all electrons):
               1          2          3          4          5          6
     1  C    4.920421   0.495550   0.307689  -0.108575   0.323984  -0.097171
     2  C    0.495550   5.541171  -0.104948  -0.008238  -0.107341  -0.006667
     3  C    0.307689  -0.104948   4.918090   0.484026   0.328459  -0.096326
     4  C   -0.108575  -0.008238   0.484026   5.560377  -0.110715  -0.007183
     5  C    0.323984  -0.107341   0.328459  -0.110715   4.947114   0.473111
     6  C   -0.097171  -0.006667  -0.096326  -0.007183   0.473111   5.529169
     7  C    0.002880   0.375012   0.004620  -0.000189  -0.012003   0.000844
     8  N   -0.000891  -0.033808  -0.000005  -0.000001  -0.000440   0.000061
     9  C    0.004765   0.385207  -0.013580   0.000734   0.005493  -0.000171
    10  N   -0.000339  -0.036730  -0.000419   0.000033   0.000026  -0.000001
    11  C   -0.014469   0.000952   0.006326   0.383318   0.005370  -0.000212
    12  N   -0.000392   0.000035  -0.000550  -0.037265   0.000009  -0.000001
    13  C    0.004899  -0.000241   0.004948   0.378985  -0.013998   0.000965
    14  N   -0.000007  -0.000001  -0.000761  -0.035545  -0.000386   0.000062
    15  C    0.006084  -0.000202  -0.015331   0.000820   0.003854   0.383522
    16  N    0.000039  -0.000001  -0.000391   0.000033  -0.000011  -0.041160
    17  C   -0.015320   0.000847   0.005361  -0.000233   0.004950   0.385065
    18  N   -0.000394   0.000021   0.000018  -0.000001  -0.000111  -0.038883
               7          8          9         10         11         12
     1  C    0.002880  -0.000891   0.004765  -0.000339  -0.014469  -0.000392
     2  C    0.375012  -0.033808   0.385207  -0.036730   0.000952   0.000035
     3  C    0.004620  -0.000005  -0.013580  -0.000419   0.006326  -0.000550
     4  C   -0.000189  -0.000001   0.000734   0.000033   0.383318  -0.037265
     5  C   -0.012003  -0.000440   0.005493   0.000026   0.005370   0.000009
     6  C    0.000844   0.000061  -0.000171  -0.000001  -0.000212  -0.000001
     7  C    4.797599   1.001381  -0.025272   0.001323   0.000025   0.000000
     8  N    1.001381   6.026801   0.001098   0.000030   0.000000   0.000000
     9  C   -0.025272   0.001098   4.826885   0.941101   0.000589   0.000285
    10  N    0.001323   0.000030   0.941101   6.134786   0.000352  -0.000787
    11  C    0.000025   0.000000   0.000589   0.000352   4.839094   0.921697
    12  N    0.000000   0.000000   0.000285  -0.000787   0.921697   6.169651
    13  C   -0.000001  -0.000000   0.000030   0.000001  -0.026448   0.001648
    14  N   -0.000000  -0.000000   0.000000   0.000000   0.001566   0.000040
    15  C    0.000030   0.000001  -0.000002  -0.000000   0.000037   0.000000
    16  N    0.000000   0.000000  -0.000000   0.000000   0.000001   0.000000
    17  C    0.000789  -0.000024   0.000032   0.000000  -0.000002  -0.000000
    18  N    0.000689  -0.000825   0.000001   0.000000  -0.000000   0.000000
              13         14         15         16         17         18
     1  C    0.004899  -0.000007   0.006084   0.000039  -0.015320  -0.000394
     2  C   -0.000241  -0.000001  -0.000202  -0.000001   0.000847   0.000021
     3  C    0.004948  -0.000761  -0.015331  -0.000391   0.005361   0.000018
     4  C    0.378985  -0.035545   0.000820   0.000033  -0.000233  -0.000001
     5  C   -0.013998  -0.000386   0.003854  -0.000011   0.004950  -0.000111
     6  C    0.000965   0.000062   0.383522  -0.041160   0.385065  -0.038883
     7  C   -0.000001  -0.000000   0.000030   0.000000   0.000789   0.000689
     8  N   -0.000000  -0.000000   0.000001   0.000000  -0.000024  -0.000825
     9  C    0.000030   0.000000  -0.000002  -0.000000   0.000032   0.000001
    10  N    0.000001   0.000000  -0.000000   0.000000   0.000000   0.000000
    11  C   -0.026448   0.001566   0.000037   0.000001  -0.000002  -0.000000
    12  N    0.001648   0.000040   0.000000   0.000000  -0.000000   0.000000
    13  C    4.836207   0.935338   0.000567   0.000626   0.000035   0.000000
    14  N    0.935338   6.141090   0.000004  -0.000782   0.000001   0.000000
    15  C    0.000567   0.000004   4.844326   0.903583  -0.024818   0.001692
    16  N    0.000626  -0.000782   0.903583   6.215312   0.001766   0.000038
    17  C    0.000035   0.000001  -0.024818   0.001766   4.841231   0.912127
    18  N    0.000000   0.000000   0.001692   0.000038   0.912127   6.196818
 Mulliken charges:
               1
     1  C    0.171250
     2  C   -0.500617
     3  C    0.172772
     4  C   -0.500381
     5  C    0.152637
     6  C   -0.485024
     7  C   -0.147727
     8  N    0.006622
     9  C   -0.127196
    10  N   -0.039377
    11  C   -0.118196
    12  N   -0.054370
    13  C   -0.123560
    14  N   -0.040619
    15  C   -0.104165
    16  N   -0.079051
    17  C   -0.111808
    18  N   -0.071189
 Sum of Mulliken charges =  -2.00000
 Mulliken charges with hydrogens summed into heavy atoms:
               1
     1  C    0.171250
     2  C   -0.500617
     3  C    0.172772
     4  C   -0.500381
     5  C    0.152637
     6  C   -0.485024
     7  C   -0.147727
     8  N    0.006622
     9  C   -0.127196
    10  N   -0.039377
    11  C   -0.118196
    12  N   -0.054370
    13  C   -0.123560
    14  N   -0.040619
    15  C   -0.104165
    16  N   -0.079051
    17  C   -0.111808
    18  N   -0.071189
 Electronic spatial extent (au):  <R**2>=          39481.1579
 Charge=             -2.0000 electrons
 Dipole moment (field-independent basis, Debye):
    X=             86.0370    Y=             17.2048    Z=             -9.8218  Tot=             88.2884
 Quadrupole moment (field-independent basis, Debye-Ang):
   XX=           -969.0441   YY=           -226.1820   ZZ=           -114.3314
   XY=           -155.3200   XZ=             88.7277   YZ=              8.4298
 Traceless Quadrupole moment (field-independent basis, Debye-Ang):
   XX=           -532.5249   YY=            210.3372   ZZ=            322.1878
   XY=           -155.3200   XZ=             88.7277   YZ=              8.4298
 Octapole moment (field-independent basis, Debye-Ang**2):
  XXX=          12226.6161  YYY=           1149.8251  ZZZ=           -331.9097  XYY=           2026.1640
  XXY=           1669.1534  XXZ=          -1011.1940  XZZ=           1023.7734  YZZ=            179.7720
  YYZ=           -194.4585  XYZ=            -79.3239
 Hexadecapole moment (field-independent basis, Debye-Ang**3):
 XXXX=        -161879.2758 YYYY=          -8857.4243 ZZZZ=           -810.7194 XXXY=         -19828.8182
 XXXZ=          12889.8964 YYYX=         -10304.0834 YYYZ=            767.1803 ZZZX=           2985.1922
 ZZZY=            386.2031 XXYY=         -20062.8442 XXZZ=          -9971.3866 YYZZ=          -1056.7285
 XXYZ=            927.9740 YYXZ=           1762.5680 ZZXY=          -1614.0224
 N-N= 9.486874642175D+02 E-N=-3.750903959779D+03  KE= 7.768630055150D+02
   1 Symmetry operations used in ECPInt.
 ECPInt:  NShTT=    5886 NPrTT=   23670 LenC2=    5384 LenP2D=   14832.
 LDataN:  DoStor=T MaxTD1= 5 Len=  102
 D1PCM: PCM CHGder 1st derivatives, ID1Alg=3 FixD1E=F DoIter=F DoCFld=F I1PDM=0.
 Calling FoFJK, ICntrl=      2127 FMM=F ISym2X=0 I1Cent= 0 IOpClX= 0 NMat=1 NMatS=1 NMatT=0.
 -------------------------------------------------------------------
 Center     Atomic                   Forces (Hartrees/Bohr)
 Number     Number              X              Y              Z
 -------------------------------------------------------------------
      1        6          -0.002159633   -0.184791116   -0.017750095
      2        6          -0.010410187    0.112484688    0.011433887
      3        6          -0.177927307    0.096196593    0.010285980
      4        6           0.096499249   -0.060746932   -0.007350528
      5        6           0.155796629    0.086410805    0.007534915
      6        6          -0.070788011   -0.035810363   -0.002770384
      7        6           0.214411808   -0.116502725   -0.014908995
      8        7          -0.166098623    0.085726709    0.011560654
      9        6          -0.070551334   -0.046152655   -0.004395232
     10        7           0.032820414    0.019229300    0.001900090
     11        6          -0.029327284   -0.010128039   -0.000766627
     12        7          -0.004920555   -0.006069095   -0.000425602
     13        6          -0.003359121    0.061263092    0.006266317
     14        7           0.000764955   -0.017585729   -0.001850793
     15        6           0.010739821   -0.005404044    0.000088307
     16        7          -0.006742870    0.038111449    0.002640199
     17        6           0.012959696   -0.002125899   -0.000631617
     18        7           0.018292354   -0.014106040   -0.000860475
 -------------------------------------------------------------------
 Cartesian Forces:  Max     0.214411808 RMS     0.068101947

 GradGradGradGradGradGradGradGradGradGradGradGradGradGradGradGradGradGrad
 Berny optimization.
 Search for a local minimum.
 Step number   1 out of a maximum of    2
 All quantities printed in internal units (Hartrees-Bohrs-Radians)
 Second derivative matrix not updated -- first step.
 ITU=  0
     Eigenvalues ---    0.00218   0.00243   0.00251   0.00289   0.00290
     Eigenvalues ---    0.01013   0.01483   0.01596   0.01906   0.01936
     Eigenvalues ---    0.04358   0.04452   0.05080   0.05119   0.09670
     Eigenvalues ---    0.17374   0.18085   0.18856   0.22452   0.23776
     Eigenvalues ---    0.23959   0.24613   0.29726   0.30219   0.41429
     Eigenvalues ---    0.61540   0.63184   0.64592   0.64881   0.69111
     Eigenvalues ---    0.95069   0.96653   1.02931   1.42764   1.53828
     Eigenvalues ---    1.61216   1.84093   2.09991   2.24874   2.53495
     Eigenvalues ---    2.62633   2.70318   2.83442   2.93252   3.05138
     Eigenvalues ---    3.75427   4.64789   5.09434
 Quadratic step=5.913D-01 exceeds max=3.000D-01 adjusted using Lamda=-1.428D-01.
 Angle between NR and scaled steps=  24.34 degrees.
 Angle between quadratic step and forces=  42.97 degrees.
 Linear search not attempted -- first point.
 B after Tr=    -0.000165    0.000259    0.000068
         Rot=    1.000000    0.000001    0.000002   -0.000004 Ang=   0.00 deg.
 Variable       Old X    -DE/DX   Delta X   Delta X   Delta X     New X
                                 (Linear)    (Quad)   (Total)
    X1      -16.89136  -0.00216   0.00000  -0.00757  -0.00773 -16.89909
    Y1       -1.58583  -0.18479   0.00000  -0.10810  -0.10796  -1.69379
    Z1        2.10636  -0.01775   0.00000  -0.00982  -0.00981   2.09655
    X2      -16.88689  -0.01041   0.00000  -0.00420  -0.00438 -16.89127
    Y2        0.92695   0.11248   0.00000   0.01365   0.01379   0.94074
    Z2        2.36359   0.01143   0.00000   0.00205   0.00205   2.36564
    X3      -15.44455  -0.17793   0.00000  -0.10958  -0.10973 -15.55428
    Y3       -4.06536   0.09620   0.00000   0.05338   0.05353  -4.01183
    Z3        1.85761   0.01029   0.00000   0.00477   0.00479   1.86240
    X4      -13.27043   0.09650   0.00000   0.01174   0.01160 -13.25882
    Y4       -5.31495  -0.06075   0.00000  -0.01139  -0.01123  -5.32618
    Z4        1.70058  -0.00735   0.00000  -0.00208  -0.00204   1.69853
    X5      -18.32757   0.15580   0.00000   0.09583   0.09569 -18.23188
    Y5       -4.06459   0.08641   0.00000   0.05571   0.05584  -4.00875
    Z5        1.87474   0.00753   0.00000   0.00511   0.00512   1.87986
    X6      -20.55311  -0.07079   0.00000   0.00090   0.00077 -20.55235
    Y6       -5.34472  -0.03581   0.00000   0.00279   0.00290  -5.34182
    Z6        1.76978  -0.00277   0.00000   0.00071   0.00071   1.77049
    X7      -19.35329   0.21441   0.00000   0.10034   0.10014 -19.25314
    Y7        2.38906  -0.11650   0.00000  -0.06127  -0.06115   2.32791
    Z7        2.54053  -0.01491   0.00000  -0.00638  -0.00639   2.53414
    X8      -21.20394  -0.16610   0.00000   0.01304   0.01284 -21.19110
    Y8        3.31726   0.08573   0.00000  -0.00025  -0.00014   3.31712
    Z8        2.67017   0.01156   0.00000  -0.00079  -0.00081   2.66936
    X9      -14.49044  -0.07055   0.00000  -0.06292  -0.06311 -14.55355
    Y9        2.38864  -0.04615   0.00000  -0.05123  -0.05107   2.33758
    Z9        2.50651  -0.00440   0.00000  -0.00402  -0.00402   2.50249
   X10      -12.52319   0.03282   0.00000  -0.04516  -0.04536 -12.56856
   Y10        3.29603   0.01923   0.00000  -0.01188  -0.01171   3.28432
   Z10        2.60703   0.00190   0.00000  -0.00199  -0.00198   2.60505
   X11      -10.82612  -0.02933   0.00000  -0.05230  -0.05244 -10.87856
   Y11       -3.98351  -0.01013   0.00000  -0.02302  -0.02284  -4.00635
   Z11        1.79787  -0.00077   0.00000  -0.00220  -0.00216   1.79571
   X12       -8.98807  -0.00492   0.00000  -0.04363  -0.04378  -9.03185
   Y12       -2.77091  -0.00607   0.00000  -0.03539  -0.03519  -2.80610
   Z12        1.88343  -0.00043   0.00000  -0.00212  -0.00208   1.88135
   X13      -13.22014  -0.00336   0.00000  -0.00315  -0.00326 -13.22340
   Y13       -8.10876   0.06126   0.00000   0.06825   0.06841  -8.04035
   Z13        1.39418   0.00627   0.00000   0.00617   0.00621   1.40039
   X14      -13.32162   0.00076   0.00000   0.00605   0.00596 -13.31566
   Y14      -10.27457  -0.01759   0.00000   0.04886   0.04902 -10.22555
   Z14        1.14170  -0.00185   0.00000   0.00580   0.00584   1.14754
   X15      -20.60423   0.01074   0.00000   0.01836   0.01824 -20.58598
   Y15       -8.09611  -0.00540   0.00000   0.04654   0.04665  -8.04946
   Z15        1.55344   0.00009   0.00000   0.00491   0.00492   1.55836
   X16      -20.39918  -0.00674   0.00000  -0.01355  -0.01365 -20.41283
   Y16      -10.31359   0.03811   0.00000   0.06875   0.06886 -10.24473
   Z16        1.39324   0.00264   0.00000   0.00481   0.00483   1.39807
   X17      -22.96214   0.01296   0.00000   0.04864   0.04850 -22.91364
   Y17       -3.97791  -0.00213   0.00000  -0.01919  -0.01909  -3.99700
   Z17        1.88269  -0.00063   0.00000  -0.00220  -0.00221   1.88048
   X18      -24.80936   0.01829   0.00000   0.04985   0.04970 -24.75966
   Y18       -2.75332  -0.01411   0.00000  -0.03871  -0.03862  -2.79194
   Z18        1.97093  -0.00086   0.00000  -0.00295  -0.00297   1.96795
         Item               Value     Threshold  Converged?
 Maximum Force            0.214412     0.000450     NO 
 RMS     Force            0.068102     0.000300     NO 
 Maximum Displacement     0.109727     0.001800     NO 
 RMS     Displacement     0.040853     0.001200     NO 
 Predicted change in Energy=-6.140256D-02
 GradGradGradGradGradGradGradGradGradGradGradGradGradGradGradGradGradGrad

 Unable to Open any file for archive entry.
 1\1\GINC-X10P1N4\Force\RwB97XD\def2SVP\C12N6(2-)\MAYUMIAO\11-Oct-2024\
 0\\# wb97xd def2svp scrf=(smd,solvent=acetonitrile) g09default scf=(xq
 c,maxcycle=64) force guess=read nosymm\\Title Card\\-2,1\C,-8.93852221
 ,-0.8391838,1.11463906\C,-8.9361591,0.49052125,1.25075735\C,-8.1729056
 4,-2.15129688,0.98300513\C,-7.02240794,-2.81255138,0.89990635\C,-9.698
 5308,-2.15088896,0.99207016\C,-10.87623903,-2.82830447,0.9365277\C,-10
 .24131841,1.26423681,1.34439164\N,-11.22064435,1.75541965,1.4129941\C,
 -7.66800929,1.26401612,1.32638672\N,-6.62698848,1.74418304,1.3795796\C
 ,-5.72893801,-2.10798468,0.95138936\N,-4.7562813,-1.46630017,0.9966671
 8\C,-6.99579586,-4.2909711,0.73777078\N,-7.04949772,-5.43706743,0.6041
 6131\C,-10.90328765,-4.28427603,0.82204503\N,-10.79478013,-5.45771698,
 0.73726957\C,-12.1510387,-2.1050201,0.99627443\N,-13.12855024,-1.45699
 295,1.04296934\\Version=ES64L-G16RevC.01\HF=-784.9566279\RMSD=3.746e-0
 9\RMSF=6.810e-02\Dipole=0.0653749,0.2861503,0.0261944\Quadrupole=-395.
 9192599,156.3805435,239.5387164,-115.4766321,65.9669008,6.2673613\PG=C
 01 [X(C12N6)]\\@
 The archive entry for this job was punched.


 THE DIFFERENCE BETWEEN A NOOSE AND A HALO IS ONLY 12 INCHES.
 Job cpu time:       0 days  0 hours 11 minutes  7.7 seconds.
 Elapsed time:       0 days  0 hours  0 minutes 25.2 seconds.
 File lengths (MBytes):  RWF=    149 Int=      0 D2E=      0 Chk=      8 Scr=      1
 Normal termination of Gaussian 16 at Fri Oct 11 15:50:12 2024.
