 Entering Gaussian System, Link 0=g16
 Input=JOBS/25_B.gjf
 Output=JOBS/25_B.log
 Initial command:
 /data/app/gaussian/C01-avx2//g16/l1.exe "/tmp/Gau-2537487.inp" -scrdir="/tmp/"
 Entering Link 1 = /data/app/gaussian/C01-avx2//g16/l1.exe PID=   2537488.
  
 Copyright (c) 1988-2019, Gaussian, Inc.  All Rights Reserved.
  
 This is part of the Gaussian(R) 16 program.  It is based on
 the Gaussian(R) 09 system (copyright 2009, Gaussian, Inc.),
 the Gaussian(R) 03 system (copyright 2003, Gaussian, Inc.),
 the Gaussian(R) 98 system (copyright 1998, Gaussian, Inc.),
 the Gaussian(R) 94 system (copyright 1995, Gaussian, Inc.),
 the Gaussian 92(TM) system (copyright 1992, Gaussian, Inc.),
 the Gaussian 90(TM) system (copyright 1990, Gaussian, Inc.),
 the Gaussian 88(TM) system (copyright 1988, Gaussian, Inc.),
 the Gaussian 86(TM) system (copyright 1986, Carnegie Mellon
 University), and the Gaussian 82(TM) system (copyright 1983,
 Carnegie Mellon University). Gaussian is a federally registered
 trademark of Gaussian, Inc.
  
 This software contains proprietary and confidential information,
 including trade secrets, belonging to Gaussian, Inc.
  
 This software is provided under written license and may be
 used, copied, transmitted, or stored only in accord with that
 written license.
  
 The following legend is applicable only to US Government
 contracts under FAR:
  
                    RESTRICTED RIGHTS LEGEND
  
 Use, reproduction and disclosure by the US Government is
 subject to restrictions as set forth in subparagraphs (a)
 and (c) of the Commercial Computer Software - Restricted
 Rights clause in FAR 52.227-19.
  
 Gaussian, Inc.
 340 Quinnipiac St., Bldg. 40, Wallingford CT 06492
  
  
 ---------------------------------------------------------------
 Warning -- This program may not be used in any manner that
 competes with the business of Gaussian, Inc. or will provide
 assistance to any competitor of Gaussian, Inc.  The licensee
 of this program is prohibited from giving any competitor of
 Gaussian, Inc. access to this program.  By using this program,
 the user acknowledges that Gaussian, Inc. is engaged in the
 business of creating and licensing software in the field of
 computational chemistry and represents and warrants to the
 licensee that it is not a competitor of Gaussian, Inc. and that
 it will not use this program in any manner prohibited above.
 ---------------------------------------------------------------
  

 Cite this work as:
 Gaussian 16, Revision C.01,
 M. J. Frisch, G. W. Trucks, H. B. Schlegel, G. E. Scuseria, 
 M. A. Robb, J. R. Cheeseman, G. Scalmani, V. Barone, 
 G. A. Petersson, H. Nakatsuji, X. Li, M. Caricato, A. V. Marenich, 
 J. Bloino, B. G. Janesko, R. Gomperts, B. Mennucci, H. P. Hratchian, 
 J. V. Ortiz, A. F. Izmaylov, J. L. Sonnenberg, D. Williams-Young, 
 F. Ding, F. Lipparini, F. Egidi, J. Goings, B. Peng, A. Petrone, 
 T. Henderson, D. Ranasinghe, V. G. Zakrzewski, J. Gao, N. Rega, 
 G. Zheng, W. Liang, M. Hada, M. Ehara, K. Toyota, R. Fukuda, 
 J. Hasegawa, M. Ishida, T. Nakajima, Y. Honda, O. Kitao, H. Nakai, 
 T. Vreven, K. Throssell, J. A. Montgomery, Jr., J. E. Peralta, 
 F. Ogliaro, M. J. Bearpark, J. J. Heyd, E. N. Brothers, K. N. Kudin, 
 V. N. Staroverov, T. A. Keith, R. Kobayashi, J. Normand, 
 K. Raghavachari, A. P. Rendell, J. C. Burant, S. S. Iyengar, 
 J. Tomasi, M. Cossi, J. M. Millam, M. Klene, C. Adamo, R. Cammi, 
 J. W. Ochterski, R. L. Martin, K. Morokuma, O. Farkas, 
 J. B. Foresman, and D. J. Fox, Gaussian, Inc., Wallingford CT, 2019.
 
 ******************************************
 Gaussian 16:  ES64L-G16RevC.01  3-Jul-2019
                11-Oct-2024 
 ******************************************
 %chk=b.chk
 %nprocshared=28
 Will use up to   28 processors via shared memory.
 %mem=48gb
 ----------------------------------------------------------------------
 # wb97xd def2svp scrf=(smd,solvent=acetonitrile) g09default scf=(xqc,m
 axcycle=64) force guess=read nosymm
 ----------------------------------------------------------------------
 1/10=7,30=1,38=1,158=3,167=1/1,3;
 2/12=2,15=1,17=6,18=5,40=1/2;
 3/5=43,7=101,11=2,25=1,27=10,30=1,70=32201,71=1,72=2,74=-58,75=-4,116=-2,158=3/1,2,3;
 4/5=1,60=-1/1;
 5/5=2,7=64,8=3,13=1,38=6,53=2,87=10/2,8;
 6/7=2,8=2,9=2,10=2,28=1,87=10/1;
 7/29=1,30=1,87=10/1,2,3,16;
 1/10=7,30=1,158=3,167=1/3;
 99//99;
 Using 2006 physical constants.
 ----------
 Title Card
 ----------
 Symbolic Z-matrix:
 Charge = -1 Multiplicity = 2
 6                    -8.93811  -0.82887   1.1139 
 6                    -8.9369    0.4602    1.2477 
 6                    -8.17264  -2.14985   0.98378 
 6                    -7.04328  -2.80051   0.89981 
 6                    -9.70412  -2.15435   0.99219 
 6                    -10.85077  -2.80885   0.93836 
 6                    -10.23131   1.2463    1.34237 
 7                    -11.21692   1.75787   1.4134 
 6                    -7.66749   1.25208   1.32425 
 7                    -6.64179   1.73721   1.37927 
 6                    -5.73676  -2.10298   0.95247 
 7                    -4.77167  -1.47941   0.99609 
 6                    -7.00598  -4.2817    0.74001 
 7                    -7.04531  -5.42554   0.60598 
 6                    -10.89485  -4.28717   0.82216 
 7                    -10.79411  -5.43677   0.73871 
 6                    -12.12917  -2.10908   0.99563 
 7                    -13.1287  -1.45877   1.04272 
 

 GradGradGradGradGradGradGradGradGradGradGradGradGradGradGradGradGradGrad
 Berny optimization.
 Initialization pass.
 Trust Radius=3.00D-01 FncErr=1.00D-07 GrdErr=1.00D-07 EigMax=2.50D+02 EigMin=1.00D-04
 Number of steps in this run=      2 maximum allowed number of steps=      2.
 GradGradGradGradGradGradGradGradGradGradGradGradGradGradGradGradGradGrad

                          Input orientation:                          
 ---------------------------------------------------------------------
 Center     Atomic      Atomic             Coordinates (Angstroms)
 Number     Number       Type             X           Y           Z
 ---------------------------------------------------------------------
      1          6           0       -8.938115   -0.828868    1.113898
      2          6           0       -8.936898    0.460200    1.247702
      3          6           0       -8.172644   -2.149846    0.983782
      4          6           0       -7.043278   -2.800509    0.899813
      5          6           0       -9.704123   -2.154353    0.992187
      6          6           0      -10.850774   -2.808849    0.938362
      7          6           0      -10.231313    1.246299    1.342374
      8          7           0      -11.216924    1.757872    1.413398
      9          6           0       -7.667489    1.252079    1.324251
     10          7           0       -6.641795    1.737206    1.379275
     11          6           0       -5.736761   -2.102978    0.952470
     12          7           0       -4.771672   -1.479408    0.996094
     13          6           0       -7.005978   -4.281702    0.740005
     14          7           0       -7.045305   -5.425544    0.605980
     15          6           0      -10.894852   -4.287168    0.822159
     16          7           0      -10.794105   -5.436768    0.738708
     17          6           0      -12.129168   -2.109075    0.995630
     18          7           0      -13.128699   -1.458766    1.042718
 ---------------------------------------------------------------------
                    Distance matrix (angstroms):
                    1          2          3          4          5
     1  C    0.000000
     2  C    1.295994   0.000000
     3  C    1.532273   2.732412   0.000000
     4  C    2.742920   3.786693   1.306094   0.000000
     5  C    1.535739   2.736751   1.531508   2.739735   0.000000
     6  C    2.758515   3.800697   2.758393   3.807701   1.321390
     7  C    2.455785   1.517375   3.987544   5.170695   3.459045
     8  N    3.460332   2.628675   4.972170   6.201769   4.215625
     9  C    2.447259   1.498110   3.456037   4.122288   3.982703
    10  N    3.453729   2.629745   4.196319   4.580604   4.967084
    11  C    3.449360   4.110708   2.436535   1.481995   3.967893
    12  N    4.218569   4.601575   3.466446   2.629596   4.978417
    13  C    3.974294   5.145079   2.442406   1.490255   3.445169
    14  N    4.997014   6.215457   3.484799   2.641430   4.233103
    15  C    3.984190   5.152879   3.464777   4.129262   2.448601
    16  N    4.981788   6.203428   4.211410   4.587430   3.467933
    17  C    3.440310   4.105520   3.956751   5.133569   2.425470
    18  N    4.238258   4.614720   5.004353   6.233221   3.494870
                    6          7          8          9         10
     6  C    0.000000
     7  C    4.122037   0.000000
     8  N    4.605939   1.112736   0.000000
     9  C    5.174298   2.563895   3.586400   0.000000
    10  N    6.211001   3.623120   4.575304   1.135969   0.000000
    11  C    5.162518   5.618780   6.719435   3.888745   3.968409
    12  N    6.223041   6.112043   7.224639   3.994304   3.740427
    13  C    4.122026   6.428408   7.393374   5.603719   6.063708
    14  N    4.630244   7.430102   8.346005   6.744900   7.215664
    15  C    1.483533   5.597335   6.082417   6.430492   7.395401
    16  N    2.636101   6.733835   7.238565   7.406704   8.313719
    17  C    1.458511   3.870480   3.994997   5.595706   6.712103
    18  N    2.650011   3.975174   3.760192   6.103503   7.239298
                   11         12         13         14         15
    11  C    0.000000
    12  N    1.149843   0.000000
    13  C    2.530393   3.593127   0.000000
    14  N    3.587728   4.570951   1.152339   0.000000
    15  C    5.602997   6.738480   3.889745   4.020155   0.000000
    16  N    6.061071   7.210870   3.960314   3.751165   1.157020
    17  C    6.392555   7.384391   5.570702   6.082471   2.509525
    18  N    7.420505   8.357182   6.748949   7.275558   3.610897
                   16         17         18
    16  N    0.000000
    17  C    3.594710   0.000000
    18  N    4.622472   1.193391   0.000000
 Symmetry turned off by external request.
 Stoichiometry    C12N6(1-,2)
 Framework group  C1[X(C12N6)]
 Deg. of freedom    48
 Full point group                 C1      NOp   1
 Rotational constants (GHZ):           0.4188982           0.4166704           0.2089168
 Standard basis: def2SVP (5D, 7F)
   252 basis functions,   450 primitive gaussians,   270 cartesian basis functions
    58 alpha electrons       57 beta electrons
       nuclear repulsion energy       952.2024150125 Hartrees.
 NAtoms=   18 NActive=   18 NUniq=   18 SFac= 1.00D+00 NAtFMM=   60 NAOKFM=F Big=F
 Integral buffers will be    131072 words long.
 Raffenetti 2 integral format.
 Two-electron integral symmetry is turned off.
 Nuclear repulsion after empirical dispersion term =      952.1909915033 Hartrees.
 Force PCM accuracy= 1.00D-10.
 ------------------------------------------------------------------------------
 Polarizable Continuum Model (PCM)
 =================================
 Model                : PCM (using non-symmetric T matrix).
 Atomic radii         : SMD-Coulomb.
 Polarization charges : Total charges.
 Charge compensation  : None.
 Solution method      : On-the-fly selection.
 Cavity type          : VdW (van der Waals Surface) (Alpha=1.000).
 Cavity algorithm     : GePol (No added spheres)
                        Default sphere list used, NSphG=   18.
                        Lebedev-Laikov grids with approx.  5.0 points / Ang**2.
                        Smoothing algorithm: York/Karplus (Gamma=1.0000).
                        Polarization charges: spherical gaussians, with
                                              point-specific exponents (IZeta= 3).
                        Self-potential: point-specific (ISelfS= 7).
                        Self-field    : sphere-specific E.n sum rule (ISelfD= 2).
 1st derivatives      : Analytical E(r).r(x)/FMM algorithm (CHGder, D1EAlg=3).
                        Cavity 1st derivative terms included.
 Solvent              : Acetonitrile, Eps=  35.688000 Eps(inf)=   1.806874
 ------------------------------------------------------------------------------
 Spheres list:
 ISph  on   Nord     Re0    Alpha      Xe            Ye            Ze
    1   C      1    1.8500  1.000     -8.938115     -0.828868      1.113898
    2   C      2    1.8500  1.000     -8.936898      0.460200      1.247702
    3   C      3    1.8500  1.000     -8.172644     -2.149846      0.983782
    4   C      4    1.8500  1.000     -7.043278     -2.800509      0.899813
    5   C      5    1.8500  1.000     -9.704123     -2.154353      0.992187
    6   C      6    1.8500  1.000    -10.850774     -2.808849      0.938362
    7   C      7    1.8500  1.000    -10.231313      1.246299      1.342374
    8   N      8    1.8900  1.000    -11.216924      1.757872      1.413398
    9   C      9    1.8500  1.000     -7.667489      1.252079      1.324251
   10   N     10    1.8900  1.000     -6.641795      1.737206      1.379275
   11   C     11    1.8500  1.000     -5.736761     -2.102978      0.952470
   12   N     12    1.8900  1.000     -4.771672     -1.479408      0.996094
   13   C     13    1.8500  1.000     -7.005978     -4.281702      0.740005
   14   N     14    1.8900  1.000     -7.045305     -5.425544      0.605980
   15   C     15    1.8500  1.000    -10.894852     -4.287168      0.822159
   16   N     16    1.8900  1.000    -10.794105     -5.436768      0.738708
   17   C     17    1.8500  1.000    -12.129168     -2.109075      0.995630
   18   N     18    1.8900  1.000    -13.128699     -1.458766      1.042718
 ------------------------------------------------------------------------------
 ------------------------------------------------------------------------------
 Atomic radii for non-electrostatic terms: SMD-CDS.
 ------------------------------------------------------------------------------
 Nuclear repulsion after PCM non-electrostatic terms =      952.1999322290 Hartrees.
 One-electron integrals computed using PRISM.
   1 Symmetry operations used in ECPInt.
 ECPInt:  NShTT=    5886 NPrTT=   23670 LenC2=    5387 LenP2D=   14861.
 LDataN:  DoStor=T MaxTD1= 4 Len=   56
 NBasis=   252 RedAO= T EigKep=  3.22D-04  NBF=   252
 NBsUse=   252 1.00D-06 EigRej= -1.00D+00 NBFU=   252
 Initial guess from the checkpoint file:  "b.chk"
 B after Tr=    -0.000150   -0.000492    0.000692
         Rot=    1.000000    0.000037    0.000026    0.000017 Ang=   0.01 deg.
 Initial guess <Sx>= 0.0000 <Sy>= 0.0000 <Sz>= 0.5000 <S**2>= 0.7788 S= 0.5143
 Requested convergence on RMS density matrix=1.00D-08 within  64 cycles.
 Requested convergence on MAX density matrix=1.00D-06.
 Requested convergence on             energy=1.00D-06.
 No special actions if energy rises.
 Inv3:  Mode=1 IEnd=    19476912.
 Iteration    1 A*A^-1 deviation from unit magnitude is 3.77D-15 for   1357.
 Iteration    1 A*A^-1 deviation from orthogonality  is 2.54D-15 for   1049    881.
 Iteration    1 A^-1*A deviation from unit magnitude is 3.00D-15 for     40.
 Iteration    1 A^-1*A deviation from orthogonality  is 9.21D-11 for   1110   1108.
 Error on total polarization charges =  0.01996
 SCF Done:  E(UwB97XD) =  -784.793642412     A.U. after   17 cycles
            NFock= 17  Conv=0.57D-08     -V/T= 2.0101
 <Sx>= 0.0000 <Sy>= 0.0000 <Sz>= 0.5000 <S**2>= 0.7750 S= 0.5124
 <L.S>=  0.00000000000    
 SMD-CDS (non-electrostatic) energy       (kcal/mol) =       5.61
 (included in total energy above)
 Annihilation of the first spin contaminant:
 S**2 before annihilation     0.7750,   after     0.7505
 QCSCF skips out because SCF is already converged.

 **********************************************************************

            Population analysis using the SCF Density.

 **********************************************************************

 Alpha  occ. eigenvalues --  -14.46734 -14.46062 -14.45981 -14.45910 -14.45677
 Alpha  occ. eigenvalues --  -14.45092 -10.38903 -10.38644 -10.38590 -10.38498
 Alpha  occ. eigenvalues --  -10.38437 -10.38402 -10.37045 -10.36431 -10.36384
 Alpha  occ. eigenvalues --  -10.36278 -10.36081 -10.35571  -1.03295  -1.02470
 Alpha  occ. eigenvalues --   -1.02096  -1.01812  -1.01227  -1.00208  -0.99235
 Alpha  occ. eigenvalues --   -0.92361  -0.92257  -0.86987  -0.71917  -0.71766
 Alpha  occ. eigenvalues --   -0.67762  -0.67477  -0.67344  -0.66233  -0.54076
 Alpha  occ. eigenvalues --   -0.50566  -0.50384  -0.48549  -0.48454  -0.47707
 Alpha  occ. eigenvalues --   -0.47607  -0.47483  -0.47055  -0.46370  -0.45876
 Alpha  occ. eigenvalues --   -0.45804  -0.45540  -0.45188  -0.45082  -0.44764
 Alpha  occ. eigenvalues --   -0.44497  -0.44432  -0.43409  -0.43001  -0.42571
 Alpha  occ. eigenvalues --   -0.37245  -0.36671  -0.25310
 Alpha virt. eigenvalues --    0.03897   0.04671   0.06490   0.07105   0.07289
 Alpha virt. eigenvalues --    0.08313   0.09922   0.10855   0.11239   0.12030
 Alpha virt. eigenvalues --    0.12138   0.14217   0.17664   0.18169   0.19625
 Alpha virt. eigenvalues --    0.21027   0.24142   0.24367   0.24595   0.24924
 Alpha virt. eigenvalues --    0.27214   0.27633   0.27782   0.30640   0.31117
 Alpha virt. eigenvalues --    0.33331   0.34137   0.45942   0.46602   0.49717
 Alpha virt. eigenvalues --    0.50229   0.50518   0.51097   0.52951   0.53112
 Alpha virt. eigenvalues --    0.53208   0.53317   0.53968   0.56196   0.59827
 Alpha virt. eigenvalues --    0.60208   0.60420   0.61385   0.61972   0.63365
 Alpha virt. eigenvalues --    0.64354   0.68655   0.68818   0.70808   0.71478
 Alpha virt. eigenvalues --    0.71635   0.72250   0.72443   0.72720   0.73119
 Alpha virt. eigenvalues --    0.73635   0.73740   0.74111   0.74422   0.75000
 Alpha virt. eigenvalues --    0.78097   0.78544   0.79053   0.80763   0.80950
 Alpha virt. eigenvalues --    0.82977   0.83125   0.86205   0.87060   0.92195
 Alpha virt. eigenvalues --    0.92877   0.92946   0.92986   0.93099   0.94101
 Alpha virt. eigenvalues --    0.95313   0.97982   0.98058   0.98852   0.98942
 Alpha virt. eigenvalues --    1.01102   1.01604   1.02119   1.02345   1.02841
 Alpha virt. eigenvalues --    1.03273   1.05315   1.06176   1.08141   1.09660
 Alpha virt. eigenvalues --    1.11427   1.14521   1.16347   1.16885   1.17626
 Alpha virt. eigenvalues --    1.21822   1.22242   1.22707   1.24992   1.31441
 Alpha virt. eigenvalues --    1.32481   1.32605   1.38777   1.38890   1.42088
 Alpha virt. eigenvalues --    1.43456   1.43848   1.45417   1.46127   1.55071
 Alpha virt. eigenvalues --    1.61996   1.66883   1.67736   1.68238   1.68454
 Alpha virt. eigenvalues --    1.68542   1.69235   1.72956   1.73112   1.76559
 Alpha virt. eigenvalues --    1.76811   1.77040   1.77372   1.78318   1.78791
 Alpha virt. eigenvalues --    1.79356   1.80994   1.83777   1.91110   1.93473
 Alpha virt. eigenvalues --    1.95107   1.95220   1.95733   1.96979   1.97809
 Alpha virt. eigenvalues --    1.99126   1.99729   2.02001   2.05231   2.06197
 Alpha virt. eigenvalues --    2.08566   2.16591   2.16698   2.21761   2.23333
 Alpha virt. eigenvalues --    2.24171   2.28879   2.30144   2.30539   2.31411
 Alpha virt. eigenvalues --    2.32292   2.33816   2.33891   2.34103   2.34524
 Alpha virt. eigenvalues --    2.34681   2.35208   2.35812   2.36123   2.36230
 Alpha virt. eigenvalues --    2.36664   2.38044   2.53180   2.54012   2.57648
 Alpha virt. eigenvalues --    2.66555   2.68215   2.86780   2.89344   2.93317
 Alpha virt. eigenvalues --    2.93732   2.97026   2.97878   3.00635   3.01068
 Alpha virt. eigenvalues --    3.03618   3.05695   3.06594   3.07260   3.07847
 Alpha virt. eigenvalues --    3.08497   3.09955   3.17627   3.19112   3.25885
 Alpha virt. eigenvalues --    3.36317   3.38361   3.39220   3.45833   3.50126
 Alpha virt. eigenvalues --    3.53975   3.60192   3.64725   3.76710
  Beta  occ. eigenvalues --  -14.46543 -14.45917 -14.45841 -14.45766 -14.45549
  Beta  occ. eigenvalues --  -14.44986 -10.38589 -10.38542 -10.38471 -10.38414
  Beta  occ. eigenvalues --  -10.38289 -10.38202 -10.37135 -10.36505 -10.36456
  Beta  occ. eigenvalues --  -10.36351 -10.36148 -10.35630  -1.03064  -1.02189
  Beta  occ. eigenvalues --   -1.01875  -1.01530  -1.00993  -0.99886  -0.98797
  Beta  occ. eigenvalues --   -0.91715  -0.91599  -0.85979  -0.71672  -0.71517
  Beta  occ. eigenvalues --   -0.67521  -0.67243  -0.67108  -0.65988  -0.52919
  Beta  occ. eigenvalues --   -0.49437  -0.49162  -0.48313  -0.48255  -0.47406
  Beta  occ. eigenvalues --   -0.47314  -0.47247  -0.46792  -0.46273  -0.45760
  Beta  occ. eigenvalues --   -0.45426  -0.45255  -0.44644  -0.44447  -0.44340
  Beta  occ. eigenvalues --   -0.44147  -0.43595  -0.43287  -0.42867  -0.42418
  Beta  occ. eigenvalues --   -0.35167  -0.34456
  Beta virt. eigenvalues --   -0.07642   0.05410   0.05971   0.06589   0.07119
  Beta virt. eigenvalues --    0.07377   0.08376   0.10845   0.11300   0.11653
  Beta virt. eigenvalues --    0.12192   0.12710   0.14497   0.17985   0.18455
  Beta virt. eigenvalues --    0.20980   0.21159   0.24590   0.25118   0.25822
  Beta virt. eigenvalues --    0.26192   0.27475   0.27791   0.27968   0.31053
  Beta virt. eigenvalues --    0.31551   0.33835   0.34257   0.46141   0.46771
  Beta virt. eigenvalues --    0.49782   0.50299   0.50604   0.51168   0.53077
  Beta virt. eigenvalues --    0.53133   0.53203   0.53468   0.54107   0.56357
  Beta virt. eigenvalues --    0.59763   0.60117   0.60382   0.61417   0.62009
  Beta virt. eigenvalues --    0.63252   0.64661   0.68799   0.68997   0.71004
  Beta virt. eigenvalues --    0.71680   0.71794   0.72350   0.72554   0.72748
  Beta virt. eigenvalues --    0.73278   0.73796   0.73873   0.74210   0.74572
  Beta virt. eigenvalues --    0.75168   0.78115   0.78585   0.79953   0.81447
  Beta virt. eigenvalues --    0.81604   0.83100   0.83259   0.86475   0.87135
  Beta virt. eigenvalues --    0.92308   0.93105   0.93257   0.93372   0.93447
  Beta virt. eigenvalues --    0.94536   0.95894   0.98468   0.98539   0.99004
  Beta virt. eigenvalues --    0.99099   1.01209   1.01694   1.02341   1.02589
  Beta virt. eigenvalues --    1.03085   1.03496   1.05572   1.06291   1.08399
  Beta virt. eigenvalues --    1.09760   1.11533   1.14681   1.16574   1.17125
  Beta virt. eigenvalues --    1.17839   1.22181   1.22546   1.23016   1.25728
  Beta virt. eigenvalues --    1.31582   1.32666   1.32773   1.39393   1.39541
  Beta virt. eigenvalues --    1.42735   1.43650   1.43982   1.46160   1.46873
  Beta virt. eigenvalues --    1.55141   1.61950   1.66764   1.67617   1.68088
  Beta virt. eigenvalues --    1.68310   1.68388   1.69028   1.72951   1.73117
  Beta virt. eigenvalues --    1.76678   1.76832   1.77000   1.77604   1.78274
  Beta virt. eigenvalues --    1.78727   1.79254   1.81215   1.83697   1.91388
  Beta virt. eigenvalues --    1.93624   1.95157   1.95755   1.96241   1.97143
  Beta virt. eigenvalues --    1.98107   1.99450   2.00247   2.02569   2.05504
  Beta virt. eigenvalues --    2.06408   2.08797   2.17476   2.17593   2.22464
  Beta virt. eigenvalues --    2.24392   2.24832   2.29537   2.30626   2.31258
  Beta virt. eigenvalues --    2.31850   2.32957   2.34325   2.34419   2.34641
  Beta virt. eigenvalues --    2.35034   2.35139   2.35713   2.36316   2.36534
  Beta virt. eigenvalues --    2.36684   2.37234   2.38494   2.53296   2.54130
  Beta virt. eigenvalues --    2.58079   2.67239   2.68849   2.86879   2.89535
  Beta virt. eigenvalues --    2.93477   2.93849   2.97154   2.97976   3.01122
  Beta virt. eigenvalues --    3.01158   3.04061   3.06108   3.07016   3.07466
  Beta virt. eigenvalues --    3.08247   3.08696   3.10297   3.17847   3.19313
  Beta virt. eigenvalues --    3.26040   3.36512   3.38593   3.39435   3.46009
  Beta virt. eigenvalues --    3.50285   3.54120   3.60373   3.64893   3.76888
          Condensed to atoms (all electrons):
               1          2          3          4          5          6
     1  C    4.869755   0.567153   0.264071  -0.103989   0.274184  -0.095443
     2  C    0.567153   5.389347  -0.107904  -0.012453  -0.106248  -0.010779
     3  C    0.264071  -0.107904   4.877217   0.562563   0.280121  -0.097975
     4  C   -0.103989  -0.012453   0.562563   5.382011  -0.105951  -0.010818
     5  C    0.274184  -0.106248   0.280121  -0.105951   4.888892   0.555803
     6  C   -0.095443  -0.010779  -0.097975  -0.010818   0.555803   5.359538
     7  C    0.004509   0.368473   0.004236  -0.000211  -0.011327   0.000655
     8  N   -0.001645  -0.020803  -0.000024  -0.000001  -0.000316   0.000035
     9  C    0.004063   0.372005  -0.012303   0.000582   0.005069  -0.000195
    10  N   -0.001315  -0.022960  -0.000333   0.000020   0.000007  -0.000001
    11  C   -0.012886   0.000720   0.004805   0.377344   0.004860  -0.000217
    12  N   -0.000297   0.000008  -0.001489  -0.023792  -0.000008  -0.000001
    13  C    0.004301  -0.000275   0.004061   0.374903  -0.012783   0.000675
    14  N   -0.000025  -0.000001  -0.001574  -0.022816  -0.000296   0.000030
    15  C    0.005392  -0.000213  -0.013324   0.000664   0.000538   0.369512
    16  N    0.000019  -0.000001  -0.000310   0.000021  -0.001122  -0.025212
    17  C   -0.014626   0.000549   0.004759  -0.000273   0.004461   0.383740
    18  N   -0.000290   0.000007  -0.000001  -0.000001  -0.000972  -0.026832
               7          8          9         10         11         12
     1  C    0.004509  -0.001645   0.004063  -0.001315  -0.012886  -0.000297
     2  C    0.368473  -0.020803   0.372005  -0.022960   0.000720   0.000008
     3  C    0.004236  -0.000024  -0.012303  -0.000333   0.004805  -0.001489
     4  C   -0.000211  -0.000001   0.000582   0.000020   0.377344  -0.023792
     5  C   -0.011327  -0.000316   0.005069   0.000007   0.004860  -0.000008
     6  C    0.000655   0.000035  -0.000195  -0.000001  -0.000217  -0.000001
     7  C    4.790253   0.971715  -0.024753   0.001046   0.000022   0.000000
     8  N    0.971715   6.012512   0.000831   0.000021   0.000000   0.000000
     9  C   -0.024753   0.000831   4.802029   0.942429   0.000475   0.000283
    10  N    0.001046   0.000021   0.942429   6.059155   0.000367  -0.000735
    11  C    0.000022   0.000000   0.000475   0.000367   4.808894   0.927214
    12  N    0.000000   0.000000   0.000283  -0.000735   0.927214   6.084754
    13  C   -0.000001  -0.000000   0.000028   0.000001  -0.025891   0.001264
    14  N   -0.000000  -0.000000   0.000000   0.000000   0.001151   0.000029
    15  C    0.000023   0.000001  -0.000001  -0.000000   0.000030   0.000000
    16  N    0.000000   0.000000  -0.000000   0.000000   0.000001   0.000000
    17  C    0.000642  -0.000036   0.000031   0.000000  -0.000002  -0.000000
    18  N    0.000656  -0.000731   0.000001   0.000000  -0.000000   0.000000
              13         14         15         16         17         18
     1  C    0.004301  -0.000025   0.005392   0.000019  -0.014626  -0.000290
     2  C   -0.000275  -0.000001  -0.000213  -0.000001   0.000549   0.000007
     3  C    0.004061  -0.001574  -0.013324  -0.000310   0.004759  -0.000001
     4  C    0.374903  -0.022816   0.000664   0.000021  -0.000273  -0.000001
     5  C   -0.012783  -0.000296   0.000538  -0.001122   0.004461  -0.000972
     6  C    0.000675   0.000030   0.369512  -0.025212   0.383740  -0.026832
     7  C   -0.000001  -0.000000   0.000023   0.000000   0.000642   0.000656
     8  N   -0.000000  -0.000000   0.000001   0.000000  -0.000036  -0.000731
     9  C    0.000028   0.000000  -0.000001  -0.000000   0.000031   0.000001
    10  N    0.000001   0.000000  -0.000000   0.000000   0.000000   0.000000
    11  C   -0.025891   0.001151   0.000030   0.000001  -0.000002  -0.000000
    12  N    0.001264   0.000029   0.000000   0.000000  -0.000000   0.000000
    13  C    4.813406   0.926004   0.000485   0.000525   0.000033   0.000000
    14  N    0.926004   6.088510   0.000115  -0.000722   0.000001   0.000000
    15  C    0.000485   0.000115   4.813174   0.919763  -0.023448   0.001295
    16  N    0.000525  -0.000722   0.919763   6.103576   0.001398   0.000025
    17  C    0.000033   0.000001  -0.023448   0.001398   4.827252   0.877218
    18  N    0.000000   0.000000   0.001295   0.000025   0.877218   6.187541
          Atomic-Atomic Spin Densities.
               1          2          3          4          5          6
     1  C   -0.007344  -0.074159   0.032622  -0.007343   0.035499  -0.007149
     2  C   -0.074159   0.374708  -0.008115   0.001198  -0.008596   0.001190
     3  C    0.032622  -0.008115   0.015612  -0.080727   0.039132  -0.007667
     4  C   -0.007343   0.001198  -0.080727   0.374808  -0.008754   0.001149
     5  C    0.035499  -0.008596   0.039132  -0.008754   0.040395  -0.086270
     6  C   -0.007149   0.001190  -0.007667   0.001149  -0.086270   0.372591
     7  C   -0.001556   0.006997  -0.000081  -0.000006   0.000120  -0.000030
     8  N    0.000381  -0.003956   0.000006  -0.000000   0.000056  -0.000027
     9  C   -0.001687   0.008232   0.000145  -0.000034  -0.000088  -0.000006
    10  N    0.000458  -0.004258   0.000058  -0.000032   0.000007  -0.000000
    11  C    0.000160  -0.000040  -0.001458   0.009237  -0.000101  -0.000007
    12  N    0.000053  -0.000031   0.000503  -0.004503   0.000007  -0.000000
    13  C   -0.000090  -0.000007  -0.001309   0.008929   0.000134  -0.000036
    14  N    0.000006  -0.000000   0.000468  -0.004352   0.000059  -0.000028
    15  C   -0.000061  -0.000006   0.000103  -0.000037  -0.000976   0.009048
    16  N    0.000007  -0.000000   0.000056  -0.000032   0.000562  -0.004550
    17  C    0.000168  -0.000045  -0.000090  -0.000007  -0.001008   0.012450
    18  N    0.000055  -0.000033   0.000008  -0.000000   0.000601  -0.004934
               7          8          9         10         11         12
     1  C   -0.001556   0.000381  -0.001687   0.000458   0.000160   0.000053
     2  C    0.006997  -0.003956   0.008232  -0.004258  -0.000040  -0.000031
     3  C   -0.000081   0.000006   0.000145   0.000058  -0.001458   0.000503
     4  C   -0.000006  -0.000000  -0.000034  -0.000032   0.009237  -0.004503
     5  C    0.000120   0.000056  -0.000088   0.000007  -0.000101   0.000007
     6  C   -0.000030  -0.000027  -0.000006  -0.000000  -0.000007  -0.000000
     7  C   -0.047999  -0.001702  -0.001156  -0.000001  -0.000001  -0.000000
     8  N   -0.001702   0.066969   0.000013   0.000004  -0.000000   0.000000
     9  C   -0.001156   0.000013  -0.054959  -0.002426   0.000004   0.000003
    10  N   -0.000001   0.000004  -0.002426   0.080292   0.000003   0.000034
    11  C   -0.000001  -0.000000   0.000004   0.000003  -0.059278  -0.002943
    12  N   -0.000000   0.000000   0.000003   0.000034  -0.002943   0.090054
    13  C    0.000000  -0.000000  -0.000001  -0.000000  -0.001219   0.000024
    14  N   -0.000000   0.000000  -0.000000   0.000000   0.000035   0.000006
    15  C   -0.000001   0.000000   0.000000   0.000000  -0.000001  -0.000000
    16  N   -0.000000   0.000000  -0.000000   0.000000  -0.000000   0.000000
    17  C    0.000002   0.000005  -0.000001  -0.000000   0.000000  -0.000000
    18  N    0.000002   0.000032  -0.000000   0.000000  -0.000000   0.000000
              13         14         15         16         17         18
     1  C   -0.000090   0.000006  -0.000061   0.000007   0.000168   0.000055
     2  C   -0.000007  -0.000000  -0.000006  -0.000000  -0.000045  -0.000033
     3  C   -0.001309   0.000468   0.000103   0.000056  -0.000090   0.000008
     4  C    0.008929  -0.004352  -0.000037  -0.000032  -0.000007  -0.000000
     5  C    0.000134   0.000059  -0.000976   0.000562  -0.001008   0.000601
     6  C   -0.000036  -0.000028   0.009048  -0.004550   0.012450  -0.004934
     7  C    0.000000  -0.000000  -0.000001  -0.000000   0.000002   0.000002
     8  N   -0.000000   0.000000   0.000000   0.000000   0.000005   0.000032
     9  C   -0.000001  -0.000000   0.000000  -0.000000  -0.000001  -0.000000
    10  N   -0.000000   0.000000   0.000000   0.000000  -0.000000   0.000000
    11  C   -0.001219   0.000035  -0.000001  -0.000000   0.000000  -0.000000
    12  N    0.000024   0.000006  -0.000000   0.000000  -0.000000   0.000000
    13  C   -0.058483  -0.002855   0.000002   0.000002  -0.000001  -0.000000
    14  N   -0.002855   0.087824   0.000005   0.000034   0.000000   0.000000
    15  C    0.000002   0.000005  -0.060183  -0.003076  -0.001387   0.000042
    16  N    0.000002   0.000034  -0.003076   0.091651   0.000025   0.000005
    17  C   -0.000001   0.000000  -0.001387   0.000025  -0.075151  -0.004905
    18  N   -0.000000   0.000000   0.000042   0.000005  -0.004905   0.120114
 Mulliken charges and spin densities:
               1          2
     1  C    0.237069  -0.029980
     2  C   -0.416626   0.293081
     3  C    0.233405  -0.010734
     4  C   -0.417802   0.289495
     5  C    0.225089   0.010782
     6  C   -0.402515   0.285725
     7  C   -0.105939  -0.045412
     8  N    0.038441   0.061781
     9  C   -0.090574  -0.051962
    10  N    0.022298   0.074140
    11  C   -0.086890  -0.055609
    12  N    0.012769   0.083205
    13  C   -0.086737  -0.054911
    14  N    0.009594   0.081201
    15  C   -0.074006  -0.056527
    16  N    0.002039   0.084683
    17  C   -0.061698  -0.069946
    18  N   -0.037916   0.110989
 Sum of Mulliken charges =  -1.00000   1.00000
 Mulliken charges and spin densities with hydrogens summed into heavy atoms:
               1          2
     1  C    0.237069  -0.029980
     2  C   -0.416626   0.293081
     3  C    0.233405  -0.010734
     4  C   -0.417802   0.289495
     5  C    0.225089   0.010782
     6  C   -0.402515   0.285725
     7  C   -0.105939  -0.045412
     8  N    0.038441   0.061781
     9  C   -0.090574  -0.051962
    10  N    0.022298   0.074140
    11  C   -0.086890  -0.055609
    12  N    0.012769   0.083205
    13  C   -0.086737  -0.054911
    14  N    0.009594   0.081201
    15  C   -0.074006  -0.056527
    16  N    0.002039   0.084683
    17  C   -0.061698  -0.069946
    18  N   -0.037916   0.110989
 Electronic spatial extent (au):  <R**2>=          39107.5371
 Charge=             -1.0000 electrons
 Dipole moment (field-independent basis, Debye):
    X=             43.1343    Y=              8.6272    Z=             -4.9089  Tot=             44.2616
 Quadrupole moment (field-independent basis, Debye-Ang):
   XX=           -558.1241   YY=           -183.4779   ZZ=           -104.5877
   XY=            -77.2342   XZ=             44.7608   YZ=              1.9012
 Traceless Quadrupole moment (field-independent basis, Debye-Ang):
   XX=           -276.0609   YY=             98.5854   ZZ=            177.4755
   XY=            -77.2342   XZ=             44.7608   YZ=              1.9012
 Octapole moment (field-independent basis, Debye-Ang**2):
  XXX=           8062.9100  YYY=            973.7300  ZZZ=           -312.3136  XYY=           1639.7214
  XXY=            910.3898  XXZ=           -589.5590  XZZ=            936.9753  YZZ=            166.8826
  YYZ=           -158.6986  XYZ=            -19.1042
 Hexadecapole moment (field-independent basis, Debye-Ang**3):
 XXXX=        -117717.9716 YYYY=          -7897.3993 ZZZZ=           -766.7449 XXXY=         -12066.0475
 XXXZ=           8614.3243 YYYX=          -8695.6615 YYYZ=            637.2447 ZZZX=           2811.0322
 ZZZY=            365.0266 XXYY=         -16358.1387 XXZZ=          -9143.7929 YYZZ=           -985.0796
 XXYZ=            333.8798 YYXZ=           1436.8982 ZZXY=          -1495.0822
 N-N= 9.521999322290D+02 E-N=-3.739807588379D+03  KE= 7.769810299185D+02
                          Isotropic Fermi Contact Couplings
        Atom                 a.u.       MegaHertz       Gauss      10(-4) cm-1
     1  C(13)             -0.01487     -16.71838      -5.96553      -5.57665
     2  C(13)              0.04837      54.37911      19.40382      18.13892
     3  C(13)             -0.01124     -12.64137      -4.51075      -4.21671
     4  C(13)              0.04682      52.63629      18.78194      17.55758
     5  C(13)             -0.00691      -7.76462      -2.77061      -2.59000
     6  C(13)              0.04590      51.59726      18.41118      17.21099
     7  C(13)             -0.02659     -29.88775     -10.66469      -9.96948
     8  N(14)              0.01361       4.39783       1.56925       1.46696
     9  C(13)             -0.02817     -31.66940     -11.30043     -10.56377
    10  N(14)              0.01685       5.44337       1.94233       1.81571
    11  C(13)             -0.02909     -32.70406     -11.66962     -10.90890
    12  N(14)              0.01921       6.20709       2.21485       2.07046
    13  C(13)             -0.02903     -32.63067     -11.64343     -10.88442
    14  N(14)              0.01875       6.05838       2.16178       2.02086
    15  C(13)             -0.02950     -33.16923     -11.83561     -11.06407
    16  N(14)              0.01965       6.34792       2.26510       2.11744
    17  C(13)             -0.03289     -36.97297     -13.19288     -12.33286
    18  N(14)              0.02649       8.55965       3.05430       2.85519
 --------------------------------------------------------
       Center         ----  Spin Dipole Couplings  ----
                      3XX-RR        3YY-RR        3ZZ-RR
 --------------------------------------------------------
     1   Atom       -0.013917      0.022276     -0.008359
     2   Atom       -0.149283     -0.147059      0.296342
     3   Atom        0.003489     -0.013073      0.009584
     4   Atom       -0.149756     -0.144221      0.293977
     5   Atom       -0.007808     -0.022227      0.030036
     6   Atom       -0.148393     -0.144961      0.293354
     7   Atom        0.020053      0.004790     -0.024844
     8   Atom       -0.064575     -0.051452      0.116028
     9   Atom        0.023967      0.005536     -0.029503
    10   Atom       -0.077779     -0.059713      0.137493
    11   Atom        0.026180      0.006690     -0.032870
    12   Atom       -0.082784     -0.071001      0.153784
    13   Atom       -0.002633      0.034417     -0.031784
    14   Atom       -0.063363     -0.085323      0.148687
    15   Atom       -0.002766      0.035969     -0.033203
    16   Atom       -0.066082     -0.091156      0.157238
    17   Atom        0.033476      0.009200     -0.042676
    18   Atom       -0.108838     -0.092296      0.201134
 --------------------------------------------------------
                        XY            XZ            YZ
 --------------------------------------------------------
     1   Atom        0.000294     -0.002961      0.003133
     2   Atom       -0.000424      0.003727     -0.047012
     3   Atom       -0.014426     -0.000168     -0.000173
     4   Atom        0.000175      0.006528     -0.046885
     5   Atom        0.012547      0.000644     -0.003671
     6   Atom       -0.000507      0.000475     -0.035841
     7   Atom       -0.012695     -0.001694      0.003134
     8   Atom        0.006609      0.004442     -0.018424
     9   Atom        0.014926      0.001564      0.003944
    10   Atom       -0.008258     -0.000986     -0.022499
    11   Atom        0.016986      0.000520      0.003828
    12   Atom       -0.012415      0.003887     -0.023445
    13   Atom        0.000148     -0.000266      0.007228
    14   Atom       -0.001616      0.002218     -0.028736
    15   Atom       -0.000738      0.000012      0.005449
    16   Atom        0.002900     -0.000250     -0.017533
    17   Atom       -0.022269     -0.001737      0.004110
    18   Atom        0.017841      0.000050     -0.022527
 --------------------------------------------------------


 ---------------------------------------------------------------------------------
              Anisotropic Spin Dipole Couplings in Principal Axis System
 ---------------------------------------------------------------------------------

       Atom             a.u.   MegaHertz   Gauss  10(-4) cm-1        Axes

              Baa    -0.0153    -2.048    -0.731    -0.683  0.9113 -0.0413  0.4097
     1 C(13)  Bbb    -0.0073    -0.984    -0.351    -0.328 -0.4118 -0.0918  0.9066
              Bcc     0.0226     3.032     1.082     1.011 -0.0002  0.9949  0.1007
 
              Baa    -0.1520   -20.395    -7.278    -6.803  0.0123  0.9945  0.1042
     2 C(13)  Bbb    -0.1493   -20.036    -7.150    -6.683  0.9999 -0.0114 -0.0096
              Bcc     0.3013    40.432    14.427    13.487  0.0083 -0.1043  0.9945
 
              Baa    -0.0214    -2.875    -1.026    -0.959  0.5011  0.8654  0.0075
     3 C(13)  Bbb     0.0096     1.286     0.459     0.429  0.0186 -0.0195  0.9996
              Bcc     0.0118     1.589     0.567     0.530  0.8652 -0.5007 -0.0258
 
              Baa    -0.1504   -20.187    -7.203    -6.734  0.8251 -0.5605 -0.0713
     4 C(13)  Bbb    -0.1486   -19.940    -7.115    -6.651  0.5648  0.8214  0.0787
              Bcc     0.2990    40.127    14.318    13.385  0.0144 -0.1052  0.9943
 
              Baa    -0.0297    -3.985    -1.422    -1.329 -0.4978  0.8653  0.0585
     5 C(13)  Bbb    -0.0006    -0.080    -0.029    -0.027  0.8673  0.4961  0.0412
              Bcc     0.0303     4.065     1.451     1.356 -0.0066 -0.0713  0.9974
 
              Baa    -0.1487   -19.950    -7.119    -6.655  0.8623  0.5048  0.0400
     6 C(13)  Bbb    -0.1476   -19.806    -7.067    -6.607 -0.5063  0.8595  0.0704
              Bcc     0.2963    39.756    14.186    13.261  0.0012 -0.0810  0.9967
 
              Baa    -0.0252    -3.378    -1.205    -1.127  0.0091 -0.1002  0.9949
     7 C(13)  Bbb    -0.0022    -0.300    -0.107    -0.100  0.4980  0.8633  0.0823
              Bcc     0.0274     3.678     1.312     1.227  0.8671 -0.4947 -0.0578
 
              Baa    -0.0681    -2.625    -0.937    -0.875  0.9003 -0.4303 -0.0648
     8 N(14)  Bbb    -0.0501    -1.930    -0.689    -0.644  0.4347  0.8963  0.0878
              Bcc     0.1181     4.555     1.625     1.519  0.0203 -0.1072  0.9940
 
              Baa    -0.0299    -4.018    -1.434    -1.340  0.0020 -0.1113  0.9938
     9 C(13)  Bbb    -0.0025    -0.339    -0.121    -0.113 -0.4929  0.8646  0.0978
              Bcc     0.0325     4.357     1.555     1.453  0.8701  0.4900  0.0531
 
              Baa    -0.0814    -3.139    -1.120    -1.047  0.9172  0.3959  0.0448
    10 N(14)  Bbb    -0.0586    -2.261    -0.807    -0.754 -0.3984  0.9114  0.1026
              Bcc     0.1400     5.401     1.927     1.801 -0.0003 -0.1119  0.9937
 
              Baa    -0.0333    -4.463    -1.593    -1.489  0.0211 -0.1042  0.9943
    11 C(13)  Bbb    -0.0028    -0.381    -0.136    -0.127 -0.5040  0.8579  0.1006
              Bcc     0.0361     4.844     1.729     1.616  0.8635  0.5032  0.0344
 
              Baa    -0.0910    -3.510    -1.252    -1.171  0.8270  0.5607  0.0406
    12 N(14)  Bbb    -0.0653    -2.519    -0.899    -0.840 -0.5617  0.8215  0.0979
              Bcc     0.1563     6.029     2.151     2.011  0.0216 -0.1037  0.9944
 
              Baa    -0.0326    -4.370    -1.559    -1.458  0.0094 -0.1073  0.9942
    13 C(13)  Bbb    -0.0026    -0.353    -0.126    -0.118  1.0000 -0.0021 -0.0096
              Bcc     0.0352     4.723     1.685     1.575  0.0031  0.9942  0.1073
 
              Baa    -0.0889    -3.428    -1.223    -1.143  0.0524  0.9915  0.1194
    14 N(14)  Bbb    -0.0633    -2.442    -0.871    -0.815  0.9986 -0.0507 -0.0173
              Bcc     0.1522     5.870     2.094     1.958  0.0111 -0.1202  0.9927
 
              Baa    -0.0336    -4.513    -1.610    -1.505 -0.0023 -0.0781  0.9969
    15 C(13)  Bbb    -0.0028    -0.373    -0.133    -0.124  0.9998  0.0185  0.0037
              Bcc     0.0364     4.886     1.743     1.630 -0.0187  0.9968  0.0780
 
              Baa    -0.0927    -3.575    -1.276    -1.193 -0.1074  0.9918  0.0695
    16 N(14)  Bbb    -0.0658    -2.537    -0.905    -0.846  0.9942  0.1070  0.0095
              Bcc     0.1585     6.112     2.181     2.039 -0.0020 -0.0701  0.9975
 
              Baa    -0.0430    -5.770    -2.059    -1.925 -0.0002 -0.0786  0.9969
    17 C(13)  Bbb    -0.0038    -0.516    -0.184    -0.172  0.5135  0.8554  0.0676
              Bcc     0.0468     6.286     2.243     2.097  0.8581 -0.5120 -0.0402
 
              Baa    -0.1207    -4.655    -1.661    -1.553  0.8320 -0.5533 -0.0389
    18 N(14)  Bbb    -0.0822    -3.168    -1.131    -1.057  0.5547  0.8294  0.0659
              Bcc     0.2029     7.824     2.792     2.610 -0.0042 -0.0764  0.9971
 

 ---------------------------------------------------------------------------------

   1 Symmetry operations used in ECPInt.
 ECPInt:  NShTT=    5886 NPrTT=   23670 LenC2=    5387 LenP2D=   14861.
 LDataN:  DoStor=T MaxTD1= 5 Len=  102
 D1PCM: PCM CHGder 1st derivatives, ID1Alg=3 FixD1E=F DoIter=F DoCFld=F I1PDM=0.
 Calling FoFJK, ICntrl=      2127 FMM=F ISym2X=0 I1Cent= 0 IOpClX= 1 NMat=1 NMatS=1 NMatT=0.
 -------------------------------------------------------------------
 Center     Atomic                   Forces (Hartrees/Bohr)
 Number     Number              X              Y              Z
 -------------------------------------------------------------------
      1        6          -0.001489612   -0.192261145   -0.018456684
      2        6          -0.007964006    0.133137635    0.013510516
      3        6          -0.162140252    0.088751493    0.009543835
      4        6           0.096184472   -0.059261117   -0.007027708
      5        6           0.150033632    0.084336415    0.007183123
      6        6          -0.074846485   -0.051511484   -0.004063961
      7        6           0.152437067   -0.088407187   -0.011157361
      8        7          -0.111329726    0.060072166    0.007991088
      9        6          -0.084161521   -0.054635710   -0.005208950
     10        7           0.050579493    0.028091357    0.002845447
     11        6          -0.050969861   -0.022277402   -0.001789793
     12        7           0.019134445    0.009395308    0.000769145
     13        6          -0.005004454    0.052448240    0.005193911
     14        7           0.001059593   -0.014319681   -0.001352941
     15        6           0.010005954    0.038309590    0.003040480
     16        7          -0.003333966   -0.003851398   -0.000432139
     17        6          -0.039228277    0.034012955    0.002335421
     18        7           0.061033503   -0.042030034   -0.002923428
 -------------------------------------------------------------------
 Cartesian Forces:  Max     0.192261145 RMS     0.063444049

 GradGradGradGradGradGradGradGradGradGradGradGradGradGradGradGradGradGrad
 Berny optimization.
 Search for a local minimum.
 Step number   1 out of a maximum of    2
 All quantities printed in internal units (Hartrees-Bohrs-Radians)
 Second derivative matrix not updated -- first step.
 ITU=  0
     Eigenvalues ---    0.00259   0.00278   0.00285   0.00290   0.00292
     Eigenvalues ---    0.01087   0.01498   0.01621   0.01929   0.01947
     Eigenvalues ---    0.04675   0.04751   0.05141   0.05196   0.09770
     Eigenvalues ---    0.18102   0.18858   0.19701   0.22637   0.23858
     Eigenvalues ---    0.24021   0.24399   0.30388   0.30858   0.41049
     Eigenvalues ---    0.62398   0.63162   0.66262   0.67738   0.69551
     Eigenvalues ---    0.96463   0.97501   1.04037   1.25311   1.48646
     Eigenvalues ---    1.68511   1.75264   1.98019   2.42213   2.58143
     Eigenvalues ---    2.81091   2.86401   2.90377   2.91939   3.09517
     Eigenvalues ---    3.46874   4.58725   5.17862
 Quadratic step=5.067D-01 exceeds max=3.000D-01 adjusted using Lamda=-9.342D-02.
 Angle between NR and scaled steps=  21.19 degrees.
 Angle between quadratic step and forces=  44.79 degrees.
 Linear search not attempted -- first point.
 B after Tr=    -0.000009    0.000408    0.000073
         Rot=    1.000000    0.000002    0.000002   -0.000011 Ang=   0.00 deg.
 Variable       Old X    -DE/DX   Delta X   Delta X   Delta X     New X
                                 (Linear)    (Quad)   (Total)
    X1      -16.89059  -0.00149   0.00000  -0.00733  -0.00732 -16.89790
    Y1       -1.56633  -0.19226   0.00000  -0.11095  -0.11091  -1.67724
    Z1        2.10496  -0.01846   0.00000  -0.00992  -0.00992   2.09504
    X2      -16.88829  -0.00796   0.00000  -0.00637  -0.00641 -16.89470
    Y2        0.86965   0.13314   0.00000   0.01947   0.01951   0.88916
    Z2        2.35781   0.01351   0.00000   0.00265   0.00264   2.36045
    X3      -15.44406  -0.16214   0.00000  -0.10063  -0.10056 -15.54462
    Y3       -4.06262   0.08875   0.00000   0.04565   0.04572  -4.01690
    Z3        1.85908   0.00954   0.00000   0.00408   0.00410   1.86317
    X4      -13.30987   0.09618   0.00000   0.00735   0.00745 -13.30242
    Y4       -5.29220  -0.05926   0.00000  -0.01171  -0.01159  -5.30378
    Z4        1.70040  -0.00703   0.00000  -0.00187  -0.00184   1.69856
    X5      -18.33813   0.15003   0.00000   0.09100   0.09107 -18.24706
    Y5       -4.07114   0.08434   0.00000   0.05095   0.05097  -4.02017
    Z5        1.87496   0.00718   0.00000   0.00453   0.00453   1.87949
    X6      -20.50499  -0.07485   0.00000  -0.00279  -0.00269 -20.50769
    Y6       -5.30796  -0.05151   0.00000   0.00066   0.00062  -5.30734
    Z6        1.77325  -0.00406   0.00000   0.00058   0.00058   1.77383
    X7      -19.33438   0.15244   0.00000   0.08927   0.08919 -19.24519
    Y7        2.35516  -0.08841   0.00000  -0.05812  -0.05813   2.29703
    Z7        2.53672  -0.01116   0.00000  -0.00599  -0.00602   2.53070
    X8      -21.19692  -0.11133   0.00000   0.02671   0.02661 -21.17030
    Y8        3.32190   0.06007   0.00000  -0.00816  -0.00820   3.31369
    Z8        2.67094   0.00799   0.00000  -0.00237  -0.00241   2.66852
    X9      -14.48945  -0.08416   0.00000  -0.06812  -0.06819 -14.55764
    Y9        2.36609  -0.05464   0.00000  -0.05745  -0.05735   2.30873
    Z9        2.50247  -0.00521   0.00000  -0.00418  -0.00419   2.49828
   X10      -12.55117   0.05058   0.00000  -0.04271  -0.04280 -12.59397
   Y10        3.28284   0.02809   0.00000  -0.01139  -0.01125   3.27160
   Z10        2.60645   0.00285   0.00000  -0.00241  -0.00242   2.60404
   X11      -10.84091  -0.05097   0.00000  -0.06437  -0.06430 -10.90521
   Y11       -3.97405  -0.02228   0.00000  -0.02273  -0.02256  -3.99661
   Z11        1.79991  -0.00179   0.00000  -0.00239  -0.00235   1.79755
   X12       -9.01715   0.01913   0.00000  -0.03730  -0.03726  -9.05441
   Y12       -2.79568   0.00940   0.00000  -0.02965  -0.02944  -2.82511
   Z12        1.88234   0.00077   0.00000  -0.00135  -0.00131   1.88103
   X13      -13.23938  -0.00500   0.00000  -0.00912  -0.00896 -13.24834
   Y13       -8.09124   0.05245   0.00000   0.06828   0.06840  -8.02285
   Z13        1.39841   0.00519   0.00000   0.00583   0.00587   1.40428
   X14      -13.31370   0.00106   0.00000   0.00419   0.00440 -13.30930
   Y14      -10.25279  -0.01432   0.00000   0.05299   0.05311 -10.19969
   Z14        1.14514  -0.00135   0.00000   0.00724   0.00729   1.15242
   X15      -20.58829   0.01001   0.00000   0.02552   0.02568 -20.56260
   Y15       -8.10157   0.03831   0.00000   0.06715   0.06711  -8.03446
   Z15        1.55365   0.00304   0.00000   0.00596   0.00597   1.55962
   X16      -20.39790  -0.00333   0.00000  -0.01163  -0.01142 -20.40933
   Y16      -10.27400  -0.00385   0.00000   0.05715   0.05711 -10.21689
   Z16        1.39596  -0.00043   0.00000   0.00286   0.00287   1.39883
   X17      -22.92081  -0.03923   0.00000   0.03273   0.03280 -22.88801
   Y17       -3.98557   0.03401   0.00000  -0.00142  -0.00151  -3.98708
   Z17        1.88147   0.00234   0.00000  -0.00046  -0.00048   1.88098
   X18      -24.80965   0.06103   0.00000   0.07265   0.07269 -24.73695
   Y18       -2.75667  -0.04203   0.00000  -0.05148  -0.05161  -2.80828
   Z18        1.97045  -0.00292   0.00000  -0.00286  -0.00289   1.96756
         Item               Value     Threshold  Converged?
 Maximum Force            0.192261     0.000450     NO 
 RMS     Force            0.063444     0.000300     NO 
 Maximum Displacement     0.110905     0.001800     NO 
 RMS     Displacement     0.040941     0.001200     NO 
 Predicted change in Energy=-5.400068D-02
 GradGradGradGradGradGradGradGradGradGradGradGradGradGradGradGradGradGrad

 Unable to Open any file for archive entry.
 1\1\GINC-X10P1N4\Force\UwB97XD\def2SVP\C12N6(1-,2)\MAYUMIAO\11-Oct-202
 4\0\\# wb97xd def2svp scrf=(smd,solvent=acetonitrile) g09default scf=(
 xqc,maxcycle=64) force guess=read nosymm\\Title Card\\-1,2\C,-8.938114
 92,-0.82886767,1.11389769\C,-8.93689817,0.46019953,1.24770175\C,-8.172
 64407,-2.14984611,0.98378185\C,-7.04327804,-2.80050942,0.89981344\C,-9
 .70412286,-2.154353,0.99218683\C,-10.85077436,-2.80884948,0.93836187\C
 ,-10.23131344,1.2462989,1.3423744\N,-11.21692446,1.75787222,1.41339835
 \C,-7.66748892,1.25207891,1.3242508\N,-6.64179483,1.73720649,1.3792745
 4\C,-5.7367609,-2.10297816,0.95247024\N,-4.77167199,-1.47940758,0.9960
 938\C,-7.0059783,-4.28170183,0.74000546\N,-7.04530548,-5.42554427,0.60
 59795\C,-10.89485226,-4.28716766,0.82215869\N,-10.79410521,-5.43676794
 ,0.73870802\C,-12.12916767,-2.10907506,0.99562979\N,-13.12869881,-1.45
 876579,1.04271784\\Version=ES64L-G16RevC.01\HF=-784.7936424\S2=0.77496
 9\S2-1=0.\S2A=0.750499\RMSD=5.709e-09\RMSF=6.344e-02\Dipole=0.0778691,
 0.1530675,0.0139348\Quadrupole=-205.2445286,73.2958135,131.9487151,-57
 .4217053,33.2785365,1.4134826\PG=C01 [X(C12N6)]\\@
 The archive entry for this job was punched.


 My opinions may have changed, but not the fact that I am right.
                       -- Ashleigh Brilliant
 Job cpu time:       0 days  0 hours 12 minutes 53.4 seconds.
 Elapsed time:       0 days  0 hours  0 minutes 29.0 seconds.
 File lengths (MBytes):  RWF=    174 Int=      0 D2E=      0 Chk=      9 Scr=      1
 Normal termination of Gaussian 16 at Fri Oct 11 15:50:42 2024.
