 Entering Gaussian System, Link 0=g16
 Input=JOBS/26_A.gjf
 Output=JOBS/26_A.log
 Initial command:
 /data/app/gaussian/C01-avx2//g16/l1.exe "/tmp/Gau-2538874.inp" -scrdir="/tmp/"
 Entering Link 1 = /data/app/gaussian/C01-avx2//g16/l1.exe PID=   2538875.
  
 Copyright (c) 1988-2019, Gaussian, Inc.  All Rights Reserved.
  
 This is part of the Gaussian(R) 16 program.  It is based on
 the Gaussian(R) 09 system (copyright 2009, Gaussian, Inc.),
 the Gaussian(R) 03 system (copyright 2003, Gaussian, Inc.),
 the Gaussian(R) 98 system (copyright 1998, Gaussian, Inc.),
 the Gaussian(R) 94 system (copyright 1995, Gaussian, Inc.),
 the Gaussian 92(TM) system (copyright 1992, Gaussian, Inc.),
 the Gaussian 90(TM) system (copyright 1990, Gaussian, Inc.),
 the Gaussian 88(TM) system (copyright 1988, Gaussian, Inc.),
 the Gaussian 86(TM) system (copyright 1986, Carnegie Mellon
 University), and the Gaussian 82(TM) system (copyright 1983,
 Carnegie Mellon University). Gaussian is a federally registered
 trademark of Gaussian, Inc.
  
 This software contains proprietary and confidential information,
 including trade secrets, belonging to Gaussian, Inc.
  
 This software is provided under written license and may be
 used, copied, transmitted, or stored only in accord with that
 written license.
  
 The following legend is applicable only to US Government
 contracts under FAR:
  
                    RESTRICTED RIGHTS LEGEND
  
 Use, reproduction and disclosure by the US Government is
 subject to restrictions as set forth in subparagraphs (a)
 and (c) of the Commercial Computer Software - Restricted
 Rights clause in FAR 52.227-19.
  
 Gaussian, Inc.
 340 Quinnipiac St., Bldg. 40, Wallingford CT 06492
  
  
 ---------------------------------------------------------------
 Warning -- This program may not be used in any manner that
 competes with the business of Gaussian, Inc. or will provide
 assistance to any competitor of Gaussian, Inc.  The licensee
 of this program is prohibited from giving any competitor of
 Gaussian, Inc. access to this program.  By using this program,
 the user acknowledges that Gaussian, Inc. is engaged in the
 business of creating and licensing software in the field of
 computational chemistry and represents and warrants to the
 licensee that it is not a competitor of Gaussian, Inc. and that
 it will not use this program in any manner prohibited above.
 ---------------------------------------------------------------
  

 Cite this work as:
 Gaussian 16, Revision C.01,
 M. J. Frisch, G. W. Trucks, H. B. Schlegel, G. E. Scuseria, 
 M. A. Robb, J. R. Cheeseman, G. Scalmani, V. Barone, 
 G. A. Petersson, H. Nakatsuji, X. Li, M. Caricato, A. V. Marenich, 
 J. Bloino, B. G. Janesko, R. Gomperts, B. Mennucci, H. P. Hratchian, 
 J. V. Ortiz, A. F. Izmaylov, J. L. Sonnenberg, D. Williams-Young, 
 F. Ding, F. Lipparini, F. Egidi, J. Goings, B. Peng, A. Petrone, 
 T. Henderson, D. Ranasinghe, V. G. Zakrzewski, J. Gao, N. Rega, 
 G. Zheng, W. Liang, M. Hada, M. Ehara, K. Toyota, R. Fukuda, 
 J. Hasegawa, M. Ishida, T. Nakajima, Y. Honda, O. Kitao, H. Nakai, 
 T. Vreven, K. Throssell, J. A. Montgomery, Jr., J. E. Peralta, 
 F. Ogliaro, M. J. Bearpark, J. J. Heyd, E. N. Brothers, K. N. Kudin, 
 V. N. Staroverov, T. A. Keith, R. Kobayashi, J. Normand, 
 K. Raghavachari, A. P. Rendell, J. C. Burant, S. S. Iyengar, 
 J. Tomasi, M. Cossi, J. M. Millam, M. Klene, C. Adamo, R. Cammi, 
 J. W. Ochterski, R. L. Martin, K. Morokuma, O. Farkas, 
 J. B. Foresman, and D. J. Fox, Gaussian, Inc., Wallingford CT, 2019.
 
 ******************************************
 Gaussian 16:  ES64L-G16RevC.01  3-Jul-2019
                11-Oct-2024 
 ******************************************
 %chk=a.chk
 %nprocshared=28
 Will use up to   28 processors via shared memory.
 %mem=48gb
 ----------------------------------------------------------------------
 # wb97xd def2svp scrf=(smd,solvent=acetonitrile) g09default scf=(xqc,m
 axcycle=64) force guess=read nosymm
 ----------------------------------------------------------------------
 1/10=7,30=1,38=1,158=3,167=1/1,3;
 2/12=2,15=1,17=6,18=5,40=1/2;
 3/5=43,7=101,11=2,25=1,27=10,30=1,70=32201,71=1,72=2,74=-58,75=-4,116=-2,158=3/1,2,3;
 4/5=1,60=-1/1;
 5/5=2,7=64,8=3,13=1,38=6,53=2,87=10/2,8;
 6/7=2,8=2,9=2,10=2,28=1,87=10/1;
 7/29=1,30=1,87=10/1,2,3,16;
 1/10=7,30=1,158=3,167=1/3;
 99//99;
 Using 2006 physical constants.
 ----------
 Title Card
 ----------
 Symbolic Z-matrix:
 Charge = -2 Multiplicity = 1
 6                    -8.93644  -0.84819   1.11206 
 6                    -8.93846   0.46584   1.24734 
 6                    -8.18223  -2.14442   0.98111 
 6                    -7.06139  -2.79331   0.90087 
 6                    -9.6867   -2.14522   0.99382 
 6                    -10.84511  -2.80886   0.93878 
 6                    -10.21934   1.23638   1.34255 
 7                    -11.18214   1.73893   1.40963 
 6                    -7.69082   1.23376   1.32068 
 7                    -6.66514   1.72577   1.37792 
 6                    -5.74678  -2.10763   0.95297 
 7                    -4.8008   -1.496     0.99647 
 6                    -7.00638  -4.25609   0.74425 
 7                    -7.04687  -5.4066    0.61158 
 6                    -10.89167  -4.25913   0.8241 
 7                    -10.79626  -5.41308   0.73734 
 6                    -12.10311  -2.12491   0.99307 
 7                    -13.11027  -1.46742   1.04427 
 

 GradGradGradGradGradGradGradGradGradGradGradGradGradGradGradGradGradGrad
 Berny optimization.
 Initialization pass.
 Trust Radius=3.00D-01 FncErr=1.00D-07 GrdErr=1.00D-07 EigMax=2.50D+02 EigMin=1.00D-04
 Number of steps in this run=      2 maximum allowed number of steps=      2.
 GradGradGradGradGradGradGradGradGradGradGradGradGradGradGradGradGradGrad

                          Input orientation:                          
 ---------------------------------------------------------------------
 Center     Atomic      Atomic             Coordinates (Angstroms)
 Number     Number       Type             X           Y           Z
 ---------------------------------------------------------------------
      1          6           0       -8.936443   -0.848185    1.112055
      2          6           0       -8.938458    0.465836    1.247345
      3          6           0       -8.182230   -2.144418    0.981111
      4          6           0       -7.061386   -2.793307    0.900875
      5          6           0       -9.686696   -2.145219    0.993823
      6          6           0      -10.845107   -2.808860    0.938779
      7          6           0      -10.219340    1.236377    1.342548
      8          7           0      -11.182140    1.738929    1.409628
      9          6           0       -7.690816    1.233764    1.320680
     10          7           0       -6.665140    1.725767    1.377917
     11          6           0       -5.746784   -2.107629    0.952974
     12          7           0       -4.800799   -1.496000    0.996468
     13          6           0       -7.006382   -4.256093    0.744250
     14          7           0       -7.046873   -5.406598    0.611582
     15          6           0      -10.891665   -4.259131    0.824096
     16          7           0      -10.796260   -5.413078    0.737337
     17          6           0      -12.103105   -2.124910    0.993066
     18          7           0      -13.110267   -1.467423    1.044271
 ---------------------------------------------------------------------
                    Distance matrix (angstroms):
                    1          2          3          4          5
     1  C    0.000000
     2  C    1.320969   0.000000
     3  C    1.505391   2.730602   0.000000
     4  C    2.709970   3.776963   1.297608   0.000000
     5  C    1.503049   2.727955   1.504519   2.705718   0.000000
     6  C    2.741763   3.801862   2.744848   3.783943   1.336176
     7  C    2.458526   1.497817   3.963613   5.138687   3.441005
     8  N    3.438730   2.584804   4.925796   6.146593   4.182805
     9  C    2.435082   1.466868   3.430584   4.097526   3.938007
    10  N    3.443071   2.602394   4.175806   4.561426   4.925634
    11  C    3.432992   4.110494   2.435887   1.483592   3.940303
    12  N    4.187669   4.586061   3.443074   2.608140   4.928841
    13  C    3.933732   5.126659   2.428558   1.472175   3.420841
    14  N    4.959846   6.202239   3.473817   2.629295   4.213237
    15  C    3.942127   5.130250   3.440596   4.101899   2.439135
    16  N    4.943438   6.186531   4.192459   4.565001   3.460609
    17  C    3.416421   4.097757   3.920942   5.086668   2.416495
    18  N    4.220054   4.602468   4.974722   6.194150   3.490386
                    6          7          8          9         10
     6  C    0.000000
     7  C    4.113217   0.000000
     8  N    4.584503   1.088137   0.000000
     9  C    5.141810   2.528620   3.528802   0.000000
    10  N    6.182865   3.587910   4.517131   1.139015   0.000000
    11  C    5.146341   5.598027   6.674401   3.883217   3.964704
    12  N    6.185514   6.078342   7.166378   3.988599   3.741798
    13  C    4.107084   6.391266   7.336209   5.562306   6.025001
    14  N    4.613229   7.397836   8.294327   6.709090   7.183566
    15  C    1.455543   5.560703   6.033568   6.376827   7.347737
    16  N    2.612454   6.701818   7.193891   7.359659   8.272824
    17  C    1.432931   3.868974   3.993864   5.554846   6.674376
    18  N    2.634678   3.969504   3.759235   6.061622   7.200517
                   11         12         13         14         15
    11  C    0.000000
    12  N    1.127328   0.000000
    13  C    2.499210   3.542079   0.000000
    14  N    3.562299   4.526119   1.158836   0.000000
    15  C    5.578116   6.690535   3.886105   4.017993   0.000000
    16  N    6.039015   7.166324   3.962554   3.751501   1.161130
    17  C    6.356471   7.329339   5.529958   6.039908   2.459885
    18  N    7.391825   8.309654   6.717447   7.243553   3.572716
                   16         17         18
    16  N    0.000000
    17  C    3.547575   0.000000
    18  N    4.584433   1.203863   0.000000
 Symmetry turned off by external request.
 Stoichiometry    C12N6(2-)
 Framework group  C1[X(C12N6)]
 Deg. of freedom    48
 Full point group                 C1      NOp   1
 Rotational constants (GHZ):           0.4236629           0.4217092           0.2113658
 Standard basis: def2SVP (5D, 7F)
   252 basis functions,   450 primitive gaussians,   270 cartesian basis functions
    58 alpha electrons       58 beta electrons
       nuclear repulsion energy       958.1827797011 Hartrees.
 NAtoms=   18 NActive=   18 NUniq=   18 SFac= 1.00D+00 NAtFMM=   60 NAOKFM=F Big=F
 Integral buffers will be    131072 words long.
 Raffenetti 2 integral format.
 Two-electron integral symmetry is turned off.
 Nuclear repulsion after empirical dispersion term =      958.1712639573 Hartrees.
 Force PCM accuracy= 1.00D-10.
 ------------------------------------------------------------------------------
 Polarizable Continuum Model (PCM)
 =================================
 Model                : PCM (using non-symmetric T matrix).
 Atomic radii         : SMD-Coulomb.
 Polarization charges : Total charges.
 Charge compensation  : None.
 Solution method      : On-the-fly selection.
 Cavity type          : VdW (van der Waals Surface) (Alpha=1.000).
 Cavity algorithm     : GePol (No added spheres)
                        Default sphere list used, NSphG=   18.
                        Lebedev-Laikov grids with approx.  5.0 points / Ang**2.
                        Smoothing algorithm: York/Karplus (Gamma=1.0000).
                        Polarization charges: spherical gaussians, with
                                              point-specific exponents (IZeta= 3).
                        Self-potential: point-specific (ISelfS= 7).
                        Self-field    : sphere-specific E.n sum rule (ISelfD= 2).
 1st derivatives      : Analytical E(r).r(x)/FMM algorithm (CHGder, D1EAlg=3).
                        Cavity 1st derivative terms included.
 Solvent              : Acetonitrile, Eps=  35.688000 Eps(inf)=   1.806874
 ------------------------------------------------------------------------------
 Spheres list:
 ISph  on   Nord     Re0    Alpha      Xe            Ye            Ze
    1   C      1    1.8500  1.000     -8.936443     -0.848185      1.112055
    2   C      2    1.8500  1.000     -8.938458      0.465836      1.247345
    3   C      3    1.8500  1.000     -8.182230     -2.144418      0.981111
    4   C      4    1.8500  1.000     -7.061386     -2.793307      0.900875
    5   C      5    1.8500  1.000     -9.686696     -2.145219      0.993823
    6   C      6    1.8500  1.000    -10.845107     -2.808860      0.938779
    7   C      7    1.8500  1.000    -10.219340      1.236377      1.342548
    8   N      8    1.8900  1.000    -11.182140      1.738929      1.409628
    9   C      9    1.8500  1.000     -7.690816      1.233764      1.320680
   10   N     10    1.8900  1.000     -6.665140      1.725767      1.377917
   11   C     11    1.8500  1.000     -5.746784     -2.107629      0.952974
   12   N     12    1.8900  1.000     -4.800799     -1.496000      0.996468
   13   C     13    1.8500  1.000     -7.006382     -4.256093      0.744250
   14   N     14    1.8900  1.000     -7.046873     -5.406598      0.611582
   15   C     15    1.8500  1.000    -10.891665     -4.259131      0.824096
   16   N     16    1.8900  1.000    -10.796260     -5.413078      0.737337
   17   C     17    1.8500  1.000    -12.103105     -2.124910      0.993066
   18   N     18    1.8900  1.000    -13.110267     -1.467423      1.044271
 ------------------------------------------------------------------------------
 ------------------------------------------------------------------------------
 Atomic radii for non-electrostatic terms: SMD-CDS.
 ------------------------------------------------------------------------------
 Nuclear repulsion after PCM non-electrostatic terms =      958.1800113523 Hartrees.
 One-electron integrals computed using PRISM.
   1 Symmetry operations used in ECPInt.
 ECPInt:  NShTT=    5886 NPrTT=   23670 LenC2=    5394 LenP2D=   14906.
 LDataN:  DoStor=T MaxTD1= 4 Len=   56
 NBasis=   252 RedAO= T EigKep=  2.92D-04  NBF=   252
 NBsUse=   252 1.00D-06 EigRej= -1.00D+00 NBFU=   252
 Initial guess from the checkpoint file:  "a.chk"
 B after Tr=     0.000621   -0.002215    0.002506
         Rot=    1.000000    0.000071    0.000087    0.000051 Ang=   0.01 deg.
 Requested convergence on RMS density matrix=1.00D-08 within  64 cycles.
 Requested convergence on MAX density matrix=1.00D-06.
 Requested convergence on             energy=1.00D-06.
 No special actions if energy rises.
 Inv3:  Mode=1 IEnd=    19400547.
 Iteration    1 A*A^-1 deviation from unit magnitude is 3.22D-15 for   1833.
 Iteration    1 A*A^-1 deviation from orthogonality  is 2.75D-15 for    896    635.
 Iteration    1 A^-1*A deviation from unit magnitude is 3.33D-15 for   1111.
 Iteration    1 A^-1*A deviation from orthogonality  is 1.38D-10 for    739    696.
 Iteration    2 A*A^-1 deviation from unit magnitude is 3.89D-15 for    928.
 Iteration    2 A*A^-1 deviation from orthogonality  is 4.22D-15 for   2462     75.
 Iteration    2 A^-1*A deviation from unit magnitude is 1.33D-15 for   1918.
 Iteration    2 A^-1*A deviation from orthogonality  is 6.25D-16 for   1825   1689.
 Error on total polarization charges =  0.02190
 SCF Done:  E(RwB97XD) =  -784.950789794     A.U. after   14 cycles
            NFock= 14  Conv=0.48D-08     -V/T= 2.0095
 SMD-CDS (non-electrostatic) energy       (kcal/mol) =       5.49
 (included in total energy above)
 QCSCF skips out because SCF is already converged.

 **********************************************************************

            Population analysis using the SCF Density.

 **********************************************************************

 Alpha  occ. eigenvalues --  -14.43473 -14.43210 -14.43000 -14.42668 -14.42622
 Alpha  occ. eigenvalues --  -14.41740 -10.34775 -10.34615 -10.34564 -10.34492
 Alpha  occ. eigenvalues --  -10.34098 -10.33897 -10.33518 -10.33487 -10.33262
 Alpha  occ. eigenvalues --  -10.33227 -10.32853 -10.32571  -1.01577  -1.00395
 Alpha  occ. eigenvalues --   -0.99518  -0.99100  -0.98766  -0.97113  -0.96153
 Alpha  occ. eigenvalues --   -0.88682  -0.88300  -0.83686  -0.68722  -0.68337
 Alpha  occ. eigenvalues --   -0.64652  -0.64056  -0.63982  -0.63057  -0.50962
 Alpha  occ. eigenvalues --   -0.47949  -0.47483  -0.46062  -0.45898  -0.45424
 Alpha  occ. eigenvalues --   -0.45234  -0.45169  -0.44736  -0.44429  -0.43879
 Alpha  occ. eigenvalues --   -0.43767  -0.43048  -0.43033  -0.42539  -0.42529
 Alpha  occ. eigenvalues --   -0.41926  -0.41558  -0.40954  -0.40264  -0.39677
 Alpha  occ. eigenvalues --   -0.33320  -0.32518  -0.21496
 Alpha virt. eigenvalues --    0.06990   0.07724   0.08730   0.09769   0.10337
 Alpha virt. eigenvalues --    0.11179   0.12241   0.13552   0.14117   0.14812
 Alpha virt. eigenvalues --    0.15307   0.16304   0.20230   0.20641   0.23367
 Alpha virt. eigenvalues --    0.24731   0.27266   0.27732   0.28267   0.28782
 Alpha virt. eigenvalues --    0.29826   0.31747   0.31913   0.33041   0.33727
 Alpha virt. eigenvalues --    0.35284   0.36424   0.49057   0.49657   0.51530
 Alpha virt. eigenvalues --    0.52009   0.52373   0.53149   0.54726   0.54909
 Alpha virt. eigenvalues --    0.56106   0.56507   0.57067   0.59142   0.61293
 Alpha virt. eigenvalues --    0.61802   0.61988   0.63175   0.63868   0.64950
 Alpha virt. eigenvalues --    0.66445   0.70938   0.71154   0.72910   0.73443
 Alpha virt. eigenvalues --    0.73732   0.73936   0.74122   0.74683   0.75058
 Alpha virt. eigenvalues --    0.75342   0.75585   0.76046   0.77484   0.78140
 Alpha virt. eigenvalues --    0.80312   0.81005   0.82106   0.83494   0.83695
 Alpha virt. eigenvalues --    0.86061   0.86272   0.88730   0.89249   0.94242
 Alpha virt. eigenvalues --    0.94929   0.95009   0.95107   0.95599   0.96219
 Alpha virt. eigenvalues --    0.97555   1.00044   1.00340   1.01288   1.01742
 Alpha virt. eigenvalues --    1.03162   1.03765   1.04739   1.05060   1.05857
 Alpha virt. eigenvalues --    1.05966   1.07869   1.08843   1.11680   1.12542
 Alpha virt. eigenvalues --    1.15106   1.17797   1.19526   1.19620   1.21422
 Alpha virt. eigenvalues --    1.23810   1.24482   1.26785   1.28559   1.33506
 Alpha virt. eigenvalues --    1.36115   1.36224   1.42392   1.42555   1.45639
 Alpha virt. eigenvalues --    1.46288   1.46686   1.49041   1.49543   1.59452
 Alpha virt. eigenvalues --    1.64035   1.68717   1.69778   1.70297   1.70871
 Alpha virt. eigenvalues --    1.71035   1.71868   1.76549   1.76988   1.79571
 Alpha virt. eigenvalues --    1.79922   1.79974   1.80794   1.81285   1.82098
 Alpha virt. eigenvalues --    1.82729   1.84333   1.86860   1.94068   1.96368
 Alpha virt. eigenvalues --    1.97794   2.00292   2.00832   2.01150   2.02537
 Alpha virt. eigenvalues --    2.03162   2.04301   2.07247   2.10719   2.11170
 Alpha virt. eigenvalues --    2.14684   2.21309   2.21923   2.27367   2.27576
 Alpha virt. eigenvalues --    2.29102   2.32730   2.33875   2.34935   2.35104
 Alpha virt. eigenvalues --    2.35950   2.36411   2.37060   2.37629   2.37940
 Alpha virt. eigenvalues --    2.38046   2.38241   2.39060   2.39677   2.39942
 Alpha virt. eigenvalues --    2.40482   2.42045   2.58690   2.59770   2.61279
 Alpha virt. eigenvalues --    2.71581   2.73667   2.90925   2.93009   2.96753
 Alpha virt. eigenvalues --    2.97470   3.01561   3.01746   3.04252   3.05111
 Alpha virt. eigenvalues --    3.07853   3.10006   3.10692   3.11681   3.12792
 Alpha virt. eigenvalues --    3.12937   3.16787   3.21964   3.24116   3.31953
 Alpha virt. eigenvalues --    3.41121   3.44315   3.45403   3.49310   3.54056
 Alpha virt. eigenvalues --    3.59892   3.64732   3.72170   3.83689
          Condensed to atoms (all electrons):
               1          2          3          4          5          6
     1  C    4.939200   0.490339   0.312280  -0.135234   0.338649  -0.114414
     2  C    0.490339   5.599727  -0.121916  -0.011632  -0.124199  -0.008796
     3  C    0.312280  -0.121916   4.932189   0.470049   0.333119  -0.117398
     4  C   -0.135234  -0.011632   0.470049   5.655131  -0.138228  -0.010860
     5  C    0.338649  -0.124199   0.333119  -0.138228   4.966038   0.460883
     6  C   -0.114414  -0.008796  -0.117398  -0.010860   0.460883   5.596056
     7  C    0.005509   0.379749   0.004729  -0.000309  -0.014801   0.001230
     8  N   -0.001360  -0.036969  -0.000033  -0.000002  -0.000563   0.000101
     9  C    0.008129   0.390856  -0.017021   0.001038   0.005865  -0.000283
    10  N   -0.000613  -0.038838  -0.000552   0.000029   0.000013  -0.000001
    11  C   -0.016040   0.001170   0.007883   0.379250   0.005512  -0.000269
    12  N   -0.000549   0.000053  -0.000982  -0.036405  -0.000005  -0.000001
    13  C    0.004803  -0.000340   0.008194   0.385087  -0.017221   0.001166
    14  N   -0.000026  -0.000001  -0.000821  -0.036754  -0.000504   0.000079
    15  C    0.006464  -0.000289  -0.018374   0.001194   0.003789   0.380045
    16  N    0.000040  -0.000001  -0.000515   0.000040  -0.000100  -0.041832
    17  C   -0.019768   0.001124   0.005727  -0.000397   0.009260   0.389441
    18  N   -0.000473   0.000042   0.000013  -0.000001   0.000141  -0.044095
               7          8          9         10         11         12
     1  C    0.005509  -0.001360   0.008129  -0.000613  -0.016040  -0.000549
     2  C    0.379749  -0.036969   0.390856  -0.038838   0.001170   0.000053
     3  C    0.004729  -0.000033  -0.017021  -0.000552   0.007883  -0.000982
     4  C   -0.000309  -0.000002   0.001038   0.000029   0.379250  -0.036405
     5  C   -0.014801  -0.000563   0.005865   0.000013   0.005512  -0.000005
     6  C    0.001230   0.000101  -0.000283  -0.000001  -0.000269  -0.000001
     7  C    4.800207   1.011764  -0.029871   0.001634   0.000036   0.000001
     8  N    1.011764   6.001632   0.001316   0.000045   0.000000   0.000000
     9  C   -0.029871   0.001316   4.834599   0.949972   0.000331   0.000166
    10  N    0.001634   0.000045   0.949972   6.113302   0.000457  -0.000852
    11  C    0.000036   0.000000   0.000331   0.000457   4.831146   0.965700
    12  N    0.000001   0.000000   0.000166  -0.000852   0.965700   6.076782
    13  C   -0.000003  -0.000000   0.000049   0.000001  -0.029094   0.001733
    14  N   -0.000000  -0.000000   0.000000   0.000000   0.001637   0.000048
    15  C    0.000046   0.000001  -0.000004  -0.000000   0.000046   0.000000
    16  N    0.000000   0.000000  -0.000000   0.000000   0.000001   0.000000
    17  C    0.000502  -0.000324   0.000056   0.000000  -0.000004  -0.000000
    18  N    0.000908  -0.000877   0.000001   0.000000  -0.000000   0.000000
              13         14         15         16         17         18
     1  C    0.004803  -0.000026   0.006464   0.000040  -0.019768  -0.000473
     2  C   -0.000340  -0.000001  -0.000289  -0.000001   0.001124   0.000042
     3  C    0.008194  -0.000821  -0.018374  -0.000515   0.005727   0.000013
     4  C    0.385087  -0.036754   0.001194   0.000040  -0.000397  -0.000001
     5  C   -0.017221  -0.000504   0.003789  -0.000100   0.009260   0.000141
     6  C    0.001166   0.000079   0.380045  -0.041832   0.389441  -0.044095
     7  C   -0.000003  -0.000000   0.000046   0.000000   0.000502   0.000908
     8  N   -0.000000  -0.000000   0.000001   0.000000  -0.000324  -0.000877
     9  C    0.000049   0.000000  -0.000004  -0.000000   0.000056   0.000001
    10  N    0.000001   0.000000  -0.000000   0.000000   0.000000   0.000000
    11  C   -0.029094   0.001637   0.000046   0.000001  -0.000004  -0.000000
    12  N    0.001733   0.000048   0.000000   0.000000  -0.000000   0.000000
    13  C    4.850104   0.930455   0.000239   0.000481   0.000059   0.000000
    14  N    0.930455   6.147144   0.000066  -0.000812   0.000001   0.000000
    15  C    0.000239   0.000066   4.851039   0.927154  -0.027214   0.002031
    16  N    0.000481  -0.000812   0.927154   6.161681   0.002130   0.000049
    17  C    0.000059   0.000001  -0.027214   0.002130   4.867232   0.877885
    18  N    0.000000   0.000000   0.002031   0.000049   0.877885   6.274308
 Mulliken charges:
               1
     1  C    0.183067
     2  C   -0.520077
     3  C    0.203430
     4  C   -0.521996
     5  C    0.172350
     6  C   -0.491051
     7  C   -0.161329
     8  N    0.025268
     9  C   -0.145199
    10  N   -0.024596
    11  C   -0.147761
    12  N   -0.005688
    13  C   -0.135712
    14  N   -0.040512
    15  C   -0.126234
    16  N   -0.048317
    17  C   -0.105710
    18  N   -0.109932
 Sum of Mulliken charges =  -2.00000
 Mulliken charges with hydrogens summed into heavy atoms:
               1
     1  C    0.183067
     2  C   -0.520077
     3  C    0.203430
     4  C   -0.521996
     5  C    0.172350
     6  C   -0.491051
     7  C   -0.161329
     8  N    0.025268
     9  C   -0.145199
    10  N   -0.024596
    11  C   -0.147761
    12  N   -0.005688
    13  C   -0.135712
    14  N   -0.040512
    15  C   -0.126234
    16  N   -0.048317
    17  C   -0.105710
    18  N   -0.109932
 Electronic spatial extent (au):  <R**2>=          39408.9573
 Charge=             -2.0000 electrons
 Dipole moment (field-independent basis, Debye):
    X=             86.7016    Y=             17.0236    Z=             -9.8458  Tot=             88.9039
 Quadrupole moment (field-independent basis, Debye-Ang):
   XX=           -980.1831   YY=           -224.5122   ZZ=           -113.7766
   XY=           -154.3072   XZ=             89.6315   YZ=              8.3093
 Traceless Quadrupole moment (field-independent basis, Debye-Ang):
   XX=           -540.6925   YY=            214.9784   ZZ=            325.7140
   XY=           -154.3072   XZ=             89.6315   YZ=              8.3093
 Octapole moment (field-independent basis, Debye-Ang**2):
  XXX=          12380.6619  YYY=           1137.1311  ZZZ=           -330.1519  XYY=           2010.3656
  XXY=           1667.6376  XXZ=          -1024.5556  XZZ=           1020.5426  YZZ=            178.5321
  YYZ=           -193.3682  XYZ=            -79.0370
 Hexadecapole moment (field-independent basis, Debye-Ang**3):
 XXXX=        -163857.1029 YYYY=          -8704.1793 ZZZZ=           -805.0900 XXXY=         -19921.3065
 XXXZ=          13063.1588 YYYX=         -10175.5779 YYYZ=            762.6851 ZZZX=           2972.9183
 ZZZY=            386.1994 XXYY=         -19892.2065 XXZZ=          -9945.1318 YYZZ=          -1041.9462
 XXYZ=            936.3393 YYXZ=           1752.1257 ZZXY=          -1604.6600
 N-N= 9.581800113523D+02 E-N=-3.770595082512D+03  KE= 7.775698604000D+02
   1 Symmetry operations used in ECPInt.
 ECPInt:  NShTT=    5886 NPrTT=   23670 LenC2=    5394 LenP2D=   14906.
 LDataN:  DoStor=T MaxTD1= 5 Len=  102
 D1PCM: PCM CHGder 1st derivatives, ID1Alg=3 FixD1E=F DoIter=F DoCFld=F I1PDM=0.
 Calling FoFJK, ICntrl=      2127 FMM=F ISym2X=0 I1Cent= 0 IOpClX= 0 NMat=1 NMatS=1 NMatT=0.
 -------------------------------------------------------------------
 Center     Atomic                   Forces (Hartrees/Bohr)
 Number     Number              X              Y              Z
 -------------------------------------------------------------------
      1        6          -0.005107976   -0.194664691   -0.018579907
      2        6          -0.010420564    0.123858930    0.012471112
      3        6          -0.198680129    0.109241518    0.012314517
      4        6           0.137856846   -0.075814894   -0.008949865
      5        6           0.168760270    0.096570920    0.007797823
      6        6          -0.083612417   -0.055656958   -0.004523911
      7        6           0.233968343   -0.130623527   -0.016755227
      8        7          -0.196786815    0.104995468    0.013795812
      9        6          -0.080353740   -0.050400723   -0.004648775
     10        7           0.054564148    0.030074441    0.003034381
     11        6          -0.115737598   -0.060310823   -0.004383031
     12        7           0.079781657    0.047594722    0.003424537
     13        6          -0.007759824    0.043438427    0.003996389
     14        7           0.001878872   -0.009622530   -0.000857092
     15        6           0.010660961    0.031061209    0.002490710
     16        7          -0.003401020   -0.006652057   -0.000473446
     17        6          -0.051044063    0.042253796    0.003453330
     18        7           0.065433050   -0.045343226   -0.003607357
 -------------------------------------------------------------------
 Cartesian Forces:  Max     0.233968343 RMS     0.080831286

 GradGradGradGradGradGradGradGradGradGradGradGradGradGradGradGradGradGrad
 Berny optimization.
 Search for a local minimum.
 Step number   1 out of a maximum of    2
 All quantities printed in internal units (Hartrees-Bohrs-Radians)
 Second derivative matrix not updated -- first step.
 ITU=  0
     Eigenvalues ---    0.00251   0.00272   0.00294   0.00294   0.00297
     Eigenvalues ---    0.01127   0.01520   0.01656   0.01955   0.01987
     Eigenvalues ---    0.04832   0.04904   0.05219   0.05299   0.10123
     Eigenvalues ---    0.19009   0.19626   0.20205   0.23247   0.24279
     Eigenvalues ---    0.24338   0.25163   0.30870   0.31341   0.42812
     Eigenvalues ---    0.66034   0.67176   0.72336   0.73447   0.78383
     Eigenvalues ---    0.99380   1.00163   1.06407   1.65132   1.74219
     Eigenvalues ---    2.00285   2.13089   2.30504   2.35454   2.35509
     Eigenvalues ---    2.78564   2.79983   3.07549   3.24313   3.97240
     Eigenvalues ---    4.47736   4.77820   5.17936
 Quadratic step=3.514D-01 exceeds max=3.000D-01 adjusted using Lamda=-3.699D-02.
 Angle between NR and scaled steps=  11.33 degrees.
 Angle between quadratic step and forces=  38.97 degrees.
 Linear search not attempted -- first point.
 B after Tr=    -0.000053    0.000923    0.000126
         Rot=    1.000000    0.000003    0.000004   -0.000023 Ang=   0.00 deg.
 Variable       Old X    -DE/DX   Delta X   Delta X   Delta X     New X
                                 (Linear)    (Quad)   (Total)
    X1      -16.88743  -0.00511   0.00000  -0.01411  -0.01410 -16.90153
    Y1       -1.60284  -0.19466   0.00000  -0.11386  -0.11372  -1.71656
    Z1        2.10148  -0.01858   0.00000  -0.00984  -0.00983   2.09165
    X2      -16.89124  -0.01042   0.00000  -0.00504  -0.00516 -16.89639
    Y2        0.88030   0.12386   0.00000   0.01703   0.01717   0.89747
    Z2        2.35714   0.01247   0.00000   0.00285   0.00284   2.35998
    X3      -15.46217  -0.19868   0.00000  -0.11253  -0.11241 -15.57458
    Y3       -4.05236   0.10924   0.00000   0.05238   0.05259  -3.99978
    Z3        1.85403   0.01231   0.00000   0.00554   0.00556   1.85960
    X4      -13.34409   0.13786   0.00000   0.03309   0.03327 -13.31081
    Y4       -5.27858  -0.07581   0.00000  -0.02661  -0.02630  -5.30489
    Z4        1.70241  -0.00895   0.00000  -0.00349  -0.00344   1.69897
    X5      -18.30520   0.16876   0.00000   0.09452   0.09464 -18.21056
    Y5       -4.05388   0.09657   0.00000   0.06198   0.06206  -3.99181
    Z5        1.87805   0.00780   0.00000   0.00508   0.00509   1.88314
    X6      -20.49428  -0.08361   0.00000  -0.01714  -0.01696 -20.51125
    Y6       -5.30798  -0.05566   0.00000  -0.00021  -0.00023  -5.30821
    Z6        1.77404  -0.00452   0.00000   0.00042   0.00041   1.77445
    X7      -19.31175   0.23397   0.00000   0.09648   0.09630 -19.21545
    Y7        2.33641  -0.13062   0.00000  -0.05866  -0.05862   2.27780
    Z7        2.53705  -0.01676   0.00000  -0.00688  -0.00692   2.53013
    X8      -21.13118  -0.19679   0.00000   0.00055   0.00032 -21.13086
    Y8        3.28610   0.10500   0.00000   0.01209   0.01204   3.29814
    Z8        2.66381   0.01380   0.00000  -0.00004  -0.00009   2.66372
    X9      -14.53354  -0.08035   0.00000  -0.05866  -0.05884 -14.59237
    Y9        2.33148  -0.05040   0.00000  -0.04800  -0.04775   2.28373
    Z9        2.49572  -0.00465   0.00000  -0.00242  -0.00242   2.49331
   X10      -12.59529   0.05456   0.00000  -0.03296  -0.03319 -12.62848
   Y10        3.26123   0.03007   0.00000   0.00119   0.00154   3.26277
   Z10        2.60389   0.00303   0.00000  -0.00142  -0.00141   2.60247
   X11      -10.85985  -0.11574   0.00000  -0.07447  -0.07435 -10.93420
   Y11       -3.98284  -0.06031   0.00000  -0.03589  -0.03547  -4.01831
   Z11        1.80086  -0.00438   0.00000  -0.00328  -0.00321   1.79765
   X12       -9.07220   0.07978   0.00000  -0.01088  -0.01081  -9.08301
   Y12       -2.82703   0.04759   0.00000  -0.02077  -0.02026  -2.84729
   Z12        1.88305   0.00342   0.00000  -0.00011  -0.00004   1.88302
   X13      -13.24014  -0.00776   0.00000  -0.00188  -0.00157 -13.24172
   Y13       -8.04285   0.04344   0.00000   0.05719   0.05750  -7.98535
   Z13        1.40643   0.00400   0.00000   0.00316   0.00323   1.40966
   X14      -13.31666   0.00188   0.00000   0.00961   0.01002 -13.30664
   Y14      -10.21699  -0.00962   0.00000   0.04771   0.04802 -10.16897
   Z14        1.15572  -0.00086   0.00000   0.00452   0.00460   1.16032
   X15      -20.58226   0.01066   0.00000   0.02361   0.02392 -20.55835
   Y15       -8.04859   0.03106   0.00000   0.05425   0.05422  -7.99437
   Z15        1.55732   0.00249   0.00000   0.00597   0.00598   1.56329
   X16      -20.40198  -0.00340   0.00000  -0.01364  -0.01323 -20.41520
   Y16      -10.22923  -0.00665   0.00000   0.04491   0.04489 -10.18435
   Z16        1.39337  -0.00047   0.00000   0.00423   0.00425   1.39761
   X17      -22.87155  -0.05104   0.00000   0.01581   0.01593 -22.85562
   Y17       -4.01550   0.04225   0.00000   0.00570   0.00556  -4.00994
   Z17        1.87662   0.00345   0.00000   0.00022   0.00019   1.87681
   X18      -24.77481   0.06543   0.00000   0.06614   0.06620 -24.70861
   Y18       -2.77303  -0.04534   0.00000  -0.05299  -0.05322  -2.82624
   Z18        1.97339  -0.00361   0.00000  -0.00472  -0.00478   1.96861
         Item               Value     Threshold  Converged?
 Maximum Force            0.233968     0.000450     NO 
 RMS     Force            0.080831     0.000300     NO 
 Maximum Displacement     0.113720     0.001800     NO 
 RMS     Displacement     0.040831     0.001200     NO 
 Predicted change in Energy=-7.095110D-02
 GradGradGradGradGradGradGradGradGradGradGradGradGradGradGradGradGradGrad

 Unable to Open any file for archive entry.
 1\1\GINC-X10P1N4\Force\RwB97XD\def2SVP\C12N6(2-)\MAYUMIAO\11-Oct-2024\
 0\\# wb97xd def2svp scrf=(smd,solvent=acetonitrile) g09default scf=(xq
 c,maxcycle=64) force guess=read nosymm\\Title Card\\-2,1\C,-8.93644335
 ,-0.84818522,1.11205515\C,-8.93845819,0.46583576,1.24734464\C,-8.18223
 038,-2.14441796,0.98111105\C,-7.06138577,-2.79330662,0.90087491\C,-9.6
 8669584,-2.14521929,0.99382331\C,-10.84510743,-2.80885958,0.93877925\C
 ,-10.21934028,1.23637689,1.34254836\N,-11.18214027,1.73892877,1.409627
 96\C,-7.69081624,1.23376383,1.32068011\N,-6.66513968,1.72576732,1.3779
 1718\C,-5.74678412,-2.10762881,0.95297375\N,-4.80079941,-1.49600027,0.
 99646784\C,-7.00638242,-4.2560929,0.74424964\N,-7.04687308,-5.40659782
 ,0.61158172\C,-10.89166544,-4.25913094,0.82409616\N,-10.79626036,-5.41
 307771,0.73733729\C,-12.10310533,-2.12491026,0.993066\N,-13.11026691,-
 1.46742292,1.04427064\\Version=ES64L-G16RevC.01\HF=-784.9507898\RMSD=4
 .841e-09\RMSF=8.083e-02\Dipole=0.3260083,0.2148651,0.0168803\Quadrupol
 e=-401.9916149,159.8312007,242.1604143,-114.7236457,66.6387959,6.17776
 53\PG=C01 [X(C12N6)]\\@
 The archive entry for this job was punched.


 DESK:  A WASTEBASKET WITH DRAWERS.
 Job cpu time:       0 days  0 hours 10 minutes 45.3 seconds.
 Elapsed time:       0 days  0 hours  0 minutes 24.4 seconds.
 File lengths (MBytes):  RWF=    148 Int=      0 D2E=      0 Chk=      8 Scr=      1
 Normal termination of Gaussian 16 at Fri Oct 11 15:52:02 2024.
