 Entering Gaussian System, Link 0=g16
 Input=JOBS/26_B.gjf
 Output=JOBS/26_B.log
 Initial command:
 /data/app/gaussian/C01-avx2//g16/l1.exe "/tmp/Gau-2538412.inp" -scrdir="/tmp/"
 Entering Link 1 = /data/app/gaussian/C01-avx2//g16/l1.exe PID=   2538413.
  
 Copyright (c) 1988-2019, Gaussian, Inc.  All Rights Reserved.
  
 This is part of the Gaussian(R) 16 program.  It is based on
 the Gaussian(R) 09 system (copyright 2009, Gaussian, Inc.),
 the Gaussian(R) 03 system (copyright 2003, Gaussian, Inc.),
 the Gaussian(R) 98 system (copyright 1998, Gaussian, Inc.),
 the Gaussian(R) 94 system (copyright 1995, Gaussian, Inc.),
 the Gaussian 92(TM) system (copyright 1992, Gaussian, Inc.),
 the Gaussian 90(TM) system (copyright 1990, Gaussian, Inc.),
 the Gaussian 88(TM) system (copyright 1988, Gaussian, Inc.),
 the Gaussian 86(TM) system (copyright 1986, Carnegie Mellon
 University), and the Gaussian 82(TM) system (copyright 1983,
 Carnegie Mellon University). Gaussian is a federally registered
 trademark of Gaussian, Inc.
  
 This software contains proprietary and confidential information,
 including trade secrets, belonging to Gaussian, Inc.
  
 This software is provided under written license and may be
 used, copied, transmitted, or stored only in accord with that
 written license.
  
 The following legend is applicable only to US Government
 contracts under FAR:
  
                    RESTRICTED RIGHTS LEGEND
  
 Use, reproduction and disclosure by the US Government is
 subject to restrictions as set forth in subparagraphs (a)
 and (c) of the Commercial Computer Software - Restricted
 Rights clause in FAR 52.227-19.
  
 Gaussian, Inc.
 340 Quinnipiac St., Bldg. 40, Wallingford CT 06492
  
  
 ---------------------------------------------------------------
 Warning -- This program may not be used in any manner that
 competes with the business of Gaussian, Inc. or will provide
 assistance to any competitor of Gaussian, Inc.  The licensee
 of this program is prohibited from giving any competitor of
 Gaussian, Inc. access to this program.  By using this program,
 the user acknowledges that Gaussian, Inc. is engaged in the
 business of creating and licensing software in the field of
 computational chemistry and represents and warrants to the
 licensee that it is not a competitor of Gaussian, Inc. and that
 it will not use this program in any manner prohibited above.
 ---------------------------------------------------------------
  

 Cite this work as:
 Gaussian 16, Revision C.01,
 M. J. Frisch, G. W. Trucks, H. B. Schlegel, G. E. Scuseria, 
 M. A. Robb, J. R. Cheeseman, G. Scalmani, V. Barone, 
 G. A. Petersson, H. Nakatsuji, X. Li, M. Caricato, A. V. Marenich, 
 J. Bloino, B. G. Janesko, R. Gomperts, B. Mennucci, H. P. Hratchian, 
 J. V. Ortiz, A. F. Izmaylov, J. L. Sonnenberg, D. Williams-Young, 
 F. Ding, F. Lipparini, F. Egidi, J. Goings, B. Peng, A. Petrone, 
 T. Henderson, D. Ranasinghe, V. G. Zakrzewski, J. Gao, N. Rega, 
 G. Zheng, W. Liang, M. Hada, M. Ehara, K. Toyota, R. Fukuda, 
 J. Hasegawa, M. Ishida, T. Nakajima, Y. Honda, O. Kitao, H. Nakai, 
 T. Vreven, K. Throssell, J. A. Montgomery, Jr., J. E. Peralta, 
 F. Ogliaro, M. J. Bearpark, J. J. Heyd, E. N. Brothers, K. N. Kudin, 
 V. N. Staroverov, T. A. Keith, R. Kobayashi, J. Normand, 
 K. Raghavachari, A. P. Rendell, J. C. Burant, S. S. Iyengar, 
 J. Tomasi, M. Cossi, J. M. Millam, M. Klene, C. Adamo, R. Cammi, 
 J. W. Ochterski, R. L. Martin, K. Morokuma, O. Farkas, 
 J. B. Foresman, and D. J. Fox, Gaussian, Inc., Wallingford CT, 2019.
 
 ******************************************
 Gaussian 16:  ES64L-G16RevC.01  3-Jul-2019
                11-Oct-2024 
 ******************************************
 %chk=b.chk
 %nprocshared=28
 Will use up to   28 processors via shared memory.
 %mem=48gb
 ----------------------------------------------------------------------
 # wb97xd def2svp scrf=(smd,solvent=acetonitrile) g09default scf=(xqc,m
 axcycle=64) force guess=read nosymm
 ----------------------------------------------------------------------
 1/10=7,30=1,38=1,158=3,167=1/1,3;
 2/12=2,15=1,17=6,18=5,40=1/2;
 3/5=43,7=101,11=2,25=1,27=10,30=1,70=32201,71=1,72=2,74=-58,75=-4,116=-2,158=3/1,2,3;
 4/5=1,60=-1/1;
 5/5=2,7=64,8=3,13=1,38=6,53=2,87=10/2,8;
 6/7=2,8=2,9=2,10=2,28=1,87=10/1;
 7/29=1,30=1,87=10/1,2,3,16;
 1/10=7,30=1,158=3,167=1/3;
 99//99;
 Using 2006 physical constants.
 ----------
 Title Card
 ----------
 Symbolic Z-matrix:
 Charge = -1 Multiplicity = 2
 6                    -8.93644  -0.84819   1.11206 
 6                    -8.93846   0.46584   1.24734 
 6                    -8.18223  -2.14442   0.98111 
 6                    -7.06139  -2.79331   0.90087 
 6                    -9.6867   -2.14522   0.99382 
 6                    -10.84511  -2.80886   0.93878 
 6                    -10.21934   1.23638   1.34255 
 7                    -11.18214   1.73893   1.40963 
 6                    -7.69082   1.23376   1.32068 
 7                    -6.66514   1.72577   1.37792 
 6                    -5.74678  -2.10763   0.95297 
 7                    -4.8008   -1.496     0.99647 
 6                    -7.00638  -4.25609   0.74425 
 7                    -7.04687  -5.4066    0.61158 
 6                    -10.89167  -4.25913   0.8241 
 7                    -10.79626  -5.41308   0.73734 
 6                    -12.10311  -2.12491   0.99307 
 7                    -13.11027  -1.46742   1.04427 
 

 GradGradGradGradGradGradGradGradGradGradGradGradGradGradGradGradGradGrad
 Berny optimization.
 Initialization pass.
 Trust Radius=3.00D-01 FncErr=1.00D-07 GrdErr=1.00D-07 EigMax=2.50D+02 EigMin=1.00D-04
 Number of steps in this run=      2 maximum allowed number of steps=      2.
 GradGradGradGradGradGradGradGradGradGradGradGradGradGradGradGradGradGrad

                          Input orientation:                          
 ---------------------------------------------------------------------
 Center     Atomic      Atomic             Coordinates (Angstroms)
 Number     Number       Type             X           Y           Z
 ---------------------------------------------------------------------
      1          6           0       -8.936443   -0.848185    1.112055
      2          6           0       -8.938458    0.465836    1.247345
      3          6           0       -8.182230   -2.144418    0.981111
      4          6           0       -7.061386   -2.793307    0.900875
      5          6           0       -9.686696   -2.145219    0.993823
      6          6           0      -10.845107   -2.808860    0.938779
      7          6           0      -10.219340    1.236377    1.342548
      8          7           0      -11.182140    1.738929    1.409628
      9          6           0       -7.690816    1.233764    1.320680
     10          7           0       -6.665140    1.725767    1.377917
     11          6           0       -5.746784   -2.107629    0.952974
     12          7           0       -4.800799   -1.496000    0.996468
     13          6           0       -7.006382   -4.256093    0.744250
     14          7           0       -7.046873   -5.406598    0.611582
     15          6           0      -10.891665   -4.259131    0.824096
     16          7           0      -10.796260   -5.413078    0.737337
     17          6           0      -12.103105   -2.124910    0.993066
     18          7           0      -13.110267   -1.467423    1.044271
 ---------------------------------------------------------------------
                    Distance matrix (angstroms):
                    1          2          3          4          5
     1  C    0.000000
     2  C    1.320969   0.000000
     3  C    1.505391   2.730602   0.000000
     4  C    2.709970   3.776963   1.297608   0.000000
     5  C    1.503049   2.727955   1.504519   2.705718   0.000000
     6  C    2.741763   3.801862   2.744848   3.783943   1.336176
     7  C    2.458526   1.497817   3.963613   5.138687   3.441005
     8  N    3.438730   2.584804   4.925796   6.146593   4.182805
     9  C    2.435082   1.466868   3.430584   4.097526   3.938007
    10  N    3.443071   2.602394   4.175806   4.561426   4.925634
    11  C    3.432992   4.110494   2.435887   1.483592   3.940303
    12  N    4.187669   4.586061   3.443074   2.608140   4.928841
    13  C    3.933732   5.126659   2.428558   1.472175   3.420841
    14  N    4.959846   6.202239   3.473817   2.629295   4.213237
    15  C    3.942127   5.130250   3.440596   4.101899   2.439135
    16  N    4.943438   6.186531   4.192459   4.565001   3.460609
    17  C    3.416421   4.097757   3.920942   5.086668   2.416495
    18  N    4.220054   4.602468   4.974722   6.194150   3.490386
                    6          7          8          9         10
     6  C    0.000000
     7  C    4.113217   0.000000
     8  N    4.584503   1.088137   0.000000
     9  C    5.141810   2.528620   3.528802   0.000000
    10  N    6.182865   3.587910   4.517131   1.139015   0.000000
    11  C    5.146341   5.598027   6.674401   3.883217   3.964704
    12  N    6.185514   6.078342   7.166378   3.988599   3.741798
    13  C    4.107084   6.391266   7.336209   5.562306   6.025001
    14  N    4.613229   7.397836   8.294327   6.709090   7.183566
    15  C    1.455543   5.560703   6.033568   6.376827   7.347737
    16  N    2.612454   6.701818   7.193891   7.359659   8.272824
    17  C    1.432931   3.868974   3.993864   5.554846   6.674376
    18  N    2.634678   3.969504   3.759235   6.061622   7.200517
                   11         12         13         14         15
    11  C    0.000000
    12  N    1.127328   0.000000
    13  C    2.499210   3.542079   0.000000
    14  N    3.562299   4.526119   1.158836   0.000000
    15  C    5.578116   6.690535   3.886105   4.017993   0.000000
    16  N    6.039015   7.166324   3.962554   3.751501   1.161130
    17  C    6.356471   7.329339   5.529958   6.039908   2.459885
    18  N    7.391825   8.309654   6.717447   7.243553   3.572716
                   16         17         18
    16  N    0.000000
    17  C    3.547575   0.000000
    18  N    4.584433   1.203863   0.000000
 Symmetry turned off by external request.
 Stoichiometry    C12N6(1-,2)
 Framework group  C1[X(C12N6)]
 Deg. of freedom    48
 Full point group                 C1      NOp   1
 Rotational constants (GHZ):           0.4236629           0.4217092           0.2113658
 Standard basis: def2SVP (5D, 7F)
   252 basis functions,   450 primitive gaussians,   270 cartesian basis functions
    58 alpha electrons       57 beta electrons
       nuclear repulsion energy       958.1827797011 Hartrees.
 NAtoms=   18 NActive=   18 NUniq=   18 SFac= 1.00D+00 NAtFMM=   60 NAOKFM=F Big=F
 Integral buffers will be    131072 words long.
 Raffenetti 2 integral format.
 Two-electron integral symmetry is turned off.
 Nuclear repulsion after empirical dispersion term =      958.1712639573 Hartrees.
 Force PCM accuracy= 1.00D-10.
 ------------------------------------------------------------------------------
 Polarizable Continuum Model (PCM)
 =================================
 Model                : PCM (using non-symmetric T matrix).
 Atomic radii         : SMD-Coulomb.
 Polarization charges : Total charges.
 Charge compensation  : None.
 Solution method      : On-the-fly selection.
 Cavity type          : VdW (van der Waals Surface) (Alpha=1.000).
 Cavity algorithm     : GePol (No added spheres)
                        Default sphere list used, NSphG=   18.
                        Lebedev-Laikov grids with approx.  5.0 points / Ang**2.
                        Smoothing algorithm: York/Karplus (Gamma=1.0000).
                        Polarization charges: spherical gaussians, with
                                              point-specific exponents (IZeta= 3).
                        Self-potential: point-specific (ISelfS= 7).
                        Self-field    : sphere-specific E.n sum rule (ISelfD= 2).
 1st derivatives      : Analytical E(r).r(x)/FMM algorithm (CHGder, D1EAlg=3).
                        Cavity 1st derivative terms included.
 Solvent              : Acetonitrile, Eps=  35.688000 Eps(inf)=   1.806874
 ------------------------------------------------------------------------------
 Spheres list:
 ISph  on   Nord     Re0    Alpha      Xe            Ye            Ze
    1   C      1    1.8500  1.000     -8.936443     -0.848185      1.112055
    2   C      2    1.8500  1.000     -8.938458      0.465836      1.247345
    3   C      3    1.8500  1.000     -8.182230     -2.144418      0.981111
    4   C      4    1.8500  1.000     -7.061386     -2.793307      0.900875
    5   C      5    1.8500  1.000     -9.686696     -2.145219      0.993823
    6   C      6    1.8500  1.000    -10.845107     -2.808860      0.938779
    7   C      7    1.8500  1.000    -10.219340      1.236377      1.342548
    8   N      8    1.8900  1.000    -11.182140      1.738929      1.409628
    9   C      9    1.8500  1.000     -7.690816      1.233764      1.320680
   10   N     10    1.8900  1.000     -6.665140      1.725767      1.377917
   11   C     11    1.8500  1.000     -5.746784     -2.107629      0.952974
   12   N     12    1.8900  1.000     -4.800799     -1.496000      0.996468
   13   C     13    1.8500  1.000     -7.006382     -4.256093      0.744250
   14   N     14    1.8900  1.000     -7.046873     -5.406598      0.611582
   15   C     15    1.8500  1.000    -10.891665     -4.259131      0.824096
   16   N     16    1.8900  1.000    -10.796260     -5.413078      0.737337
   17   C     17    1.8500  1.000    -12.103105     -2.124910      0.993066
   18   N     18    1.8900  1.000    -13.110267     -1.467423      1.044271
 ------------------------------------------------------------------------------
 ------------------------------------------------------------------------------
 Atomic radii for non-electrostatic terms: SMD-CDS.
 ------------------------------------------------------------------------------
 Nuclear repulsion after PCM non-electrostatic terms =      958.1800113523 Hartrees.
 One-electron integrals computed using PRISM.
   1 Symmetry operations used in ECPInt.
 ECPInt:  NShTT=    5886 NPrTT=   23670 LenC2=    5394 LenP2D=   14906.
 LDataN:  DoStor=T MaxTD1= 4 Len=   56
 NBasis=   252 RedAO= T EigKep=  2.92D-04  NBF=   252
 NBsUse=   252 1.00D-06 EigRej= -1.00D+00 NBFU=   252
 Initial guess from the checkpoint file:  "b.chk"
 B after Tr=     0.000621   -0.002215    0.002506
         Rot=    1.000000    0.000071    0.000087    0.000051 Ang=   0.01 deg.
 Initial guess <Sx>= 0.0000 <Sy>= 0.0000 <Sz>= 0.5000 <S**2>= 0.7750 S= 0.5124
 Requested convergence on RMS density matrix=1.00D-08 within  64 cycles.
 Requested convergence on MAX density matrix=1.00D-06.
 Requested convergence on             energy=1.00D-06.
 No special actions if energy rises.
 Inv3:  Mode=1 IEnd=    19400547.
 Iteration    1 A*A^-1 deviation from unit magnitude is 3.44D-15 for   1833.
 Iteration    1 A*A^-1 deviation from orthogonality  is 2.75D-15 for    896    635.
 Iteration    1 A^-1*A deviation from unit magnitude is 3.33D-15 for   1111.
 Iteration    1 A^-1*A deviation from orthogonality  is 1.70D-10 for    739    696.
 Iteration    2 A*A^-1 deviation from unit magnitude is 4.33D-15 for    928.
 Iteration    2 A*A^-1 deviation from orthogonality  is 4.66D-15 for   2462     75.
 Iteration    2 A^-1*A deviation from unit magnitude is 1.22D-15 for   1712.
 Iteration    2 A^-1*A deviation from orthogonality  is 6.63D-16 for   2065   1926.
 Error on total polarization charges =  0.01980
 SCF Done:  E(UwB97XD) =  -784.802303595     A.U. after   19 cycles
            NFock= 19  Conv=0.54D-08     -V/T= 2.0096
 <Sx>= 0.0000 <Sy>= 0.0000 <Sz>= 0.5000 <S**2>= 0.7774 S= 0.5136
 <L.S>=  0.00000000000    
 SMD-CDS (non-electrostatic) energy       (kcal/mol) =       5.49
 (included in total energy above)
 Annihilation of the first spin contaminant:
 S**2 before annihilation     0.7774,   after     0.7506
 QCSCF skips out because SCF is already converged.

 **********************************************************************

            Population analysis using the SCF Density.

 **********************************************************************

 Alpha  occ. eigenvalues --  -14.46811 -14.46091 -14.46030 -14.45570 -14.45381
 Alpha  occ. eigenvalues --  -14.44364 -10.38539 -10.38385 -10.38372 -10.38313
 Alpha  occ. eigenvalues --  -10.38161 -10.38102 -10.37007 -10.36385 -10.36282
 Alpha  occ. eigenvalues --  -10.35866 -10.35703 -10.34790  -1.04000  -1.03030
 Alpha  occ. eigenvalues --   -1.02166  -1.01899  -1.01293  -1.00309  -0.99390
 Alpha  occ. eigenvalues --   -0.92520  -0.92226  -0.87903  -0.72349  -0.71985
 Alpha  occ. eigenvalues --   -0.68237  -0.67827  -0.67460  -0.66550  -0.54467
 Alpha  occ. eigenvalues --   -0.50909  -0.50624  -0.48644  -0.48534  -0.47670
 Alpha  occ. eigenvalues --   -0.47548  -0.47362  -0.46963  -0.46712  -0.46225
 Alpha  occ. eigenvalues --   -0.46153  -0.45622  -0.45516  -0.45140  -0.44966
 Alpha  occ. eigenvalues --   -0.44397  -0.44227  -0.43595  -0.42997  -0.42327
 Alpha  occ. eigenvalues --   -0.36984  -0.36290  -0.25803
 Alpha virt. eigenvalues --    0.03967   0.04850   0.06260   0.07525   0.07797
 Alpha virt. eigenvalues --    0.08760   0.09734   0.11314   0.11649   0.12550
 Alpha virt. eigenvalues --    0.12946   0.14440   0.18273   0.18697   0.20247
 Alpha virt. eigenvalues --    0.22063   0.24654   0.25196   0.25268   0.25707
 Alpha virt. eigenvalues --    0.27510   0.28847   0.29022   0.30888   0.31492
 Alpha virt. eigenvalues --    0.33106   0.34541   0.46409   0.47112   0.49585
 Alpha virt. eigenvalues --    0.50301   0.50757   0.51521   0.53083   0.53197
 Alpha virt. eigenvalues --    0.53773   0.54153   0.54675   0.56712   0.59816
 Alpha virt. eigenvalues --    0.60186   0.60290   0.61348   0.62034   0.63525
 Alpha virt. eigenvalues --    0.64212   0.68830   0.68962   0.70666   0.71439
 Alpha virt. eigenvalues --    0.71822   0.72298   0.72546   0.72960   0.73242
 Alpha virt. eigenvalues --    0.73746   0.73917   0.74326   0.74904   0.75534
 Alpha virt. eigenvalues --    0.78289   0.78835   0.79405   0.81006   0.81256
 Alpha virt. eigenvalues --    0.83587   0.83868   0.86438   0.87239   0.92375
 Alpha virt. eigenvalues --    0.92987   0.93145   0.93185   0.93390   0.94356
 Alpha virt. eigenvalues --    0.95470   0.98094   0.98397   0.99209   0.99540
 Alpha virt. eigenvalues --    1.01046   1.01748   1.02253   1.02463   1.02897
 Alpha virt. eigenvalues --    1.03695   1.05656   1.06372   1.09257   1.10299
 Alpha virt. eigenvalues --    1.12914   1.15502   1.17254   1.17304   1.19073
 Alpha virt. eigenvalues --    1.21414   1.22364   1.24411   1.24546   1.31651
 Alpha virt. eigenvalues --    1.33509   1.33610   1.38604   1.38752   1.42051
 Alpha virt. eigenvalues --    1.44109   1.44535   1.45227   1.45796   1.57038
 Alpha virt. eigenvalues --    1.60854   1.66410   1.67498   1.68027   1.68571
 Alpha virt. eigenvalues --    1.68659   1.69398   1.73985   1.74356   1.76736
 Alpha virt. eigenvalues --    1.77171   1.77444   1.77633   1.78697   1.79471
 Alpha virt. eigenvalues --    1.80159   1.81346   1.84475   1.91111   1.93622
 Alpha virt. eigenvalues --    1.95144   1.96796   1.97470   1.98568   1.99121
 Alpha virt. eigenvalues --    1.99979   2.01160   2.03540   2.07321   2.07854
 Alpha virt. eigenvalues --    2.11094   2.17590   2.18183   2.23237   2.23912
 Alpha virt. eigenvalues --    2.25515   2.29005   2.30383   2.31674   2.32106
 Alpha virt. eigenvalues --    2.32787   2.33762   2.34214   2.34586   2.35061
 Alpha virt. eigenvalues --    2.35325   2.35587   2.36251   2.36682   2.37484
 Alpha virt. eigenvalues --    2.37646   2.39425   2.55357   2.56433   2.57589
 Alpha virt. eigenvalues --    2.67459   2.69649   2.88006   2.90170   2.94046
 Alpha virt. eigenvalues --    2.94768   2.99058   2.99114   3.01037   3.02661
 Alpha virt. eigenvalues --    3.04889   3.07007   3.07707   3.08541   3.09936
 Alpha virt. eigenvalues --    3.09968   3.14070   3.19021   3.21343   3.29059
 Alpha virt. eigenvalues --    3.38219   3.40920   3.42070   3.46435   3.51442
 Alpha virt. eigenvalues --    3.57176   3.61718   3.69327   3.80475
  Beta  occ. eigenvalues --  -14.46593 -14.45941 -14.45867 -14.45419 -14.45256
  Beta  occ. eigenvalues --  -14.44257 -10.38366 -10.38355 -10.38219 -10.38169
  Beta  occ. eigenvalues --  -10.38019 -10.37780 -10.37108 -10.36460 -10.36361
  Beta  occ. eigenvalues --  -10.35941 -10.35768 -10.34849  -1.03776  -1.02748
  Beta  occ. eigenvalues --   -1.01887  -1.01598  -1.01037  -0.99934  -0.99006
  Beta  occ. eigenvalues --   -0.91868  -0.91530  -0.86904  -0.72135  -0.71762
  Beta  occ. eigenvalues --   -0.67996  -0.67605  -0.67224  -0.66293  -0.53365
  Beta  occ. eigenvalues --   -0.49776  -0.49396  -0.48420  -0.48331  -0.47346
  Beta  occ. eigenvalues --   -0.47247  -0.47126  -0.46708  -0.46567  -0.46104
  Beta  occ. eigenvalues --   -0.45507  -0.45495  -0.44814  -0.44721  -0.44253
  Beta  occ. eigenvalues --   -0.44223  -0.43469  -0.43353  -0.42872  -0.42164
  Beta  occ. eigenvalues --   -0.34792  -0.33901
  Beta virt. eigenvalues --   -0.08175   0.05371   0.06052   0.06384   0.07600
  Beta virt. eigenvalues --    0.07830   0.08805   0.10734   0.11698   0.12080
  Beta virt. eigenvalues --    0.13003   0.13291   0.14693   0.18555   0.18941
  Beta virt. eigenvalues --    0.21767   0.22022   0.25395   0.25893   0.26284
  Beta virt. eigenvalues --    0.26861   0.27763   0.28972   0.29165   0.31367
  Beta virt. eigenvalues --    0.31966   0.33643   0.34654   0.46589   0.47255
  Beta virt. eigenvalues --    0.49658   0.50401   0.50841   0.51611   0.53048
  Beta virt. eigenvalues --    0.53153   0.53947   0.54326   0.54822   0.56871
  Beta virt. eigenvalues --    0.59744   0.60141   0.60192   0.61375   0.62068
  Beta virt. eigenvalues --    0.63407   0.64506   0.68973   0.69150   0.70879
  Beta virt. eigenvalues --    0.71603   0.72008   0.72410   0.72664   0.73032
  Beta virt. eigenvalues --    0.73371   0.73882   0.74045   0.74424   0.75074
  Beta virt. eigenvalues --    0.75701   0.78308   0.78879   0.80317   0.81707
  Beta virt. eigenvalues --    0.81919   0.83719   0.84011   0.86701   0.87325
  Beta virt. eigenvalues --    0.92498   0.93294   0.93528   0.93572   0.93694
  Beta virt. eigenvalues --    0.94833   0.96059   0.98594   0.98896   0.99374
  Beta virt. eigenvalues --    0.99688   1.01144   1.01841   1.02498   1.02701
  Beta virt. eigenvalues --    1.03167   1.03858   1.05756   1.06623   1.09500
  Beta virt. eigenvalues --    1.10438   1.13040   1.15698   1.17493   1.17542
  Beta virt. eigenvalues --    1.19339   1.21783   1.22579   1.24700   1.25232
  Beta virt. eigenvalues --    1.31778   1.33710   1.33801   1.39237   1.39370
  Beta virt. eigenvalues --    1.42756   1.44247   1.44632   1.45966   1.46551
  Beta virt. eigenvalues --    1.57103   1.60817   1.66304   1.67381   1.67894
  Beta virt. eigenvalues --    1.68408   1.68502   1.69156   1.73969   1.74320
  Beta virt. eigenvalues --    1.76881   1.77172   1.77436   1.77815   1.78652
  Beta virt. eigenvalues --    1.79414   1.80048   1.81584   1.84388   1.91324
  Beta virt. eigenvalues --    1.93771   1.95205   1.97338   1.97965   1.98749
  Beta virt. eigenvalues --    1.99287   2.00415   2.01606   2.04135   2.07637
  Beta virt. eigenvalues --    2.08099   2.11338   2.18478   2.19084   2.24302
  Beta virt. eigenvalues --    2.24575   2.26146   2.29691   2.31018   2.32314
  Beta virt. eigenvalues --    2.32856   2.33234   2.34304   2.34820   2.35105
  Beta virt. eigenvalues --    2.35484   2.35865   2.36075   2.36740   2.37294
  Beta virt. eigenvalues --    2.37884   2.38178   2.39860   2.55469   2.56565
  Beta virt. eigenvalues --    2.58004   2.68103   2.70230   2.88133   2.90344
  Beta virt. eigenvalues --    2.94171   2.94931   2.99183   2.99232   3.01576
  Beta virt. eigenvalues --    3.02763   3.05338   3.07458   3.08154   3.08750
  Beta virt. eigenvalues --    3.10121   3.10361   3.14430   3.19249   3.21548
  Beta virt. eigenvalues --    3.29219   3.38415   3.41145   3.42273   3.46620
  Beta virt. eigenvalues --    3.51600   3.57340   3.61898   3.69489   3.80649
          Condensed to atoms (all electrons):
               1          2          3          4          5          6
     1  C    4.894021   0.566807   0.265973  -0.119162   0.288232  -0.100039
     2  C    0.566807   5.370965  -0.106979  -0.012652  -0.107460  -0.009813
     3  C    0.265973  -0.106979   4.879721   0.553594   0.280610  -0.101938
     4  C   -0.119162  -0.012652   0.553594   5.426116  -0.121455  -0.011790
     5  C    0.288232  -0.107460   0.280610  -0.121455   4.905283   0.548806
     6  C   -0.100039  -0.009813  -0.101938  -0.011790   0.548806   5.361969
     7  C    0.003507   0.374313   0.004316  -0.000277  -0.012822   0.000891
     8  N   -0.001841  -0.023357  -0.000035  -0.000001  -0.000404   0.000066
     9  C    0.005077   0.386271  -0.014926   0.000783   0.005361  -0.000257
    10  N   -0.001275  -0.025288  -0.000417   0.000027   0.000003  -0.000001
    11  C   -0.013971   0.000860   0.005643   0.375410   0.004993  -0.000239
    12  N   -0.000398   0.000037  -0.001584  -0.023617  -0.000014  -0.000001
    13  C    0.004375  -0.000307   0.006081   0.380825  -0.014827   0.000839
    14  N   -0.000031  -0.000001  -0.001427  -0.024193  -0.000371   0.000062
    15  C    0.005700  -0.000269  -0.015987   0.000901   0.000823   0.377381
    16  N    0.000022  -0.000001  -0.000371   0.000030  -0.001052  -0.027534
    17  C   -0.017190   0.000878   0.005000  -0.000378   0.005121   0.387593
    18  N   -0.000356   0.000045  -0.000003  -0.000001  -0.000881  -0.030126
               7          8          9         10         11         12
     1  C    0.003507  -0.001841   0.005077  -0.001275  -0.013971  -0.000398
     2  C    0.374313  -0.023357   0.386271  -0.025288   0.000860   0.000037
     3  C    0.004316  -0.000035  -0.014926  -0.000417   0.005643  -0.001584
     4  C   -0.000277  -0.000001   0.000783   0.000027   0.375410  -0.023617
     5  C   -0.012822  -0.000404   0.005361   0.000003   0.004993  -0.000014
     6  C    0.000891   0.000066  -0.000257  -0.000001  -0.000239  -0.000001
     7  C    4.770253   0.998933  -0.027571   0.001258   0.000029   0.000001
     8  N    0.998933   5.963986   0.000957   0.000029   0.000000   0.000000
     9  C   -0.027571   0.000957   4.804552   0.935731   0.000288   0.000202
    10  N    0.001258   0.000029   0.935731   6.066745   0.000431  -0.000758
    11  C    0.000029   0.000000   0.000288   0.000431   4.801410   0.952482
    12  N    0.000001   0.000000   0.000202  -0.000758   0.952482   6.035288
    13  C   -0.000002  -0.000000   0.000041   0.000001  -0.027062   0.001307
    14  N   -0.000000  -0.000000   0.000000   0.000000   0.001212   0.000031
    15  C    0.000036   0.000001  -0.000003  -0.000000   0.000038   0.000000
    16  N    0.000000   0.000000  -0.000000   0.000000   0.000001   0.000000
    17  C    0.000436  -0.000193   0.000048   0.000000  -0.000003  -0.000000
    18  N    0.000799  -0.000769   0.000001   0.000000  -0.000000   0.000000
              13         14         15         16         17         18
     1  C    0.004375  -0.000031   0.005700   0.000022  -0.017190  -0.000356
     2  C   -0.000307  -0.000001  -0.000269  -0.000001   0.000878   0.000045
     3  C    0.006081  -0.001427  -0.015987  -0.000371   0.005000  -0.000003
     4  C    0.380825  -0.024193   0.000901   0.000030  -0.000378  -0.000001
     5  C   -0.014827  -0.000371   0.000823  -0.001052   0.005121  -0.000881
     6  C    0.000839   0.000062   0.377381  -0.027534   0.387593  -0.030126
     7  C   -0.000002  -0.000000   0.000036   0.000000   0.000436   0.000799
     8  N   -0.000000  -0.000000   0.000001   0.000000  -0.000193  -0.000769
     9  C    0.000041   0.000000  -0.000003  -0.000000   0.000048   0.000001
    10  N    0.000001   0.000000  -0.000000   0.000000   0.000000   0.000000
    11  C   -0.027062   0.001212   0.000038   0.000001  -0.000003  -0.000000
    12  N    0.001307   0.000031   0.000000   0.000000  -0.000000   0.000000
    13  C    4.820388   0.917487   0.000226   0.000463   0.000049   0.000000
    14  N    0.917487   6.100082   0.000102  -0.000724   0.000001   0.000000
    15  C    0.000226   0.000102   4.818210   0.913356  -0.025634   0.001595
    16  N    0.000463  -0.000724   0.913356   6.111158   0.001708   0.000033
    17  C    0.000049   0.000001  -0.025634   0.001708   4.834254   0.864096
    18  N    0.000000   0.000000   0.001595   0.000033   0.864096   6.214348
          Atomic-Atomic Spin Densities.
               1          2          3          4          5          6
     1  C   -0.015716  -0.074827   0.031805  -0.007355   0.038546  -0.007005
     2  C   -0.074827   0.391128  -0.007379   0.001168  -0.008560   0.001134
     3  C    0.031805  -0.007379  -0.008426  -0.074391   0.037470  -0.007039
     4  C   -0.007355   0.001168  -0.074391   0.366418  -0.009098   0.001118
     5  C    0.038546  -0.008560   0.037470  -0.009098   0.036983  -0.086075
     6  C   -0.007005   0.001134  -0.007039   0.001118  -0.086075   0.371258
     7  C   -0.001159   0.005682  -0.000084  -0.000008   0.000175  -0.000036
     8  N    0.000417  -0.004415   0.000006  -0.000000   0.000056  -0.000027
     9  C   -0.001373   0.008587   0.000220  -0.000053  -0.000111  -0.000008
    10  N    0.000531  -0.004889   0.000057  -0.000035   0.000009  -0.000000
    11  C    0.000190  -0.000036  -0.001206   0.007142  -0.000100  -0.000008
    12  N    0.000050  -0.000030   0.000452  -0.004333   0.000007  -0.000000
    13  C   -0.000099  -0.000008  -0.001023   0.008671   0.000182  -0.000041
    14  N    0.000007  -0.000000   0.000473  -0.004464   0.000060  -0.000029
    15  C   -0.000064  -0.000008   0.000155  -0.000055  -0.000455   0.008867
    16  N    0.000008  -0.000000   0.000052  -0.000035   0.000613  -0.004987
    17  C    0.000206  -0.000051  -0.000083  -0.000009  -0.000161   0.012712
    18  N    0.000055  -0.000034   0.000009  -0.000000   0.000676  -0.005359
               7          8          9         10         11         12
     1  C   -0.001159   0.000417  -0.001373   0.000531   0.000190   0.000050
     2  C    0.005682  -0.004415   0.008587  -0.004889  -0.000036  -0.000030
     3  C   -0.000084   0.000006   0.000220   0.000057  -0.001206   0.000452
     4  C   -0.000008  -0.000000  -0.000053  -0.000035   0.007142  -0.004333
     5  C    0.000175   0.000056  -0.000111   0.000009  -0.000100   0.000007
     6  C   -0.000036  -0.000027  -0.000008  -0.000000  -0.000008  -0.000000
     7  C   -0.047708  -0.001040  -0.001228   0.000009  -0.000001  -0.000000
     8  N   -0.001040   0.066639   0.000028   0.000006  -0.000000   0.000000
     9  C   -0.001228   0.000028  -0.062181  -0.002570   0.000005   0.000005
    10  N    0.000009   0.000006  -0.002570   0.094347   0.000003   0.000035
    11  C   -0.000001  -0.000000   0.000005   0.000003  -0.053272  -0.001822
    12  N   -0.000000   0.000000   0.000005   0.000035  -0.001822   0.077969
    13  C    0.000000  -0.000000  -0.000002  -0.000000  -0.001192   0.000026
    14  N   -0.000000   0.000000  -0.000000   0.000000   0.000038   0.000006
    15  C   -0.000001   0.000000   0.000000  -0.000000  -0.000001  -0.000000
    16  N   -0.000000   0.000000  -0.000000   0.000000   0.000000   0.000000
    17  C    0.000002   0.000008  -0.000002  -0.000000   0.000000  -0.000000
    18  N    0.000004   0.000034  -0.000000   0.000000  -0.000000   0.000000
              13         14         15         16         17         18
     1  C   -0.000099   0.000007  -0.000064   0.000008   0.000206   0.000055
     2  C   -0.000008  -0.000000  -0.000008  -0.000000  -0.000051  -0.000034
     3  C   -0.001023   0.000473   0.000155   0.000052  -0.000083   0.000009
     4  C    0.008671  -0.004464  -0.000055  -0.000035  -0.000009  -0.000000
     5  C    0.000182   0.000060  -0.000455   0.000613  -0.000161   0.000676
     6  C   -0.000041  -0.000029   0.008867  -0.004987   0.012712  -0.005359
     7  C    0.000000  -0.000000  -0.000001  -0.000000   0.000002   0.000004
     8  N   -0.000000   0.000000   0.000000   0.000000   0.000008   0.000034
     9  C   -0.000002  -0.000000   0.000000  -0.000000  -0.000002  -0.000000
    10  N   -0.000000   0.000000  -0.000000   0.000000  -0.000000   0.000000
    11  C   -0.001192   0.000038  -0.000001   0.000000   0.000000  -0.000000
    12  N    0.000026   0.000006  -0.000000   0.000000  -0.000000   0.000000
    13  C   -0.061897  -0.002766   0.000001   0.000003  -0.000001  -0.000000
    14  N   -0.002766   0.093564   0.000006   0.000036   0.000000   0.000000
    15  C    0.000001   0.000006  -0.065201  -0.003103  -0.001390   0.000073
    16  N    0.000003   0.000036  -0.003103   0.101836   0.000049   0.000007
    17  C   -0.000001   0.000000  -0.001390   0.000049  -0.084099  -0.005274
    18  N   -0.000000   0.000000   0.000073   0.000007  -0.005274   0.136461
 Mulliken charges and spin densities:
               1          2
     1  C    0.220548  -0.035785
     2  C   -0.414050   0.307462
     3  C    0.242729  -0.028935
     4  C   -0.424158   0.284682
     5  C    0.220056   0.010217
     6  C   -0.395868   0.284476
     7  C   -0.114098  -0.045394
     8  N    0.062629   0.061710
     9  C   -0.096555  -0.058684
    10  N    0.023512   0.087502
    11  C   -0.101523  -0.050260
    12  N    0.037023   0.072365
    13  C   -0.089885  -0.058147
    14  N    0.007772   0.086932
    15  C   -0.076477  -0.061177
    16  N    0.002911   0.094478
    17  C   -0.055785  -0.078094
    18  N   -0.048781   0.126652
 Sum of Mulliken charges =  -1.00000   1.00000
 Mulliken charges and spin densities with hydrogens summed into heavy atoms:
               1          2
     1  C    0.220548  -0.035785
     2  C   -0.414050   0.307462
     3  C    0.242729  -0.028935
     4  C   -0.424158   0.284682
     5  C    0.220056   0.010217
     6  C   -0.395868   0.284476
     7  C   -0.114098  -0.045394
     8  N    0.062629   0.061710
     9  C   -0.096555  -0.058684
    10  N    0.023512   0.087502
    11  C   -0.101523  -0.050260
    12  N    0.037023   0.072365
    13  C   -0.089885  -0.058147
    14  N    0.007772   0.086932
    15  C   -0.076477  -0.061177
    16  N    0.002911   0.094478
    17  C   -0.055785  -0.078094
    18  N   -0.048781   0.126652
 Electronic spatial extent (au):  <R**2>=          39060.0398
 Charge=             -1.0000 electrons
 Dipole moment (field-independent basis, Debye):
    X=             43.3544    Y=              8.6282    Z=             -4.9159  Tot=             44.4771
 Quadrupole moment (field-independent basis, Debye-Ang):
   XX=           -561.5490   YY=           -183.3584   ZZ=           -104.2586
   XY=            -78.0340   XZ=             44.9859   YZ=              1.9042
 Traceless Quadrupole moment (field-independent basis, Debye-Ang):
   XX=           -278.4937   YY=             99.6969   ZZ=            178.7968
   XY=            -78.0340   XZ=             44.9859   YZ=              1.9042
 Octapole moment (field-independent basis, Debye-Ang**2):
  XXX=           8106.1731  YYY=            972.7271  ZZZ=           -311.2099  XYY=           1640.2664
  XXY=            926.2030  XXZ=           -592.4083  XZZ=            934.4660  YZZ=            166.5406
  YYZ=           -158.6083  XYZ=            -19.8854
 Hexadecapole moment (field-independent basis, Debye-Ang**3):
 XXXX=        -118190.6716 YYYY=          -7842.2995 ZZZZ=           -763.2062 XXXY=         -12310.0045
 XXXZ=           8645.1950 YYYX=          -8695.6131 YYYZ=            639.9131 ZZZX=           2801.5032
 ZZZY=            365.8629 XXYY=         -16367.2757 XXZZ=          -9116.9717 YYZZ=           -978.3755
 XXYZ=            350.1566 YYXZ=           1436.5715 ZZXY=          -1494.2601
 N-N= 9.581800113523D+02 E-N=-3.752073376426D+03  KE= 7.773656718320D+02
                          Isotropic Fermi Contact Couplings
        Atom                 a.u.       MegaHertz       Gauss      10(-4) cm-1
     1  C(13)             -0.01589     -17.85990      -6.37286      -5.95742
     2  C(13)              0.05022      56.45541      20.14469      18.83150
     3  C(13)             -0.01426     -16.03442      -5.72148      -5.34851
     4  C(13)              0.04537      51.00601      18.20021      17.01377
     5  C(13)             -0.00691      -7.76608      -2.77113      -2.59049
     6  C(13)              0.04494      50.52187      18.02746      16.85228
     7  C(13)             -0.02664     -29.94593     -10.68545      -9.98889
     8  N(14)              0.01326       4.28475       1.52890       1.42924
     9  C(13)             -0.02998     -33.69819     -12.02435     -11.24051
    10  N(14)              0.02003       6.47070       2.30891       2.15839
    11  C(13)             -0.02700     -30.35271     -10.83060     -10.12457
    12  N(14)              0.01632       5.27388       1.88185       1.75918
    13  C(13)             -0.02905     -32.65222     -11.65112     -10.89161
    14  N(14)              0.02019       6.52293       2.32755       2.17582
    15  C(13)             -0.03030     -34.06265     -12.15440     -11.36208
    16  N(14)              0.02203       7.11678       2.53944       2.37390
    17  C(13)             -0.03457     -38.86483     -13.86794     -12.96391
    18  N(14)              0.03039       9.81954       3.50386       3.27545
 --------------------------------------------------------
       Center         ----  Spin Dipole Couplings  ----
                      3XX-RR        3YY-RR        3ZZ-RR
 --------------------------------------------------------
     1   Atom       -0.011393      0.022788     -0.011395
     2   Atom       -0.158141     -0.155890      0.314031
     3   Atom        0.012830     -0.004188     -0.008642
     4   Atom       -0.146998     -0.141150      0.288147
     5   Atom       -0.008894     -0.021558      0.030452
     6   Atom       -0.148996     -0.145230      0.294226
     7   Atom        0.020665      0.004325     -0.024990
     8   Atom       -0.064730     -0.052937      0.117667
     9   Atom        0.028777      0.006122     -0.034899
    10   Atom       -0.091148     -0.070995      0.162144
    11   Atom        0.023508      0.005874     -0.029382
    12   Atom       -0.072477     -0.062951      0.135428
    13   Atom       -0.002531      0.037094     -0.034564
    14   Atom       -0.067221     -0.091261      0.158483
    15   Atom       -0.002975      0.040236     -0.037261
    16   Atom       -0.073744     -0.101330      0.175074
    17   Atom        0.038020      0.010653     -0.048674
    18   Atom       -0.123662     -0.104082      0.227744
 --------------------------------------------------------
                        XY            XZ            YZ
 --------------------------------------------------------
     1   Atom        0.000299     -0.002277      0.003095
     2   Atom       -0.000414      0.004806     -0.049965
     3   Atom       -0.014750     -0.000030      0.002213
     4   Atom        0.000815      0.005904     -0.045505
     5   Atom        0.011270      0.001259     -0.004258
     6   Atom       -0.000552     -0.000247     -0.035545
     7   Atom       -0.013077     -0.001802      0.003152
     8   Atom        0.006029      0.003835     -0.018439
     9   Atom        0.017591      0.001747      0.004560
    10   Atom       -0.009649     -0.001759     -0.026876
    11   Atom        0.014926      0.000495      0.003404
    12   Atom       -0.010216      0.003195     -0.020486
    13   Atom       -0.000061     -0.000280      0.007751
    14   Atom       -0.001659      0.002029     -0.030160
    15   Atom       -0.000925      0.000082      0.006230
    16   Atom        0.002826     -0.000815     -0.020336
    17   Atom       -0.025343     -0.002151      0.004714
    18   Atom        0.020646      0.001214     -0.025761
 --------------------------------------------------------


 ---------------------------------------------------------------------------------
              Anisotropic Spin Dipole Couplings in Principal Axis System
 ---------------------------------------------------------------------------------

       Atom             a.u.   MegaHertz   Gauss  10(-4) cm-1        Axes

              Baa    -0.0138    -1.856    -0.662    -0.619  0.6853 -0.0669  0.7252
     1 C(13)  Bbb    -0.0092    -1.239    -0.442    -0.413  0.7283  0.0592 -0.6827
              Bcc     0.0231     3.095     1.104     1.032  0.0027  0.9960  0.0893
 
              Baa    -0.1611   -21.624    -7.716    -7.213 -0.0308  0.9940  0.1048
     2 C(13)  Bbb    -0.1582   -21.227    -7.574    -7.081  0.9995  0.0317 -0.0068
              Bcc     0.3193    42.852    15.290    14.294  0.0101 -0.1046  0.9945
 
              Baa    -0.0135    -1.807    -0.645    -0.603  0.4543  0.8107 -0.3693
     3 C(13)  Bbb    -0.0079    -1.064    -0.380    -0.355  0.2159  0.3020  0.9285
              Bcc     0.0214     2.871     1.024     0.958  0.8643 -0.5016 -0.0378
 
              Baa    -0.1480   -19.865    -7.088    -6.626  0.8290 -0.5549 -0.0691
     4 C(13)  Bbb    -0.1450   -19.452    -6.941    -6.488  0.5590  0.8254  0.0791
              Bcc     0.2930    39.317    14.029    13.115  0.0132 -0.1042  0.9945
 
              Baa    -0.0285    -3.820    -1.363    -1.274 -0.5011  0.8623  0.0730
     5 C(13)  Bbb    -0.0023    -0.313    -0.112    -0.104  0.8653  0.5002  0.0317
              Bcc     0.0308     4.133     1.475     1.379  0.0092 -0.0791  0.9968
 
              Baa    -0.1493   -20.031    -7.147    -6.682  0.9010  0.4324  0.0352
     6 C(13)  Bbb    -0.1478   -19.835    -7.078    -6.616 -0.4338  0.8981  0.0720
              Bcc     0.2971    39.866    14.225    13.298 -0.0005 -0.0801  0.9968
 
              Baa    -0.0253    -3.399    -1.213    -1.134  0.0102 -0.1013  0.9948
     7 C(13)  Bbb    -0.0028    -0.371    -0.132    -0.124  0.4905  0.8674  0.0833
              Bcc     0.0281     3.770     1.345     1.258  0.8714 -0.4871 -0.0585
 
              Baa    -0.0679    -2.620    -0.935    -0.874  0.8973 -0.4370 -0.0620
     8 N(14)  Bbb    -0.0518    -1.996    -0.712    -0.666  0.4410  0.8932  0.0872
              Bcc     0.1197     4.616     1.647     1.540  0.0172 -0.1056  0.9943
 
              Baa    -0.0354    -4.750    -1.695    -1.585  0.0032 -0.1105  0.9939
     9 C(13)  Bbb    -0.0032    -0.424    -0.151    -0.141 -0.4842  0.8694  0.0982
              Bcc     0.0386     5.174     1.846     1.726  0.8749  0.4816  0.0507
 
              Baa    -0.0956    -3.687    -1.316    -1.230  0.9105  0.4107  0.0490
    10 N(14)  Bbb    -0.0696    -2.685    -0.958    -0.895 -0.4136  0.9048  0.1018
              Bcc     0.1652     6.372     2.274     2.125 -0.0026 -0.1130  0.9936
 
              Baa    -0.0297    -3.989    -1.423    -1.331  0.0197 -0.1034  0.9944
    11 C(13)  Bbb    -0.0024    -0.319    -0.114    -0.106 -0.4985  0.8612  0.0994
              Bcc     0.0321     4.308     1.537     1.437  0.8666  0.4977  0.0345
 
              Baa    -0.0793    -3.060    -1.092    -1.021  0.8235  0.5657  0.0417
    12 N(14)  Bbb    -0.0583    -2.247    -0.802    -0.750 -0.5669  0.8182  0.0959
              Bcc     0.1376     5.307     1.894     1.770  0.0201 -0.1026  0.9945
 
              Baa    -0.0354    -4.750    -1.695    -1.584  0.0083 -0.1063  0.9943
    13 C(13)  Bbb    -0.0025    -0.339    -0.121    -0.113  1.0000  0.0031 -0.0080
              Bcc     0.0379     5.089     1.816     1.697 -0.0022  0.9943  0.1063
 
              Baa    -0.0949    -3.661    -1.306    -1.221  0.0508  0.9918  0.1176
    14 N(14)  Bbb    -0.0672    -2.591    -0.924    -0.864  0.9987 -0.0493 -0.0156
              Bcc     0.1621     6.252     2.231     2.085  0.0096 -0.1183  0.9929
 
              Baa    -0.0378    -5.067    -1.808    -1.690 -0.0045 -0.0797  0.9968
    15 C(13)  Bbb    -0.0030    -0.402    -0.143    -0.134  0.9998  0.0205  0.0061
              Bcc     0.0408     5.469     1.951     1.824 -0.0209  0.9966  0.0796
 
              Baa    -0.1031    -3.975    -1.419    -1.326 -0.0937  0.9930  0.0723
    16 N(14)  Bbb    -0.0735    -2.834    -1.011    -0.945  0.9956  0.0931  0.0109
              Bcc     0.1766     6.810     2.430     2.271 -0.0041 -0.0730  0.9973
 
              Baa    -0.0490    -6.582    -2.348    -2.195  0.0020 -0.0779  0.9970
    17 C(13)  Bbb    -0.0043    -0.573    -0.204    -0.191  0.5154  0.8544  0.0657
              Bcc     0.0533     7.155     2.553     2.387  0.8570 -0.5137 -0.0418
 
              Baa    -0.1373    -5.297    -1.890    -1.767  0.8341 -0.5500 -0.0416
    18 N(14)  Bbb    -0.0924    -3.563    -1.272    -1.189  0.5516  0.8316  0.0648
              Bcc     0.2297     8.860     3.162     2.955 -0.0011 -0.0770  0.9970
 

 ---------------------------------------------------------------------------------

   1 Symmetry operations used in ECPInt.
 ECPInt:  NShTT=    5886 NPrTT=   23670 LenC2=    5394 LenP2D=   14906.
 LDataN:  DoStor=T MaxTD1= 5 Len=  102
 D1PCM: PCM CHGder 1st derivatives, ID1Alg=3 FixD1E=F DoIter=F DoCFld=F I1PDM=0.
 Calling FoFJK, ICntrl=      2127 FMM=F ISym2X=0 I1Cent= 0 IOpClX= 1 NMat=1 NMatS=1 NMatT=0.
 -------------------------------------------------------------------
 Center     Atomic                   Forces (Hartrees/Bohr)
 Number     Number              X              Y              Z
 -------------------------------------------------------------------
      1        6          -0.003708586   -0.145646531   -0.014029700
      2        6          -0.011969944    0.090495472    0.009260134
      3        6          -0.154398150    0.085441475    0.009870406
      4        6           0.108238875   -0.058050552   -0.007033077
      5        6           0.121600768    0.069845735    0.005574894
      6        6          -0.050179497   -0.037897937   -0.003099759
      7        6           0.220591457   -0.124316854   -0.016061533
      8        7          -0.188029225    0.100523650    0.013221117
      9        6          -0.064506791   -0.042914668   -0.003885510
     10        7           0.044555454    0.025207548    0.002473709
     11        6          -0.102672985   -0.051423142   -0.003756545
     12        7           0.071263217    0.042097592    0.003087828
     13        6          -0.008934164    0.026337661    0.002350403
     14        7           0.002339422    0.001028111    0.000384362
     15        6           0.012138908    0.012927581    0.000917418
     16        7          -0.004250053    0.004681326    0.000308285
     17        6          -0.067756143    0.053759282    0.004525509
     18        7           0.075677439   -0.052095749   -0.004107941
 -------------------------------------------------------------------
 Cartesian Forces:  Max     0.220591457 RMS     0.068810929

 GradGradGradGradGradGradGradGradGradGradGradGradGradGradGradGradGradGrad
 Berny optimization.
 Search for a local minimum.
 Step number   1 out of a maximum of    2
 All quantities printed in internal units (Hartrees-Bohrs-Radians)
 Second derivative matrix not updated -- first step.
 ITU=  0
     Eigenvalues ---    0.00251   0.00272   0.00294   0.00294   0.00297
     Eigenvalues ---    0.01127   0.01520   0.01656   0.01955   0.01987
     Eigenvalues ---    0.04832   0.04904   0.05219   0.05299   0.10123
     Eigenvalues ---    0.19009   0.19626   0.20205   0.23247   0.24279
     Eigenvalues ---    0.24338   0.25163   0.30870   0.31341   0.42812
     Eigenvalues ---    0.66034   0.67176   0.72336   0.73447   0.78383
     Eigenvalues ---    0.99380   1.00163   1.06407   1.65132   1.74219
     Eigenvalues ---    2.00285   2.13089   2.30504   2.35454   2.35509
     Eigenvalues ---    2.78564   2.79983   3.07549   3.24313   3.97240
     Eigenvalues ---    4.47736   4.77820   5.17936
 Quadratic step=3.485D-01 exceeds max=3.000D-01 adjusted using Lamda=-1.527D-02.
 Angle between NR and scaled steps=  12.86 degrees.
 Angle between quadratic step and forces=  49.79 degrees.
 Linear search not attempted -- first point.
 B after Tr=    -0.000032    0.000987    0.000136
         Rot=    1.000000    0.000004    0.000004   -0.000025 Ang=   0.00 deg.
 Variable       Old X    -DE/DX   Delta X   Delta X   Delta X     New X
                                 (Linear)    (Quad)   (Total)
    X1      -16.88743  -0.00371   0.00000  -0.01591  -0.01587 -16.90330
    Y1       -1.60284  -0.14565   0.00000  -0.09695  -0.09680  -1.69963
    Z1        2.10148  -0.01403   0.00000  -0.00817  -0.00817   2.09331
    X2      -16.89124  -0.01197   0.00000  -0.00755  -0.00765 -16.89888
    Y2        0.88030   0.09050   0.00000  -0.01306  -0.01290   0.86740
    Z2        2.35714   0.00926   0.00000   0.00063   0.00061   2.35775
    X3      -15.46217  -0.15440   0.00000  -0.09865  -0.09850 -15.56068
    Y3       -4.05236   0.08544   0.00000   0.04347   0.04369  -4.00867
    Z3        1.85403   0.00987   0.00000   0.00463   0.00466   1.85869
    X4      -13.34409   0.10824   0.00000   0.00938   0.00960 -13.33448
    Y4       -5.27858  -0.05805   0.00000  -0.01415  -0.01382  -5.29240
    Z4        1.70241  -0.00703   0.00000  -0.00282  -0.00276   1.69965
    X5      -18.30520   0.12160   0.00000   0.07308   0.07323 -18.23197
    Y5       -4.05388   0.06985   0.00000   0.05145   0.05154  -4.00234
    Z5        1.87805   0.00557   0.00000   0.00416   0.00417   1.88222
    X6      -20.49428  -0.05018   0.00000   0.00903   0.00925 -20.48504
    Y6       -5.30798  -0.03790   0.00000   0.01665   0.01662  -5.29135
    Z6        1.77404  -0.00310   0.00000   0.00165   0.00164   1.77568
    X7      -19.31175   0.22059   0.00000   0.08845   0.08829 -19.22347
    Y7        2.33641  -0.12432   0.00000  -0.08117  -0.08112   2.25529
    Z7        2.53705  -0.01606   0.00000  -0.01001  -0.01006   2.52699
    X8      -21.13118  -0.18803   0.00000   0.00223   0.00201 -21.12917
    Y8        3.28610   0.10052   0.00000  -0.00268  -0.00273   3.28337
    Z8        2.66381   0.01322   0.00000  -0.00418  -0.00425   2.65957
    X9      -14.53354  -0.06451   0.00000  -0.05194  -0.05211 -14.58564
    Y9        2.33148  -0.04291   0.00000  -0.06981  -0.06953   2.26195
    Z9        2.49572  -0.00389   0.00000  -0.00454  -0.00455   2.49117
   X10      -12.59529   0.04456   0.00000  -0.03805  -0.03826 -12.63355
   Y10        3.26123   0.02521   0.00000  -0.01476  -0.01438   3.24685
   Z10        2.60389   0.00247   0.00000  -0.00426  -0.00426   2.59963
   X11      -10.85985  -0.10267   0.00000  -0.08813  -0.08798 -10.94783
   Y11       -3.98284  -0.05142   0.00000  -0.01975  -0.01930  -4.00214
   Z11        1.80086  -0.00376   0.00000  -0.00164  -0.00157   1.79929
   X12       -9.07220   0.07126   0.00000  -0.02560  -0.02550  -9.09770
   Y12       -2.82703   0.04210   0.00000  -0.01566  -0.01511  -2.84214
   Z12        1.88305   0.00309   0.00000   0.00149   0.00157   1.88462
   X13      -13.24014  -0.00893   0.00000  -0.02350  -0.02314 -13.26329
   Y13       -8.04285   0.02634   0.00000   0.05745   0.05779  -7.98506
   Z13        1.40643   0.00235   0.00000   0.00445   0.00454   1.41096
   X14      -13.31666   0.00234   0.00000  -0.00208  -0.00161 -13.31827
   Y14      -10.21699   0.00103   0.00000   0.05637   0.05670 -10.16029
   Z14        1.15572   0.00038   0.00000   0.00913   0.00923   1.16495
   X15      -20.58226   0.01214   0.00000   0.04974   0.05009 -20.53217
   Y15       -8.04859   0.01293   0.00000   0.05825   0.05822  -7.99037
   Z15        1.55732   0.00092   0.00000   0.00337   0.00339   1.56070
   X16      -20.40198  -0.00425   0.00000   0.00419   0.00466 -20.39732
   Y16      -10.22923   0.00468   0.00000   0.05804   0.05802 -10.17121
   Z16        1.39337   0.00031   0.00000  -0.00022  -0.00018   1.39318
   X17      -22.87155  -0.06776   0.00000   0.02863   0.02878 -22.84277
   Y17       -4.01550   0.05376   0.00000   0.02920   0.02906  -3.98644
   Z17        1.87662   0.00453   0.00000   0.00486   0.00483   1.88145
   X18      -24.77481   0.07568   0.00000   0.08462   0.08471 -24.69010
   Y18       -2.77303  -0.05210   0.00000  -0.04573  -0.04596  -2.81899
   Z18        1.97339  -0.00411   0.00000   0.00122   0.00116   1.97455
         Item               Value     Threshold  Converged?
 Maximum Force            0.220591     0.000450     NO 
 RMS     Force            0.068811     0.000300     NO 
 Maximum Displacement     0.098503     0.001800     NO 
 RMS     Displacement     0.040935     0.001200     NO 
 Predicted change in Energy=-4.979439D-02
 GradGradGradGradGradGradGradGradGradGradGradGradGradGradGradGradGradGrad

 Unable to Open any file for archive entry.
 1\1\GINC-X10P1N4\Force\UwB97XD\def2SVP\C12N6(1-,2)\MAYUMIAO\11-Oct-202
 4\0\\# wb97xd def2svp scrf=(smd,solvent=acetonitrile) g09default scf=(
 xqc,maxcycle=64) force guess=read nosymm\\Title Card\\-1,2\C,-8.936443
 35,-0.84818522,1.11205515\C,-8.93845819,0.46583576,1.24734464\C,-8.182
 23038,-2.14441796,0.98111105\C,-7.06138577,-2.79330662,0.90087491\C,-9
 .68669584,-2.14521929,0.99382331\C,-10.84510743,-2.80885958,0.93877925
 \C,-10.21934028,1.23637689,1.34254836\N,-11.18214027,1.73892877,1.4096
 2796\C,-7.69081624,1.23376383,1.32068011\N,-6.66513968,1.72576732,1.37
 791718\C,-5.74678412,-2.10762881,0.95297375\N,-4.80079941,-1.49600027,
 0.99646784\C,-7.00638242,-4.2560929,0.74424964\N,-7.04687308,-5.406597
 82,0.61158172\C,-10.89166544,-4.25913094,0.82409616\N,-10.79626036,-5.
 41307771,0.73733729\C,-12.10310533,-2.12491026,0.993066\N,-13.11026691
 ,-1.46742292,1.04427064\\Version=ES64L-G16RevC.01\HF=-784.8023036\S2=0
 .777436\S2-1=0.\S2A=0.750603\RMSD=5.353e-09\RMSF=6.881e-02\Dipole=0.16
 44229,0.1532451,0.0111785\Quadrupole=-207.0532508,74.1222291,132.93102
 18,-58.0163571,33.4459418,1.4157525\PG=C01 [X(C12N6)]\\@
 The archive entry for this job was punched.


 REFRAIN FROM ILLUSIONS, INSIST ON WORK AND NOT WORDS,
 PATIENTLY SEEK DIVINE AND SCIENTIFIC TRUTH.
 LAST WORDS OF MARIA MENDELEEVA TO HER SON DMITRI, C. 1850
 Job cpu time:       0 days  0 hours 14 minutes 25.4 seconds.
 Elapsed time:       0 days  0 hours  0 minutes 32.3 seconds.
 File lengths (MBytes):  RWF=    174 Int=      0 D2E=      0 Chk=      9 Scr=      1
 Normal termination of Gaussian 16 at Fri Oct 11 15:51:38 2024.
