 Entering Gaussian System, Link 0=g16
 Input=JOBS/27_A.gjf
 Output=JOBS/27_A.log
 Initial command:
 /data/app/gaussian/C01-avx2//g16/l1.exe "/tmp/Gau-2539798.inp" -scrdir="/tmp/"
 Entering Link 1 = /data/app/gaussian/C01-avx2//g16/l1.exe PID=   2539799.
  
 Copyright (c) 1988-2019, Gaussian, Inc.  All Rights Reserved.
  
 This is part of the Gaussian(R) 16 program.  It is based on
 the Gaussian(R) 09 system (copyright 2009, Gaussian, Inc.),
 the Gaussian(R) 03 system (copyright 2003, Gaussian, Inc.),
 the Gaussian(R) 98 system (copyright 1998, Gaussian, Inc.),
 the Gaussian(R) 94 system (copyright 1995, Gaussian, Inc.),
 the Gaussian 92(TM) system (copyright 1992, Gaussian, Inc.),
 the Gaussian 90(TM) system (copyright 1990, Gaussian, Inc.),
 the Gaussian 88(TM) system (copyright 1988, Gaussian, Inc.),
 the Gaussian 86(TM) system (copyright 1986, Carnegie Mellon
 University), and the Gaussian 82(TM) system (copyright 1983,
 Carnegie Mellon University). Gaussian is a federally registered
 trademark of Gaussian, Inc.
  
 This software contains proprietary and confidential information,
 including trade secrets, belonging to Gaussian, Inc.
  
 This software is provided under written license and may be
 used, copied, transmitted, or stored only in accord with that
 written license.
  
 The following legend is applicable only to US Government
 contracts under FAR:
  
                    RESTRICTED RIGHTS LEGEND
  
 Use, reproduction and disclosure by the US Government is
 subject to restrictions as set forth in subparagraphs (a)
 and (c) of the Commercial Computer Software - Restricted
 Rights clause in FAR 52.227-19.
  
 Gaussian, Inc.
 340 Quinnipiac St., Bldg. 40, Wallingford CT 06492
  
  
 ---------------------------------------------------------------
 Warning -- This program may not be used in any manner that
 competes with the business of Gaussian, Inc. or will provide
 assistance to any competitor of Gaussian, Inc.  The licensee
 of this program is prohibited from giving any competitor of
 Gaussian, Inc. access to this program.  By using this program,
 the user acknowledges that Gaussian, Inc. is engaged in the
 business of creating and licensing software in the field of
 computational chemistry and represents and warrants to the
 licensee that it is not a competitor of Gaussian, Inc. and that
 it will not use this program in any manner prohibited above.
 ---------------------------------------------------------------
  

 Cite this work as:
 Gaussian 16, Revision C.01,
 M. J. Frisch, G. W. Trucks, H. B. Schlegel, G. E. Scuseria, 
 M. A. Robb, J. R. Cheeseman, G. Scalmani, V. Barone, 
 G. A. Petersson, H. Nakatsuji, X. Li, M. Caricato, A. V. Marenich, 
 J. Bloino, B. G. Janesko, R. Gomperts, B. Mennucci, H. P. Hratchian, 
 J. V. Ortiz, A. F. Izmaylov, J. L. Sonnenberg, D. Williams-Young, 
 F. Ding, F. Lipparini, F. Egidi, J. Goings, B. Peng, A. Petrone, 
 T. Henderson, D. Ranasinghe, V. G. Zakrzewski, J. Gao, N. Rega, 
 G. Zheng, W. Liang, M. Hada, M. Ehara, K. Toyota, R. Fukuda, 
 J. Hasegawa, M. Ishida, T. Nakajima, Y. Honda, O. Kitao, H. Nakai, 
 T. Vreven, K. Throssell, J. A. Montgomery, Jr., J. E. Peralta, 
 F. Ogliaro, M. J. Bearpark, J. J. Heyd, E. N. Brothers, K. N. Kudin, 
 V. N. Staroverov, T. A. Keith, R. Kobayashi, J. Normand, 
 K. Raghavachari, A. P. Rendell, J. C. Burant, S. S. Iyengar, 
 J. Tomasi, M. Cossi, J. M. Millam, M. Klene, C. Adamo, R. Cammi, 
 J. W. Ochterski, R. L. Martin, K. Morokuma, O. Farkas, 
 J. B. Foresman, and D. J. Fox, Gaussian, Inc., Wallingford CT, 2019.
 
 ******************************************
 Gaussian 16:  ES64L-G16RevC.01  3-Jul-2019
                11-Oct-2024 
 ******************************************
 %chk=a.chk
 %nprocshared=28
 Will use up to   28 processors via shared memory.
 %mem=48gb
 ----------------------------------------------------------------------
 # wb97xd def2svp scrf=(smd,solvent=acetonitrile) g09default scf=(xqc,m
 axcycle=64) force guess=read nosymm
 ----------------------------------------------------------------------
 1/10=7,30=1,38=1,158=3,167=1/1,3;
 2/12=2,15=1,17=6,18=5,40=1/2;
 3/5=43,7=101,11=2,25=1,27=10,30=1,70=32201,71=1,72=2,74=-58,75=-4,116=-2,158=3/1,2,3;
 4/5=1,60=-1/1;
 5/5=2,7=64,8=3,13=1,38=6,53=2,87=10/2,8;
 6/7=2,8=2,9=2,10=2,28=1,87=10/1;
 7/29=1,30=1,87=10/1,2,3,16;
 1/10=7,30=1,158=3,167=1/3;
 99//99;
 Using 2006 physical constants.
 ----------
 Title Card
 ----------
 Symbolic Z-matrix:
 Charge = -2 Multiplicity = 1
 6                    -8.93493  -0.87027   1.11071 
 6                    -8.94191   0.50161   1.25051 
 6                    -8.18088  -2.14284   0.98196 
 6                    -7.05739  -2.80389   0.90054 
 6                    -9.70113  -2.15212   0.99327 
 6                    -10.83562  -2.80849   0.93891 
 6                    -10.22288   1.22952   1.34123 
 7                    -11.18214   1.7463    1.41182 
 6                    -7.68824   1.22812   1.32137 
 7                    -6.66285   1.72809   1.37896 
 6                    -5.7362   -2.09471   0.95253 
 7                    -4.80297  -1.5034    0.99489 
 6                    -7.0111   -4.24966   0.74372 
 7                    -7.04295  -5.4159    0.60749 
 6                    -10.88537  -4.25573   0.82556 
 7                    -10.79524  -5.42553   0.73957 
 6                    -12.12167  -2.10911   0.99394 
 7                    -13.10642  -1.47216   1.04181 
 

 GradGradGradGradGradGradGradGradGradGradGradGradGradGradGradGradGradGrad
 Berny optimization.
 Initialization pass.
 Trust Radius=3.00D-01 FncErr=1.00D-07 GrdErr=1.00D-07 EigMax=2.50D+02 EigMin=1.00D-04
 Number of steps in this run=      2 maximum allowed number of steps=      2.
 GradGradGradGradGradGradGradGradGradGradGradGradGradGradGradGradGradGrad

                          Input orientation:                          
 ---------------------------------------------------------------------
 Center     Atomic      Atomic             Coordinates (Angstroms)
 Number     Number       Type             X           Y           Z
 ---------------------------------------------------------------------
      1          6           0       -8.934932   -0.870268    1.110714
      2          6           0       -8.941914    0.501609    1.250508
      3          6           0       -8.180884   -2.142841    0.981959
      4          6           0       -7.057391   -2.803886    0.900545
      5          6           0       -9.701130   -2.152117    0.993272
      6          6           0      -10.835619   -2.808491    0.938905
      7          6           0      -10.222883    1.229520    1.341232
      8          7           0      -11.182145    1.746296    1.411821
      9          6           0       -7.688241    1.228123    1.321374
     10          7           0       -6.662848    1.728090    1.378962
     11          6           0       -5.736196   -2.094714    0.952526
     12          7           0       -4.802966   -1.503399    0.994893
     13          6           0       -7.011100   -4.249662    0.743725
     14          7           0       -7.042947   -5.415905    0.607490
     15          6           0      -10.885371   -4.255733    0.825560
     16          7           0      -10.795238   -5.425528    0.739575
     17          6           0      -12.121670   -2.109113    0.993936
     18          7           0      -13.106422   -1.472158    1.041808
 ---------------------------------------------------------------------
                    Distance matrix (angstroms):
                    1          2          3          4          5
     1  C    0.000000
     2  C    1.378999   0.000000
     3  C    1.484792   2.764851   0.000000
     4  C    2.703370   3.821020   1.306081   0.000000
     5  C    1.497995   2.772155   1.520316   2.724474   0.000000
     6  C    2.720081   3.826223   2.737254   3.778425   1.311811
     7  C    2.474078   1.476132   3.958743   5.146154   3.439298
     8  N    3.462230   2.567859   4.931301   6.162723   4.191206
     9  C    2.449869   1.450703   3.423637   4.102702   3.947834
    10  N    3.462049   2.591312   4.176858   4.574204   4.943270
    11  C    3.428732   4.135978   2.445340   1.500394   3.965559
    12  N    4.181795   4.606114   3.437934   2.604343   4.940936
    13  C    3.905908   5.153586   2.421538   1.454993   3.420268
    14  N    4.949309   6.247921   3.485409   2.628447   4.226946
    15  C    3.917512   5.156540   3.435553   4.094742   2.419866
    16  N    4.934458   6.231117   4.203526   4.568415   3.460730
    17  C    3.421064   4.122202   3.940949   5.112569   2.420923
    18  N    4.215252   4.613290   4.971350   6.195501   3.472854
                    6          7          8          9         10
     6  C    0.000000
     7  C    4.104003   0.000000
     8  N    4.592365   1.091890   0.000000
     9  C    5.132886   2.534720   3.533277   0.000000
    10  N    6.179501   3.594975   4.519453   1.142241   0.000000
    11  C    5.149153   5.597498   6.680020   3.871405   3.956559
    12  N    6.172463   6.079827   7.171350   3.986554   3.748224
    13  C    4.091700   6.379185   7.334540   5.549624   6.021488
    14  N    4.614412   7.403515   8.311259   6.713355   7.195575
    15  C    1.452526   5.549126   6.037891   6.367114   7.344528
    16  N    2.624928   6.706657   7.213645   7.366341   8.286115
    17  C    1.464953   3.856485   3.990177   5.558746   6.683645
    18  N    2.636840   3.962766   3.768050   6.060228   7.202424
                   11         12         13         14         15
    11  C    0.000000
    12  N    1.105607   0.000000
    13  C    2.512525   3.532832   0.000000
    14  N    3.585660   4.524964   1.174605   0.000000
    15  C    5.585708   6.678298   3.875140   4.019674   0.000000
    16  N    6.060823   7.166283   3.962623   3.754627   1.176409
    17  C    6.385625   7.343727   5.546394   6.072697   2.482894
    18  N    7.397012   8.303648   6.704949   7.246206   3.567649
                   16         17         18
    16  N    0.000000
    17  C    3.580884   0.000000
    18  N    4.589342   1.173772   0.000000
 Symmetry turned off by external request.
 Stoichiometry    C12N6(2-)
 Framework group  C1[X(C12N6)]
 Deg. of freedom    48
 Full point group                 C1      NOp   1
 Rotational constants (GHZ):           0.4231262           0.4205786           0.2109507
 Standard basis: def2SVP (5D, 7F)
   252 basis functions,   450 primitive gaussians,   270 cartesian basis functions
    58 alpha electrons       58 beta electrons
       nuclear repulsion energy       957.3628867580 Hartrees.
 NAtoms=   18 NActive=   18 NUniq=   18 SFac= 1.00D+00 NAtFMM=   60 NAOKFM=F Big=F
 Integral buffers will be    131072 words long.
 Raffenetti 2 integral format.
 Two-electron integral symmetry is turned off.
 Nuclear repulsion after empirical dispersion term =      957.3513814202 Hartrees.
 Force PCM accuracy= 1.00D-10.
 ------------------------------------------------------------------------------
 Polarizable Continuum Model (PCM)
 =================================
 Model                : PCM (using non-symmetric T matrix).
 Atomic radii         : SMD-Coulomb.
 Polarization charges : Total charges.
 Charge compensation  : None.
 Solution method      : On-the-fly selection.
 Cavity type          : VdW (van der Waals Surface) (Alpha=1.000).
 Cavity algorithm     : GePol (No added spheres)
                        Default sphere list used, NSphG=   18.
                        Lebedev-Laikov grids with approx.  5.0 points / Ang**2.
                        Smoothing algorithm: York/Karplus (Gamma=1.0000).
                        Polarization charges: spherical gaussians, with
                                              point-specific exponents (IZeta= 3).
                        Self-potential: point-specific (ISelfS= 7).
                        Self-field    : sphere-specific E.n sum rule (ISelfD= 2).
 1st derivatives      : Analytical E(r).r(x)/FMM algorithm (CHGder, D1EAlg=3).
                        Cavity 1st derivative terms included.
 Solvent              : Acetonitrile, Eps=  35.688000 Eps(inf)=   1.806874
 ------------------------------------------------------------------------------
 Spheres list:
 ISph  on   Nord     Re0    Alpha      Xe            Ye            Ze
    1   C      1    1.8500  1.000     -8.934932     -0.870268      1.110714
    2   C      2    1.8500  1.000     -8.941914      0.501609      1.250508
    3   C      3    1.8500  1.000     -8.180884     -2.142841      0.981959
    4   C      4    1.8500  1.000     -7.057391     -2.803886      0.900545
    5   C      5    1.8500  1.000     -9.701130     -2.152117      0.993272
    6   C      6    1.8500  1.000    -10.835619     -2.808491      0.938905
    7   C      7    1.8500  1.000    -10.222883      1.229520      1.341232
    8   N      8    1.8900  1.000    -11.182145      1.746296      1.411821
    9   C      9    1.8500  1.000     -7.688241      1.228123      1.321374
   10   N     10    1.8900  1.000     -6.662848      1.728090      1.378962
   11   C     11    1.8500  1.000     -5.736196     -2.094714      0.952526
   12   N     12    1.8900  1.000     -4.802966     -1.503399      0.994893
   13   C     13    1.8500  1.000     -7.011100     -4.249662      0.743725
   14   N     14    1.8900  1.000     -7.042947     -5.415905      0.607490
   15   C     15    1.8500  1.000    -10.885371     -4.255733      0.825560
   16   N     16    1.8900  1.000    -10.795238     -5.425528      0.739575
   17   C     17    1.8500  1.000    -12.121670     -2.109113      0.993936
   18   N     18    1.8900  1.000    -13.106422     -1.472158      1.041808
 ------------------------------------------------------------------------------
 ------------------------------------------------------------------------------
 Atomic radii for non-electrostatic terms: SMD-CDS.
 ------------------------------------------------------------------------------
 Nuclear repulsion after PCM non-electrostatic terms =      957.3601161562 Hartrees.
 One-electron integrals computed using PRISM.
   1 Symmetry operations used in ECPInt.
 ECPInt:  NShTT=    5886 NPrTT=   23670 LenC2=    5391 LenP2D=   14891.
 LDataN:  DoStor=T MaxTD1= 4 Len=   56
 NBasis=   252 RedAO= T EigKep=  2.83D-04  NBF=   252
 NBsUse=   252 1.00D-06 EigRej= -1.00D+00 NBFU=   252
 Initial guess from the checkpoint file:  "a.chk"
 B after Tr=    -0.000079   -0.000508   -0.002187
         Rot=    1.000000   -0.000043   -0.000072    0.000008 Ang=  -0.01 deg.
 Requested convergence on RMS density matrix=1.00D-08 within  64 cycles.
 Requested convergence on MAX density matrix=1.00D-06.
 Requested convergence on             energy=1.00D-06.
 No special actions if energy rises.
 Inv3:  Mode=1 IEnd=    19400547.
 Iteration    1 A*A^-1 deviation from unit magnitude is 3.77D-15 for     53.
 Iteration    1 A*A^-1 deviation from orthogonality  is 3.55D-15 for   1425   1155.
 Iteration    1 A^-1*A deviation from unit magnitude is 3.55D-15 for   1383.
 Iteration    1 A^-1*A deviation from orthogonality  is 9.21D-12 for    821    803.
 Error on total polarization charges =  0.02186
 SCF Done:  E(RwB97XD) =  -784.955906524     A.U. after   14 cycles
            NFock= 14  Conv=0.56D-08     -V/T= 2.0095
 SMD-CDS (non-electrostatic) energy       (kcal/mol) =       5.48
 (included in total energy above)
 QCSCF skips out because SCF is already converged.

 **********************************************************************

            Population analysis using the SCF Density.

 **********************************************************************

 Alpha  occ. eigenvalues --  -14.43535 -14.43504 -14.43393 -14.42318 -14.42221
 Alpha  occ. eigenvalues --  -14.41421 -10.34907 -10.34760 -10.34751 -10.34433
 Alpha  occ. eigenvalues --  -10.34388 -10.34333 -10.33340 -10.33290 -10.33253
 Alpha  occ. eigenvalues --  -10.33128 -10.32862 -10.32365  -1.01196  -1.01074
 Alpha  occ. eigenvalues --   -0.99277  -0.98991  -0.98323  -0.97835  -0.96422
 Alpha  occ. eigenvalues --   -0.88869  -0.87754  -0.83665  -0.68926  -0.67784
 Alpha  occ. eigenvalues --   -0.64869  -0.64089  -0.63562  -0.62916  -0.50901
 Alpha  occ. eigenvalues --   -0.47818  -0.47627  -0.46074  -0.45956  -0.45480
 Alpha  occ. eigenvalues --   -0.45371  -0.44990  -0.44681  -0.44232  -0.44059
 Alpha  occ. eigenvalues --   -0.43521  -0.43282  -0.43238  -0.42512  -0.42267
 Alpha  occ. eigenvalues --   -0.42092  -0.41863  -0.41111  -0.40346  -0.39795
 Alpha  occ. eigenvalues --   -0.33169  -0.32313  -0.21701
 Alpha virt. eigenvalues --    0.06838   0.07797   0.08788   0.09727   0.10330
 Alpha virt. eigenvalues --    0.11230   0.12231   0.13715   0.14573   0.14724
 Alpha virt. eigenvalues --    0.15467   0.16365   0.20247   0.20617   0.23559
 Alpha virt. eigenvalues --    0.24708   0.27203   0.27618   0.28089   0.28854
 Alpha virt. eigenvalues --    0.29995   0.31766   0.32249   0.33085   0.33530
 Alpha virt. eigenvalues --    0.35052   0.36279   0.48945   0.49433   0.51517
 Alpha virt. eigenvalues --    0.51839   0.52427   0.53014   0.54698   0.54963
 Alpha virt. eigenvalues --    0.55800   0.56516   0.56951   0.59011   0.61382
 Alpha virt. eigenvalues --    0.61569   0.62048   0.63162   0.63662   0.64876
 Alpha virt. eigenvalues --    0.66465   0.70868   0.71348   0.72399   0.73213
 Alpha virt. eigenvalues --    0.73740   0.73983   0.74355   0.74662   0.74826
 Alpha virt. eigenvalues --    0.75403   0.75777   0.76019   0.77136   0.77683
 Alpha virt. eigenvalues --    0.80521   0.80969   0.81911   0.83338   0.83586
 Alpha virt. eigenvalues --    0.86016   0.86267   0.88777   0.89181   0.94483
 Alpha virt. eigenvalues --    0.94804   0.94940   0.95220   0.95657   0.96218
 Alpha virt. eigenvalues --    0.97703   1.00034   1.00717   1.01296   1.01706
 Alpha virt. eigenvalues --    1.03247   1.03657   1.04150   1.05185   1.05582
 Alpha virt. eigenvalues --    1.06194   1.08124   1.08536   1.11743   1.12460
 Alpha virt. eigenvalues --    1.15902   1.17804   1.19130   1.20513   1.21701
 Alpha virt. eigenvalues --    1.23751   1.24882   1.27216   1.28444   1.33725
 Alpha virt. eigenvalues --    1.35923   1.36308   1.42232   1.42814   1.44968
 Alpha virt. eigenvalues --    1.45763   1.46871   1.48859   1.49631   1.58670
 Alpha virt. eigenvalues --    1.63603   1.68674   1.69630   1.70235   1.70958
 Alpha virt. eigenvalues --    1.71242   1.71266   1.76352   1.76830   1.79793
 Alpha virt. eigenvalues --    1.79864   1.80228   1.80602   1.81116   1.82067
 Alpha virt. eigenvalues --    1.82438   1.84277   1.86732   1.93660   1.97052
 Alpha virt. eigenvalues --    1.97513   1.99817   2.00895   2.01093   2.02496
 Alpha virt. eigenvalues --    2.03346   2.05079   2.07165   2.10602   2.11373
 Alpha virt. eigenvalues --    2.15328   2.21109   2.22806   2.26328   2.27202
 Alpha virt. eigenvalues --    2.29142   2.31702   2.33090   2.34916   2.35232
 Alpha virt. eigenvalues --    2.35895   2.35929   2.36619   2.37380   2.37450
 Alpha virt. eigenvalues --    2.38217   2.38738   2.38952   2.39480   2.40056
 Alpha virt. eigenvalues --    2.40951   2.42016   2.58483   2.59102   2.61053
 Alpha virt. eigenvalues --    2.70944   2.72731   2.91292   2.92755   2.97567
 Alpha virt. eigenvalues --    2.98207   3.01313   3.02639   3.04597   3.04729
 Alpha virt. eigenvalues --    3.07457   3.08942   3.10130   3.10891   3.12857
 Alpha virt. eigenvalues --    3.14206   3.18429   3.21977   3.24822   3.31532
 Alpha virt. eigenvalues --    3.41134   3.43065   3.44401   3.49278   3.54739
 Alpha virt. eigenvalues --    3.61969   3.65597   3.72995   3.81994
          Condensed to atoms (all electrons):
               1          2          3          4          5          6
     1  C    4.995180   0.487702   0.317142  -0.139292   0.337836  -0.126826
     2  C    0.487702   5.525475  -0.100441  -0.008027  -0.097186  -0.007237
     3  C    0.317142  -0.100441   4.924809   0.477434   0.317155  -0.119373
     4  C   -0.139292  -0.008027   0.477434   5.625882  -0.123337  -0.011446
     5  C    0.337836  -0.097186   0.317155  -0.123337   4.919312   0.466883
     6  C   -0.126826  -0.007237  -0.119373  -0.011446   0.466883   5.610395
     7  C    0.005621   0.389720   0.005105  -0.000302  -0.015291   0.001243
     8  N   -0.000963  -0.041108  -0.000028  -0.000002  -0.000489   0.000059
     9  C    0.007439   0.399725  -0.017832   0.001123   0.006023  -0.000307
    10  N   -0.000491  -0.042143  -0.000510   0.000022   0.000009  -0.000001
    11  C   -0.015479   0.001365   0.005971   0.373165   0.005206  -0.000285
    12  N   -0.000579   0.000095  -0.001482  -0.034807  -0.000020  -0.000001
    13  C    0.004951  -0.000294   0.011737   0.392258  -0.016953   0.001137
    14  N   -0.000030  -0.000001  -0.000746  -0.038237  -0.000423   0.000056
    15  C    0.006492  -0.000261  -0.017995   0.001317   0.007448   0.380683
    16  N    0.000033  -0.000001  -0.000481   0.000059  -0.000221  -0.040086
    17  C   -0.018384   0.001499   0.005461  -0.000376   0.006184   0.378875
    18  N   -0.000522   0.000103  -0.000001  -0.000001  -0.000487  -0.037351
               7          8          9         10         11         12
     1  C    0.005621  -0.000963   0.007439  -0.000491  -0.015479  -0.000579
     2  C    0.389720  -0.041108   0.399725  -0.042143   0.001365   0.000095
     3  C    0.005105  -0.000028  -0.017832  -0.000510   0.005971  -0.001482
     4  C   -0.000302  -0.000002   0.001123   0.000022   0.373165  -0.034807
     5  C   -0.015291  -0.000489   0.006023   0.000009   0.005206  -0.000020
     6  C    0.001243   0.000059  -0.000307  -0.000001  -0.000285  -0.000001
     7  C    4.798331   1.006354  -0.034144   0.001782   0.000041   0.000001
     8  N    1.006354   6.016213   0.001520   0.000054   0.000000   0.000000
     9  C   -0.034144   0.001520   4.835583   0.945653   0.000408   0.000022
    10  N    0.001782   0.000054   0.945653   6.129727   0.000620  -0.000886
    11  C    0.000041   0.000000   0.000408   0.000620   4.818691   0.992198
    12  N    0.000001   0.000000   0.000022  -0.000886   0.992198   6.028751
    13  C   -0.000005  -0.000000   0.000059   0.000001  -0.030252   0.001643
    14  N   -0.000000  -0.000000   0.000000   0.000000   0.001676   0.000050
    15  C    0.000052   0.000001  -0.000004  -0.000000   0.000043   0.000000
    16  N    0.000000   0.000000  -0.000000   0.000000   0.000001   0.000000
    17  C    0.000451  -0.000143   0.000058   0.000000  -0.000003  -0.000000
    18  N    0.000710  -0.000881   0.000001   0.000000  -0.000000  -0.000000
              13         14         15         16         17         18
     1  C    0.004951  -0.000030   0.006492   0.000033  -0.018384  -0.000522
     2  C   -0.000294  -0.000001  -0.000261  -0.000001   0.001499   0.000103
     3  C    0.011737  -0.000746  -0.017995  -0.000481   0.005461  -0.000001
     4  C    0.392258  -0.038237   0.001317   0.000059  -0.000376  -0.000001
     5  C   -0.016953  -0.000423   0.007448  -0.000221   0.006184  -0.000487
     6  C    0.001137   0.000056   0.380683  -0.040086   0.378875  -0.037351
     7  C   -0.000005  -0.000000   0.000052   0.000000   0.000451   0.000710
     8  N   -0.000000  -0.000000   0.000001   0.000000  -0.000143  -0.000881
     9  C    0.000059   0.000000  -0.000004  -0.000000   0.000058   0.000001
    10  N    0.000001   0.000000  -0.000000   0.000000   0.000000   0.000000
    11  C   -0.030252   0.001676   0.000043   0.000001  -0.000003  -0.000000
    12  N    0.001643   0.000050   0.000000   0.000000  -0.000000  -0.000000
    13  C    4.851453   0.911132   0.000199   0.000442   0.000055   0.000000
    14  N    0.911132   6.185977   0.000047  -0.000787   0.000001   0.000000
    15  C    0.000199   0.000047   4.854643   0.909772  -0.029020   0.001798
    16  N    0.000442  -0.000787   0.909772   6.191925   0.001923   0.000044
    17  C    0.000055   0.000001  -0.029020   0.001923   4.858055   0.912927
    18  N    0.000000   0.000000   0.001798   0.000044   0.912927   6.185974
 Mulliken charges:
               1
     1  C    0.140170
     2  C   -0.508985
     3  C    0.194076
     4  C   -0.515435
     5  C    0.188351
     6  C   -0.496417
     7  C   -0.159668
     8  N    0.019415
     9  C   -0.145327
    10  N   -0.033836
    11  C   -0.153367
    12  N    0.015015
    13  C   -0.127562
    14  N   -0.058716
    15  C   -0.115215
    16  N   -0.062623
    17  C   -0.117561
    18  N   -0.062315
 Sum of Mulliken charges =  -2.00000
 Mulliken charges with hydrogens summed into heavy atoms:
               1
     1  C    0.140170
     2  C   -0.508985
     3  C    0.194076
     4  C   -0.515435
     5  C    0.188351
     6  C   -0.496417
     7  C   -0.159668
     8  N    0.019415
     9  C   -0.145327
    10  N   -0.033836
    11  C   -0.153367
    12  N    0.015015
    13  C   -0.127562
    14  N   -0.058716
    15  C   -0.115215
    16  N   -0.062623
    17  C   -0.117561
    18  N   -0.062315
 Electronic spatial extent (au):  <R**2>=          39406.6240
 Charge=             -2.0000 electrons
 Dipole moment (field-independent basis, Debye):
    X=             86.0087    Y=             16.3687    Z=             -9.9134  Tot=             88.1119
 Quadrupole moment (field-independent basis, Debye-Ang):
   XX=           -965.1551   YY=           -225.2540   ZZ=           -113.9843
   XY=           -146.8333   XZ=             89.5732   YZ=              7.4339
 Traceless Quadrupole moment (field-independent basis, Debye-Ang):
   XX=           -530.3573   YY=            209.5438   ZZ=            320.8135
   XY=           -146.8333   XZ=             89.5732   YZ=              7.4339
 Octapole moment (field-independent basis, Debye-Ang**2):
  XXX=          12134.9765  YYY=           1141.0658  ZZZ=           -330.7474  XYY=           2011.5275
  XXY=           1580.1193  XXZ=          -1015.5494  XZZ=           1021.1251  YZZ=            176.9977
  YYZ=           -193.7720  XYZ=            -69.8367
 Hexadecapole moment (field-independent basis, Debye-Ang**3):
 XXXX=        -160241.9288 YYYY=          -8758.7326 ZZZZ=           -807.0057 XXXY=         -18880.8664
 XXXZ=          12875.0979 YYYX=         -10186.8963 YYYZ=            762.5096 ZZZX=           2976.0837
 ZZZY=            382.2357 XXYY=         -19853.2496 XXZZ=          -9933.7395 YYZZ=          -1045.4399
 XXYZ=            833.8989 YYXZ=           1752.0755 ZZXY=          -1587.8861
 N-N= 9.573601161562D+02 E-N=-3.768919488933D+03  KE= 7.775447245688D+02
   1 Symmetry operations used in ECPInt.
 ECPInt:  NShTT=    5886 NPrTT=   23670 LenC2=    5391 LenP2D=   14891.
 LDataN:  DoStor=T MaxTD1= 5 Len=  102
 D1PCM: PCM CHGder 1st derivatives, ID1Alg=3 FixD1E=F DoIter=F DoCFld=F I1PDM=0.
 Calling FoFJK, ICntrl=      2127 FMM=F ISym2X=0 I1Cent= 0 IOpClX= 0 NMat=1 NMatS=1 NMatT=0.
 -------------------------------------------------------------------
 Center     Atomic                   Forces (Hartrees/Bohr)
 Number     Number              X              Y              Z
 -------------------------------------------------------------------
      1        6          -0.006106166   -0.136311781   -0.012819470
      2        6          -0.008931116    0.053870269    0.005266962
      3        6          -0.186416336    0.101919242    0.011455850
      4        6           0.129513433   -0.057760004   -0.007260630
      5        6           0.187998152    0.108151374    0.008936072
      6        6          -0.115085945   -0.058739095   -0.004830387
      7        6           0.220657080   -0.118202735   -0.015431160
      8        7          -0.186871471    0.100499647    0.013459557
      9        6          -0.074009809   -0.039742799   -0.003645810
     10        7           0.050191920    0.026447314    0.002667236
     11        6          -0.177443571   -0.102217359   -0.007246471
     12        7           0.136442178    0.083660716    0.005952814
     13        6          -0.005725971    0.001590507   -0.000767981
     14        7           0.002169659    0.025060539    0.003209344
     15        6           0.011758864   -0.006067470   -0.000290954
     16        7          -0.005759867    0.028919568    0.002117174
     17        6           0.007925615    0.004196006    0.000418387
     18        7           0.019693350   -0.015273938   -0.001190534
 -------------------------------------------------------------------
 Cartesian Forces:  Max     0.220657080 RMS     0.079294348

 GradGradGradGradGradGradGradGradGradGradGradGradGradGradGradGradGradGrad
 Berny optimization.
 Search for a local minimum.
 Step number   1 out of a maximum of    2
 All quantities printed in internal units (Hartrees-Bohrs-Radians)
 Second derivative matrix not updated -- first step.
 ITU=  0
     Eigenvalues ---    0.00142   0.00269   0.00284   0.00293   0.00297
     Eigenvalues ---    0.00988   0.01519   0.01652   0.01950   0.01994
     Eigenvalues ---    0.04365   0.04789   0.05226   0.05265   0.10028
     Eigenvalues ---    0.18703   0.19365   0.19697   0.23476   0.24086
     Eigenvalues ---    0.24469   0.25261   0.30650   0.30991   0.43075
     Eigenvalues ---    0.65200   0.68567   0.68946   0.72124   0.77634
     Eigenvalues ---    0.99241   0.99699   1.06230   1.52581   1.75224
     Eigenvalues ---    1.97145   2.28183   2.59767   2.62765   2.63644
     Eigenvalues ---    3.04343   3.06104   3.61279   3.90765   4.38832
     Eigenvalues ---    5.71406   7.85600  44.90729
 Quadratic step=3.718D-01 exceeds max=3.000D-01 adjusted using Lamda=-4.377D-02.
 Angle between NR and scaled steps=  14.04 degrees.
 Angle between quadratic step and forces=  42.07 degrees.
 Linear search not attempted -- first point.
 B after Tr=    -0.000118    0.001005    0.000146
         Rot=    1.000000    0.000001    0.000004   -0.000021 Ang=   0.00 deg.
 Variable       Old X    -DE/DX   Delta X   Delta X   Delta X     New X
                                 (Linear)    (Quad)   (Total)
    X1      -16.88457  -0.00611   0.00000  -0.00985  -0.00991 -16.89449
    Y1       -1.64457  -0.13631   0.00000  -0.08278  -0.08248  -1.72705
    Z1        2.09895  -0.01282   0.00000  -0.00710  -0.00707   2.09187
    X2      -16.89777  -0.00893   0.00000  -0.00095  -0.00112 -16.89889
    Y2        0.94790   0.05387   0.00000  -0.02510  -0.02479   0.92311
    Z2        2.36312   0.00527   0.00000  -0.00168  -0.00166   2.36146
    X3      -15.45963  -0.18642   0.00000  -0.10446  -0.10442 -15.56406
    Y3       -4.04938   0.10192   0.00000   0.06389   0.06425  -3.98513
    Z3        1.85563   0.01146   0.00000   0.00642   0.00646   1.86209
    X4      -13.33654   0.12951   0.00000   0.02817   0.02826 -13.30827
    Y4       -5.29858  -0.05776   0.00000  -0.01492  -0.01447  -5.31304
    Z4        1.70178  -0.00726   0.00000  -0.00265  -0.00259   1.69919
    X5      -18.33248   0.18800   0.00000   0.10523   0.10527 -18.22721
    Y5       -4.06691   0.10815   0.00000   0.07766   0.07790  -3.98901
    Z5        1.87701   0.00894   0.00000   0.00672   0.00674   1.88375
    X6      -20.47635  -0.11509   0.00000  -0.02423  -0.02414 -20.50049
    Y6       -5.30728  -0.05874   0.00000  -0.00291  -0.00275  -5.31003
    Z6        1.77427  -0.00483   0.00000   0.00020   0.00021   1.77449
    X7      -19.31845   0.22066   0.00000   0.09186   0.09163 -19.22682
    Y7        2.32346  -0.11820   0.00000  -0.05657  -0.05637   2.26709
    Z7        2.53456  -0.01543   0.00000  -0.00749  -0.00748   2.52708
    X8      -21.13119  -0.18687   0.00000  -0.00429  -0.00456 -21.13576
    Y8        3.30002   0.10050   0.00000   0.00611   0.00624   3.30626
    Z8        2.66796   0.01346   0.00000   0.00057   0.00056   2.66851
    X9      -14.52867  -0.07401   0.00000  -0.05640  -0.05663 -14.58530
    Y9        2.32082  -0.03974   0.00000  -0.04848  -0.04808   2.27274
    Z9        2.49704  -0.00365   0.00000  -0.00360  -0.00356   2.49348
   X10      -12.59096   0.05019   0.00000  -0.03223  -0.03251 -12.62346
   Y10        3.26562   0.02645   0.00000  -0.00359  -0.00310   3.26251
   Z10        2.60586   0.00267   0.00000  -0.00128  -0.00123   2.60463
   X11      -10.83984  -0.17744   0.00000  -0.09153  -0.09149 -10.93133
   Y11       -3.95844  -0.10222   0.00000  -0.05254  -0.05199  -4.01043
   Z11        1.80001  -0.00725   0.00000  -0.00413  -0.00406   1.79595
   X12       -9.07629   0.13644   0.00000  -0.00385  -0.00386  -9.08015
   Y12       -2.84101   0.08366   0.00000  -0.01574  -0.01511  -2.85613
   Z12        1.88008   0.00595   0.00000  -0.00024  -0.00016   1.87992
   X13      -13.24906  -0.00573   0.00000   0.00223   0.00243 -13.24662
   Y13       -8.03070   0.00159   0.00000   0.04321   0.04366  -7.98704
   Z13        1.40544  -0.00077   0.00000   0.00233   0.00239   1.40783
   X14      -13.30924   0.00217   0.00000   0.00763   0.00793 -13.30131
   Y14      -10.23458   0.02506   0.00000   0.06167   0.06213 -10.17245
   Z14        1.14799   0.00321   0.00000   0.00692   0.00699   1.15498
   X15      -20.57037   0.01176   0.00000   0.01511   0.01531 -20.55506
   Y15       -8.04217  -0.00607   0.00000   0.04397   0.04412  -7.99805
   Z15        1.56008  -0.00029   0.00000   0.00478   0.00479   1.56487
   X16      -20.40004  -0.00576   0.00000  -0.01613  -0.01584 -20.41588
   Y16      -10.25276   0.02892   0.00000   0.06421   0.06436 -10.18840
   Z16        1.39759   0.00212   0.00000   0.00473   0.00475   1.40234
   X17      -22.90664   0.00793   0.00000   0.04405   0.04409 -22.86255
   Y17       -3.98565   0.00420   0.00000  -0.01912  -0.01907  -4.00471
   Z17        1.87827   0.00042   0.00000  -0.00165  -0.00166   1.87661
   X18      -24.76755   0.01969   0.00000   0.04958   0.04956 -24.71799
   Y18       -2.78198  -0.01527   0.00000  -0.04442  -0.04445  -2.82642
   Z18        1.96873  -0.00119   0.00000  -0.00341  -0.00343   1.96530
         Item               Value     Threshold  Converged?
 Maximum Force            0.220657     0.000450     NO 
 RMS     Force            0.079294     0.000300     NO 
 Maximum Displacement     0.105268     0.001800     NO 
 RMS     Displacement     0.040900     0.001200     NO 
 Predicted change in Energy=-6.697640D-02
 GradGradGradGradGradGradGradGradGradGradGradGradGradGradGradGradGradGrad

 Unable to Open any file for archive entry.
 1\1\GINC-X10P1N4\Force\RwB97XD\def2SVP\C12N6(2-)\MAYUMIAO\11-Oct-2024\
 0\\# wb97xd def2svp scrf=(smd,solvent=acetonitrile) g09default scf=(xq
 c,maxcycle=64) force guess=read nosymm\\Title Card\\-2,1\C,-8.93493193
 ,-0.87026787,1.1107143\C,-8.94191377,0.50160912,1.25050766\C,-8.180884
 34,-2.14284066,0.98195907\C,-7.05739068,-2.80388569,0.90054486\C,-9.70
 112995,-2.15211717,0.993272\C,-10.83561854,-2.80849131,0.93890525\C,-1
 0.22288305,1.22951957,1.34123231\N,-11.18214468,1.74629561,1.41182117\
 C,-7.68824114,1.22812251,1.32137436\N,-6.66284763,1.72808951,1.3789615
 1\C,-5.73619554,-2.09471386,0.95252556\N,-4.80296577,-1.50339857,0.994
 89344\C,-7.01109969,-4.24966191,0.7437249\N,-7.04294666,-5.41590475,0.
 60749015\C,-10.8853708,-4.25573296,0.8255603\N,-10.79523751,-5.4255282
 7,0.73957475\C,-12.12167049,-2.10911312,0.99393579\N,-13.10642236,-1.4
 7215794,1.04180755\\Version=ES64L-G16RevC.01\HF=-784.9559065\RMSD=5.59
 7e-09\RMSF=7.929e-02\Dipole=0.0537244,-0.043584,-0.0097947\Quadrupole=
 -394.3076888,155.790692,238.5169968,-109.1669698,66.595465,5.5269227\P
 G=C01 [X(C12N6)]\\@
 The archive entry for this job was punched.


 GOOD SENSE ABOUT TRIVIALITIES IS BETTER THAN NONSENSE
 ABOUT THINGS THAT MATTER

                                       -- MAX BEERBOHM
 Job cpu time:       0 days  0 hours 10 minutes 12.5 seconds.
 Elapsed time:       0 days  0 hours  0 minutes 23.3 seconds.
 File lengths (MBytes):  RWF=    148 Int=      0 D2E=      0 Chk=      8 Scr=      1
 Normal termination of Gaussian 16 at Fri Oct 11 15:52:59 2024.
