 Entering Gaussian System, Link 0=g16
 Input=JOBS/28_A.gjf
 Output=JOBS/28_A.log
 Initial command:
 /data/app/gaussian/C01-avx2//g16/l1.exe "/tmp/Gau-2540724.inp" -scrdir="/tmp/"
 Entering Link 1 = /data/app/gaussian/C01-avx2//g16/l1.exe PID=   2540725.
  
 Copyright (c) 1988-2019, Gaussian, Inc.  All Rights Reserved.
  
 This is part of the Gaussian(R) 16 program.  It is based on
 the Gaussian(R) 09 system (copyright 2009, Gaussian, Inc.),
 the Gaussian(R) 03 system (copyright 2003, Gaussian, Inc.),
 the Gaussian(R) 98 system (copyright 1998, Gaussian, Inc.),
 the Gaussian(R) 94 system (copyright 1995, Gaussian, Inc.),
 the Gaussian 92(TM) system (copyright 1992, Gaussian, Inc.),
 the Gaussian 90(TM) system (copyright 1990, Gaussian, Inc.),
 the Gaussian 88(TM) system (copyright 1988, Gaussian, Inc.),
 the Gaussian 86(TM) system (copyright 1986, Carnegie Mellon
 University), and the Gaussian 82(TM) system (copyright 1983,
 Carnegie Mellon University). Gaussian is a federally registered
 trademark of Gaussian, Inc.
  
 This software contains proprietary and confidential information,
 including trade secrets, belonging to Gaussian, Inc.
  
 This software is provided under written license and may be
 used, copied, transmitted, or stored only in accord with that
 written license.
  
 The following legend is applicable only to US Government
 contracts under FAR:
  
                    RESTRICTED RIGHTS LEGEND
  
 Use, reproduction and disclosure by the US Government is
 subject to restrictions as set forth in subparagraphs (a)
 and (c) of the Commercial Computer Software - Restricted
 Rights clause in FAR 52.227-19.
  
 Gaussian, Inc.
 340 Quinnipiac St., Bldg. 40, Wallingford CT 06492
  
  
 ---------------------------------------------------------------
 Warning -- This program may not be used in any manner that
 competes with the business of Gaussian, Inc. or will provide
 assistance to any competitor of Gaussian, Inc.  The licensee
 of this program is prohibited from giving any competitor of
 Gaussian, Inc. access to this program.  By using this program,
 the user acknowledges that Gaussian, Inc. is engaged in the
 business of creating and licensing software in the field of
 computational chemistry and represents and warrants to the
 licensee that it is not a competitor of Gaussian, Inc. and that
 it will not use this program in any manner prohibited above.
 ---------------------------------------------------------------
  

 Cite this work as:
 Gaussian 16, Revision C.01,
 M. J. Frisch, G. W. Trucks, H. B. Schlegel, G. E. Scuseria, 
 M. A. Robb, J. R. Cheeseman, G. Scalmani, V. Barone, 
 G. A. Petersson, H. Nakatsuji, X. Li, M. Caricato, A. V. Marenich, 
 J. Bloino, B. G. Janesko, R. Gomperts, B. Mennucci, H. P. Hratchian, 
 J. V. Ortiz, A. F. Izmaylov, J. L. Sonnenberg, D. Williams-Young, 
 F. Ding, F. Lipparini, F. Egidi, J. Goings, B. Peng, A. Petrone, 
 T. Henderson, D. Ranasinghe, V. G. Zakrzewski, J. Gao, N. Rega, 
 G. Zheng, W. Liang, M. Hada, M. Ehara, K. Toyota, R. Fukuda, 
 J. Hasegawa, M. Ishida, T. Nakajima, Y. Honda, O. Kitao, H. Nakai, 
 T. Vreven, K. Throssell, J. A. Montgomery, Jr., J. E. Peralta, 
 F. Ogliaro, M. J. Bearpark, J. J. Heyd, E. N. Brothers, K. N. Kudin, 
 V. N. Staroverov, T. A. Keith, R. Kobayashi, J. Normand, 
 K. Raghavachari, A. P. Rendell, J. C. Burant, S. S. Iyengar, 
 J. Tomasi, M. Cossi, J. M. Millam, M. Klene, C. Adamo, R. Cammi, 
 J. W. Ochterski, R. L. Martin, K. Morokuma, O. Farkas, 
 J. B. Foresman, and D. J. Fox, Gaussian, Inc., Wallingford CT, 2019.
 
 ******************************************
 Gaussian 16:  ES64L-G16RevC.01  3-Jul-2019
                11-Oct-2024 
 ******************************************
 %chk=a.chk
 %nprocshared=28
 Will use up to   28 processors via shared memory.
 %mem=48gb
 ----------------------------------------------------------------------
 # wb97xd def2svp scrf=(smd,solvent=acetonitrile) g09default scf=(xqc,m
 axcycle=64) force guess=read nosymm
 ----------------------------------------------------------------------
 1/10=7,30=1,38=1,158=3,167=1/1,3;
 2/12=2,15=1,17=6,18=5,40=1/2;
 3/5=43,7=101,11=2,25=1,27=10,30=1,70=32201,71=1,72=2,74=-58,75=-4,116=-2,158=3/1,2,3;
 4/5=1,60=-1/1;
 5/5=2,7=64,8=3,13=1,38=6,53=2,87=10/2,8;
 6/7=2,8=2,9=2,10=2,28=1,87=10/1;
 7/29=1,30=1,87=10/1,2,3,16;
 1/10=7,30=1,158=3,167=1/3;
 99//99;
 Using 2006 physical constants.
 ----------
 Title Card
 ----------
 Symbolic Z-matrix:
 Charge = -2 Multiplicity = 1
 6                    -8.93628  -0.86054   1.11313 
 6                    -8.94062   0.50806   1.25126 
 6                    -8.19272  -2.1396    0.98357 
 6                    -7.02514  -2.82263   0.89922 
 6                    -9.69499  -2.15077   0.99307 
 6                    -10.86325  -2.81894   0.938 
 6                    -10.21549   1.24055   1.34132 
 7                    -11.21869   1.76479   1.41599 
 6                    -7.67111   1.25368   1.32547 
 7                    -6.65155   1.73138   1.37985 
 6                    -5.72429  -2.09919   0.95109 
 7                    -4.78023  -1.49013   0.99406 
 6                    -7.00031  -4.26142   0.74021 
 7                    -7.04376  -5.43521   0.60153 
 6                    -10.89628  -4.27464   0.8254 
 7                    -10.7928  -5.44336   0.74169 
 6                    -12.14757  -2.10385   0.99415 
 7                    -13.11479  -1.46835   1.0398 
 

 GradGradGradGradGradGradGradGradGradGradGradGradGradGradGradGradGradGrad
 Berny optimization.
 Initialization pass.
 Trust Radius=3.00D-01 FncErr=1.00D-07 GrdErr=1.00D-07 EigMax=2.50D+02 EigMin=1.00D-04
 Number of steps in this run=      2 maximum allowed number of steps=      2.
 GradGradGradGradGradGradGradGradGradGradGradGradGradGradGradGradGradGrad

                          Input orientation:                          
 ---------------------------------------------------------------------
 Center     Atomic      Atomic             Coordinates (Angstroms)
 Number     Number       Type             X           Y           Z
 ---------------------------------------------------------------------
      1          6           0       -8.936281   -0.860535    1.113129
      2          6           0       -8.940625    0.508060    1.251261
      3          6           0       -8.192716   -2.139598    0.983574
      4          6           0       -7.025141   -2.822629    0.899216
      5          6           0       -9.694992   -2.150774    0.993073
      6          6           0      -10.863253   -2.818940    0.937999
      7          6           0      -10.215491    1.240548    1.341320
      8          7           0      -11.218691    1.764787    1.415990
      9          6           0       -7.671114    1.253678    1.325466
     10          7           0       -6.651549    1.731384    1.379854
     11          6           0       -5.724290   -2.099193    0.951091
     12          7           0       -4.780228   -1.490129    0.994056
     13          6           0       -7.000314   -4.261422    0.740210
     14          7           0       -7.043757   -5.435207    0.601526
     15          6           0      -10.896283   -4.274644    0.825400
     16          7           0      -10.792804   -5.443364    0.741687
     17          6           0      -12.147569   -2.103853    0.994149
     18          7           0      -13.114795   -1.468347    1.039804
 ---------------------------------------------------------------------
                    Distance matrix (angstroms):
                    1          2          3          4          5
     1  C    0.000000
     2  C    1.375555   0.000000
     3  C    1.485151   2.764257   0.000000
     4  C    2.747368   3.858304   1.355315   0.000000
     5  C    1.501590   2.775812   1.502348   2.754687   0.000000
     6  C    2.753042   3.855329   2.755966   3.838310   1.346964
     7  C    2.470425   1.473069   3.955374   5.184901   3.448661
     8  N    3.491910   2.606930   4.958602   6.236770   4.222812
     9  C    2.472980   1.474147   3.450113   4.149126   3.974527
    10  N    3.465427   2.598639   4.185299   4.594520   4.948059
    11  C    3.446363   4.151227   2.468971   1.489384   3.971259
    12  N    4.205157   4.622534   3.473758   2.612314   4.958967
    13  C    3.931039   5.174354   2.446055   1.447765   3.432209
    14  N    4.977048   6.272375   3.510998   2.629549   4.239086
    15  C    3.947219   5.184614   3.448582   4.135159   2.445821
    16  N    4.958525   6.253774   4.211157   4.592206   3.479876
    17  C    3.445630   4.143995   3.955029   5.173483   2.453027
    18  N    4.223125   4.623267   4.967957   6.240010   3.487541
                    6          7          8          9         10
     6  C    0.000000
     7  C    4.130581   0.000000
     8  N    4.622268   1.134378   0.000000
     9  C    5.189036   2.544460   3.585349   0.000000
    10  N    6.216037   3.597789   4.567407   1.127241   0.000000
    11  C    5.189138   5.610440   6.733121   3.895128   3.964463
    12  N    6.226722   6.092559   7.226777   3.999441   3.745508
    13  C    4.128216   6.400810   7.386919   5.586486   6.036928
    14  N    4.641833   7.427845   8.362615   6.757133   7.219393
    15  C    1.460426   5.580949   6.076798   6.419823   7.375470
    16  N    2.632699   6.735542   7.252139   7.411890   8.308685
    17  C    1.471044   3.877947   4.000893   5.605483   6.712976
    18  N    2.627528   3.979320   3.766946   6.093003   7.219934
                   11         12         13         14         15
    11  C    0.000000
    12  N    1.124303   0.000000
    13  C    2.519513   3.559956   0.000000
    14  N    3.604466   4.565225   1.182747   0.000000
    15  C    5.612299   6.722209   3.896923   4.029762   0.000000
    16  N    6.075950   7.200196   3.972401   3.751675   1.176275
    17  C    6.423426   7.392860   5.586933   6.107452   2.511280
    18  N    7.417911   8.334721   6.728885   7.265367   3.583722
                   16         17         18
    16  N    0.000000
    17  C    3.612680   0.000000
    18  N    4.613163   1.158222   0.000000
 Symmetry turned off by external request.
 Stoichiometry    C12N6(2-)
 Framework group  C1[X(C12N6)]
 Deg. of freedom    48
 Full point group                 C1      NOp   1
 Rotational constants (GHZ):           0.4188884           0.4160681           0.2087660
 Standard basis: def2SVP (5D, 7F)
   252 basis functions,   450 primitive gaussians,   270 cartesian basis functions
    58 alpha electrons       58 beta electrons
       nuclear repulsion energy       951.9808954438 Hartrees.
 NAtoms=   18 NActive=   18 NUniq=   18 SFac= 1.00D+00 NAtFMM=   60 NAOKFM=F Big=F
 Integral buffers will be    131072 words long.
 Raffenetti 2 integral format.
 Two-electron integral symmetry is turned off.
 Nuclear repulsion after empirical dispersion term =      951.9695041335 Hartrees.
 Force PCM accuracy= 1.00D-10.
 ------------------------------------------------------------------------------
 Polarizable Continuum Model (PCM)
 =================================
 Model                : PCM (using non-symmetric T matrix).
 Atomic radii         : SMD-Coulomb.
 Polarization charges : Total charges.
 Charge compensation  : None.
 Solution method      : On-the-fly selection.
 Cavity type          : VdW (van der Waals Surface) (Alpha=1.000).
 Cavity algorithm     : GePol (No added spheres)
                        Default sphere list used, NSphG=   18.
                        Lebedev-Laikov grids with approx.  5.0 points / Ang**2.
                        Smoothing algorithm: York/Karplus (Gamma=1.0000).
                        Polarization charges: spherical gaussians, with
                                              point-specific exponents (IZeta= 3).
                        Self-potential: point-specific (ISelfS= 7).
                        Self-field    : sphere-specific E.n sum rule (ISelfD= 2).
 1st derivatives      : Analytical E(r).r(x)/FMM algorithm (CHGder, D1EAlg=3).
                        Cavity 1st derivative terms included.
 Solvent              : Acetonitrile, Eps=  35.688000 Eps(inf)=   1.806874
 ------------------------------------------------------------------------------
 Spheres list:
 ISph  on   Nord     Re0    Alpha      Xe            Ye            Ze
    1   C      1    1.8500  1.000     -8.936281     -0.860535      1.113129
    2   C      2    1.8500  1.000     -8.940625      0.508060      1.251261
    3   C      3    1.8500  1.000     -8.192716     -2.139598      0.983574
    4   C      4    1.8500  1.000     -7.025141     -2.822629      0.899216
    5   C      5    1.8500  1.000     -9.694992     -2.150774      0.993073
    6   C      6    1.8500  1.000    -10.863253     -2.818940      0.937999
    7   C      7    1.8500  1.000    -10.215491      1.240548      1.341320
    8   N      8    1.8900  1.000    -11.218691      1.764787      1.415990
    9   C      9    1.8500  1.000     -7.671114      1.253678      1.325466
   10   N     10    1.8900  1.000     -6.651549      1.731384      1.379854
   11   C     11    1.8500  1.000     -5.724290     -2.099193      0.951091
   12   N     12    1.8900  1.000     -4.780228     -1.490129      0.994056
   13   C     13    1.8500  1.000     -7.000314     -4.261422      0.740210
   14   N     14    1.8900  1.000     -7.043757     -5.435207      0.601526
   15   C     15    1.8500  1.000    -10.896283     -4.274644      0.825400
   16   N     16    1.8900  1.000    -10.792804     -5.443364      0.741687
   17   C     17    1.8500  1.000    -12.147569     -2.103853      0.994149
   18   N     18    1.8900  1.000    -13.114795     -1.468347      1.039804
 ------------------------------------------------------------------------------
 ------------------------------------------------------------------------------
 Atomic radii for non-electrostatic terms: SMD-CDS.
 ------------------------------------------------------------------------------
 Nuclear repulsion after PCM non-electrostatic terms =      951.9782697229 Hartrees.
 One-electron integrals computed using PRISM.
   1 Symmetry operations used in ECPInt.
 ECPInt:  NShTT=    5886 NPrTT=   23670 LenC2=    5389 LenP2D=   14853.
 LDataN:  DoStor=T MaxTD1= 4 Len=   56
 NBasis=   252 RedAO= T EigKep=  3.03D-04  NBF=   252
 NBsUse=   252 1.00D-06 EigRej= -1.00D+00 NBFU=   252
 Initial guess from the checkpoint file:  "a.chk"
 B after Tr=    -0.000842    0.001934   -0.002832
         Rot=    1.000000   -0.000077   -0.000098   -0.000048 Ang=  -0.02 deg.
 Requested convergence on RMS density matrix=1.00D-08 within  64 cycles.
 Requested convergence on MAX density matrix=1.00D-06.
 Requested convergence on             energy=1.00D-06.
 No special actions if energy rises.
 Inv3:  Mode=1 IEnd=    19599408.
 Iteration    1 A*A^-1 deviation from unit magnitude is 3.33D-15 for   1848.
 Iteration    1 A*A^-1 deviation from orthogonality  is 2.67D-15 for   1690    278.
 Iteration    1 A^-1*A deviation from unit magnitude is 3.55D-15 for    588.
 Iteration    1 A^-1*A deviation from orthogonality  is 8.09D-11 for    828    810.
 Error on total polarization charges =  0.02208
 SCF Done:  E(RwB97XD) =  -784.981610108     A.U. after   14 cycles
            NFock= 14  Conv=0.52D-08     -V/T= 2.0102
 SMD-CDS (non-electrostatic) energy       (kcal/mol) =       5.50
 (included in total energy above)
 QCSCF skips out because SCF is already converged.

 **********************************************************************

            Population analysis using the SCF Density.

 **********************************************************************

 Alpha  occ. eigenvalues --  -14.43507 -14.43359 -14.43249 -14.42572 -14.42503
 Alpha  occ. eigenvalues --  -14.42404 -10.35463 -10.35374 -10.35332 -10.34472
 Alpha  occ. eigenvalues --  -10.34402 -10.34191 -10.33695 -10.33544 -10.33530
 Alpha  occ. eigenvalues --  -10.33506 -10.33497 -10.33380  -1.00455  -1.00178
 Alpha  occ. eigenvalues --   -0.99468  -0.99319  -0.98161  -0.97860  -0.96566
 Alpha  occ. eigenvalues --   -0.88103  -0.87597  -0.83795  -0.68346  -0.67643
 Alpha  occ. eigenvalues --   -0.64493  -0.64055  -0.63512  -0.63067  -0.50666
 Alpha  occ. eigenvalues --   -0.47511  -0.47428  -0.46101  -0.46021  -0.45460
 Alpha  occ. eigenvalues --   -0.45323  -0.45204  -0.44734  -0.44047  -0.43827
 Alpha  occ. eigenvalues --   -0.43353  -0.43196  -0.43052  -0.42553  -0.42310
 Alpha  occ. eigenvalues --   -0.42250  -0.41797  -0.41314  -0.40395  -0.40001
 Alpha  occ. eigenvalues --   -0.32573  -0.32363  -0.22189
 Alpha virt. eigenvalues --    0.06695   0.07317   0.08884   0.09420   0.10158
 Alpha virt. eigenvalues --    0.10988   0.12423   0.13168   0.13976   0.14322
 Alpha virt. eigenvalues --    0.14494   0.16128   0.20270   0.20474   0.23174
 Alpha virt. eigenvalues --    0.24718   0.27248   0.27455   0.27514   0.27950
 Alpha virt. eigenvalues --    0.29883   0.31473   0.31905   0.32949   0.33065
 Alpha virt. eigenvalues --    0.34417   0.35813   0.48423   0.48754   0.51567
 Alpha virt. eigenvalues --    0.51747   0.52492   0.52674   0.54842   0.54977
 Alpha virt. eigenvalues --    0.55397   0.56044   0.56527   0.58478   0.61490
 Alpha virt. eigenvalues --    0.61509   0.61965   0.62928   0.63214   0.64798
 Alpha virt. eigenvalues --    0.65987   0.70881   0.71158   0.71824   0.72878
 Alpha virt. eigenvalues --    0.73303   0.73763   0.73918   0.74415   0.74634
 Alpha virt. eigenvalues --    0.75055   0.75105   0.75754   0.76375   0.76647
 Alpha virt. eigenvalues --    0.80031   0.80265   0.81435   0.83125   0.83229
 Alpha virt. eigenvalues --    0.85532   0.85948   0.88063   0.88801   0.94263
 Alpha virt. eigenvalues --    0.94481   0.94716   0.95070   0.95468   0.95972
 Alpha virt. eigenvalues --    0.97406   0.99847   1.00306   1.00970   1.01211
 Alpha virt. eigenvalues --    1.03076   1.03172   1.03299   1.04051   1.04677
 Alpha virt. eigenvalues --    1.06188   1.07501   1.08483   1.10670   1.12285
 Alpha virt. eigenvalues --    1.14113   1.17267   1.19013   1.19500   1.19714
 Alpha virt. eigenvalues --    1.23261   1.24261   1.24619   1.27908   1.33699
 Alpha virt. eigenvalues --    1.35153   1.35467   1.42330   1.42794   1.44685
 Alpha virt. eigenvalues --    1.45548   1.46671   1.48281   1.48813   1.57661
 Alpha virt. eigenvalues --    1.62274   1.68869   1.70064   1.70239   1.70601
 Alpha virt. eigenvalues --    1.71024   1.71331   1.76131   1.76436   1.79437
 Alpha virt. eigenvalues --    1.79615   1.79766   1.79977   1.80682   1.81332
 Alpha virt. eigenvalues --    1.81845   1.83198   1.85900   1.93569   1.95584
 Alpha virt. eigenvalues --    1.97062   1.99458   2.00093   2.00627   2.02581
 Alpha virt. eigenvalues --    2.03832   2.04302   2.06234   2.10722   2.11214
 Alpha virt. eigenvalues --    2.13933   2.20749   2.21463   2.24583   2.26015
 Alpha virt. eigenvalues --    2.27968   2.29993   2.30444   2.33963   2.34779
 Alpha virt. eigenvalues --    2.35361   2.35745   2.36554   2.36797   2.37115
 Alpha virt. eigenvalues --    2.37499   2.38238   2.38348   2.38579   2.38752
 Alpha virt. eigenvalues --    2.39672   2.40316   2.56748   2.57146   2.58320
 Alpha virt. eigenvalues --    2.68851   2.69833   2.90490   2.93240   2.96731
 Alpha virt. eigenvalues --    2.97612   2.99540   3.00178   3.02900   3.04027
 Alpha virt. eigenvalues --    3.06323   3.08408   3.09146   3.09849   3.09944
 Alpha virt. eigenvalues --    3.12576   3.14497   3.20528   3.22060   3.29272
 Alpha virt. eigenvalues --    3.39423   3.40350   3.40559   3.50301   3.53786
 Alpha virt. eigenvalues --    3.58919   3.63789   3.66808   3.77037
          Condensed to atoms (all electrons):
               1          2          3          4          5          6
     1  C    4.947327   0.491184   0.316633  -0.111108   0.324861  -0.106924
     2  C    0.491184   5.512319  -0.101064  -0.006557  -0.095161  -0.006267
     3  C    0.316633  -0.101064   4.936126   0.485104   0.318157  -0.107555
     4  C   -0.111108  -0.006557   0.485104   5.545406  -0.104857  -0.007459
     5  C    0.324861  -0.095161   0.318157  -0.104857   4.915609   0.482068
     6  C   -0.106924  -0.006267  -0.107555  -0.007459   0.482068   5.545586
     7  C    0.006409   0.391079   0.005065  -0.000234  -0.014601   0.001102
     8  N   -0.000524  -0.038441  -0.000011  -0.000001  -0.000409   0.000057
     9  C    0.003436   0.388911  -0.015309   0.001034   0.005799  -0.000226
    10  N   -0.000583  -0.039168  -0.000504   0.000056   0.000020  -0.000001
    11  C   -0.014516   0.001186   0.003882   0.378327   0.005374  -0.000228
    12  N   -0.000472   0.000067  -0.000873  -0.036651  -0.000003  -0.000001
    13  C    0.005052  -0.000265   0.009614   0.394518  -0.016094   0.001040
    14  N   -0.000013  -0.000001  -0.000412  -0.040842  -0.000369   0.000052
    15  C    0.006211  -0.000221  -0.016375   0.001244   0.005840   0.382304
    16  N    0.000034  -0.000001  -0.000449   0.000079  -0.000149  -0.039827
    17  C   -0.015940   0.001193   0.005425  -0.000271   0.005226   0.381648
    18  N   -0.000454   0.000077   0.000009  -0.000001  -0.000349  -0.037372
               7          8          9         10         11         12
     1  C    0.006409  -0.000524   0.003436  -0.000583  -0.014516  -0.000472
     2  C    0.391079  -0.038441   0.388911  -0.039168   0.001186   0.000067
     3  C    0.005065  -0.000011  -0.015309  -0.000504   0.003882  -0.000873
     4  C   -0.000234  -0.000001   0.001034   0.000056   0.378327  -0.036651
     5  C   -0.014601  -0.000409   0.005799   0.000020   0.005374  -0.000003
     6  C    0.001102   0.000057  -0.000226  -0.000001  -0.000228  -0.000001
     7  C    4.819496   0.956663  -0.029722   0.001626   0.000037   0.000001
     8  N    0.956663   6.106156   0.001463   0.000043   0.000000   0.000000
     9  C   -0.029722   0.001463   4.816934   0.964420   0.000509   0.000189
    10  N    0.001626   0.000043   0.964420   6.090177   0.000483  -0.000849
    11  C    0.000037   0.000000   0.000509   0.000483   4.820114   0.970829
    12  N    0.000001   0.000000   0.000189  -0.000849   0.970829   6.073922
    13  C   -0.000004  -0.000000   0.000047   0.000001  -0.028453   0.001774
    14  N   -0.000000  -0.000000   0.000000   0.000000   0.001721   0.000048
    15  C    0.000043   0.000001  -0.000003  -0.000000   0.000039   0.000000
    16  N    0.000000   0.000000  -0.000000   0.000000   0.000001   0.000000
    17  C    0.000562   0.000114   0.000042   0.000000  -0.000003  -0.000000
    18  N    0.000442  -0.000817   0.000001   0.000000  -0.000000  -0.000000
              13         14         15         16         17         18
     1  C    0.005052  -0.000013   0.006211   0.000034  -0.015940  -0.000454
     2  C   -0.000265  -0.000001  -0.000221  -0.000001   0.001193   0.000077
     3  C    0.009614  -0.000412  -0.016375  -0.000449   0.005425   0.000009
     4  C    0.394518  -0.040842   0.001244   0.000079  -0.000271  -0.000001
     5  C   -0.016094  -0.000369   0.005840  -0.000149   0.005226  -0.000349
     6  C    0.001040   0.000052   0.382304  -0.039827   0.381648  -0.037372
     7  C   -0.000004  -0.000000   0.000043   0.000000   0.000562   0.000442
     8  N   -0.000000  -0.000000   0.000001   0.000000   0.000114  -0.000817
     9  C    0.000047   0.000000  -0.000003  -0.000000   0.000042   0.000001
    10  N    0.000001   0.000000  -0.000000   0.000000   0.000000   0.000000
    11  C   -0.028453   0.001721   0.000039   0.000001  -0.000003  -0.000000
    12  N    0.001774   0.000048   0.000000   0.000000  -0.000000  -0.000000
    13  C    4.844243   0.902170   0.000376   0.000413   0.000046   0.000000
    14  N    0.902170   6.213703   0.000107  -0.000762   0.000001   0.000000
    15  C    0.000376   0.000107   4.845273   0.910293  -0.027139   0.001636
    16  N    0.000413  -0.000762   0.910293   6.196587   0.001719   0.000039
    17  C    0.000046   0.000001  -0.027139   0.001719   4.837004   0.930027
    18  N    0.000000   0.000000   0.001636   0.000039   0.930027   6.153140
 Mulliken charges:
               1
     1  C    0.149386
     2  C   -0.498869
     3  C    0.162539
     4  C   -0.497787
     5  C    0.169040
     6  C   -0.487997
     7  C   -0.137966
     8  N   -0.024295
     9  C   -0.137526
    10  N   -0.015721
    11  C   -0.139303
    12  N   -0.007983
    13  C   -0.114477
    14  N   -0.075403
    15  C   -0.109632
    16  N   -0.067978
    17  C   -0.119653
    18  N   -0.046376
 Sum of Mulliken charges =  -2.00000
 Mulliken charges with hydrogens summed into heavy atoms:
               1
     1  C    0.149386
     2  C   -0.498869
     3  C    0.162539
     4  C   -0.497787
     5  C    0.169040
     6  C   -0.487997
     7  C   -0.137966
     8  N   -0.024295
     9  C   -0.137526
    10  N   -0.015721
    11  C   -0.139303
    12  N   -0.007983
    13  C   -0.114477
    14  N   -0.075403
    15  C   -0.109632
    16  N   -0.067978
    17  C   -0.119653
    18  N   -0.046376
 Electronic spatial extent (au):  <R**2>=          39453.3109
 Charge=             -2.0000 electrons
 Dipole moment (field-independent basis, Debye):
    X=             85.8708    Y=             16.9675    Z=             -9.8486  Tot=             88.0834
 Quadrupole moment (field-independent basis, Debye-Ang):
   XX=           -964.1594   YY=           -227.8256   ZZ=           -114.2028
   XY=           -150.4427   XZ=             89.0488   YZ=              7.8981
 Traceless Quadrupole moment (field-independent basis, Debye-Ang):
   XX=           -528.7634   YY=            207.5703   ZZ=            321.1931
   XY=           -150.4427   XZ=             89.0488   YZ=              7.8981
 Octapole moment (field-independent basis, Debye-Ang**2):
  XXX=          12136.2810  YYY=           1156.4888  ZZZ=           -331.4981  XYY=           2031.5715
  XXY=           1598.7254  XXZ=          -1012.7329  XZZ=           1023.1500  YZZ=            178.3815
  YYZ=           -195.4823  XYZ=            -72.3051
 Hexadecapole moment (field-independent basis, Debye-Ang**3):
 XXXX=        -160436.3027 YYYY=          -8884.6675 ZZZZ=           -809.6795 XXXY=         -18921.8836
 XXXZ=          12875.7525 YYYX=         -10301.0814 YYYZ=            770.6100 ZZZX=           2984.0165
 ZZZY=            383.1868 XXYY=         -20025.8318 XXZZ=          -9961.5634 YYZZ=          -1055.9342
 XXYZ=            841.5582 YYXZ=           1766.8648 ZZXY=          -1595.6909
 N-N= 9.519782697229D+02 E-N=-3.757630511741D+03  KE= 7.770348669903D+02
   1 Symmetry operations used in ECPInt.
 ECPInt:  NShTT=    5886 NPrTT=   23670 LenC2=    5389 LenP2D=   14853.
 LDataN:  DoStor=T MaxTD1= 5 Len=  102
 D1PCM: PCM CHGder 1st derivatives, ID1Alg=3 FixD1E=F DoIter=F DoCFld=F I1PDM=0.
 Calling FoFJK, ICntrl=      2127 FMM=F ISym2X=0 I1Cent= 0 IOpClX= 0 NMat=1 NMatS=1 NMatT=0.
 -------------------------------------------------------------------
 Center     Atomic                   Forces (Hartrees/Bohr)
 Number     Number              X              Y              Z
 -------------------------------------------------------------------
      1        6          -0.002946326   -0.133846277   -0.012841726
      2        6          -0.001642941    0.060267165    0.005989785
      3        6          -0.136141165    0.074051053    0.007989350
      4        6           0.076843568   -0.026925660   -0.003677834
      5        6           0.145858597    0.084737793    0.007263536
      6        6          -0.078973208   -0.040045958   -0.003214492
      7        6           0.099388646   -0.053935123   -0.006495114
      8        7          -0.065868831    0.035048527    0.004583477
      9        6          -0.117500735   -0.064246853   -0.006565864
     10        7           0.085129855    0.043107485    0.004634134
     11        6          -0.125410226   -0.073088323   -0.005103520
     12        7           0.086582635    0.053622997    0.003761364
     13        6          -0.004528149   -0.014997309   -0.002623567
     14        7           0.002639439    0.040585732    0.005068376
     15        6           0.010540320    0.001683827    0.000416637
     16        7          -0.005895362    0.028594287    0.001976802
     17        6           0.042126204   -0.018858597   -0.001489782
     18        7          -0.010202322    0.004245236    0.000328438
 -------------------------------------------------------------------
 Cartesian Forces:  Max     0.145858597 RMS     0.056273739

 GradGradGradGradGradGradGradGradGradGradGradGradGradGradGradGradGradGrad
 Berny optimization.
 Search for a local minimum.
 Step number   1 out of a maximum of    2
 All quantities printed in internal units (Hartrees-Bohrs-Radians)
 Second derivative matrix not updated -- first step.
 ITU=  0
     Eigenvalues ---    0.00140   0.00230   0.00234   0.00291   0.00293
     Eigenvalues ---    0.00919   0.01498   0.01620   0.01925   0.01962
     Eigenvalues ---    0.04035   0.04436   0.05125   0.05182   0.09824
     Eigenvalues ---    0.17067   0.18889   0.19325   0.23112   0.23984
     Eigenvalues ---    0.24336   0.24665   0.29918   0.30099   0.42827
     Eigenvalues ---    0.63864   0.66359   0.67818   0.70261   0.72013
     Eigenvalues ---    0.97136   0.97710   1.04233   1.50503   1.57622
     Eigenvalues ---    1.83032   2.11029   2.54264   2.59692   2.68565
     Eigenvalues ---    2.80831   3.13879   3.25259   3.28775   4.31770
     Eigenvalues ---    4.44118   9.98340  14.41879
 Quadratic step=4.745D-01 exceeds max=3.000D-01 adjusted using Lamda=-7.265D-02.
 Angle between NR and scaled steps=  18.21 degrees.
 Angle between quadratic step and forces=  49.40 degrees.
 Linear search not attempted -- first point.
 B after Tr=     0.000037    0.000481    0.000101
         Rot=    1.000000    0.000002    0.000002   -0.000005 Ang=   0.00 deg.
 Variable       Old X    -DE/DX   Delta X   Delta X   Delta X     New X
                                 (Linear)    (Quad)   (Total)
    X1      -16.88712  -0.00295   0.00000  -0.00550  -0.00546 -16.89258
    Y1       -1.62618  -0.13385   0.00000  -0.08819  -0.08787  -1.71404
    Z1        2.10351  -0.01284   0.00000  -0.00812  -0.00810   2.09541
    X2      -16.89533  -0.00164   0.00000  -0.00463  -0.00461 -16.89995
    Y2        0.96009   0.06027   0.00000  -0.02406  -0.02374   0.93636
    Z2        2.36454   0.00599   0.00000  -0.00125  -0.00123   2.36331
    X3      -15.48199  -0.13614   0.00000  -0.08620  -0.08614 -15.56813
    Y3       -4.04325   0.07405   0.00000   0.04980   0.05014  -3.99312
    Z3        1.85868   0.00799   0.00000   0.00433   0.00437   1.86305
    X4      -13.27559   0.07684   0.00000  -0.00215  -0.00207 -13.27767
    Y4       -5.33400  -0.02693   0.00000   0.00333   0.00369  -5.33031
    Z4        1.69927  -0.00368   0.00000  -0.00098  -0.00093   1.69834
    X5      -18.32088   0.14586   0.00000   0.09268   0.09275 -18.22813
    Y5       -4.06437   0.08474   0.00000   0.05982   0.06012  -4.00425
    Z5        1.87664   0.00726   0.00000   0.00527   0.00530   1.88193
    X6      -20.52857  -0.07897   0.00000   0.00223   0.00231 -20.52627
    Y6       -5.32702  -0.04005   0.00000   0.00268   0.00297  -5.32406
    Z6        1.77256  -0.00321   0.00000   0.00079   0.00081   1.77337
    X7      -19.30448   0.09939   0.00000   0.07390   0.07390 -19.23058
    Y7        2.34430  -0.05394   0.00000  -0.05315  -0.05285   2.29145
    Z7        2.53473  -0.00650   0.00000  -0.00553  -0.00553   2.52920
    X8      -21.20025  -0.06587   0.00000   0.03468   0.03467 -21.16558
    Y8        3.33496   0.03505   0.00000  -0.01400  -0.01372   3.32125
    Z8        2.67583   0.00458   0.00000  -0.00223  -0.00224   2.67359
    X9      -14.49630  -0.11750   0.00000  -0.07512  -0.07512 -14.57143
    Y9        2.36911  -0.06425   0.00000  -0.06747  -0.06713   2.30198
    Z9        2.50477  -0.00657   0.00000  -0.00558  -0.00556   2.49921
   X10      -12.56961   0.08513   0.00000  -0.03331  -0.03332 -12.60293
   Y10        3.27184   0.04311   0.00000  -0.00515  -0.00478   3.26706
   Z10        2.60755   0.00463   0.00000  -0.00168  -0.00165   2.60590
   X11      -10.81734  -0.12541   0.00000  -0.09322  -0.09315 -10.91049
   Y11       -3.96690  -0.07309   0.00000  -0.04020  -0.03982  -4.00672
   Z11        1.79730  -0.00510   0.00000  -0.00307  -0.00301   1.79429
   X12       -9.03332   0.08658   0.00000  -0.02436  -0.02430  -9.05762
   Y12       -2.81594   0.05362   0.00000  -0.02240  -0.02200  -2.83793
   Z12        1.87849   0.00376   0.00000  -0.00087  -0.00080   1.87769
   X13      -13.22868  -0.00453   0.00000  -0.00876  -0.00866 -13.23733
   Y13       -8.05292  -0.01500   0.00000   0.04637   0.04673  -8.00619
   Z13        1.39879  -0.00262   0.00000   0.00341   0.00347   1.40227
   X14      -13.31077   0.00264   0.00000   0.00599   0.00612 -13.30465
   Y14      -10.27105   0.04059   0.00000   0.07637   0.07672 -10.19433
   Z14        1.13672   0.00507   0.00000   0.00931   0.00938   1.14610
   X15      -20.59099   0.01054   0.00000   0.02337   0.02347 -20.56752
   Y15       -8.07791   0.00168   0.00000   0.05814   0.05842  -8.01948
   Z15        1.55978   0.00042   0.00000   0.00580   0.00583   1.56561
   X16      -20.39544  -0.00590   0.00000  -0.01567  -0.01554 -20.41098
   Y16      -10.28647   0.02859   0.00000   0.07485   0.07513 -10.21134
   Z16        1.40159   0.00198   0.00000   0.00512   0.00516   1.40674
   X17      -22.95558   0.04213   0.00000   0.06898   0.06905 -22.88653
   Y17       -3.97571  -0.01886   0.00000  -0.02453  -0.02427  -3.99998
   Z17        1.87867  -0.00149   0.00000  -0.00238  -0.00238   1.87629
   X18      -24.78337  -0.01020   0.00000   0.04603   0.04609 -24.73728
   Y18       -2.77477   0.00425   0.00000  -0.03799  -0.03774  -2.81252
   Z18        1.96494   0.00033   0.00000  -0.00287  -0.00288   1.96206
         Item               Value     Threshold  Converged?
 Maximum Force            0.145859     0.000450     NO 
 RMS     Force            0.056274     0.000300     NO 
 Maximum Displacement     0.093152     0.001800     NO 
 RMS     Displacement     0.040845     0.001200     NO 
 Predicted change in Energy=-4.365991D-02
 GradGradGradGradGradGradGradGradGradGradGradGradGradGradGradGradGradGrad

 Unable to Open any file for archive entry.
 1\1\GINC-X10P1N4\Force\RwB97XD\def2SVP\C12N6(2-)\MAYUMIAO\11-Oct-2024\
 0\\# wb97xd def2svp scrf=(smd,solvent=acetonitrile) g09default scf=(xq
 c,maxcycle=64) force guess=read nosymm\\Title Card\\-2,1\C,-8.93628115
 ,-0.86053508,1.11312887\C,-8.94062493,0.50806032,1.25126146\C,-8.19271
 602,-2.13959753,0.98357351\C,-7.02514102,-2.82262903,0.89921551\C,-9.6
 94992,-2.15077425,0.9930729\C,-10.8632528,-2.81893962,0.93799942\C,-10
 .21549103,1.24054759,1.34132038\N,-11.21869081,1.76478745,1.41598976\C
 ,-7.67111415,1.253678,1.32546618\N,-6.65154935,1.73138355,1.37985371\C
 ,-5.72428966,-2.09919289,0.95109092\N,-4.78022828,-1.49012918,0.994055
 78\C,-7.00031445,-4.26142192,0.74020988\N,-7.04375737,-5.43520665,0.60
 152572\C,-10.89628337,-4.27464406,0.82540048\N,-10.79280404,-5.4433641
 6,0.7416873\C,-12.14756948,-2.10385343,0.99414902\N,-13.11479477,-1.46
 834704,1.03980403\\Version=ES64L-G16RevC.01\HF=-784.9816101\RMSD=5.183
 e-09\RMSF=5.627e-02\Dipole=-0.0008703,0.192039,0.0156329\Quadrupole=-3
 93.1226596,154.3234542,238.7992054,-111.8504306,66.2055826,5.8720241\P
 G=C01 [X(C12N6)]\\@
 The archive entry for this job was punched.


 Once you get people laughing, they're
 listening and you can tell them almost anything.
                                 -- Herb Gardner
 Job cpu time:       0 days  0 hours 10 minutes 11.2 seconds.
 Elapsed time:       0 days  0 hours  0 minutes 23.2 seconds.
 File lengths (MBytes):  RWF=    149 Int=      0 D2E=      0 Chk=      8 Scr=      1
 Normal termination of Gaussian 16 at Fri Oct 11 15:53:56 2024.
