 Entering Gaussian System, Link 0=g16
 Input=JOBS/28_B.gjf
 Output=JOBS/28_B.log
 Initial command:
 /data/app/gaussian/C01-avx2//g16/l1.exe "/tmp/Gau-2540262.inp" -scrdir="/tmp/"
 Entering Link 1 = /data/app/gaussian/C01-avx2//g16/l1.exe PID=   2540263.
  
 Copyright (c) 1988-2019, Gaussian, Inc.  All Rights Reserved.
  
 This is part of the Gaussian(R) 16 program.  It is based on
 the Gaussian(R) 09 system (copyright 2009, Gaussian, Inc.),
 the Gaussian(R) 03 system (copyright 2003, Gaussian, Inc.),
 the Gaussian(R) 98 system (copyright 1998, Gaussian, Inc.),
 the Gaussian(R) 94 system (copyright 1995, Gaussian, Inc.),
 the Gaussian 92(TM) system (copyright 1992, Gaussian, Inc.),
 the Gaussian 90(TM) system (copyright 1990, Gaussian, Inc.),
 the Gaussian 88(TM) system (copyright 1988, Gaussian, Inc.),
 the Gaussian 86(TM) system (copyright 1986, Carnegie Mellon
 University), and the Gaussian 82(TM) system (copyright 1983,
 Carnegie Mellon University). Gaussian is a federally registered
 trademark of Gaussian, Inc.
  
 This software contains proprietary and confidential information,
 including trade secrets, belonging to Gaussian, Inc.
  
 This software is provided under written license and may be
 used, copied, transmitted, or stored only in accord with that
 written license.
  
 The following legend is applicable only to US Government
 contracts under FAR:
  
                    RESTRICTED RIGHTS LEGEND
  
 Use, reproduction and disclosure by the US Government is
 subject to restrictions as set forth in subparagraphs (a)
 and (c) of the Commercial Computer Software - Restricted
 Rights clause in FAR 52.227-19.
  
 Gaussian, Inc.
 340 Quinnipiac St., Bldg. 40, Wallingford CT 06492
  
  
 ---------------------------------------------------------------
 Warning -- This program may not be used in any manner that
 competes with the business of Gaussian, Inc. or will provide
 assistance to any competitor of Gaussian, Inc.  The licensee
 of this program is prohibited from giving any competitor of
 Gaussian, Inc. access to this program.  By using this program,
 the user acknowledges that Gaussian, Inc. is engaged in the
 business of creating and licensing software in the field of
 computational chemistry and represents and warrants to the
 licensee that it is not a competitor of Gaussian, Inc. and that
 it will not use this program in any manner prohibited above.
 ---------------------------------------------------------------
  

 Cite this work as:
 Gaussian 16, Revision C.01,
 M. J. Frisch, G. W. Trucks, H. B. Schlegel, G. E. Scuseria, 
 M. A. Robb, J. R. Cheeseman, G. Scalmani, V. Barone, 
 G. A. Petersson, H. Nakatsuji, X. Li, M. Caricato, A. V. Marenich, 
 J. Bloino, B. G. Janesko, R. Gomperts, B. Mennucci, H. P. Hratchian, 
 J. V. Ortiz, A. F. Izmaylov, J. L. Sonnenberg, D. Williams-Young, 
 F. Ding, F. Lipparini, F. Egidi, J. Goings, B. Peng, A. Petrone, 
 T. Henderson, D. Ranasinghe, V. G. Zakrzewski, J. Gao, N. Rega, 
 G. Zheng, W. Liang, M. Hada, M. Ehara, K. Toyota, R. Fukuda, 
 J. Hasegawa, M. Ishida, T. Nakajima, Y. Honda, O. Kitao, H. Nakai, 
 T. Vreven, K. Throssell, J. A. Montgomery, Jr., J. E. Peralta, 
 F. Ogliaro, M. J. Bearpark, J. J. Heyd, E. N. Brothers, K. N. Kudin, 
 V. N. Staroverov, T. A. Keith, R. Kobayashi, J. Normand, 
 K. Raghavachari, A. P. Rendell, J. C. Burant, S. S. Iyengar, 
 J. Tomasi, M. Cossi, J. M. Millam, M. Klene, C. Adamo, R. Cammi, 
 J. W. Ochterski, R. L. Martin, K. Morokuma, O. Farkas, 
 J. B. Foresman, and D. J. Fox, Gaussian, Inc., Wallingford CT, 2019.
 
 ******************************************
 Gaussian 16:  ES64L-G16RevC.01  3-Jul-2019
                11-Oct-2024 
 ******************************************
 %chk=b.chk
 %nprocshared=28
 Will use up to   28 processors via shared memory.
 %mem=48gb
 ----------------------------------------------------------------------
 # wb97xd def2svp scrf=(smd,solvent=acetonitrile) g09default scf=(xqc,m
 axcycle=64) force guess=read nosymm
 ----------------------------------------------------------------------
 1/10=7,30=1,38=1,158=3,167=1/1,3;
 2/12=2,15=1,17=6,18=5,40=1/2;
 3/5=43,7=101,11=2,25=1,27=10,30=1,70=32201,71=1,72=2,74=-58,75=-4,116=-2,158=3/1,2,3;
 4/5=1,60=-1/1;
 5/5=2,7=64,8=3,13=1,38=6,53=2,87=10/2,8;
 6/7=2,8=2,9=2,10=2,28=1,87=10/1;
 7/29=1,30=1,87=10/1,2,3,16;
 1/10=7,30=1,158=3,167=1/3;
 99//99;
 Using 2006 physical constants.
 ----------
 Title Card
 ----------
 Symbolic Z-matrix:
 Charge = -1 Multiplicity = 2
 6                    -8.93628  -0.86054   1.11313 
 6                    -8.94062   0.50806   1.25126 
 6                    -8.19272  -2.1396    0.98357 
 6                    -7.02514  -2.82263   0.89922 
 6                    -9.69499  -2.15077   0.99307 
 6                    -10.86325  -2.81894   0.938 
 6                    -10.21549   1.24055   1.34132 
 7                    -11.21869   1.76479   1.41599 
 6                    -7.67111   1.25368   1.32547 
 7                    -6.65155   1.73138   1.37985 
 6                    -5.72429  -2.09919   0.95109 
 7                    -4.78023  -1.49013   0.99406 
 6                    -7.00031  -4.26142   0.74021 
 7                    -7.04376  -5.43521   0.60153 
 6                    -10.89628  -4.27464   0.8254 
 7                    -10.7928  -5.44336   0.74169 
 6                    -12.14757  -2.10385   0.99415 
 7                    -13.11479  -1.46835   1.0398 
 

 GradGradGradGradGradGradGradGradGradGradGradGradGradGradGradGradGradGrad
 Berny optimization.
 Initialization pass.
 Trust Radius=3.00D-01 FncErr=1.00D-07 GrdErr=1.00D-07 EigMax=2.50D+02 EigMin=1.00D-04
 Number of steps in this run=      2 maximum allowed number of steps=      2.
 GradGradGradGradGradGradGradGradGradGradGradGradGradGradGradGradGradGrad

                          Input orientation:                          
 ---------------------------------------------------------------------
 Center     Atomic      Atomic             Coordinates (Angstroms)
 Number     Number       Type             X           Y           Z
 ---------------------------------------------------------------------
      1          6           0       -8.936281   -0.860535    1.113129
      2          6           0       -8.940625    0.508060    1.251261
      3          6           0       -8.192716   -2.139598    0.983574
      4          6           0       -7.025141   -2.822629    0.899216
      5          6           0       -9.694992   -2.150774    0.993073
      6          6           0      -10.863253   -2.818940    0.937999
      7          6           0      -10.215491    1.240548    1.341320
      8          7           0      -11.218691    1.764787    1.415990
      9          6           0       -7.671114    1.253678    1.325466
     10          7           0       -6.651549    1.731384    1.379854
     11          6           0       -5.724290   -2.099193    0.951091
     12          7           0       -4.780228   -1.490129    0.994056
     13          6           0       -7.000314   -4.261422    0.740210
     14          7           0       -7.043757   -5.435207    0.601526
     15          6           0      -10.896283   -4.274644    0.825400
     16          7           0      -10.792804   -5.443364    0.741687
     17          6           0      -12.147569   -2.103853    0.994149
     18          7           0      -13.114795   -1.468347    1.039804
 ---------------------------------------------------------------------
                    Distance matrix (angstroms):
                    1          2          3          4          5
     1  C    0.000000
     2  C    1.375555   0.000000
     3  C    1.485151   2.764257   0.000000
     4  C    2.747368   3.858304   1.355315   0.000000
     5  C    1.501590   2.775812   1.502348   2.754687   0.000000
     6  C    2.753042   3.855329   2.755966   3.838310   1.346964
     7  C    2.470425   1.473069   3.955374   5.184901   3.448661
     8  N    3.491910   2.606930   4.958602   6.236770   4.222812
     9  C    2.472980   1.474147   3.450113   4.149126   3.974527
    10  N    3.465427   2.598639   4.185299   4.594520   4.948059
    11  C    3.446363   4.151227   2.468971   1.489384   3.971259
    12  N    4.205157   4.622534   3.473758   2.612314   4.958967
    13  C    3.931039   5.174354   2.446055   1.447765   3.432209
    14  N    4.977048   6.272375   3.510998   2.629549   4.239086
    15  C    3.947219   5.184614   3.448582   4.135159   2.445821
    16  N    4.958525   6.253774   4.211157   4.592206   3.479876
    17  C    3.445630   4.143995   3.955029   5.173483   2.453027
    18  N    4.223125   4.623267   4.967957   6.240010   3.487541
                    6          7          8          9         10
     6  C    0.000000
     7  C    4.130581   0.000000
     8  N    4.622268   1.134378   0.000000
     9  C    5.189036   2.544460   3.585349   0.000000
    10  N    6.216037   3.597789   4.567407   1.127241   0.000000
    11  C    5.189138   5.610440   6.733121   3.895128   3.964463
    12  N    6.226722   6.092559   7.226777   3.999441   3.745508
    13  C    4.128216   6.400810   7.386919   5.586486   6.036928
    14  N    4.641833   7.427845   8.362615   6.757133   7.219393
    15  C    1.460426   5.580949   6.076798   6.419823   7.375470
    16  N    2.632699   6.735542   7.252139   7.411890   8.308685
    17  C    1.471044   3.877947   4.000893   5.605483   6.712976
    18  N    2.627528   3.979320   3.766946   6.093003   7.219934
                   11         12         13         14         15
    11  C    0.000000
    12  N    1.124303   0.000000
    13  C    2.519513   3.559956   0.000000
    14  N    3.604466   4.565225   1.182747   0.000000
    15  C    5.612299   6.722209   3.896923   4.029762   0.000000
    16  N    6.075950   7.200196   3.972401   3.751675   1.176275
    17  C    6.423426   7.392860   5.586933   6.107452   2.511280
    18  N    7.417911   8.334721   6.728885   7.265367   3.583722
                   16         17         18
    16  N    0.000000
    17  C    3.612680   0.000000
    18  N    4.613163   1.158222   0.000000
 Symmetry turned off by external request.
 Stoichiometry    C12N6(1-,2)
 Framework group  C1[X(C12N6)]
 Deg. of freedom    48
 Full point group                 C1      NOp   1
 Rotational constants (GHZ):           0.4188884           0.4160681           0.2087660
 Standard basis: def2SVP (5D, 7F)
   252 basis functions,   450 primitive gaussians,   270 cartesian basis functions
    58 alpha electrons       57 beta electrons
       nuclear repulsion energy       951.9808954438 Hartrees.
 NAtoms=   18 NActive=   18 NUniq=   18 SFac= 1.00D+00 NAtFMM=   60 NAOKFM=F Big=F
 Integral buffers will be    131072 words long.
 Raffenetti 2 integral format.
 Two-electron integral symmetry is turned off.
 Nuclear repulsion after empirical dispersion term =      951.9695041335 Hartrees.
 Force PCM accuracy= 1.00D-10.
 ------------------------------------------------------------------------------
 Polarizable Continuum Model (PCM)
 =================================
 Model                : PCM (using non-symmetric T matrix).
 Atomic radii         : SMD-Coulomb.
 Polarization charges : Total charges.
 Charge compensation  : None.
 Solution method      : On-the-fly selection.
 Cavity type          : VdW (van der Waals Surface) (Alpha=1.000).
 Cavity algorithm     : GePol (No added spheres)
                        Default sphere list used, NSphG=   18.
                        Lebedev-Laikov grids with approx.  5.0 points / Ang**2.
                        Smoothing algorithm: York/Karplus (Gamma=1.0000).
                        Polarization charges: spherical gaussians, with
                                              point-specific exponents (IZeta= 3).
                        Self-potential: point-specific (ISelfS= 7).
                        Self-field    : sphere-specific E.n sum rule (ISelfD= 2).
 1st derivatives      : Analytical E(r).r(x)/FMM algorithm (CHGder, D1EAlg=3).
                        Cavity 1st derivative terms included.
 Solvent              : Acetonitrile, Eps=  35.688000 Eps(inf)=   1.806874
 ------------------------------------------------------------------------------
 Spheres list:
 ISph  on   Nord     Re0    Alpha      Xe            Ye            Ze
    1   C      1    1.8500  1.000     -8.936281     -0.860535      1.113129
    2   C      2    1.8500  1.000     -8.940625      0.508060      1.251261
    3   C      3    1.8500  1.000     -8.192716     -2.139598      0.983574
    4   C      4    1.8500  1.000     -7.025141     -2.822629      0.899216
    5   C      5    1.8500  1.000     -9.694992     -2.150774      0.993073
    6   C      6    1.8500  1.000    -10.863253     -2.818940      0.937999
    7   C      7    1.8500  1.000    -10.215491      1.240548      1.341320
    8   N      8    1.8900  1.000    -11.218691      1.764787      1.415990
    9   C      9    1.8500  1.000     -7.671114      1.253678      1.325466
   10   N     10    1.8900  1.000     -6.651549      1.731384      1.379854
   11   C     11    1.8500  1.000     -5.724290     -2.099193      0.951091
   12   N     12    1.8900  1.000     -4.780228     -1.490129      0.994056
   13   C     13    1.8500  1.000     -7.000314     -4.261422      0.740210
   14   N     14    1.8900  1.000     -7.043757     -5.435207      0.601526
   15   C     15    1.8500  1.000    -10.896283     -4.274644      0.825400
   16   N     16    1.8900  1.000    -10.792804     -5.443364      0.741687
   17   C     17    1.8500  1.000    -12.147569     -2.103853      0.994149
   18   N     18    1.8900  1.000    -13.114795     -1.468347      1.039804
 ------------------------------------------------------------------------------
 ------------------------------------------------------------------------------
 Atomic radii for non-electrostatic terms: SMD-CDS.
 ------------------------------------------------------------------------------
 Nuclear repulsion after PCM non-electrostatic terms =      951.9782697229 Hartrees.
 One-electron integrals computed using PRISM.
   1 Symmetry operations used in ECPInt.
 ECPInt:  NShTT=    5886 NPrTT=   23670 LenC2=    5389 LenP2D=   14853.
 LDataN:  DoStor=T MaxTD1= 4 Len=   56
 NBasis=   252 RedAO= T EigKep=  3.03D-04  NBF=   252
 NBsUse=   252 1.00D-06 EigRej= -1.00D+00 NBFU=   252
 Initial guess from the checkpoint file:  "b.chk"
 B after Tr=    -0.000842    0.001934   -0.002832
         Rot=    1.000000   -0.000077   -0.000098   -0.000048 Ang=  -0.02 deg.
 Initial guess <Sx>= 0.0000 <Sy>= 0.0000 <Sz>= 0.5000 <S**2>= 0.7788 S= 0.5143
 Requested convergence on RMS density matrix=1.00D-08 within  64 cycles.
 Requested convergence on MAX density matrix=1.00D-06.
 Requested convergence on             energy=1.00D-06.
 No special actions if energy rises.
 Inv3:  Mode=1 IEnd=    19599408.
 Iteration    1 A*A^-1 deviation from unit magnitude is 3.33D-15 for   1848.
 Iteration    1 A*A^-1 deviation from orthogonality  is 2.70D-15 for   1721    249.
 Iteration    1 A^-1*A deviation from unit magnitude is 4.44D-15 for    588.
 Iteration    1 A^-1*A deviation from orthogonality  is 7.65D-11 for    828    810.
 Error on total polarization charges =  0.02000
 SCF Done:  E(UwB97XD) =  -784.825884140     A.U. after   19 cycles
            NFock= 19  Conv=0.41D-08     -V/T= 2.0103
 <Sx>= 0.0000 <Sy>= 0.0000 <Sz>= 0.5000 <S**2>= 0.7819 S= 0.5158
 <L.S>=  0.00000000000    
 SMD-CDS (non-electrostatic) energy       (kcal/mol) =       5.50
 (included in total energy above)
 Annihilation of the first spin contaminant:
 S**2 before annihilation     0.7819,   after     0.7508
 QCSCF skips out because SCF is already converged.

 **********************************************************************

            Population analysis using the SCF Density.

 **********************************************************************

 Alpha  occ. eigenvalues --  -14.46533 -14.46470 -14.46087 -14.45458 -14.45326
 Alpha  occ. eigenvalues --  -14.45307 -10.39000 -10.38931 -10.38883 -10.38852
 Alpha  occ. eigenvalues --  -10.38773 -10.38756 -10.36824 -10.36774 -10.36438
 Alpha  occ. eigenvalues --  -10.35867 -10.35736 -10.35726  -1.03224  -1.02712
 Alpha  occ. eigenvalues --   -1.02122  -1.01919  -1.00906  -1.00518  -0.99941
 Alpha  occ. eigenvalues --   -0.91910  -0.91559  -0.87949  -0.71886  -0.71219
 Alpha  occ. eigenvalues --   -0.67986  -0.67567  -0.67063  -0.66756  -0.54078
 Alpha  occ. eigenvalues --   -0.50586  -0.50451  -0.48830  -0.48599  -0.47719
 Alpha  occ. eigenvalues --   -0.47570  -0.47470  -0.47024  -0.46505  -0.46325
 Alpha  occ. eigenvalues --   -0.45697  -0.45688  -0.45584  -0.44926  -0.44899
 Alpha  occ. eigenvalues --   -0.44704  -0.44194  -0.43744  -0.43080  -0.42583
 Alpha  occ. eigenvalues --   -0.36225  -0.36183  -0.26531
 Alpha virt. eigenvalues --    0.03858   0.04435   0.06593   0.07065   0.07819
 Alpha virt. eigenvalues --    0.08416   0.10127   0.10825   0.11620   0.11918
 Alpha virt. eigenvalues --    0.12105   0.14231   0.18300   0.18453   0.20069
 Alpha virt. eigenvalues --    0.22051   0.23983   0.24377   0.25202   0.25495
 Alpha virt. eigenvalues --    0.27531   0.28517   0.28886   0.30863   0.31025
 Alpha virt. eigenvalues --    0.32206   0.33895   0.45775   0.46106   0.49635
 Alpha virt. eigenvalues --    0.50026   0.50932   0.51026   0.53092   0.53191
 Alpha virt. eigenvalues --    0.53277   0.53710   0.54206   0.55996   0.59968
 Alpha virt. eigenvalues --    0.60009   0.60241   0.61106   0.61384   0.63393
 Alpha virt. eigenvalues --    0.63762   0.68791   0.69007   0.69306   0.70675
 Alpha virt. eigenvalues --    0.70999   0.72235   0.72468   0.72652   0.73081
 Alpha virt. eigenvalues --    0.73207   0.73268   0.73980   0.74350   0.74651
 Alpha virt. eigenvalues --    0.77964   0.78173   0.78722   0.80674   0.80761
 Alpha virt. eigenvalues --    0.83117   0.83585   0.85765   0.86797   0.92389
 Alpha virt. eigenvalues --    0.92660   0.92769   0.93227   0.93308   0.94064
 Alpha virt. eigenvalues --    0.95320   0.97836   0.98352   0.98624   0.98900
 Alpha virt. eigenvalues --    1.00590   1.00997   1.01097   1.01711   1.02736
 Alpha virt. eigenvalues --    1.03577   1.05098   1.06217   1.08127   1.10119
 Alpha virt. eigenvalues --    1.11941   1.14934   1.16740   1.17256   1.17346
 Alpha virt. eigenvalues --    1.20865   1.22053   1.22376   1.24004   1.31878
 Alpha virt. eigenvalues --    1.32626   1.32918   1.38573   1.39046   1.41844
 Alpha virt. eigenvalues --    1.42635   1.44489   1.44586   1.45054   1.55259
 Alpha virt. eigenvalues --    1.59091   1.66495   1.67774   1.67924   1.68356
 Alpha virt. eigenvalues --    1.68720   1.68942   1.73571   1.73940   1.76342
 Alpha virt. eigenvalues --    1.76620   1.77127   1.77501   1.78278   1.78719
 Alpha virt. eigenvalues --    1.79298   1.80243   1.83561   1.90674   1.92910
 Alpha virt. eigenvalues --    1.94375   1.96045   1.96670   1.98034   1.99583
 Alpha virt. eigenvalues --    2.00538   2.01103   2.02579   2.07278   2.07831
 Alpha virt. eigenvalues --    2.10369   2.17039   2.17666   2.20396   2.22319
 Alpha virt. eigenvalues --    2.24373   2.26164   2.26727   2.30666   2.31502
 Alpha virt. eigenvalues --    2.32589   2.32963   2.33667   2.34124   2.34313
 Alpha virt. eigenvalues --    2.34842   2.35574   2.35677   2.35795   2.36035
 Alpha virt. eigenvalues --    2.37020   2.37571   2.53428   2.53756   2.54786
 Alpha virt. eigenvalues --    2.64881   2.65833   2.87668   2.90501   2.93990
 Alpha virt. eigenvalues --    2.95053   2.96971   2.97537   3.00366   3.01101
 Alpha virt. eigenvalues --    3.03247   3.05477   3.06010   3.06897   3.06984
 Alpha virt. eigenvalues --    3.09749   3.11541   3.17691   3.19208   3.26439
 Alpha virt. eigenvalues --    3.36505   3.37129   3.37291   3.47626   3.51005
 Alpha virt. eigenvalues --    3.56146   3.60963   3.63925   3.73828
  Beta  occ. eigenvalues --  -14.46338 -14.46301 -14.45937 -14.45307 -14.45182
  Beta  occ. eigenvalues --  -14.45178 -10.38972 -10.38897 -10.38858 -10.38609
  Beta  occ. eigenvalues --  -10.38441 -10.38435 -10.36918 -10.36858 -10.36514
  Beta  occ. eigenvalues --  -10.35945 -10.35804 -10.35801  -1.02912  -1.02458
  Beta  occ. eigenvalues --   -1.01833  -1.01655  -1.00591  -1.00227  -0.99560
  Beta  occ. eigenvalues --   -0.91220  -0.90798  -0.86930  -0.71702  -0.71026
  Beta  occ. eigenvalues --   -0.67759  -0.67324  -0.66802  -0.66537  -0.53037
  Beta  occ. eigenvalues --   -0.49352  -0.49254  -0.48635  -0.48402  -0.47409
  Beta  occ. eigenvalues --   -0.47270  -0.47178  -0.46740  -0.46356  -0.46169
  Beta  occ. eigenvalues --   -0.45572  -0.44934  -0.44790  -0.44750  -0.44061
  Beta  occ. eigenvalues --   -0.44038  -0.43920  -0.43631  -0.42949  -0.42447
  Beta  occ. eigenvalues --   -0.33876  -0.33546
  Beta virt. eigenvalues --   -0.08921   0.04984   0.05595   0.06691   0.07153
  Beta virt. eigenvalues --    0.07889   0.08420   0.10998   0.11648   0.11969
  Beta virt. eigenvalues --    0.12160   0.12423   0.14515   0.18585   0.18752
  Beta virt. eigenvalues --    0.21585   0.21986   0.25400   0.25575   0.25708
  Beta virt. eigenvalues --    0.26040   0.27794   0.28640   0.29032   0.31351
  Beta virt. eigenvalues --    0.31480   0.32781   0.34017   0.45949   0.46274
  Beta virt. eigenvalues --    0.49725   0.50108   0.51020   0.51124   0.53159
  Beta virt. eigenvalues --    0.53228   0.53290   0.53850   0.54348   0.56165
  Beta virt. eigenvalues --    0.59881   0.59929   0.60164   0.61143   0.61432
  Beta virt. eigenvalues --    0.63271   0.63964   0.68931   0.69177   0.69620
  Beta virt. eigenvalues --    0.70848   0.71186   0.72360   0.72538   0.72707
  Beta virt. eigenvalues --    0.73230   0.73379   0.73450   0.74100   0.74456
  Beta virt. eigenvalues --    0.74758   0.77979   0.78189   0.79679   0.81387
  Beta virt. eigenvalues --    0.81478   0.83255   0.83710   0.86044   0.86882
  Beta virt. eigenvalues --    0.92528   0.92798   0.93317   0.93498   0.93695
  Beta virt. eigenvalues --    0.94580   0.95922   0.98384   0.98823   0.98876
  Beta virt. eigenvalues --    0.99106   1.00792   1.01122   1.01204   1.01887
  Beta virt. eigenvalues --    1.02868   1.03873   1.05300   1.06361   1.08417
  Beta virt. eigenvalues --    1.10238   1.12044   1.15113   1.16999   1.17480
  Beta virt. eigenvalues --    1.17584   1.21244   1.22305   1.22643   1.24654
  Beta virt. eigenvalues --    1.32010   1.32810   1.33108   1.39209   1.39660
  Beta virt. eigenvalues --    1.42537   1.42776   1.44680   1.45277   1.45794
  Beta virt. eigenvalues --    1.55327   1.59077   1.66360   1.67630   1.67770
  Beta virt. eigenvalues --    1.68185   1.68532   1.68722   1.73526   1.73860
  Beta virt. eigenvalues --    1.76526   1.76773   1.77097   1.77442   1.78169
  Beta virt. eigenvalues --    1.78658   1.79200   1.80469   1.83466   1.90926
  Beta virt. eigenvalues --    1.92960   1.94475   1.96574   1.97209   1.98213
  Beta virt. eigenvalues --    1.99910   2.00681   2.01580   2.03159   2.07630
  Beta virt. eigenvalues --    2.08162   2.10627   2.17956   2.18621   2.21518
  Beta virt. eigenvalues --    2.23042   2.25009   2.26848   2.27369   2.31189
  Beta virt. eigenvalues --    2.31998   2.33236   2.33591   2.34204   2.34684
  Beta virt. eigenvalues --    2.34849   2.35373   2.36089   2.36190   2.36344
  Beta virt. eigenvalues --    2.36554   2.37508   2.38104   2.53598   2.53956
  Beta virt. eigenvalues --    2.55077   2.65450   2.66411   2.87757   2.90685
  Beta virt. eigenvalues --    2.94132   2.95166   2.97097   2.97669   3.00469
  Beta virt. eigenvalues --    3.01562   3.03745   3.05914   3.06223   3.07090
  Beta virt. eigenvalues --    3.07402   3.10150   3.11976   3.17913   3.19432
  Beta virt. eigenvalues --    3.26603   3.36696   3.37336   3.37508   3.47797
  Beta virt. eigenvalues --    3.51182   3.56318   3.61136   3.64105   3.74006
          Condensed to atoms (all electrons):
               1          2          3          4          5          6
     1  C    4.907167   0.556764   0.275858  -0.096566   0.282464  -0.093345
     2  C    0.556764   5.289662  -0.087440  -0.007466  -0.081750  -0.007196
     3  C    0.275858  -0.087440   4.890681   0.555650   0.274345  -0.093806
     4  C   -0.096566  -0.007466   0.555650   5.323439  -0.091322  -0.008418
     5  C    0.282464  -0.081750   0.274345  -0.091322   4.866777   0.556961
     6  C   -0.093345  -0.007196  -0.093806  -0.008418   0.556961   5.328227
     7  C    0.003134   0.386656   0.004644  -0.000214  -0.012859   0.000854
     8  N   -0.001165  -0.024636  -0.000016  -0.000001  -0.000304   0.000046
     9  C   -0.000007   0.384700  -0.013541   0.000817   0.005260  -0.000209
    10  N   -0.001265  -0.025249  -0.000389   0.000054   0.000010  -0.000001
    11  C   -0.012819   0.000928   0.001042   0.374637   0.004876  -0.000209
    12  N   -0.000353   0.000055  -0.001497  -0.023619  -0.000010  -0.000001
    13  C    0.004663  -0.000240   0.006312   0.391852  -0.014107   0.000822
    14  N   -0.000018  -0.000001  -0.001071  -0.027553  -0.000273   0.000046
    15  C    0.005608  -0.000203  -0.014387   0.000999   0.002579   0.379417
    16  N    0.000020  -0.000000  -0.000333   0.000070  -0.000913  -0.027166
    17  C   -0.014022   0.000935   0.004877  -0.000253   0.002062   0.378641
    18  N   -0.000338   0.000066  -0.000002  -0.000001  -0.001073  -0.024827
               7          8          9         10         11         12
     1  C    0.003134  -0.001165  -0.000007  -0.001265  -0.012819  -0.000353
     2  C    0.386656  -0.024636   0.384700  -0.025249   0.000928   0.000055
     3  C    0.004644  -0.000016  -0.013541  -0.000389   0.001042  -0.001497
     4  C   -0.000214  -0.000001   0.000817   0.000054   0.374637  -0.023619
     5  C   -0.012859  -0.000304   0.005260   0.000010   0.004876  -0.000010
     6  C    0.000854   0.000046  -0.000209  -0.000001  -0.000209  -0.000001
     7  C    4.791321   0.942242  -0.027927   0.001243   0.000030   0.000001
     8  N    0.942242   6.060142   0.001080   0.000029   0.000000   0.000000
     9  C   -0.027927   0.001080   4.787936   0.949667   0.000444   0.000217
    10  N    0.001243   0.000029   0.949667   6.045576   0.000454  -0.000750
    11  C    0.000030   0.000000   0.000444   0.000454   4.791581   0.957305
    12  N    0.000001   0.000000   0.000217  -0.000750   0.957305   6.032609
    13  C   -0.000003  -0.000000   0.000039   0.000001  -0.027080   0.001327
    14  N   -0.000000  -0.000000   0.000000   0.000000   0.001279   0.000032
    15  C    0.000035   0.000001  -0.000002  -0.000000   0.000033   0.000000
    16  N    0.000000   0.000000  -0.000000   0.000000   0.000001   0.000000
    17  C    0.000499   0.000139   0.000034   0.000000  -0.000002  -0.000000
    18  N    0.000439  -0.000721   0.000001   0.000000  -0.000000  -0.000000
              13         14         15         16         17         18
     1  C    0.004663  -0.000018   0.005608   0.000020  -0.014022  -0.000338
     2  C   -0.000240  -0.000001  -0.000203  -0.000000   0.000935   0.000066
     3  C    0.006312  -0.001071  -0.014387  -0.000333   0.004877  -0.000002
     4  C    0.391852  -0.027553   0.000999   0.000070  -0.000253  -0.000001
     5  C   -0.014107  -0.000273   0.002579  -0.000913   0.002062  -0.001073
     6  C    0.000822   0.000046   0.379417  -0.027166   0.378641  -0.024827
     7  C   -0.000003  -0.000000   0.000035   0.000000   0.000499   0.000439
     8  N   -0.000000  -0.000000   0.000001   0.000000   0.000139  -0.000721
     9  C    0.000039   0.000000  -0.000002  -0.000000   0.000034   0.000001
    10  N    0.000001   0.000000  -0.000000   0.000000   0.000000   0.000000
    11  C   -0.027080   0.001279   0.000033   0.000001  -0.000002  -0.000000
    12  N    0.001327   0.000032   0.000000   0.000000  -0.000000  -0.000000
    13  C    4.814493   0.887879   0.000322   0.000417   0.000038   0.000000
    14  N    0.887879   6.159908   0.000117  -0.000683   0.000001   0.000000
    15  C    0.000322   0.000117   4.815878   0.897262  -0.025449   0.001254
    16  N    0.000417  -0.000683   0.897262   6.146550   0.001353   0.000026
    17  C    0.000038   0.000001  -0.025449   0.001353   4.809263   0.917011
    18  N    0.000000   0.000000   0.001254   0.000026   0.917011   6.106971
          Atomic-Atomic Spin Densities.
               1          2          3          4          5          6
     1  C   -0.019296  -0.075559   0.037166  -0.006639   0.035089  -0.006471
     2  C   -0.075559   0.409654  -0.006686   0.000986  -0.006484   0.000992
     3  C    0.037166  -0.006686  -0.011196  -0.075746   0.034167  -0.006661
     4  C   -0.006639   0.000986  -0.075746   0.386232  -0.006868   0.000999
     5  C    0.035089  -0.006484   0.034167  -0.006868  -0.011107  -0.072996
     6  C   -0.006471   0.000992  -0.006661   0.000999  -0.072996   0.365017
     7  C   -0.000632   0.006609  -0.000119  -0.000008   0.000234  -0.000043
     8  N    0.000475  -0.004903   0.000007  -0.000000   0.000047  -0.000027
     9  C   -0.000643   0.006054   0.000203  -0.000039  -0.000097  -0.000007
    10  N    0.000517  -0.004903   0.000048  -0.000030   0.000007  -0.000000
    11  C    0.000172  -0.000027  -0.000503   0.005348  -0.000091  -0.000007
    12  N    0.000042  -0.000025   0.000452  -0.004380   0.000006  -0.000000
    13  C   -0.000134  -0.000008  -0.000373   0.009358   0.000244  -0.000049
    14  N    0.000007  -0.000000   0.000539  -0.005061   0.000049  -0.000027
    15  C   -0.000092  -0.000007   0.000167  -0.000033  -0.000192   0.007930
    16  N    0.000008  -0.000000   0.000047  -0.000029   0.000544  -0.004635
    17  C    0.000189  -0.000027  -0.000085  -0.000008  -0.000295   0.006868
    18  N    0.000044  -0.000026   0.000007  -0.000000   0.000473  -0.004440
               7          8          9         10         11         12
     1  C   -0.000632   0.000475  -0.000643   0.000517   0.000172   0.000042
     2  C    0.006609  -0.004903   0.006054  -0.004903  -0.000027  -0.000025
     3  C   -0.000119   0.000007   0.000203   0.000048  -0.000503   0.000452
     4  C   -0.000008  -0.000000  -0.000039  -0.000030   0.005348  -0.004380
     5  C    0.000234   0.000047  -0.000097   0.000007  -0.000091   0.000006
     6  C   -0.000043  -0.000027  -0.000007  -0.000000  -0.000007  -0.000000
     7  C   -0.063046  -0.001920  -0.001258   0.000027  -0.000001  -0.000000
     8  N   -0.001920   0.093955   0.000048   0.000006  -0.000000   0.000000
     9  C   -0.001258   0.000048  -0.061381  -0.001681   0.000003   0.000007
    10  N    0.000027   0.000006  -0.001681   0.090602   0.000005   0.000033
    11  C   -0.000001  -0.000000   0.000003   0.000005  -0.054946  -0.001288
    12  N   -0.000000   0.000000   0.000007   0.000033  -0.001288   0.078712
    13  C    0.000000  -0.000000  -0.000002  -0.000000  -0.001150   0.000052
    14  N   -0.000000   0.000000  -0.000000   0.000000   0.000058   0.000006
    15  C   -0.000001   0.000000   0.000000  -0.000000  -0.000001  -0.000000
    16  N   -0.000000   0.000000  -0.000000   0.000000   0.000000   0.000000
    17  C    0.000002   0.000007  -0.000001  -0.000000   0.000000  -0.000000
    18  N    0.000006   0.000033  -0.000000   0.000000  -0.000000   0.000000
              13         14         15         16         17         18
     1  C   -0.000134   0.000007  -0.000092   0.000008   0.000189   0.000044
     2  C   -0.000008  -0.000000  -0.000007  -0.000000  -0.000027  -0.000026
     3  C   -0.000373   0.000539   0.000167   0.000047  -0.000085   0.000007
     4  C    0.009358  -0.005061  -0.000033  -0.000029  -0.000008  -0.000000
     5  C    0.000244   0.000049  -0.000192   0.000544  -0.000295   0.000473
     6  C   -0.000049  -0.000027   0.007930  -0.004635   0.006868  -0.004440
     7  C    0.000000  -0.000000  -0.000001  -0.000000   0.000002   0.000006
     8  N   -0.000000   0.000000   0.000000   0.000000   0.000007   0.000033
     9  C   -0.000002  -0.000000   0.000000  -0.000000  -0.000001  -0.000000
    10  N   -0.000000   0.000000  -0.000000   0.000000  -0.000000   0.000000
    11  C   -0.001150   0.000058  -0.000001   0.000000   0.000000  -0.000000
    12  N    0.000052   0.000006  -0.000000   0.000000  -0.000000   0.000000
    13  C   -0.077753  -0.003675   0.000003   0.000007  -0.000001  -0.000000
    14  N   -0.003675   0.121447   0.000008   0.000039   0.000000   0.000000
    15  C    0.000003   0.000008  -0.069182  -0.002958  -0.001195   0.000051
    16  N    0.000007   0.000039  -0.002958   0.105465   0.000039   0.000005
    17  C   -0.000001   0.000000  -0.001195   0.000039  -0.062227  -0.002221
    18  N   -0.000000   0.000000   0.000051   0.000005  -0.002221   0.092913
 Mulliken charges and spin densities:
               1          2
     1  C    0.184217  -0.035757
     2  C   -0.385584   0.325638
     3  C    0.199072  -0.028567
     4  C   -0.392107   0.304084
     5  C    0.207279  -0.027268
     6  C   -0.389837   0.286443
     7  C   -0.090097  -0.060150
     8  N    0.023164   0.087727
     9  C   -0.088510  -0.058795
    10  N    0.030620   0.084632
    11  C   -0.092500  -0.052428
    12  N    0.034682   0.073615
    13  C   -0.066734  -0.073481
    14  N   -0.019665   0.113391
    15  C   -0.063463  -0.065502
    16  N   -0.016603   0.098530
    17  C   -0.075125  -0.058955
    18  N    0.001193   0.086844
 Sum of Mulliken charges =  -1.00000   1.00000
 Mulliken charges and spin densities with hydrogens summed into heavy atoms:
               1          2
     1  C    0.184217  -0.035757
     2  C   -0.385584   0.325638
     3  C    0.199072  -0.028567
     4  C   -0.392107   0.304084
     5  C    0.207279  -0.027268
     6  C   -0.389837   0.286443
     7  C   -0.090097  -0.060150
     8  N    0.023164   0.087727
     9  C   -0.088510  -0.058795
    10  N    0.030620   0.084632
    11  C   -0.092500  -0.052428
    12  N    0.034682   0.073615
    13  C   -0.066734  -0.073481
    14  N   -0.019665   0.113391
    15  C   -0.063463  -0.065502
    16  N   -0.016603   0.098530
    17  C   -0.075125  -0.058955
    18  N    0.001193   0.086844
 Electronic spatial extent (au):  <R**2>=          39109.4105
 Charge=             -1.0000 electrons
 Dipole moment (field-independent basis, Debye):
    X=             42.9493    Y=              8.6222    Z=             -4.9134  Tot=             44.0809
 Quadrupole moment (field-independent basis, Debye-Ang):
   XX=           -553.8163   YY=           -185.1418   ZZ=           -104.6721
   XY=            -76.3236   XZ=             44.6795   YZ=              1.7236
 Traceless Quadrupole moment (field-independent basis, Debye-Ang):
   XX=           -272.6062   YY=             96.0683   ZZ=            176.5380
   XY=            -76.3236   XZ=             44.6795   YZ=              1.7236
 Octapole moment (field-independent basis, Debye-Ang**2):
  XXX=           7989.0075  YYY=            984.0170  ZZZ=           -312.5197  XYY=           1652.3640
  XXY=            893.0608  XXZ=           -586.6572  XZZ=            937.5105  YZZ=            166.8555
  YYZ=           -159.7604  XYZ=            -16.7898
 Hexadecapole moment (field-independent basis, Debye-Ang**3):
 XXXX=        -116579.0238 YYYY=          -7968.6540 ZZZZ=           -767.6556 XXXY=         -11805.6803
 XXXZ=           8557.0936 YYYX=          -8773.0057 YYYZ=            643.6550 ZZZX=           2813.1354
 ZZZY=            364.0524 XXYY=         -16455.1019 XXZZ=          -9143.3259 YYZZ=           -990.5788
 XXYZ=            304.1310 YYXZ=           1445.6907 ZZXY=          -1492.3483
 N-N= 9.519782697229D+02 E-N=-3.739202810470D+03  KE= 7.768314210600D+02
                          Isotropic Fermi Contact Couplings
        Atom                 a.u.       MegaHertz       Gauss      10(-4) cm-1
     1  C(13)             -0.01626     -18.28105      -6.52313      -6.09790
     2  C(13)              0.05580      62.72770      22.38280      20.92371
     3  C(13)             -0.01444     -16.22805      -5.79057      -5.41310
     4  C(13)              0.05108      57.42354      20.49015      19.15443
     5  C(13)             -0.01371     -15.40946      -5.49848      -5.14004
     6  C(13)              0.04781      53.74634      19.17803      17.92785
     7  C(13)             -0.03135     -35.24679     -12.57693     -11.75706
     8  N(14)              0.01989       6.42764       2.29354       2.14403
     9  C(13)             -0.03089     -34.72516     -12.39080     -11.58307
    10  N(14)              0.01906       6.15975       2.19795       2.05467
    11  C(13)             -0.02870     -32.26892     -11.51435     -10.76375
    12  N(14)              0.01645       5.31509       1.89655       1.77292
    13  C(13)             -0.03380     -37.99555     -13.55776     -12.67395
    14  N(14)              0.02678       8.65181       3.08718       2.88593
    15  C(13)             -0.03111     -34.97235     -12.47900     -11.66552
    16  N(14)              0.02312       7.46899       2.66512       2.49139
    17  C(13)             -0.02947     -33.12541     -11.81997     -11.04945
    18  N(14)              0.02009       6.49087       2.31610       2.16512
 --------------------------------------------------------
       Center         ----  Spin Dipole Couplings  ----
                      3XX-RR        3YY-RR        3ZZ-RR
 --------------------------------------------------------
     1   Atom       -0.009544      0.019822     -0.010278
     2   Atom       -0.170247     -0.166974      0.337221
     3   Atom        0.010297     -0.003561     -0.006736
     4   Atom       -0.159448     -0.153261      0.312708
     5   Atom        0.011131     -0.003189     -0.007942
     6   Atom       -0.149806     -0.145664      0.295470
     7   Atom        0.029782      0.005975     -0.035757
     8   Atom       -0.090250     -0.072347      0.162597
     9   Atom        0.029070      0.005427     -0.034497
    10   Atom       -0.088476     -0.069119      0.157596
    11   Atom        0.023512      0.006922     -0.030435
    12   Atom       -0.073958     -0.063601      0.137559
    13   Atom       -0.003310      0.048054     -0.044743
    14   Atom       -0.084432     -0.118388      0.202820
    15   Atom       -0.002483      0.042497     -0.040015
    16   Atom       -0.073849     -0.105726      0.179575
    17   Atom        0.027294      0.008581     -0.035875
    18   Atom       -0.086027     -0.074211      0.160237
 --------------------------------------------------------
                        XY            XZ            YZ
 --------------------------------------------------------
     1   Atom        0.000077     -0.002523      0.002373
     2   Atom       -0.000434      0.003392     -0.053249
     3   Atom       -0.012691      0.000161      0.001342
     4   Atom        0.000410      0.007664     -0.050022
     5   Atom        0.012291      0.000642      0.001253
     6   Atom       -0.001186     -0.000136     -0.035343
     7   Atom       -0.017466     -0.002544      0.004546
     8   Atom        0.010004      0.006568     -0.026166
     9   Atom        0.016825      0.001714      0.004373
    10   Atom       -0.009167     -0.001691     -0.025418
    11   Atom        0.015690      0.000566      0.003630
    12   Atom       -0.010476      0.003575     -0.020753
    13   Atom        0.001016     -0.000343      0.010407
    14   Atom       -0.002020      0.003289     -0.039722
    15   Atom       -0.001575      0.000029      0.006369
    16   Atom        0.003310     -0.000706     -0.019887
    17   Atom       -0.018004     -0.001403      0.003465
    18   Atom        0.013102     -0.000002     -0.017553
 --------------------------------------------------------


 ---------------------------------------------------------------------------------
              Anisotropic Spin Dipole Couplings in Principal Axis System
 ---------------------------------------------------------------------------------

       Atom             a.u.   MegaHertz   Gauss  10(-4) cm-1        Axes

              Baa    -0.0126    -1.686    -0.602    -0.563  0.6405 -0.0576  0.7658
     1 C(13)  Bbb    -0.0074    -0.999    -0.356    -0.333  0.7679  0.0534 -0.6383
              Bcc     0.0200     2.685     0.958     0.896 -0.0041  0.9969  0.0785
 
              Baa    -0.1725   -23.153    -8.262    -7.723  0.0350  0.9940  0.1036
     2 C(13)  Bbb    -0.1703   -22.848    -8.153    -7.621  0.9994 -0.0341 -0.0103
              Bcc     0.3428    46.001    16.414    15.344  0.0067 -0.1039  0.9946
 
              Baa    -0.0114    -1.532    -0.547    -0.511  0.4892  0.8338 -0.2559
     3 C(13)  Bbb    -0.0064    -0.862    -0.307    -0.287  0.1493  0.2090  0.9664
              Bcc     0.0178     2.394     0.854     0.799  0.8593 -0.5110 -0.0223
 
              Baa    -0.1604   -21.522    -7.680    -7.179  0.8304 -0.5526 -0.0719
     4 C(13)  Bbb    -0.1578   -21.169    -7.554    -7.061  0.5570  0.8268  0.0788
              Bcc     0.3181    42.691    15.233    14.240  0.0159 -0.1055  0.9943
 
              Baa    -0.0105    -1.408    -0.502    -0.469 -0.4659  0.8348 -0.2932
     5 C(13)  Bbb    -0.0078    -1.041    -0.372    -0.347 -0.1839  0.2328  0.9550
              Bcc     0.0182     2.449     0.874     0.817  0.8655  0.4989  0.0451
 
              Baa    -0.1505   -20.197    -7.207    -6.737  0.8621  0.5051  0.0403
     6 C(13)  Bbb    -0.1478   -19.830    -7.076    -6.615 -0.5067  0.8594  0.0684
              Bcc     0.2983    40.027    14.283    13.352 -0.0001 -0.0794  0.9968
 
              Baa    -0.0363    -4.865    -1.736    -1.623  0.0112 -0.1024  0.9947
     7 C(13)  Bbb    -0.0030    -0.405    -0.144    -0.135  0.4735  0.8767  0.0849
              Bcc     0.0393     5.270     1.880     1.758  0.8807 -0.4700 -0.0583
 
              Baa    -0.0959    -3.697    -1.319    -1.233  0.8883 -0.4540 -0.0685
     8 N(14)  Bbb    -0.0697    -2.689    -0.960    -0.897  0.4587  0.8844  0.0866
              Bcc     0.1656     6.387     2.279     2.130  0.0213 -0.1084  0.9939
 
              Baa    -0.0350    -4.693    -1.674    -1.565  0.0019 -0.1084  0.9941
     9 C(13)  Bbb    -0.0030    -0.404    -0.144    -0.135 -0.4663  0.8793  0.0967
              Bcc     0.0380     5.097     1.819     1.700  0.8846  0.4637  0.0489
 
              Baa    -0.0927    -3.573    -1.275    -1.192  0.9123  0.4067  0.0475
    10 N(14)  Bbb    -0.0678    -2.613    -0.933    -0.872 -0.4094  0.9069  0.0992
              Bcc     0.1604     6.187     2.208     2.064 -0.0027 -0.1100  0.9939
 
              Baa    -0.0308    -4.133    -1.475    -1.379  0.0196 -0.1039  0.9944
    11 C(13)  Bbb    -0.0022    -0.302    -0.108    -0.101 -0.5192  0.8489  0.0989
              Bcc     0.0331     4.435     1.583     1.479  0.8544  0.5182  0.0372
 
              Baa    -0.0808    -3.115    -1.112    -1.039  0.8314  0.5544  0.0391
    12 N(14)  Bbb    -0.0590    -2.276    -0.812    -0.759 -0.5553  0.8259  0.0973
              Bcc     0.1398     5.391     1.924     1.798  0.0217 -0.1026  0.9945
 
              Baa    -0.0459    -6.159    -2.198    -2.055  0.0106 -0.1102  0.9939
    13 C(13)  Bbb    -0.0033    -0.446    -0.159    -0.149  0.9998 -0.0172 -0.0126
              Bcc     0.0492     6.605     2.357     2.203  0.0185  0.9938  0.1100
 
              Baa    -0.1233    -4.755    -1.697    -1.586  0.0414  0.9919  0.1204
    14 N(14)  Bbb    -0.0844    -3.255    -1.162    -1.086  0.9991 -0.0396 -0.0169
              Bcc     0.2077     8.011     2.858     2.672  0.0120 -0.1210  0.9926
 
              Baa    -0.0405    -5.435    -1.939    -1.813 -0.0039 -0.0766  0.9971
    15 C(13)  Bbb    -0.0025    -0.340    -0.121    -0.114  0.9994  0.0340  0.0065
              Bcc     0.0430     5.776     2.061     1.927 -0.0344  0.9965  0.0764
 
              Baa    -0.1074    -4.143    -1.478    -1.382 -0.0965  0.9930  0.0686
    16 N(14)  Bbb    -0.0735    -2.836    -1.012    -0.946  0.9953  0.0960  0.0103
              Bcc     0.1810     6.979     2.490     2.328 -0.0037 -0.0692  0.9976
 
              Baa    -0.0361    -4.850    -1.731    -1.618  0.0001 -0.0772  0.9970
    17 C(13)  Bbb    -0.0022    -0.296    -0.106    -0.099  0.5221  0.8503  0.0658
              Bcc     0.0383     5.146     1.836     1.717  0.8529 -0.5205 -0.0404
 
              Baa    -0.0949    -3.658    -1.305    -1.220  0.8286 -0.5585 -0.0384
    18 N(14)  Bbb    -0.0667    -2.572    -0.918    -0.858  0.5598  0.8262  0.0639
              Bcc     0.1615     6.231     2.223     2.078 -0.0039 -0.0745  0.9972
 

 ---------------------------------------------------------------------------------

   1 Symmetry operations used in ECPInt.
 ECPInt:  NShTT=    5886 NPrTT=   23670 LenC2=    5389 LenP2D=   14853.
 LDataN:  DoStor=T MaxTD1= 5 Len=  102
 D1PCM: PCM CHGder 1st derivatives, ID1Alg=3 FixD1E=F DoIter=F DoCFld=F I1PDM=0.
 Calling FoFJK, ICntrl=      2127 FMM=F ISym2X=0 I1Cent= 0 IOpClX= 1 NMat=1 NMatS=1 NMatT=0.
 -------------------------------------------------------------------
 Center     Atomic                   Forces (Hartrees/Bohr)
 Number     Number              X              Y              Z
 -------------------------------------------------------------------
      1        6          -0.002972681   -0.086685856   -0.008478806
      2        6          -0.001277697    0.028290168    0.002947087
      3        6          -0.094330466    0.049987308    0.005615352
      4        6           0.049278603   -0.008882168   -0.001836668
      5        6           0.103699702    0.060677771    0.005217494
      6        6          -0.050423410   -0.023270194   -0.001840956
      7        6           0.084187101   -0.046849507   -0.005734746
      8        7          -0.056283373    0.030212102    0.003936772
      9        6          -0.102494351   -0.057245690   -0.005823933
     10        7           0.075508960    0.038522595    0.004103118
     11        6          -0.112855583   -0.064423729   -0.004441285
     12        7           0.078301094    0.048239917    0.003419917
     13        6          -0.005862680   -0.033272526   -0.004444244
     14        7           0.003177117    0.051824410    0.006384517
     15        6           0.012015113   -0.015276854   -0.001017691
     16        7          -0.006756682    0.039107336    0.002686257
     17        6           0.028824986   -0.009585450   -0.000641033
     18        7          -0.001735754   -0.001369635   -0.000051153
 -------------------------------------------------------------------
 Cartesian Forces:  Max     0.112855583 RMS     0.044407232

 GradGradGradGradGradGradGradGradGradGradGradGradGradGradGradGradGradGrad
 Berny optimization.
 Search for a local minimum.
 Step number   1 out of a maximum of    2
 All quantities printed in internal units (Hartrees-Bohrs-Radians)
 Second derivative matrix not updated -- first step.
 ITU=  0
     Eigenvalues ---    0.00140   0.00230   0.00234   0.00291   0.00293
     Eigenvalues ---    0.00919   0.01498   0.01620   0.01925   0.01962
     Eigenvalues ---    0.04035   0.04436   0.05125   0.05182   0.09824
     Eigenvalues ---    0.17067   0.18889   0.19325   0.23112   0.23984
     Eigenvalues ---    0.24336   0.24665   0.29918   0.30099   0.42827
     Eigenvalues ---    0.63864   0.66359   0.67818   0.70261   0.72013
     Eigenvalues ---    0.97136   0.97710   1.04233   1.50503   1.57622
     Eigenvalues ---    1.83032   2.11029   2.54264   2.59692   2.68565
     Eigenvalues ---    2.80831   3.13879   3.25259   3.28775   4.31770
     Eigenvalues ---    4.44118   9.98340  14.41879
 Quadratic step=5.289D-01 exceeds max=3.000D-01 adjusted using Lamda=-6.240D-02.
 Angle between NR and scaled steps=  23.27 degrees.
 Angle between quadratic step and forces=  57.52 degrees.
 Linear search not attempted -- first point.
 B after Tr=     0.000046    0.000490    0.000131
         Rot=    1.000000    0.000003    0.000003   -0.000005 Ang=   0.00 deg.
 Variable       Old X    -DE/DX   Delta X   Delta X   Delta X     New X
                                 (Linear)    (Quad)   (Total)
    X1      -16.88712  -0.00297   0.00000  -0.00492  -0.00487 -16.89199
    Y1       -1.62618  -0.08669   0.00000  -0.06710  -0.06676  -1.69294
    Z1        2.10351  -0.00848   0.00000  -0.00628  -0.00625   2.09726
    X2      -16.89533  -0.00128   0.00000  -0.00428  -0.00426 -16.89959
    Y2        0.96009   0.02829   0.00000  -0.05232  -0.05199   0.90811
    Z2        2.36454   0.00295   0.00000  -0.00368  -0.00367   2.36087
    X3      -15.48199  -0.09433   0.00000  -0.06761  -0.06754 -15.54953
    Y3       -4.04325   0.04999   0.00000   0.04057   0.04091  -4.00234
    Z3        1.85868   0.00562   0.00000   0.00349   0.00353   1.86222
    X4      -13.27559   0.04928   0.00000  -0.02432  -0.02423 -13.29982
    Y4       -5.33400  -0.00888   0.00000   0.01760   0.01796  -5.31603
    Z4        1.69927  -0.00184   0.00000  -0.00036  -0.00029   1.69898
    X5      -18.32088   0.10370   0.00000   0.07444   0.07451 -18.24637
    Y5       -4.06437   0.06068   0.00000   0.05001   0.05033  -4.01404
    Z5        1.87664   0.00522   0.00000   0.00452   0.00455   1.88118
    X6      -20.52857  -0.05042   0.00000   0.02392   0.02401 -20.50457
    Y6       -5.32702  -0.02327   0.00000   0.01570   0.01599  -5.31104
    Z6        1.77256  -0.00184   0.00000   0.00195   0.00197   1.77454
    X7      -19.30448   0.08419   0.00000   0.06539   0.06539 -19.23909
    Y7        2.34430  -0.04685   0.00000  -0.06797  -0.06766   2.27664
    Z7        2.53473  -0.00573   0.00000  -0.00658  -0.00660   2.52813
    X8      -21.20025  -0.05628   0.00000   0.03873   0.03872 -21.16153
    Y8        3.33496   0.03021   0.00000  -0.02052  -0.02023   3.31473
    Z8        2.67583   0.00394   0.00000  -0.00418  -0.00422   2.67162
    X9      -14.49630  -0.10249   0.00000  -0.06698  -0.06697 -14.56328
    Y9        2.36911  -0.05725   0.00000  -0.08149  -0.08114   2.28797
    Z9        2.50477  -0.00582   0.00000  -0.00686  -0.00684   2.49793
   X10      -12.56961   0.07551   0.00000  -0.03654  -0.03655 -12.60615
   Y10        3.27184   0.03852   0.00000  -0.01146  -0.01109   3.26075
   Z10        2.60755   0.00410   0.00000  -0.00276  -0.00273   2.60481
   X11      -10.81734  -0.11286   0.00000  -0.10059  -0.10051 -10.91785
   Y11       -3.96690  -0.06442   0.00000  -0.02630  -0.02591  -3.99281
   Z11        1.79730  -0.00444   0.00000  -0.00191  -0.00183   1.79547
   X12       -9.03332   0.07830   0.00000  -0.03074  -0.03068  -9.06400
   Y12       -2.81594   0.04824   0.00000  -0.02183  -0.02142  -2.83736
   Z12        1.87849   0.00342   0.00000  -0.00016  -0.00008   1.87841
   X13      -13.22868  -0.00586   0.00000  -0.02499  -0.02487 -13.25355
   Y13       -8.05292  -0.03327   0.00000   0.04469   0.04505  -8.00787
   Z13        1.39879  -0.00444   0.00000   0.00320   0.00329   1.40209
   X14      -13.31077   0.00318   0.00000   0.00229   0.00243 -13.30834
   Y14      -10.27105   0.05182   0.00000   0.08416   0.08452 -10.18653
   Z14        1.13672   0.00638   0.00000   0.01197   0.01207   1.14879
   X15      -20.59099   0.01202   0.00000   0.03858   0.03870 -20.55229
   Y15       -8.07791  -0.01528   0.00000   0.05666   0.05695  -8.02096
   Z15        1.55978  -0.00102   0.00000   0.00493   0.00497   1.56475
   X16      -20.39544  -0.00676   0.00000  -0.01193  -0.01179 -20.40723
   Y16      -10.28647   0.03911   0.00000   0.08173   0.08202 -10.20444
   Z16        1.40159   0.00269   0.00000   0.00396   0.00401   1.40559
   X17      -22.95558   0.02882   0.00000   0.07548   0.07555 -22.88003
   Y17       -3.97571  -0.00959   0.00000  -0.01023  -0.00996  -3.98566
   Z17        1.87867  -0.00064   0.00000  -0.00052  -0.00052   1.87815
   X18      -24.78337  -0.00174   0.00000   0.05289   0.05295 -24.73042
   Y18       -2.77477  -0.00137   0.00000  -0.03784  -0.03759  -2.81236
   Z18        1.96494  -0.00005   0.00000  -0.00134  -0.00136   1.96358
         Item               Value     Threshold  Converged?
 Maximum Force            0.112856     0.000450     NO 
 RMS     Force            0.044407     0.000300     NO 
 Maximum Displacement     0.100513     0.001800     NO 
 RMS     Displacement     0.040953     0.001200     NO 
 Predicted change in Energy=-2.919548D-02
 GradGradGradGradGradGradGradGradGradGradGradGradGradGradGradGradGradGrad

 Unable to Open any file for archive entry.
 1\1\GINC-X10P1N4\Force\UwB97XD\def2SVP\C12N6(1-,2)\MAYUMIAO\11-Oct-202
 4\0\\# wb97xd def2svp scrf=(smd,solvent=acetonitrile) g09default scf=(
 xqc,maxcycle=64) force guess=read nosymm\\Title Card\\-1,2\C,-8.936281
 15,-0.86053508,1.11312887\C,-8.94062493,0.50806032,1.25126146\C,-8.192
 71602,-2.13959753,0.98357351\C,-7.02514102,-2.82262903,0.89921551\C,-9
 .694992,-2.15077425,0.9930729\C,-10.8632528,-2.81893962,0.93799942\C,-
 10.21549103,1.24054759,1.34132038\N,-11.21869081,1.76478745,1.41598976
 \C,-7.67111415,1.253678,1.32546618\N,-6.65154935,1.73138355,1.37985371
 \C,-5.72428966,-2.09919289,0.95109092\N,-4.78022828,-1.49012918,0.9940
 5578\C,-7.00031445,-4.26142192,0.74020988\N,-7.04375737,-5.43520665,0.
 60152572\C,-10.89628337,-4.27464406,0.82540048\N,-10.79280404,-5.44336
 416,0.7416873\C,-12.14756948,-2.10385343,0.99414902\N,-13.11479477,-1.
 46834704,1.03980403\\Version=ES64L-G16RevC.01\HF=-784.8258841\S2=0.781
 948\S2-1=0.\S2A=0.750802\RMSD=4.139e-09\RMSF=4.441e-02\Dipole=0.005026
 2,0.150478,0.0121084\Quadrupole=-202.6760649,71.4244005,131.2516645,-5
 6.7447342,33.2181189,1.2814547\PG=C01 [X(C12N6)]\\@
 The archive entry for this job was punched.


 Everywhere is walking distance if you have the time.
                                    -- Steven Wright
 Job cpu time:       0 days  0 hours 14 minutes 38.7 seconds.
 Elapsed time:       0 days  0 hours  0 minutes 32.9 seconds.
 File lengths (MBytes):  RWF=    175 Int=      0 D2E=      0 Chk=      9 Scr=      1
 Normal termination of Gaussian 16 at Fri Oct 11 15:53:33 2024.
