 Entering Gaussian System, Link 0=g16
 Input=JOBS/29_A.gjf
 Output=JOBS/29_A.log
 Initial command:
 /data/app/gaussian/C01-avx2//g16/l1.exe "/tmp/Gau-2541651.inp" -scrdir="/tmp/"
 Entering Link 1 = /data/app/gaussian/C01-avx2//g16/l1.exe PID=   2541652.
  
 Copyright (c) 1988-2019, Gaussian, Inc.  All Rights Reserved.
  
 This is part of the Gaussian(R) 16 program.  It is based on
 the Gaussian(R) 09 system (copyright 2009, Gaussian, Inc.),
 the Gaussian(R) 03 system (copyright 2003, Gaussian, Inc.),
 the Gaussian(R) 98 system (copyright 1998, Gaussian, Inc.),
 the Gaussian(R) 94 system (copyright 1995, Gaussian, Inc.),
 the Gaussian 92(TM) system (copyright 1992, Gaussian, Inc.),
 the Gaussian 90(TM) system (copyright 1990, Gaussian, Inc.),
 the Gaussian 88(TM) system (copyright 1988, Gaussian, Inc.),
 the Gaussian 86(TM) system (copyright 1986, Carnegie Mellon
 University), and the Gaussian 82(TM) system (copyright 1983,
 Carnegie Mellon University). Gaussian is a federally registered
 trademark of Gaussian, Inc.
  
 This software contains proprietary and confidential information,
 including trade secrets, belonging to Gaussian, Inc.
  
 This software is provided under written license and may be
 used, copied, transmitted, or stored only in accord with that
 written license.
  
 The following legend is applicable only to US Government
 contracts under FAR:
  
                    RESTRICTED RIGHTS LEGEND
  
 Use, reproduction and disclosure by the US Government is
 subject to restrictions as set forth in subparagraphs (a)
 and (c) of the Commercial Computer Software - Restricted
 Rights clause in FAR 52.227-19.
  
 Gaussian, Inc.
 340 Quinnipiac St., Bldg. 40, Wallingford CT 06492
  
  
 ---------------------------------------------------------------
 Warning -- This program may not be used in any manner that
 competes with the business of Gaussian, Inc. or will provide
 assistance to any competitor of Gaussian, Inc.  The licensee
 of this program is prohibited from giving any competitor of
 Gaussian, Inc. access to this program.  By using this program,
 the user acknowledges that Gaussian, Inc. is engaged in the
 business of creating and licensing software in the field of
 computational chemistry and represents and warrants to the
 licensee that it is not a competitor of Gaussian, Inc. and that
 it will not use this program in any manner prohibited above.
 ---------------------------------------------------------------
  

 Cite this work as:
 Gaussian 16, Revision C.01,
 M. J. Frisch, G. W. Trucks, H. B. Schlegel, G. E. Scuseria, 
 M. A. Robb, J. R. Cheeseman, G. Scalmani, V. Barone, 
 G. A. Petersson, H. Nakatsuji, X. Li, M. Caricato, A. V. Marenich, 
 J. Bloino, B. G. Janesko, R. Gomperts, B. Mennucci, H. P. Hratchian, 
 J. V. Ortiz, A. F. Izmaylov, J. L. Sonnenberg, D. Williams-Young, 
 F. Ding, F. Lipparini, F. Egidi, J. Goings, B. Peng, A. Petrone, 
 T. Henderson, D. Ranasinghe, V. G. Zakrzewski, J. Gao, N. Rega, 
 G. Zheng, W. Liang, M. Hada, M. Ehara, K. Toyota, R. Fukuda, 
 J. Hasegawa, M. Ishida, T. Nakajima, Y. Honda, O. Kitao, H. Nakai, 
 T. Vreven, K. Throssell, J. A. Montgomery, Jr., J. E. Peralta, 
 F. Ogliaro, M. J. Bearpark, J. J. Heyd, E. N. Brothers, K. N. Kudin, 
 V. N. Staroverov, T. A. Keith, R. Kobayashi, J. Normand, 
 K. Raghavachari, A. P. Rendell, J. C. Burant, S. S. Iyengar, 
 J. Tomasi, M. Cossi, J. M. Millam, M. Klene, C. Adamo, R. Cammi, 
 J. W. Ochterski, R. L. Martin, K. Morokuma, O. Farkas, 
 J. B. Foresman, and D. J. Fox, Gaussian, Inc., Wallingford CT, 2019.
 
 ******************************************
 Gaussian 16:  ES64L-G16RevC.01  3-Jul-2019
                11-Oct-2024 
 ******************************************
 %chk=a.chk
 %nprocshared=28
 Will use up to   28 processors via shared memory.
 %mem=48gb
 ----------------------------------------------------------------------
 # wb97xd def2svp scrf=(smd,solvent=acetonitrile) g09default scf=(xqc,m
 axcycle=64) force guess=read nosymm
 ----------------------------------------------------------------------
 1/10=7,30=1,38=1,158=3,167=1/1,3;
 2/12=2,15=1,17=6,18=5,40=1/2;
 3/5=43,7=101,11=2,25=1,27=10,30=1,70=32201,71=1,72=2,74=-58,75=-4,116=-2,158=3/1,2,3;
 4/5=1,60=-1/1;
 5/5=2,7=64,8=3,13=1,38=6,53=2,87=10/2,8;
 6/7=2,8=2,9=2,10=2,28=1,87=10/1;
 7/29=1,30=1,87=10/1,2,3,16;
 1/10=7,30=1,158=3,167=1/3;
 99//99;
 Using 2006 physical constants.
 ----------
 Title Card
 ----------
 Symbolic Z-matrix:
 Charge = -2 Multiplicity = 1
 6                    -8.93657  -0.86925   1.11529 
 6                    -8.93704   0.53942   1.25431 
 6                    -8.20437  -2.1367    0.98371 
 6                    -6.9904   -2.84178   0.8988 
 6                    -9.68598  -2.14714   0.99317 
 6                    -10.89886  -2.83384   0.93667 
 6                    -10.21646   1.26606   1.34365 
 7                    -11.23961   1.76976   1.41787 
 6                    -7.66988   1.27725   1.32936 
 7                    -6.63378   1.73817   1.38087 
 6                    -5.70127  -2.10497   0.94946 
 7                    -4.76648  -1.47856   0.99316 
 6                    -6.98162  -4.27544   0.73569 
 7                    -7.04776  -5.45195   0.59643 
 6                    -10.91162  -4.29229   0.82507 
 7                    -10.79361  -5.4588    0.7431 
 6                    -12.16034  -2.11359   0.99315 
 7                    -13.13423  -1.45651   1.03903 
 

 GradGradGradGradGradGradGradGradGradGradGradGradGradGradGradGradGradGrad
 Berny optimization.
 Initialization pass.
 Trust Radius=3.00D-01 FncErr=1.00D-07 GrdErr=1.00D-07 EigMax=2.50D+02 EigMin=1.00D-04
 Number of steps in this run=      2 maximum allowed number of steps=      2.
 GradGradGradGradGradGradGradGradGradGradGradGradGradGradGradGradGradGrad

                          Input orientation:                          
 ---------------------------------------------------------------------
 Center     Atomic      Atomic             Coordinates (Angstroms)
 Number     Number       Type             X           Y           Z
 ---------------------------------------------------------------------
      1          6           0       -8.936570   -0.869253    1.115294
      2          6           0       -8.937042    0.539420    1.254312
      3          6           0       -8.204368   -2.136698    0.983707
      4          6           0       -6.990403   -2.841784    0.898795
      5          6           0       -9.685981   -2.147142    0.993167
      6          6           0      -10.898863   -2.833843    0.936674
      7          6           0      -10.216458    1.266057    1.343651
      8          7           0      -11.239609    1.769756    1.417873
      9          6           0       -7.669877    1.277246    1.329360
     10          7           0       -6.633782    1.738170    1.380866
     11          6           0       -5.701269   -2.104969    0.949464
     12          7           0       -4.766482   -1.478561    0.993163
     13          6           0       -6.981624   -4.275436    0.735687
     14          7           0       -7.047761   -5.451950    0.596435
     15          6           0      -10.911623   -4.292294    0.825071
     16          7           0      -10.793609   -5.458803    0.743103
     17          6           0      -12.160344   -2.113588    0.993150
     18          7           0      -13.134229   -1.456505    1.039033
 ---------------------------------------------------------------------
                    Distance matrix (angstroms):
                    1          2          3          4          5
     1  C    0.000000
     2  C    1.415516   0.000000
     3  C    1.469644   2.787767   0.000000
     4  C    2.779446   3.917695   1.406438   0.000000
     5  C    1.486450   2.801200   1.481680   2.785243   0.000000
     6  C    2.782465   3.915167   2.783617   3.908652   1.394930
     7  C    2.499962   1.474072   3.969485   5.242107   3.471912
     8  N    3.515667   2.615778   4.966042   6.292178   4.235118
     9  C    2.501558   1.468240   3.472776   4.196841   3.987999
    10  N    3.488841   2.599620   4.199890   4.619042   4.955994
    11  C    3.467227   4.189982   2.503534   1.485708   3.985175
    12  N    4.216137   4.640476   3.500328   2.610193   4.964723
    13  C    3.945631   5.222592   2.476049   1.442928   3.451012
    14  N    4.983767   6.316542   3.532509   2.628247   4.247277
    15  C    3.962610   5.237240   3.464245   4.181553   2.476314
    16  N    4.964986   6.299750   4.218820   4.619244   3.500924
    17  C    3.457746   4.182862   3.956055   5.221826   2.474591
    18  N    4.239224   4.652574   4.976872   6.299625   3.517030
                    6          7          8          9         10
     6  C    0.000000
     7  C    4.176180   0.000000
     8  N    4.641205   1.142830   0.000000
     9  C    5.242290   2.546646   3.604635   0.000000
    10  N    6.268294   3.613841   4.606084   1.135163   0.000000
    11  C    5.248466   5.648551   6.775405   3.931808   3.978115
    12  N    6.280611   6.112120   7.254882   4.017113   3.739583
    13  C    4.178917   6.445302   7.425643   5.626582   6.058111
    14  N    4.669180   7.465293   8.390435   6.797521   7.244621
    15  C    1.462771   5.625606   6.099791   6.463978   7.414535
    16  N    2.634191   6.776245   7.273671   7.448205   8.337105
    17  C    1.453717   3.914529   4.013540   5.636940   6.747537
    18  N    2.627623   4.002314   3.760567   6.116930   7.251111
                   11         12         13         14         15
    11  C    0.000000
    12  N    1.126110   0.000000
    13  C    2.529019   3.577102   0.000000
    14  N    3.624908   4.598853   1.186571   0.000000
    15  C    5.652226   6.760778   3.931052   4.040608   0.000000
    16  N    6.101042   7.227110   3.991447   3.748725   1.175325
    17  C    6.459229   7.421082   5.617742   6.118869   2.516807
    18  N    7.461731   8.367902   6.774433   7.294147   3.609357
                   16         17         18
    16  N    0.000000
    17  C    3.622285   0.000000
    18  N    4.645908   1.175719   0.000000
 Symmetry turned off by external request.
 Stoichiometry    C12N6(2-)
 Framework group  C1[X(C12N6)]
 Deg. of freedom    48
 Full point group                 C1      NOp   1
 Rotational constants (GHZ):           0.4143326           0.4116363           0.2065216
 Standard basis: def2SVP (5D, 7F)
   252 basis functions,   450 primitive gaussians,   270 cartesian basis functions
    58 alpha electrons       58 beta electrons
       nuclear repulsion energy       946.7128381114 Hartrees.
 NAtoms=   18 NActive=   18 NUniq=   18 SFac= 1.00D+00 NAtFMM=   60 NAOKFM=F Big=F
 Integral buffers will be    131072 words long.
 Raffenetti 2 integral format.
 Two-electron integral symmetry is turned off.
 Nuclear repulsion after empirical dispersion term =      946.7015810297 Hartrees.
 Force PCM accuracy= 1.00D-10.
 ------------------------------------------------------------------------------
 Polarizable Continuum Model (PCM)
 =================================
 Model                : PCM (using non-symmetric T matrix).
 Atomic radii         : SMD-Coulomb.
 Polarization charges : Total charges.
 Charge compensation  : None.
 Solution method      : On-the-fly selection.
 Cavity type          : VdW (van der Waals Surface) (Alpha=1.000).
 Cavity algorithm     : GePol (No added spheres)
                        Default sphere list used, NSphG=   18.
                        Lebedev-Laikov grids with approx.  5.0 points / Ang**2.
                        Smoothing algorithm: York/Karplus (Gamma=1.0000).
                        Polarization charges: spherical gaussians, with
                                              point-specific exponents (IZeta= 3).
                        Self-potential: point-specific (ISelfS= 7).
                        Self-field    : sphere-specific E.n sum rule (ISelfD= 2).
 1st derivatives      : Analytical E(r).r(x)/FMM algorithm (CHGder, D1EAlg=3).
                        Cavity 1st derivative terms included.
 Solvent              : Acetonitrile, Eps=  35.688000 Eps(inf)=   1.806874
 ------------------------------------------------------------------------------
 Spheres list:
 ISph  on   Nord     Re0    Alpha      Xe            Ye            Ze
    1   C      1    1.8500  1.000     -8.936570     -0.869253      1.115294
    2   C      2    1.8500  1.000     -8.937042      0.539420      1.254312
    3   C      3    1.8500  1.000     -8.204368     -2.136698      0.983707
    4   C      4    1.8500  1.000     -6.990403     -2.841784      0.898795
    5   C      5    1.8500  1.000     -9.685981     -2.147142      0.993167
    6   C      6    1.8500  1.000    -10.898863     -2.833843      0.936674
    7   C      7    1.8500  1.000    -10.216458      1.266057      1.343651
    8   N      8    1.8900  1.000    -11.239609      1.769756      1.417873
    9   C      9    1.8500  1.000     -7.669877      1.277246      1.329360
   10   N     10    1.8900  1.000     -6.633782      1.738170      1.380866
   11   C     11    1.8500  1.000     -5.701269     -2.104969      0.949464
   12   N     12    1.8900  1.000     -4.766482     -1.478561      0.993163
   13   C     13    1.8500  1.000     -6.981624     -4.275436      0.735687
   14   N     14    1.8900  1.000     -7.047761     -5.451950      0.596435
   15   C     15    1.8500  1.000    -10.911623     -4.292294      0.825071
   16   N     16    1.8900  1.000    -10.793609     -5.458803      0.743103
   17   C     17    1.8500  1.000    -12.160344     -2.113588      0.993150
   18   N     18    1.8900  1.000    -13.134229     -1.456505      1.039033
 ------------------------------------------------------------------------------
 ------------------------------------------------------------------------------
 Atomic radii for non-electrostatic terms: SMD-CDS.
 ------------------------------------------------------------------------------
 Nuclear repulsion after PCM non-electrostatic terms =      946.7103078290 Hartrees.
 One-electron integrals computed using PRISM.
   1 Symmetry operations used in ECPInt.
 ECPInt:  NShTT=    5886 NPrTT=   23670 LenC2=    5383 LenP2D=   14814.
 LDataN:  DoStor=T MaxTD1= 4 Len=   56
 NBasis=   252 RedAO= T EigKep=  3.25D-04  NBF=   252
 NBsUse=   252 1.00D-06 EigRej= -1.00D+00 NBFU=   252
 Initial guess from the checkpoint file:  "a.chk"
 B after Tr=    -0.000699    0.000944   -0.002656
         Rot=    1.000000   -0.000089   -0.000094   -0.000016 Ang=  -0.01 deg.
 Requested convergence on RMS density matrix=1.00D-08 within  64 cycles.
 Requested convergence on MAX density matrix=1.00D-06.
 Requested convergence on             energy=1.00D-06.
 No special actions if energy rises.
 Inv3:  Mode=1 IEnd=    19783872.
 Iteration    1 A*A^-1 deviation from unit magnitude is 3.33D-15 for   1142.
 Iteration    1 A*A^-1 deviation from orthogonality  is 3.22D-15 for   1729    251.
 Iteration    1 A^-1*A deviation from unit magnitude is 3.11D-15 for    128.
 Iteration    1 A^-1*A deviation from orthogonality  is 1.84D-10 for   2154   1124.
 Iteration    2 A*A^-1 deviation from unit magnitude is 4.00D-15 for    240.
 Iteration    2 A*A^-1 deviation from orthogonality  is 6.23D-15 for   1698    281.
 Iteration    2 A^-1*A deviation from unit magnitude is 1.78D-15 for   2073.
 Iteration    2 A^-1*A deviation from orthogonality  is 5.57D-16 for   1876   1713.
 Error on total polarization charges =  0.02233
 SCF Done:  E(RwB97XD) =  -784.995402063     A.U. after   13 cycles
            NFock= 13  Conv=0.86D-08     -V/T= 2.0108
 SMD-CDS (non-electrostatic) energy       (kcal/mol) =       5.48
 (included in total energy above)
 QCSCF skips out because SCF is already converged.

 **********************************************************************

            Population analysis using the SCF Density.

 **********************************************************************

 Alpha  occ. eigenvalues --  -14.43538 -14.43475 -14.43370 -14.42745 -14.42602
 Alpha  occ. eigenvalues --  -14.42590 -10.36250 -10.36200 -10.36149 -10.34560
 Alpha  occ. eigenvalues --  -10.34503 -10.34479 -10.34075 -10.34039 -10.33935
 Alpha  occ. eigenvalues --  -10.33800 -10.33616 -10.33584  -1.00363  -0.99988
 Alpha  occ. eigenvalues --   -0.99208  -0.99041  -0.97883  -0.97827  -0.97085
 Alpha  occ. eigenvalues --   -0.87487  -0.87022  -0.84119  -0.67951  -0.67448
 Alpha  occ. eigenvalues --   -0.64410  -0.64044  -0.63648  -0.62665  -0.50575
 Alpha  occ. eigenvalues --   -0.47354  -0.47258  -0.46301  -0.46170  -0.45469
 Alpha  occ. eigenvalues --   -0.45323  -0.45247  -0.44732  -0.44237  -0.44053
 Alpha  occ. eigenvalues --   -0.43242  -0.43211  -0.42982  -0.42423  -0.42312
 Alpha  occ. eigenvalues --   -0.42102  -0.41840  -0.41269  -0.40403  -0.40008
 Alpha  occ. eigenvalues --   -0.31999  -0.31858  -0.23027
 Alpha virt. eigenvalues --    0.06279   0.06834   0.08621   0.09123   0.09780
 Alpha virt. eigenvalues --    0.11037   0.12059   0.12980   0.13596   0.13894
 Alpha virt. eigenvalues --    0.14105   0.15893   0.20399   0.20500   0.23010
 Alpha virt. eigenvalues --    0.25137   0.26838   0.27233   0.27429   0.27568
 Alpha virt. eigenvalues --    0.29710   0.31278   0.31649   0.32923   0.32999
 Alpha virt. eigenvalues --    0.33466   0.35306   0.47522   0.47870   0.51502
 Alpha virt. eigenvalues --    0.51533   0.52540   0.52644   0.54937   0.55034
 Alpha virt. eigenvalues --    0.55195   0.55744   0.56100   0.57862   0.61482
 Alpha virt. eigenvalues --    0.61541   0.61723   0.62390   0.62651   0.64746
 Alpha virt. eigenvalues --    0.65063   0.70098   0.70745   0.70958   0.71800
 Alpha virt. eigenvalues --    0.72110   0.73558   0.73701   0.73948   0.74445
 Alpha virt. eigenvalues --    0.74624   0.74746   0.75518   0.75761   0.76147
 Alpha virt. eigenvalues --    0.79228   0.79543   0.80891   0.82884   0.82964
 Alpha virt. eigenvalues --    0.85169   0.85558   0.87440   0.88303   0.93810
 Alpha virt. eigenvalues --    0.94042   0.94602   0.94936   0.95708   0.95890
 Alpha virt. eigenvalues --    0.97048   0.99678   1.00038   1.00392   1.00652
 Alpha virt. eigenvalues --    1.02212   1.02599   1.02820   1.03157   1.04151
 Alpha virt. eigenvalues --    1.05356   1.06683   1.07607   1.09570   1.11495
 Alpha virt. eigenvalues --    1.13326   1.16756   1.18548   1.19023   1.19224
 Alpha virt. eigenvalues --    1.22494   1.23845   1.23877   1.27468   1.33459
 Alpha virt. eigenvalues --    1.34609   1.34806   1.42303   1.42662   1.44539
 Alpha virt. eigenvalues --    1.45312   1.46482   1.47598   1.48050   1.56858
 Alpha virt. eigenvalues --    1.59292   1.68684   1.70013   1.70319   1.70742
 Alpha virt. eigenvalues --    1.70860   1.71250   1.75923   1.76084   1.78702
 Alpha virt. eigenvalues --    1.78889   1.79114   1.79847   1.80331   1.81093
 Alpha virt. eigenvalues --    1.81615   1.82016   1.85043   1.92739   1.94232
 Alpha virt. eigenvalues --    1.95753   1.99355   2.00024   2.00516   2.02769
 Alpha virt. eigenvalues --    2.04089   2.05638   2.05878   2.11834   2.12240
 Alpha virt. eigenvalues --    2.13783   2.20514   2.20999   2.21890   2.25387
 Alpha virt. eigenvalues --    2.26518   2.26735   2.27000   2.32971   2.33672
 Alpha virt. eigenvalues --    2.35092   2.35562   2.36091   2.36403   2.36637
 Alpha virt. eigenvalues --    2.37099   2.37845   2.37958   2.38012   2.38210
 Alpha virt. eigenvalues --    2.39179   2.39732   2.54260   2.55167   2.55763
 Alpha virt. eigenvalues --    2.65554   2.66401   2.89816   2.92157   2.95680
 Alpha virt. eigenvalues --    2.96235   2.98404   2.98886   3.01867   3.02951
 Alpha virt. eigenvalues --    3.04984   3.06491   3.07147   3.07260   3.09183
 Alpha virt. eigenvalues --    3.12464   3.13399   3.18405   3.19768   3.27947
 Alpha virt. eigenvalues --    3.37128   3.37566   3.38196   3.49897   3.53244
 Alpha virt. eigenvalues --    3.56949   3.61310   3.64850   3.72880
          Condensed to atoms (all electrons):
               1          2          3          4          5          6
     1  C    4.927896   0.487463   0.318067  -0.090064   0.322971  -0.088642
     2  C    0.487463   5.467568  -0.086089  -0.004229  -0.081546  -0.004213
     3  C    0.318067  -0.086089   4.930109   0.483221   0.317508  -0.090494
     4  C   -0.090064  -0.004229   0.483221   5.485141  -0.086888  -0.004657
     5  C    0.322971  -0.081546   0.317508  -0.086888   4.907609   0.482700
     6  C   -0.088642  -0.004213  -0.090494  -0.004657   0.482700   5.486920
     7  C    0.003532   0.388176   0.005254  -0.000166  -0.012998   0.001002
     8  N   -0.000144  -0.038558   0.000013  -0.000001  -0.000349   0.000071
     9  C    0.000607   0.391323  -0.014084   0.000933   0.005725  -0.000177
    10  N   -0.000274  -0.040457  -0.000459   0.000076   0.000035  -0.000001
    11  C   -0.013094   0.001023   0.000807   0.380523   0.005395  -0.000164
    12  N   -0.000406   0.000073  -0.000493  -0.037923   0.000014  -0.000001
    13  C    0.005364  -0.000196   0.007457   0.396098  -0.014643   0.000913
    14  N    0.000007  -0.000001  -0.000075  -0.042445  -0.000324   0.000058
    15  C    0.006186  -0.000167  -0.014843   0.001131   0.003032   0.381275
    16  N    0.000042  -0.000000  -0.000403   0.000086  -0.000071  -0.040130
    17  C   -0.015013   0.001054   0.005563  -0.000212   0.004701   0.387001
    18  N   -0.000383   0.000076   0.000021  -0.000001  -0.000059  -0.040236
               7          8          9         10         11         12
     1  C    0.003532  -0.000144   0.000607  -0.000274  -0.013094  -0.000406
     2  C    0.388176  -0.038558   0.391323  -0.040457   0.001023   0.000073
     3  C    0.005254   0.000013  -0.014084  -0.000459   0.000807  -0.000493
     4  C   -0.000166  -0.000001   0.000933   0.000076   0.380523  -0.037923
     5  C   -0.012998  -0.000349   0.005725   0.000035   0.005395   0.000014
     6  C    0.001002   0.000071  -0.000177  -0.000001  -0.000164  -0.000001
     7  C    4.814396   0.948058  -0.026290   0.001497   0.000031   0.000001
     8  N    0.948058   6.128755   0.001359   0.000034   0.000000   0.000000
     9  C   -0.026290   0.001359   4.808202   0.954627   0.000585   0.000176
    10  N    0.001497   0.000034   0.954627   6.114837   0.000527  -0.000818
    11  C    0.000031   0.000000   0.000585   0.000527   4.808854   0.968632
    12  N    0.000001   0.000000   0.000176  -0.000818   0.968632   6.084354
    13  C   -0.000002  -0.000000   0.000039   0.000001  -0.025887   0.001633
    14  N   -0.000000  -0.000000   0.000000   0.000000   0.001613   0.000040
    15  C    0.000035   0.000001  -0.000002  -0.000000   0.000032   0.000000
    16  N    0.000000   0.000000  -0.000000   0.000000   0.000001   0.000000
    17  C    0.000635   0.000126   0.000037   0.000000  -0.000002  -0.000000
    18  N    0.000447  -0.000773   0.000001   0.000000  -0.000000  -0.000000
              13         14         15         16         17         18
     1  C    0.005364   0.000007   0.006186   0.000042  -0.015013  -0.000383
     2  C   -0.000196  -0.000001  -0.000167  -0.000000   0.001054   0.000076
     3  C    0.007457  -0.000075  -0.014843  -0.000403   0.005563   0.000021
     4  C    0.396098  -0.042445   0.001131   0.000086  -0.000212  -0.000001
     5  C   -0.014643  -0.000324   0.003032  -0.000071   0.004701  -0.000059
     6  C    0.000913   0.000058   0.381275  -0.040130   0.387001  -0.040236
     7  C   -0.000002  -0.000000   0.000035   0.000000   0.000635   0.000447
     8  N   -0.000000  -0.000000   0.000001   0.000000   0.000126  -0.000773
     9  C    0.000039   0.000000  -0.000002  -0.000000   0.000037   0.000001
    10  N    0.000001   0.000000  -0.000000   0.000000   0.000000   0.000000
    11  C   -0.025887   0.001613   0.000032   0.000001  -0.000002  -0.000000
    12  N    0.001633   0.000040   0.000000   0.000000  -0.000000  -0.000000
    13  C    4.832302   0.897584   0.000516   0.000372   0.000041   0.000000
    14  N    0.897584   6.230656   0.000189  -0.000731   0.000001   0.000000
    15  C    0.000516   0.000189   4.834989   0.911842  -0.025177   0.001611
    16  N    0.000372  -0.000731   0.911842   6.197410   0.001665   0.000034
    17  C    0.000041   0.000001  -0.025177   0.001665   4.830379   0.909504
    18  N    0.000000   0.000000   0.001611   0.000034   0.909504   6.200328
 Mulliken charges:
               1
     1  C    0.135884
     2  C   -0.481301
     3  C    0.138922
     4  C   -0.480624
     5  C    0.147188
     6  C   -0.471226
     7  C   -0.123607
     8  N   -0.038591
     9  C   -0.123060
    10  N   -0.029625
    11  C   -0.128876
    12  N   -0.015281
    13  C   -0.101591
    14  N   -0.086573
    15  C   -0.100650
    16  N   -0.070117
    17  C   -0.100303
    18  N   -0.070569
 Sum of Mulliken charges =  -2.00000
 Mulliken charges with hydrogens summed into heavy atoms:
               1
     1  C    0.135884
     2  C   -0.481301
     3  C    0.138922
     4  C   -0.480624
     5  C    0.147188
     6  C   -0.471226
     7  C   -0.123607
     8  N   -0.038591
     9  C   -0.123060
    10  N   -0.029625
    11  C   -0.128876
    12  N   -0.015281
    13  C   -0.101591
    14  N   -0.086573
    15  C   -0.100650
    16  N   -0.070117
    17  C   -0.100303
    18  N   -0.070569
 Electronic spatial extent (au):  <R**2>=          39504.9681
 Charge=             -2.0000 electrons
 Dipole moment (field-independent basis, Debye):
    X=             85.9849    Y=             17.0003    Z=             -9.8398  Tot=             88.2000
 Quadrupole moment (field-independent basis, Debye-Ang):
   XX=           -968.0585   YY=           -228.8126   ZZ=           -114.4795
   XY=           -150.8005   XZ=             89.1172   YZ=              7.8576
 Traceless Quadrupole moment (field-independent basis, Debye-Ang):
   XX=           -530.9416   YY=            208.3043   ZZ=            322.6374
   XY=           -150.8005   XZ=             89.1172   YZ=              7.8576
 Octapole moment (field-independent basis, Debye-Ang**2):
  XXX=          12216.9753  YYY=           1163.9654  ZZZ=           -332.3953  XYY=           2039.7335
  XXY=           1602.8749  XXZ=          -1016.7156  XZZ=           1025.9760  YZZ=            178.7237
  YYZ=           -195.9832  XYZ=            -72.1609
 Hexadecapole moment (field-independent basis, Debye-Ang**3):
 XXXX=        -161852.0595 YYYY=          -8971.7318 ZZZZ=           -812.7274 XXXY=         -18976.5919
 XXXZ=          12964.0400 YYYX=         -10363.1497 YYYZ=            772.6611 ZZZX=           2993.3200
 ZZZY=            382.0453 XXYY=         -20107.8060 XXZZ=         -10000.8760 YYZZ=          -1064.0589
 XXYZ=            841.7124 YYXZ=           1771.8307 ZZXY=          -1599.1250
 N-N= 9.467103078290D+02 E-N=-3.746567433733D+03  KE= 7.766079528738D+02
   1 Symmetry operations used in ECPInt.
 ECPInt:  NShTT=    5886 NPrTT=   23670 LenC2=    5383 LenP2D=   14814.
 LDataN:  DoStor=T MaxTD1= 5 Len=  102
 D1PCM: PCM CHGder 1st derivatives, ID1Alg=3 FixD1E=F DoIter=F DoCFld=F I1PDM=0.
 Calling FoFJK, ICntrl=      2127 FMM=F ISym2X=0 I1Cent= 0 IOpClX= 0 NMat=1 NMatS=1 NMatT=0.
 -------------------------------------------------------------------
 Center     Atomic                   Forces (Hartrees/Bohr)
 Number     Number              X              Y              Z
 -------------------------------------------------------------------
      1        6          -0.003318331   -0.087020947   -0.008946501
      2        6          -0.005004748    0.026155648    0.002918389
      3        6          -0.084023968    0.044491350    0.004908343
      4        6           0.034827440   -0.001794793   -0.001168772
      5        6           0.095311405    0.056832836    0.005236966
      6        6          -0.031054501   -0.022322002   -0.001716677
      7        6           0.079985618   -0.044837119   -0.005073206
      8        7          -0.045283216    0.023922587    0.002977743
      9        6          -0.095487254   -0.054532147   -0.005632409
     10        7           0.065106997    0.033002710    0.003510976
     11        6          -0.120869328   -0.072106683   -0.004844200
     12        7           0.081646125    0.052117536    0.003590260
     13        6          -0.005660381   -0.022551267   -0.003105355
     14        7           0.004080568    0.047523827    0.005769571
     15        6           0.009706965    0.006350660    0.000838065
     16        7          -0.005988826    0.026816608    0.001760241
     17        6           0.004154405    0.005144069    0.000095342
     18        7           0.021871030   -0.017192873   -0.001118776
 -------------------------------------------------------------------
 Cartesian Forces:  Max     0.120869328 RMS     0.041898787

 GradGradGradGradGradGradGradGradGradGradGradGradGradGradGradGradGradGrad
 Berny optimization.
 Search for a local minimum.
 Step number   1 out of a maximum of    2
 All quantities printed in internal units (Hartrees-Bohrs-Radians)
 Second derivative matrix not updated -- first step.
 ITU=  0
     Eigenvalues ---    0.00101   0.00139   0.00180   0.00289   0.00290
     Eigenvalues ---    0.00753   0.01470   0.01588   0.01896   0.01928
     Eigenvalues ---    0.03612   0.03793   0.05022   0.05076   0.09597
     Eigenvalues ---    0.14292   0.18615   0.18964   0.22725   0.23936
     Eigenvalues ---    0.24207   0.24623   0.28857   0.29089   0.43165
     Eigenvalues ---    0.59256   0.62232   0.68018   0.69005   0.72454
     Eigenvalues ---    0.95158   0.95659   1.02598   1.39845   1.43835
     Eigenvalues ---    1.71738   2.08604   2.10120   2.50536   2.58575
     Eigenvalues ---    2.63105   3.01073   3.13255   3.26047   3.82751
     Eigenvalues ---    5.04243   6.56317   8.02353
 Quadratic step=6.647D-01 exceeds max=3.000D-01 adjusted using Lamda=-1.022D-01.
 Angle between NR and scaled steps=  25.42 degrees.
 Angle between quadratic step and forces=  56.54 degrees.
 Linear search not attempted -- first point.
 B after Tr=     0.000096    0.000521    0.000121
         Rot=    1.000000    0.000003    0.000003   -0.000007 Ang=   0.00 deg.
 Variable       Old X    -DE/DX   Delta X   Delta X   Delta X     New X
                                 (Linear)    (Quad)   (Total)
    X1      -16.88767  -0.00332   0.00000  -0.00520  -0.00510 -16.89277
    Y1       -1.64265  -0.08702   0.00000  -0.06445  -0.06417  -1.70682
    Z1        2.10760  -0.00895   0.00000  -0.00673  -0.00672   2.10088
    X2      -16.88856  -0.00500   0.00000  -0.00818  -0.00812 -16.89668
    Y2        1.01936   0.02616   0.00000  -0.04997  -0.04969   0.96967
    Z2        2.37031   0.00292   0.00000  -0.00328  -0.00327   2.36704
    X3      -15.50401  -0.08402   0.00000  -0.06029  -0.06015 -15.56416
    Y3       -4.03777   0.04449   0.00000   0.03669   0.03698  -4.00079
    Z3        1.85894   0.00491   0.00000   0.00276   0.00280   1.86174
    X4      -13.20995   0.03483   0.00000  -0.03276  -0.03260 -13.24255
    Y4       -5.37019  -0.00179   0.00000   0.02083   0.02116  -5.34903
    Z4        1.69848  -0.00117   0.00000   0.00009   0.00015   1.69862
    X5      -18.30385   0.09531   0.00000   0.07090   0.07105 -18.23280
    Y5       -4.05751   0.05683   0.00000   0.04553   0.04579  -4.01173
    Z5        1.87681   0.00524   0.00000   0.00441   0.00443   1.88125
    X6      -20.59587  -0.03105   0.00000   0.03254   0.03271 -20.56316
    Y6       -5.35519  -0.02232   0.00000   0.01510   0.01532  -5.33986
    Z6        1.77006  -0.00172   0.00000   0.00203   0.00204   1.77210
    X7      -19.30631   0.07999   0.00000   0.06678   0.06683 -19.23948
    Y7        2.39250  -0.04484   0.00000  -0.06797  -0.06772   2.32478
    Z7        2.53913  -0.00507   0.00000  -0.00598  -0.00600   2.53313
    X8      -21.23978  -0.04528   0.00000   0.04644   0.04647 -21.19331
    Y8        3.34435   0.02392   0.00000  -0.01813  -0.01791   3.32644
    Z8        2.67939   0.00298   0.00000  -0.00354  -0.00358   2.67581
    X9      -14.49397  -0.09549   0.00000  -0.06645  -0.06641 -14.56038
    Y9        2.41365  -0.05453   0.00000  -0.07852  -0.07820   2.33544
    Z9        2.51213  -0.00563   0.00000  -0.00685  -0.00683   2.50529
   X10      -12.53603   0.06511   0.00000  -0.04013  -0.04010 -12.57613
   Y10        3.28467   0.03300   0.00000  -0.00787  -0.00752   3.27714
   Z10        2.60946   0.00351   0.00000  -0.00185  -0.00183   2.60763
   X11      -10.77384  -0.12087   0.00000  -0.10354  -0.10339 -10.87723
   Y11       -3.97781  -0.07211   0.00000  -0.03077  -0.03041  -4.00822
   Z11        1.79423  -0.00484   0.00000  -0.00209  -0.00202   1.79220
   X12       -9.00735   0.08165   0.00000  -0.02803  -0.02791  -9.03525
   Y12       -2.79407   0.05212   0.00000  -0.02508  -0.02469  -2.81876
   Z12        1.87681   0.00359   0.00000  -0.00099  -0.00091   1.87589
   X13      -13.19336  -0.00566   0.00000  -0.02352  -0.02332 -13.21667
   Y13       -8.07940  -0.02255   0.00000   0.04973   0.05006  -8.02934
   Z13        1.39025  -0.00311   0.00000   0.00428   0.00435   1.39460
   X14      -13.31834   0.00408   0.00000   0.00773   0.00797 -13.31037
   Y14      -10.30269   0.04752   0.00000   0.08278   0.08311 -10.21959
   Z14        1.12710   0.00577   0.00000   0.01052   0.01060   1.13770
   X15      -20.61998   0.00971   0.00000   0.03406   0.03426 -20.58572
   Y15       -8.11126   0.00635   0.00000   0.06567   0.06589  -8.04537
   Z15        1.55916   0.00084   0.00000   0.00637   0.00640   1.56555
   X16      -20.39697  -0.00599   0.00000  -0.01560  -0.01537 -20.41233
   Y16      -10.31564   0.02682   0.00000   0.07717   0.07740 -10.23825
   Z16        1.40426   0.00176   0.00000   0.00501   0.00504   1.40931
   X17      -22.97972   0.00415   0.00000   0.06383   0.06397 -22.91575
   Y17       -3.99410   0.00514   0.00000  -0.00919  -0.00900  -4.00310
   Z17        1.87678   0.00010   0.00000  -0.00124  -0.00125   1.87553
   X18      -24.82010   0.02187   0.00000   0.05908   0.05920 -24.76090
   Y18       -2.75240  -0.01719   0.00000  -0.04655  -0.04639  -2.79878
   Z18        1.96349  -0.00112   0.00000  -0.00336  -0.00339   1.96010
         Item               Value     Threshold  Converged?
 Maximum Force            0.120869     0.000450     NO 
 RMS     Force            0.041899     0.000300     NO 
 Maximum Displacement     0.103393     0.001800     NO 
 RMS     Displacement     0.040903     0.001200     NO 
 Predicted change in Energy=-3.013199D-02
 GradGradGradGradGradGradGradGradGradGradGradGradGradGradGradGradGradGrad

 Unable to Open any file for archive entry.
 1\1\GINC-X10P1N4\Force\RwB97XD\def2SVP\C12N6(2-)\MAYUMIAO\11-Oct-2024\
 0\\# wb97xd def2svp scrf=(smd,solvent=acetonitrile) g09default scf=(xq
 c,maxcycle=64) force guess=read nosymm\\Title Card\\-2,1\C,-8.93657017
 ,-0.86925299,1.11529388\C,-8.93704213,0.53941955,1.2543119\C,-8.204367
 92,-2.13669831,0.98370721\C,-6.9904025,-2.84178372,0.89879511\C,-9.685
 98121,-2.1471423,0.99316748\C,-10.89886256,-2.83384265,0.93667378\C,-1
 0.21645844,1.26605651,1.34365092\N,-11.23960917,1.76975613,1.41787326\
 C,-7.6698768,1.27724595,1.32935996\N,-6.63378236,1.73816995,1.3808659\
 C,-5.70126912,-2.1049686,0.94946353\N,-4.76648195,-1.47856068,0.993162
 86\C,-6.9816238,-4.27543627,0.73568705\N,-7.04776053,-5.45195035,0.596
 4349\C,-10.91162323,-4.29229443,0.82507054\N,-10.79360939,-5.4588029,0
 .74310325\C,-12.16034431,-2.11358796,0.99314995\N,-13.13422939,-1.4565
 0512,1.03903324\\Version=ES64L-G16RevC.01\HF=-784.9954021\RMSD=8.572e-
 09\RMSF=4.190e-02\Dipole=0.0435893,0.2050665,0.0190139\Quadrupole=-394
 .7421233,154.8691137,239.8730096,-112.1164975,66.256452,5.8419118\PG=C
 01 [X(C12N6)]\\@
 The archive entry for this job was punched.


 IT WAS A GAME, A VERY INTERESTING GAME ONE COULD
 PLAY.  WHENEVER ONE SOLVED ONE OF THE LITTLE PROBLEMS,
 ONE COULD WRITE A PAPER ABOUT IT.  IT WAS VERY EASY IN
 THOSE DAYS FOR ANY SECOND-RATE PHYSICIST TO DO
 FIRST-RATE WORK.  THERE HAS NOT BEEN SUCH A GLORIOUS
 TIME SINCE.  IT IS VERY DIFFICULT NOW FOR A FIRST-RATE
 PHYSICIST TO DO SECOND-RATE WORK.
     P.A.M. DIRAC, ON THE EARLY DAYS OF QUANTUM MECHANICS
                   DIRECTIONS IN PHYSICS, 1978, P. 7
 Job cpu time:       0 days  0 hours 10 minutes  6.9 seconds.
 Elapsed time:       0 days  0 hours  0 minutes 23.0 seconds.
 File lengths (MBytes):  RWF=    150 Int=      0 D2E=      0 Chk=      8 Scr=      1
 Normal termination of Gaussian 16 at Fri Oct 11 15:54:52 2024.
