 Entering Gaussian System, Link 0=g16
 Input=JOBS/2_A.gjf
 Output=JOBS/2_A.log
 Initial command:
 /data/app/gaussian/C01-avx2//g16/l1.exe "/tmp/Gau-2516674.inp" -scrdir="/tmp/"
 Entering Link 1 = /data/app/gaussian/C01-avx2//g16/l1.exe PID=   2516675.
  
 Copyright (c) 1988-2019, Gaussian, Inc.  All Rights Reserved.
  
 This is part of the Gaussian(R) 16 program.  It is based on
 the Gaussian(R) 09 system (copyright 2009, Gaussian, Inc.),
 the Gaussian(R) 03 system (copyright 2003, Gaussian, Inc.),
 the Gaussian(R) 98 system (copyright 1998, Gaussian, Inc.),
 the Gaussian(R) 94 system (copyright 1995, Gaussian, Inc.),
 the Gaussian 92(TM) system (copyright 1992, Gaussian, Inc.),
 the Gaussian 90(TM) system (copyright 1990, Gaussian, Inc.),
 the Gaussian 88(TM) system (copyright 1988, Gaussian, Inc.),
 the Gaussian 86(TM) system (copyright 1986, Carnegie Mellon
 University), and the Gaussian 82(TM) system (copyright 1983,
 Carnegie Mellon University). Gaussian is a federally registered
 trademark of Gaussian, Inc.
  
 This software contains proprietary and confidential information,
 including trade secrets, belonging to Gaussian, Inc.
  
 This software is provided under written license and may be
 used, copied, transmitted, or stored only in accord with that
 written license.
  
 The following legend is applicable only to US Government
 contracts under FAR:
  
                    RESTRICTED RIGHTS LEGEND
  
 Use, reproduction and disclosure by the US Government is
 subject to restrictions as set forth in subparagraphs (a)
 and (c) of the Commercial Computer Software - Restricted
 Rights clause in FAR 52.227-19.
  
 Gaussian, Inc.
 340 Quinnipiac St., Bldg. 40, Wallingford CT 06492
  
  
 ---------------------------------------------------------------
 Warning -- This program may not be used in any manner that
 competes with the business of Gaussian, Inc. or will provide
 assistance to any competitor of Gaussian, Inc.  The licensee
 of this program is prohibited from giving any competitor of
 Gaussian, Inc. access to this program.  By using this program,
 the user acknowledges that Gaussian, Inc. is engaged in the
 business of creating and licensing software in the field of
 computational chemistry and represents and warrants to the
 licensee that it is not a competitor of Gaussian, Inc. and that
 it will not use this program in any manner prohibited above.
 ---------------------------------------------------------------
  

 Cite this work as:
 Gaussian 16, Revision C.01,
 M. J. Frisch, G. W. Trucks, H. B. Schlegel, G. E. Scuseria, 
 M. A. Robb, J. R. Cheeseman, G. Scalmani, V. Barone, 
 G. A. Petersson, H. Nakatsuji, X. Li, M. Caricato, A. V. Marenich, 
 J. Bloino, B. G. Janesko, R. Gomperts, B. Mennucci, H. P. Hratchian, 
 J. V. Ortiz, A. F. Izmaylov, J. L. Sonnenberg, D. Williams-Young, 
 F. Ding, F. Lipparini, F. Egidi, J. Goings, B. Peng, A. Petrone, 
 T. Henderson, D. Ranasinghe, V. G. Zakrzewski, J. Gao, N. Rega, 
 G. Zheng, W. Liang, M. Hada, M. Ehara, K. Toyota, R. Fukuda, 
 J. Hasegawa, M. Ishida, T. Nakajima, Y. Honda, O. Kitao, H. Nakai, 
 T. Vreven, K. Throssell, J. A. Montgomery, Jr., J. E. Peralta, 
 F. Ogliaro, M. J. Bearpark, J. J. Heyd, E. N. Brothers, K. N. Kudin, 
 V. N. Staroverov, T. A. Keith, R. Kobayashi, J. Normand, 
 K. Raghavachari, A. P. Rendell, J. C. Burant, S. S. Iyengar, 
 J. Tomasi, M. Cossi, J. M. Millam, M. Klene, C. Adamo, R. Cammi, 
 J. W. Ochterski, R. L. Martin, K. Morokuma, O. Farkas, 
 J. B. Foresman, and D. J. Fox, Gaussian, Inc., Wallingford CT, 2019.
 
 ******************************************
 Gaussian 16:  ES64L-G16RevC.01  3-Jul-2019
                11-Oct-2024 
 ******************************************
 %chk=a.chk
 %nprocshared=28
 Will use up to   28 processors via shared memory.
 %mem=48gb
 ----------------------------------------------------------------------
 # wb97xd def2svp scrf=(smd,solvent=acetonitrile) g09default scf=(xqc,m
 axcycle=64) force guess=read nosymm
 ----------------------------------------------------------------------
 1/10=7,30=1,38=1,158=3,167=1/1,3;
 2/12=2,15=1,17=6,18=5,40=1/2;
 3/5=43,7=101,11=2,25=1,27=10,30=1,70=32201,71=1,72=2,74=-58,75=-4,116=-2,158=3/1,2,3;
 4/5=1,60=-1/1;
 5/5=2,7=64,8=3,13=1,38=6,53=2,87=10/2,8;
 6/7=2,8=2,9=2,10=2,28=1,87=10/1;
 7/29=1,30=1,87=10/1,2,3,16;
 1/10=7,30=1,158=3,167=1/3;
 99//99;
 Using 2006 physical constants.
 ----------
 Title Card
 ----------
 Symbolic Z-matrix:
 Charge = -2 Multiplicity = 1
 6                    -8.93932  -0.91572   1.10781 
 6                    -8.93844   0.46478   1.24951 
 6                    -8.24278  -2.11676   0.98152 
 6                    -7.04017  -2.80424   0.89872 
 6                    -9.63705  -2.11734   0.9944 
 6                    -10.84008  -2.8068    0.93802 
 6                    -10.18198   1.18192   1.33604 
 7                    -11.16681   1.72457   1.40177 
 6                    -7.69392   1.18216   1.31862 
 7                    -6.70858   1.72522   1.37165 
 6                    -5.79441  -2.08776   0.95525 
 7                    -4.82996  -1.50786   1.00068 
 6                    -7.0351   -4.23447   0.74829 
 7                    -7.05381  -5.35438   0.62922 
 6                    -10.84531  -4.23986   0.81743 
 7                    -10.8266  -5.36245   0.72759 
 6                    -12.08573  -2.09069   1.00197 
 7                    -13.04984  -1.5105    1.05029 
 

 GradGradGradGradGradGradGradGradGradGradGradGradGradGradGradGradGradGrad
 Berny optimization.
 Initialization pass.
 Trust Radius=3.00D-01 FncErr=1.00D-07 GrdErr=1.00D-07 EigMax=2.50D+02 EigMin=1.00D-04
 Number of steps in this run=      2 maximum allowed number of steps=      2.
 GradGradGradGradGradGradGradGradGradGradGradGradGradGradGradGradGradGrad

                          Input orientation:                          
 ---------------------------------------------------------------------
 Center     Atomic      Atomic             Coordinates (Angstroms)
 Number     Number       Type             X           Y           Z
 ---------------------------------------------------------------------
      1          6           0       -8.939319   -0.915717    1.107813
      2          6           0       -8.938441    0.464779    1.249509
      3          6           0       -8.242780   -2.116759    0.981519
      4          6           0       -7.040172   -2.804245    0.898722
      5          6           0       -9.637051   -2.117343    0.994404
      6          6           0      -10.840081   -2.806797    0.938025
      7          6           0      -10.181980    1.181924    1.336040
      8          7           0      -11.166810    1.724568    1.401774
      9          6           0       -7.693925    1.182164    1.318624
     10          7           0       -6.708579    1.725221    1.371653
     11          6           0       -5.794410   -2.087760    0.955245
     12          7           0       -4.829959   -1.507862    1.000684
     13          6           0       -7.035101   -4.234473    0.748292
     14          7           0       -7.053811   -5.354375    0.629220
     15          6           0      -10.845310   -4.239860    0.817426
     16          7           0      -10.826597   -5.362452    0.727595
     17          6           0      -12.085728   -2.090690    1.001974
     18          7           0      -13.049841   -1.510502    1.050285
 ---------------------------------------------------------------------
                    Distance matrix (angstroms):
                    1          2          3          4          5
     1  C    0.000000
     2  C    1.387749   0.000000
     3  C    1.394137   2.687025   0.000000
     4  C    2.686450   3.796445   1.387716   0.000000
     5  C    1.394129   2.687096   1.394331   2.687893   0.000000
     6  C    2.686616   3.796902   2.687753   3.800113   1.387734
     7  C    2.448754   1.438115   3.842850   5.094286   3.361373
     8  N    3.466877   2.564348   4.845861   6.147548   4.155285
     9  C    2.448786   1.438138   3.361217   4.061424   3.842864
    10  N    3.467040   2.564356   4.155332   4.566144   4.845984
    11  C    3.359674   4.060416   2.448683   1.438217   3.842954
    12  N    4.153185   4.564302   3.466766   2.564380   4.845579
    13  C    3.843102   5.094790   2.448998   1.438126   3.363473
    14  N    4.846223   6.148101   3.466975   2.564368   4.157507
    15  C    3.842793   5.094750   3.362685   4.067761   2.448733
    16  N    4.845599   6.147694   4.156334   4.572825   3.466546
    17  C    3.360306   4.061663   3.843091   5.096809   2.448834
    18  N    4.153730   4.565635   4.845628   6.149216   3.466773
                    6          7          8          9         10
     6  C    0.000000
     7  C    4.062193   0.000000
     8  N    4.566737   1.126353   0.000000
     9  C    5.094601   2.488117   3.515970   0.000000
    10  N    6.147888   3.515815   4.458332   1.126334   0.000000
    11  C    5.096676   5.485127   6.602720   3.799027   3.943085
    12  N    6.149205   5.999295   7.124967   3.942033   3.757613
    13  C    4.068430   6.291713   7.280675   5.486281   6.001095
    14  N    4.573987   7.280677   8.223445   6.603891   7.126786
    15  C    1.438139   5.486776   6.001603   6.291326   7.280241
    16  N    2.564339   6.604135   7.127139   7.279763   8.222407
    17  C    1.438240   3.800771   3.944673   5.486327   6.603906
    18  N    2.564375   3.944038   3.759658   6.000691   7.126344
                   11         12         13         14         15
    11  C    0.000000
    12  N    1.126282   0.000000
    13  C    2.488076   3.515787   0.000000
    14  N    3.516129   4.458606   1.126371   0.000000
    15  C    5.492005   6.609224   3.810840   3.956391   0.000000
    16  N    6.008189   7.133870   3.955782   3.774077   1.126335
    17  C    6.291492   7.279139   5.492630   6.009224   2.488298
    18  N    7.278979   8.220031   6.609713   7.134776   3.516188
                   16         17         18
    16  N    0.000000
    17  C    3.516407   0.000000
    18  N    4.459199   1.126262   0.000000
 Symmetry turned off by external request.
 Stoichiometry    C12N6(2-)
 Framework group  C1[X(C12N6)]
 Deg. of freedom    48
 Full point group                 C1      NOp   1
 Rotational constants (GHZ):           0.4317178           0.4311731           0.2157366
 Standard basis: def2SVP (5D, 7F)
   252 basis functions,   450 primitive gaussians,   270 cartesian basis functions
    58 alpha electrons       58 beta electrons
       nuclear repulsion energy       969.3102927221 Hartrees.
 NAtoms=   18 NActive=   18 NUniq=   18 SFac= 1.00D+00 NAtFMM=   60 NAOKFM=F Big=F
 Integral buffers will be    131072 words long.
 Raffenetti 2 integral format.
 Two-electron integral symmetry is turned off.
 Nuclear repulsion after empirical dispersion term =      969.2985291608 Hartrees.
 Force PCM accuracy= 1.00D-10.
 ------------------------------------------------------------------------------
 Polarizable Continuum Model (PCM)
 =================================
 Model                : PCM (using non-symmetric T matrix).
 Atomic radii         : SMD-Coulomb.
 Polarization charges : Total charges.
 Charge compensation  : None.
 Solution method      : On-the-fly selection.
 Cavity type          : VdW (van der Waals Surface) (Alpha=1.000).
 Cavity algorithm     : GePol (No added spheres)
                        Default sphere list used, NSphG=   18.
                        Lebedev-Laikov grids with approx.  5.0 points / Ang**2.
                        Smoothing algorithm: York/Karplus (Gamma=1.0000).
                        Polarization charges: spherical gaussians, with
                                              point-specific exponents (IZeta= 3).
                        Self-potential: point-specific (ISelfS= 7).
                        Self-field    : sphere-specific E.n sum rule (ISelfD= 2).
 1st derivatives      : Analytical E(r).r(x)/FMM algorithm (CHGder, D1EAlg=3).
                        Cavity 1st derivative terms included.
 Solvent              : Acetonitrile, Eps=  35.688000 Eps(inf)=   1.806874
 ------------------------------------------------------------------------------
 Spheres list:
 ISph  on   Nord     Re0    Alpha      Xe            Ye            Ze
    1   C      1    1.8500  1.000     -8.939319     -0.915717      1.107813
    2   C      2    1.8500  1.000     -8.938441      0.464779      1.249509
    3   C      3    1.8500  1.000     -8.242780     -2.116759      0.981519
    4   C      4    1.8500  1.000     -7.040172     -2.804245      0.898722
    5   C      5    1.8500  1.000     -9.637051     -2.117343      0.994404
    6   C      6    1.8500  1.000    -10.840081     -2.806797      0.938025
    7   C      7    1.8500  1.000    -10.181980      1.181924      1.336040
    8   N      8    1.8900  1.000    -11.166810      1.724568      1.401774
    9   C      9    1.8500  1.000     -7.693925      1.182164      1.318624
   10   N     10    1.8900  1.000     -6.708579      1.725221      1.371653
   11   C     11    1.8500  1.000     -5.794410     -2.087760      0.955245
   12   N     12    1.8900  1.000     -4.829959     -1.507862      1.000684
   13   C     13    1.8500  1.000     -7.035101     -4.234473      0.748292
   14   N     14    1.8900  1.000     -7.053811     -5.354375      0.629220
   15   C     15    1.8500  1.000    -10.845310     -4.239860      0.817426
   16   N     16    1.8900  1.000    -10.826597     -5.362452      0.727595
   17   C     17    1.8500  1.000    -12.085728     -2.090690      1.001974
   18   N     18    1.8900  1.000    -13.049841     -1.510502      1.050285
 ------------------------------------------------------------------------------
 ------------------------------------------------------------------------------
 Atomic radii for non-electrostatic terms: SMD-CDS.
 ------------------------------------------------------------------------------
 Nuclear repulsion after PCM non-electrostatic terms =      969.3068842455 Hartrees.
 One-electron integrals computed using PRISM.
   1 Symmetry operations used in ECPInt.
 ECPInt:  NShTT=    5886 NPrTT=   23670 LenC2=    5404 LenP2D=   14981.
 LDataN:  DoStor=T MaxTD1= 4 Len=   56
 NBasis=   252 RedAO= T EigKep=  2.20D-04  NBF=   252
 NBsUse=   252 1.00D-06 EigRej= -1.00D+00 NBFU=   252
 Initial guess from the checkpoint file:  "a.chk"
 B after Tr=    -0.000010   -0.000021   -0.000113
         Rot=    1.000000    0.000000   -0.000003    0.000001 Ang=  -0.00 deg.
 Requested convergence on RMS density matrix=1.00D-08 within  64 cycles.
 Requested convergence on MAX density matrix=1.00D-06.
 Requested convergence on             energy=1.00D-06.
 No special actions if energy rises.
 Inv3:  Mode=1 IEnd=    19172352.
 Iteration    1 A*A^-1 deviation from unit magnitude is 3.44D-15 for   2476.
 Iteration    1 A*A^-1 deviation from orthogonality  is 2.28D-15 for    698    295.
 Iteration    1 A^-1*A deviation from unit magnitude is 3.55D-15 for   1091.
 Iteration    1 A^-1*A deviation from orthogonality  is 7.54D-13 for    805    786.
 Error on total polarization charges =  0.02140
 SCF Done:  E(RwB97XD) =  -785.009475762     A.U. after   12 cycles
            NFock= 12  Conv=0.51D-08     -V/T= 2.0085
 SMD-CDS (non-electrostatic) energy       (kcal/mol) =       5.24
 (included in total energy above)
 QCSCF skips out because SCF is already converged.

 **********************************************************************

            Population analysis using the SCF Density.

 **********************************************************************

 Alpha  occ. eigenvalues --  -14.41956 -14.41954 -14.41953 -14.41950 -14.41948
 Alpha  occ. eigenvalues --  -14.41944 -10.34420 -10.34352 -10.34344 -10.32874
 Alpha  occ. eigenvalues --  -10.32873 -10.32873 -10.32871 -10.32867 -10.32866
 Alpha  occ. eigenvalues --  -10.32507 -10.32507 -10.32499  -1.02488  -1.00119
 Alpha  occ. eigenvalues --   -1.00119  -0.99689  -0.99342  -0.99340  -0.99268
 Alpha  occ. eigenvalues --   -0.87625  -0.87622  -0.85318  -0.68006  -0.67995
 Alpha  occ. eigenvalues --   -0.64231  -0.64220  -0.63909  -0.63473  -0.52092
 Alpha  occ. eigenvalues --   -0.47825  -0.47824  -0.46370  -0.46366  -0.45049
 Alpha  occ. eigenvalues --   -0.44924  -0.44924  -0.44393  -0.44314  -0.44307
 Alpha  occ. eigenvalues --   -0.44160  -0.43564  -0.43103  -0.43099  -0.42924
 Alpha  occ. eigenvalues --   -0.42589  -0.42579  -0.41489  -0.40759  -0.40759
 Alpha  occ. eigenvalues --   -0.31620  -0.31617  -0.23075
 Alpha virt. eigenvalues --    0.08360   0.08363   0.10163   0.10669   0.10677
 Alpha virt. eigenvalues --    0.14006   0.14202   0.14209   0.14677   0.16189
 Alpha virt. eigenvalues --    0.16197   0.16361   0.21071   0.21085   0.25076
 Alpha virt. eigenvalues --    0.28016   0.28118   0.28122   0.29377   0.29382
 Alpha virt. eigenvalues --    0.30385   0.33511   0.33522   0.33957   0.37111
 Alpha virt. eigenvalues --    0.37153   0.37279   0.49378   0.49383   0.50578
 Alpha virt. eigenvalues --    0.50763   0.54053   0.54057   0.54916   0.54930
 Alpha virt. eigenvalues --    0.57122   0.57150   0.57823   0.59929   0.61089
 Alpha virt. eigenvalues --    0.61431   0.61447   0.62897   0.62927   0.65065
 Alpha virt. eigenvalues --    0.65127   0.71684   0.71823   0.71830   0.74251
 Alpha virt. eigenvalues --    0.74278   0.74381   0.74421   0.75005   0.75369
 Alpha virt. eigenvalues --    0.75598   0.75636   0.77436   0.77705   0.77708
 Alpha virt. eigenvalues --    0.81994   0.82060   0.82436   0.83703   0.83714
 Alpha virt. eigenvalues --    0.89295   0.89623   0.89645   0.90051   0.95574
 Alpha virt. eigenvalues --    0.95628   0.95702   0.95728   0.96426   0.96752
 Alpha virt. eigenvalues --    0.98658   1.01187   1.01190   1.02285   1.02310
 Alpha virt. eigenvalues --    1.03082   1.03114   1.06120   1.06155   1.06953
 Alpha virt. eigenvalues --    1.10227   1.10581   1.13370   1.13371   1.17190
 Alpha virt. eigenvalues --    1.17200   1.20123   1.21803   1.21845   1.21912
 Alpha virt. eigenvalues --    1.23131   1.26427   1.26435   1.27907   1.34587
 Alpha virt. eigenvalues --    1.39022   1.39090   1.42871   1.42878   1.45005
 Alpha virt. eigenvalues --    1.45052   1.46615   1.48791   1.48805   1.59344
 Alpha virt. eigenvalues --    1.59897   1.68176   1.70201   1.70206   1.70325
 Alpha virt. eigenvalues --    1.70679   1.70683   1.78227   1.78251   1.79631
 Alpha virt. eigenvalues --    1.80601   1.80632   1.80696   1.80739   1.84348
 Alpha virt. eigenvalues --    1.85635   1.85658   1.87733   1.97151   1.97155
 Alpha virt. eigenvalues --    1.97415   2.00591   2.03905   2.03924   2.06574
 Alpha virt. eigenvalues --    2.06612   2.10509   2.10689   2.16341   2.16375
 Alpha virt. eigenvalues --    2.21496   2.24269   2.24497   2.24504   2.30173
 Alpha virt. eigenvalues --    2.31617   2.31650   2.32958   2.37506   2.37509
 Alpha virt. eigenvalues --    2.38109   2.38127   2.38450   2.38456   2.39002
 Alpha virt. eigenvalues --    2.39943   2.39957   2.39995   2.40284   2.40485
 Alpha virt. eigenvalues --    2.41988   2.41991   2.61369   2.66515   2.66536
 Alpha virt. eigenvalues --    2.75543   2.75566   2.98898   3.01902   3.01907
 Alpha virt. eigenvalues --    3.01952   3.05186   3.05211   3.05988   3.09241
 Alpha virt. eigenvalues --    3.11565   3.11575   3.14273   3.14298   3.18282
 Alpha virt. eigenvalues --    3.18284   3.18796   3.28719   3.28736   3.34327
 Alpha virt. eigenvalues --    3.46241   3.46275   3.48167   3.62843   3.65522
 Alpha virt. eigenvalues --    3.65547   3.71048   3.71059   3.83216
          Condensed to atoms (all electrons):
               1          2          3          4          5          6
     1  C    4.968020   0.495632   0.318423  -0.119607   0.318485  -0.119657
     2  C    0.495632   5.558775  -0.119603  -0.007699  -0.119645  -0.007695
     3  C    0.318423  -0.119603   4.968353   0.495706   0.318051  -0.119914
     4  C   -0.119607  -0.007699   0.495706   5.559475  -0.119955  -0.007696
     5  C    0.318485  -0.119645   0.318051  -0.119955   4.968640   0.495741
     6  C   -0.119657  -0.007695  -0.119914  -0.007696   0.495741   5.559602
     7  C    0.010921   0.393068   0.006351  -0.000501  -0.023876   0.002912
     8  N   -0.001048  -0.042836  -0.000064  -0.000002  -0.000728   0.000165
     9  C    0.010994   0.392988  -0.023871   0.002921   0.006349  -0.000499
    10  N   -0.001045  -0.042836  -0.000727   0.000166  -0.000064  -0.000002
    11  C   -0.023956   0.002893   0.011167   0.392794   0.006374  -0.000491
    12  N   -0.000731   0.000165  -0.001037  -0.042822  -0.000064  -0.000002
    13  C    0.006403  -0.000496   0.010721   0.393411  -0.023886   0.002845
    14  N   -0.000063  -0.000002  -0.001052  -0.042862  -0.000731   0.000159
    15  C    0.006412  -0.000495  -0.023915   0.002840   0.010836   0.393339
    16  N   -0.000063  -0.000002  -0.000733   0.000159  -0.001048  -0.042876
    17  C   -0.023952   0.002886   0.006389  -0.000490   0.011054   0.392772
    18  N   -0.000732   0.000165  -0.000064  -0.000002  -0.001038  -0.042841
               7          8          9         10         11         12
     1  C    0.010921  -0.001048   0.010994  -0.001045  -0.023956  -0.000731
     2  C    0.393068  -0.042836   0.392988  -0.042836   0.002893   0.000165
     3  C    0.006351  -0.000064  -0.023871  -0.000727   0.011167  -0.001037
     4  C   -0.000501  -0.000002   0.002921   0.000166   0.392794  -0.042822
     5  C   -0.023876  -0.000728   0.006349  -0.000064   0.006374  -0.000064
     6  C    0.002912   0.000165  -0.000499  -0.000002  -0.000491  -0.000002
     7  C    4.854460   0.964629  -0.052004   0.001961   0.000120   0.000002
     8  N    0.964629   6.078911   0.001962   0.000076   0.000000   0.000000
     9  C   -0.052004   0.001962   4.854508   0.964630  -0.000341   0.000188
    10  N    0.001961   0.000076   0.964630   6.078908   0.000179  -0.000954
    11  C    0.000120   0.000000  -0.000341   0.000179   4.854381   0.964629
    12  N    0.000002   0.000000   0.000188  -0.000954   0.964629   6.078821
    13  C   -0.000014  -0.000000   0.000119   0.000002  -0.051876   0.001962
    14  N   -0.000000  -0.000000   0.000000   0.000000   0.001963   0.000076
    15  C    0.000119   0.000002  -0.000014  -0.000000   0.000118   0.000000
    16  N    0.000000   0.000000  -0.000000  -0.000000   0.000002   0.000000
    17  C   -0.000342   0.000180   0.000119   0.000000  -0.000014  -0.000000
    18  N    0.000186  -0.000949   0.000002   0.000000  -0.000000  -0.000000
              13         14         15         16         17         18
     1  C    0.006403  -0.000063   0.006412  -0.000063  -0.023952  -0.000732
     2  C   -0.000496  -0.000002  -0.000495  -0.000002   0.002886   0.000165
     3  C    0.010721  -0.001052  -0.023915  -0.000733   0.006389  -0.000064
     4  C    0.393411  -0.042862   0.002840   0.000159  -0.000490  -0.000002
     5  C   -0.023886  -0.000731   0.010836  -0.001048   0.011054  -0.001038
     6  C    0.002845   0.000159   0.393339  -0.042876   0.392772  -0.042841
     7  C   -0.000014  -0.000000   0.000119   0.000000  -0.000342   0.000186
     8  N   -0.000000  -0.000000   0.000002   0.000000   0.000180  -0.000949
     9  C    0.000119   0.000000  -0.000014  -0.000000   0.000119   0.000002
    10  N    0.000002   0.000000  -0.000000  -0.000000   0.000000   0.000000
    11  C   -0.051876   0.001963   0.000118   0.000002  -0.000014  -0.000000
    12  N    0.001962   0.000076   0.000000   0.000000  -0.000000  -0.000000
    13  C    4.854138   0.964743  -0.000341   0.000179   0.000118   0.000000
    14  N    0.964743   6.078997   0.000175  -0.000919   0.000002   0.000000
    15  C   -0.000341   0.000175   4.854111   0.964773  -0.051866   0.001960
    16  N    0.000179  -0.000919   0.964773   6.078991   0.001962   0.000076
    17  C    0.000118   0.000002  -0.051866   0.001962   4.854377   0.964679
    18  N    0.000000   0.000000   0.001960   0.000076   0.964679   6.078737
 Mulliken charges:
               1
     1  C    0.155566
     2  C   -0.505261
     3  C    0.155821
     4  C   -0.505836
     5  C    0.155506
     6  C   -0.505863
     7  C   -0.157992
     8  N   -0.000298
     9  C   -0.158052
    10  N   -0.000294
    11  C   -0.157940
    12  N   -0.000234
    13  C   -0.158028
    14  N   -0.000485
    15  C   -0.158055
    16  N   -0.000502
    17  C   -0.157873
    18  N   -0.000179
 Sum of Mulliken charges =  -2.00000
 Mulliken charges with hydrogens summed into heavy atoms:
               1
     1  C    0.155566
     2  C   -0.505261
     3  C    0.155821
     4  C   -0.505836
     5  C    0.155506
     6  C   -0.505863
     7  C   -0.157992
     8  N   -0.000298
     9  C   -0.158052
    10  N   -0.000294
    11  C   -0.157940
    12  N   -0.000234
    13  C   -0.158028
    14  N   -0.000485
    15  C   -0.158055
    16  N   -0.000502
    17  C   -0.157873
    18  N   -0.000179
 Electronic spatial extent (au):  <R**2>=          39312.1907
 Charge=             -2.0000 electrons
 Dipole moment (field-independent basis, Debye):
    X=             85.8732    Y=             16.4633    Z=             -9.8992  Tot=             87.9957
 Quadrupole moment (field-independent basis, Debye-Ang):
   XX=           -964.8327   YY=           -224.4499   ZZ=           -113.0758
   XY=           -147.2458   XZ=             89.2979   YZ=              7.6253
 Traceless Quadrupole moment (field-independent basis, Debye-Ang):
   XX=           -530.7132   YY=            209.6696   ZZ=            321.0437
   XY=           -147.2458   XZ=             89.2979   YZ=              7.6253
 Octapole moment (field-independent basis, Debye-Ang**2):
  XXX=          12150.4914  YYY=           1126.3101  ZZZ=           -328.1725  XYY=           2006.8484
  XXY=           1586.6095  XXZ=          -1014.0262  XZZ=           1012.3775  YZZ=            175.1057
  YYZ=           -193.6817  XYZ=            -70.1784
 Hexadecapole moment (field-independent basis, Debye-Ang**3):
 XXXX=        -160500.2467 YYYY=          -8561.4703 ZZZZ=           -799.4009 XXXY=         -19012.8387
 XXXZ=          12881.0818 YYYX=         -10073.3219 YYYZ=            758.1883 ZZZX=           2950.4508
 ZZZY=            380.7191 XXYY=         -19815.8261 XXZZ=          -9841.1232 YYZZ=          -1025.2400
 XXYZ=            834.6940 YYXZ=           1748.0826 ZZXY=          -1568.2848
 N-N= 9.693068842455D+02 E-N=-3.793537870474D+03  KE= 7.783867243439D+02
   1 Symmetry operations used in ECPInt.
 ECPInt:  NShTT=    5886 NPrTT=   23670 LenC2=    5404 LenP2D=   14981.
 LDataN:  DoStor=T MaxTD1= 5 Len=  102
 D1PCM: PCM CHGder 1st derivatives, ID1Alg=3 FixD1E=F DoIter=F DoCFld=F I1PDM=0.
 Calling FoFJK, ICntrl=      2127 FMM=F ISym2X=0 I1Cent= 0 IOpClX= 0 NMat=1 NMatS=1 NMatT=0.
 -------------------------------------------------------------------
 Center     Atomic                   Forces (Hartrees/Bohr)
 Number     Number              X              Y              Z
 -------------------------------------------------------------------
      1        6          -0.000017972   -0.027046194   -0.002642425
      2        6           0.000031260    0.028618637    0.003023965
      3        6          -0.023605629    0.013513298    0.001495124
      4        6           0.024902926   -0.014142937   -0.001678960
      5        6           0.023636583    0.013519483    0.001135714
      6        6          -0.024911184   -0.014195603   -0.001147463
      7        6           0.101490784   -0.054876606   -0.006668468
      8        7          -0.087598320    0.048070553    0.005982352
      9        6          -0.101637597   -0.054927335   -0.005400366
     10        7           0.087721140    0.048154159    0.004812709
     11        6          -0.098724374   -0.060503615   -0.004780889
     12        7           0.085851782    0.051810813    0.003972352
     13        6           0.002776947    0.114842119    0.012067975
     14        7          -0.001805367   -0.099494244   -0.010749981
     15        6          -0.002801550    0.115209084    0.009392259
     16        7           0.001795772   -0.099870325   -0.007943912
     17        6           0.098781166   -0.060546308   -0.005167031
     18        7          -0.085886367    0.051865021    0.004297044
 -------------------------------------------------------------------
 Cartesian Forces:  Max     0.115209084 RMS     0.051871110

 GradGradGradGradGradGradGradGradGradGradGradGradGradGradGradGradGradGrad
 Berny optimization.
 Search for a local minimum.
 Step number   1 out of a maximum of    2
 All quantities printed in internal units (Hartrees-Bohrs-Radians)
 Second derivative matrix not updated -- first step.
 ITU=  0
     Eigenvalues ---    0.00108   0.00141   0.00205   0.00302   0.00303
     Eigenvalues ---    0.00854   0.01564   0.01732   0.02032   0.02041
     Eigenvalues ---    0.03767   0.04398   0.05394   0.05414   0.10318
     Eigenvalues ---    0.18564   0.20966   0.21007   0.25009   0.25172
     Eigenvalues ---    0.25541   0.25674   0.30407   0.30480   0.47513
     Eigenvalues ---    0.77834   0.78093   0.80648   0.91083   0.99175
     Eigenvalues ---    1.03475   1.03753   1.11025   1.60932   1.61213
     Eigenvalues ---    2.06746   3.28355   3.28382   3.28459   3.31930
     Eigenvalues ---    3.31958   3.31996  71.37115  74.75037  78.38045
     Eigenvalues ---   90.79256  96.49577 100.37282
 Angle between quadratic step and forces=  53.59 degrees.
 Linear search not attempted -- first point.
 B after Tr=     0.000022   -0.000051    0.000184
         Rot=    1.000000    0.000001    0.000007    0.000001 Ang=   0.00 deg.
 Variable       Old X    -DE/DX   Delta X   Delta X   Delta X     New X
                                 (Linear)    (Quad)   (Total)
    X1      -16.89286  -0.00002   0.00000   0.00058   0.00057 -16.89230
    Y1       -1.73045  -0.02705   0.00000  -0.00696  -0.00698  -1.73743
    Z1        2.09346  -0.00264   0.00000   0.00078   0.00074   2.09420
    X2      -16.89121   0.00003   0.00000  -0.00013  -0.00014 -16.89135
    Y2        0.87830   0.02862   0.00000   0.02468   0.02466   0.90297
    Z2        2.36123   0.00302   0.00000   0.00331   0.00326   2.36449
    X3      -15.57660  -0.02361   0.00000  -0.00696  -0.00697 -15.58357
    Y3       -4.00010   0.01351   0.00000   0.00563   0.00561  -3.99449
    Z3        1.85480   0.00150   0.00000   0.00344   0.00342   1.85822
    X4      -13.30400   0.02490   0.00000   0.01923   0.01922 -13.28478
    Y4       -5.29925  -0.01414   0.00000  -0.01158  -0.01161  -5.31086
    Z4        1.69834  -0.00168   0.00000  -0.00183  -0.00181   1.69652
    X5      -18.21139   0.02364   0.00000   0.00840   0.00839 -18.20300
    Y5       -4.00120   0.01352   0.00000   0.00556   0.00554  -3.99565
    Z5        1.87915   0.00114   0.00000   0.00346   0.00340   1.88255
    X6      -20.48478  -0.02491   0.00000  -0.01817  -0.01818 -20.50297
    Y6       -5.30408  -0.01420   0.00000  -0.01155  -0.01157  -5.31564
    Z6        1.77261  -0.00115   0.00000   0.00305   0.00296   1.77557
    X7      -19.24115   0.10149   0.00000   0.03752   0.03751 -19.20365
    Y7        2.23351  -0.05488   0.00000   0.01164   0.01163   2.24514
    Z7        2.52475  -0.00667   0.00000   0.00811   0.00802   2.53277
    X8      -21.10221  -0.08760   0.00000  -0.01811  -0.01812 -21.12034
    Y8        3.25896   0.04807   0.00000   0.04572   0.04571   3.30468
    Z8        2.64897   0.00598   0.00000   0.01727   0.01715   2.66612
    X9      -14.53941  -0.10164   0.00000  -0.03903  -0.03903 -14.57844
    Y9        2.23397  -0.05493   0.00000   0.01445   0.01443   2.24840
    Z9        2.49184  -0.00540   0.00000   0.00284   0.00281   2.49465
   X10      -12.67738   0.08772   0.00000   0.01577   0.01577 -12.66161
   Y10        3.26019   0.04815   0.00000   0.05078   0.05075   3.31095
   Z10        2.59205   0.00481   0.00000   0.00683   0.00683   2.59888
   X11      -10.94985  -0.09872   0.00000  -0.00788  -0.00789 -10.95774
   Y11       -3.94529  -0.06050   0.00000  -0.04306  -0.04308  -3.98838
   Z11        1.80515  -0.00478   0.00000   0.00378   0.00382   1.80898
   X12       -9.12730   0.08585   0.00000   0.05228   0.05228  -9.07503
   Y12       -2.84945   0.05181   0.00000  -0.01614  -0.01617  -2.86561
   Z12        1.89102   0.00397   0.00000   0.01246   0.01252   1.90354
   X13      -13.29441   0.00278   0.00000   0.02470   0.02469 -13.26972
   Y13       -8.00199   0.11484   0.00000   0.02981   0.02978  -7.97221
   Z13        1.41407   0.01207   0.00000  -0.02568  -0.02565   1.38841
   X14      -13.32977  -0.00181   0.00000   0.02536   0.02535 -13.30442
   Y14      -10.11830  -0.09949   0.00000  -0.03309  -0.03312 -10.15142
   Z14        1.18905  -0.01075   0.00000  -0.05465  -0.05463   1.13443
   X15      -20.49467  -0.00280   0.00000  -0.02547  -0.02549 -20.52015
   Y15       -8.01217   0.11521   0.00000   0.02425   0.02424  -7.98794
   Z15        1.54471   0.00939   0.00000   0.03887   0.03879   1.58350
   X16      -20.45930   0.00180   0.00000  -0.02769  -0.02771 -20.48701
   Y16      -10.13356  -0.09987   0.00000  -0.04334  -0.04336 -10.17692
   Z16        1.37495  -0.00794   0.00000   0.05993   0.05986   1.43481
   X17      -22.83872   0.09878   0.00000   0.00968   0.00967 -22.82905
   Y17       -3.95083  -0.06055   0.00000  -0.03850  -0.03851  -3.98934
   Z17        1.89346  -0.00517   0.00000  -0.02963  -0.02976   1.86370
   X18      -24.66062  -0.08589   0.00000  -0.04988  -0.04989 -24.71052
   Y18       -2.85444   0.05187   0.00000  -0.00797  -0.00798  -2.86241
   Z18        1.98475   0.00430   0.00000  -0.05158  -0.05173   1.93302
         Item               Value     Threshold  Converged?
 Maximum Force            0.115209     0.000450     NO 
 RMS     Force            0.051871     0.000300     NO 
 Maximum Displacement     0.059859     0.001800     NO 
 RMS     Displacement     0.027015     0.001200     NO 
 Predicted change in Energy=-2.245637D-02
 GradGradGradGradGradGradGradGradGradGradGradGradGradGradGradGradGradGrad

 Unable to Open any file for archive entry.
 1\1\GINC-X10P1N4\Force\RwB97XD\def2SVP\C12N6(2-)\MAYUMIAO\11-Oct-2024\
 0\\# wb97xd def2svp scrf=(smd,solvent=acetonitrile) g09default scf=(xq
 c,maxcycle=64) force guess=read nosymm\\Title Card\\-2,1\C,-8.93931857
 ,-0.9157173,1.10781282\C,-8.93844144,0.46477889,1.24950866\C,-8.242779
 7,-2.11675936,0.98151946\C,-7.04017192,-2.80424459,0.89872189\C,-9.637
 05089,-2.1173429,0.9944039\C,-10.84008083,-2.8067967,0.93802475\C,-10.
 18198049,1.18192437,1.3360401\N,-11.16680973,1.7245684,1.40177387\C,-7
 .6939247,1.18216409,1.31862428\N,-6.70857905,1.72522082,1.37165309\C,-
 5.79440986,-2.08775986,0.9552453\N,-4.82995938,-1.50786191,1.00068443\
 C,-7.03510123,-4.23447253,0.74829221\N,-7.05381114,-5.35437544,0.62921
 99\C,-10.8453101,-4.23986037,0.81742631\N,-10.8265973,-5.36245153,0.72
 759467\C,-12.08572807,-2.09069013,1.00197409\N,-13.04984061,-1.5105019
 5,1.05028527\\Version=ES64L-G16RevC.01\HF=-785.0094758\RMSD=5.136e-09\
 RMSF=5.187e-02\Dipole=-0.0010124,-0.0044931,-0.0039821\Quadrupole=-394
 .5722854,155.8841825,238.6881029,-109.4736435,66.3908009,5.6692101\PG=
 C01 [X(C12N6)]\\@
 The archive entry for this job was punched.


 THE PROBLEM WITH THE LADDER OF SUCCESS IS YOU CAN'T
 CLIMB IT WHILE YOU'RE TWIDDLING YOUR THUMBS.
 Job cpu time:       0 days  0 hours  9 minutes 18.3 seconds.
 Elapsed time:       0 days  0 hours  0 minutes 21.2 seconds.
 File lengths (MBytes):  RWF=    147 Int=      0 D2E=      0 Chk=      8 Scr=      1
 Normal termination of Gaussian 16 at Fri Oct 11 15:29:43 2024.
