 Entering Gaussian System, Link 0=g16
 Input=JOBS/31_A.gjf
 Output=JOBS/31_A.log
 Initial command:
 /data/app/gaussian/C01-avx2//g16/l1.exe "/tmp/Gau-2543501.inp" -scrdir="/tmp/"
 Entering Link 1 = /data/app/gaussian/C01-avx2//g16/l1.exe PID=   2543502.
  
 Copyright (c) 1988-2019, Gaussian, Inc.  All Rights Reserved.
  
 This is part of the Gaussian(R) 16 program.  It is based on
 the Gaussian(R) 09 system (copyright 2009, Gaussian, Inc.),
 the Gaussian(R) 03 system (copyright 2003, Gaussian, Inc.),
 the Gaussian(R) 98 system (copyright 1998, Gaussian, Inc.),
 the Gaussian(R) 94 system (copyright 1995, Gaussian, Inc.),
 the Gaussian 92(TM) system (copyright 1992, Gaussian, Inc.),
 the Gaussian 90(TM) system (copyright 1990, Gaussian, Inc.),
 the Gaussian 88(TM) system (copyright 1988, Gaussian, Inc.),
 the Gaussian 86(TM) system (copyright 1986, Carnegie Mellon
 University), and the Gaussian 82(TM) system (copyright 1983,
 Carnegie Mellon University). Gaussian is a federally registered
 trademark of Gaussian, Inc.
  
 This software contains proprietary and confidential information,
 including trade secrets, belonging to Gaussian, Inc.
  
 This software is provided under written license and may be
 used, copied, transmitted, or stored only in accord with that
 written license.
  
 The following legend is applicable only to US Government
 contracts under FAR:
  
                    RESTRICTED RIGHTS LEGEND
  
 Use, reproduction and disclosure by the US Government is
 subject to restrictions as set forth in subparagraphs (a)
 and (c) of the Commercial Computer Software - Restricted
 Rights clause in FAR 52.227-19.
  
 Gaussian, Inc.
 340 Quinnipiac St., Bldg. 40, Wallingford CT 06492
  
  
 ---------------------------------------------------------------
 Warning -- This program may not be used in any manner that
 competes with the business of Gaussian, Inc. or will provide
 assistance to any competitor of Gaussian, Inc.  The licensee
 of this program is prohibited from giving any competitor of
 Gaussian, Inc. access to this program.  By using this program,
 the user acknowledges that Gaussian, Inc. is engaged in the
 business of creating and licensing software in the field of
 computational chemistry and represents and warrants to the
 licensee that it is not a competitor of Gaussian, Inc. and that
 it will not use this program in any manner prohibited above.
 ---------------------------------------------------------------
  

 Cite this work as:
 Gaussian 16, Revision C.01,
 M. J. Frisch, G. W. Trucks, H. B. Schlegel, G. E. Scuseria, 
 M. A. Robb, J. R. Cheeseman, G. Scalmani, V. Barone, 
 G. A. Petersson, H. Nakatsuji, X. Li, M. Caricato, A. V. Marenich, 
 J. Bloino, B. G. Janesko, R. Gomperts, B. Mennucci, H. P. Hratchian, 
 J. V. Ortiz, A. F. Izmaylov, J. L. Sonnenberg, D. Williams-Young, 
 F. Ding, F. Lipparini, F. Egidi, J. Goings, B. Peng, A. Petrone, 
 T. Henderson, D. Ranasinghe, V. G. Zakrzewski, J. Gao, N. Rega, 
 G. Zheng, W. Liang, M. Hada, M. Ehara, K. Toyota, R. Fukuda, 
 J. Hasegawa, M. Ishida, T. Nakajima, Y. Honda, O. Kitao, H. Nakai, 
 T. Vreven, K. Throssell, J. A. Montgomery, Jr., J. E. Peralta, 
 F. Ogliaro, M. J. Bearpark, J. J. Heyd, E. N. Brothers, K. N. Kudin, 
 V. N. Staroverov, T. A. Keith, R. Kobayashi, J. Normand, 
 K. Raghavachari, A. P. Rendell, J. C. Burant, S. S. Iyengar, 
 J. Tomasi, M. Cossi, J. M. Millam, M. Klene, C. Adamo, R. Cammi, 
 J. W. Ochterski, R. L. Martin, K. Morokuma, O. Farkas, 
 J. B. Foresman, and D. J. Fox, Gaussian, Inc., Wallingford CT, 2019.
 
 ******************************************
 Gaussian 16:  ES64L-G16RevC.01  3-Jul-2019
                11-Oct-2024 
 ******************************************
 %chk=a.chk
 %nprocshared=28
 Will use up to   28 processors via shared memory.
 %mem=48gb
 ----------------------------------------------------------------------
 # wb97xd def2svp scrf=(smd,solvent=acetonitrile) g09default scf=(xqc,m
 axcycle=64) force guess=read nosymm
 ----------------------------------------------------------------------
 1/10=7,30=1,38=1,158=3,167=1/1,3;
 2/12=2,15=1,17=6,18=5,40=1/2;
 3/5=43,7=101,11=2,25=1,27=10,30=1,70=32201,71=1,72=2,74=-58,75=-4,116=-2,158=3/1,2,3;
 4/5=1,60=-1/1;
 5/5=2,7=64,8=3,13=1,38=6,53=2,87=10/2,8;
 6/7=2,8=2,9=2,10=2,28=1,87=10/1;
 7/29=1,30=1,87=10/1,2,3,16;
 1/10=7,30=1,158=3,167=1/3;
 99//99;
 Using 2006 physical constants.
 ----------
 Title Card
 ----------
 Symbolic Z-matrix:
 Charge = -2 Multiplicity = 1
 6                    -8.93645  -0.85322   1.11257 
 6                    -8.94035   0.477     1.24723 
 6                    -8.19362  -2.1392    0.98369 
 6                    -7.04554  -2.80667   0.90051 
 6                    -9.6927   -2.14939   0.99303 
 6                    -10.84765  -2.80306   0.93941 
 6                    -10.2131   1.20829   1.33749 
 7                    -11.20352   1.76841   1.41611 
 6                    -7.68173   1.21865   1.32159 
 7                    -6.66037   1.73161   1.38008 
 6                    -5.75924  -2.08958   0.95147 
 7                    -4.78274  -1.50164   0.99461 
 6                    -7.02235  -4.26332   0.74184 
 7                    -7.04033  -5.40639   0.60646 
 6                    -10.8688  -4.27386   0.82501 
 7                    -10.79414  -5.41863   0.74264 
 6                    -12.11949  -2.09563   0.99539 
 7                    -13.10778  -1.47354   1.03967 
 

 GradGradGradGradGradGradGradGradGradGradGradGradGradGradGradGradGradGrad
 Berny optimization.
 Initialization pass.
 Trust Radius=3.00D-01 FncErr=1.00D-07 GrdErr=1.00D-07 EigMax=2.50D+02 EigMin=1.00D-04
 Number of steps in this run=      2 maximum allowed number of steps=      2.
 GradGradGradGradGradGradGradGradGradGradGradGradGradGradGradGradGradGrad

                          Input orientation:                          
 ---------------------------------------------------------------------
 Center     Atomic      Atomic             Coordinates (Angstroms)
 Number     Number       Type             X           Y           Z
 ---------------------------------------------------------------------
      1          6           0       -8.936451   -0.853221    1.112573
      2          6           0       -8.940355    0.477001    1.247228
      3          6           0       -8.193622   -2.139198    0.983686
      4          6           0       -7.045543   -2.806675    0.900514
      5          6           0       -9.692704   -2.149385    0.993031
      6          6           0      -10.847646   -2.803062    0.939408
      7          6           0      -10.213095    1.208290    1.337491
      8          7           0      -11.203519    1.768408    1.416105
      9          6           0       -7.681730    1.218655    1.321591
     10          7           0       -6.660370    1.731609    1.380084
     11          6           0       -5.759238   -2.089584    0.951468
     12          7           0       -4.782742   -1.501641    0.994609
     13          6           0       -7.022348   -4.263322    0.741844
     14          7           0       -7.040327   -5.406385    0.606458
     15          6           0      -10.868799   -4.273864    0.825012
     16          7           0      -10.794136   -5.418631    0.742639
     17          6           0      -12.119486   -2.095628    0.995394
     18          7           0      -13.107783   -1.473543    1.039671
 ---------------------------------------------------------------------
                    Distance matrix (angstroms):
                    1          2          3          4          5
     1  C    0.000000
     2  C    1.337026   0.000000
     3  C    1.490686   2.733416   0.000000
     4  C    2.726992   3.806974   1.330612   0.000000
     5  C    1.505407   2.743820   1.499145   2.729111   0.000000
     6  C    2.735787   3.806748   2.736150   3.802303   1.328179
     7  C    2.435207   1.470646   3.925446   5.132668   3.415178
     8  N    3.479176   2.611162   4.951348   6.203707   4.220267
     9  C    2.431190   1.462777   3.413413   4.096989   3.936453
    10  N    3.454483   2.605767   4.182241   4.579778   4.940341
    11  C    3.413098   4.098090   2.435103   1.473566   3.934140
    12  N    4.205671   4.611354   3.469972   2.613855   4.952504
    13  C    3.928107   5.138563   2.437678   1.465447   3.415059
    14  N    4.958099   6.215700   3.485241   2.616293   4.218126
    15  C    3.939221   5.144695   3.426157   4.095807   2.434100
    16  N    4.942753   6.200773   4.192308   4.571562   3.458875
    17  C    3.418920   4.097404   3.926123   5.124401   2.427379
    18  N    4.217834   4.605992   4.959356   6.208652   3.481624
                    6          7          8          9         10
     6  C    0.000000
     7  C    4.080695   0.000000
     8  N    4.610014   1.140549   0.000000
     9  C    5.132572   2.531436   3.565692   0.000000
    10  N    6.187949   3.591313   4.543441   1.144430   0.000000
    11  C    5.138199   5.555343   6.688811   3.844140   3.949338
    12  N    6.203209   6.078654   7.217843   3.988867   3.758722
    13  C    4.099304   6.361934   7.370115   5.551843   6.039668
    14  N    4.624264   7.372570   8.334588   6.694324   7.189843
    15  C    1.475395   5.544961   6.080335   6.369597   7.354229
    16  N    2.623505   6.678887   7.230123   7.353626   8.283736
    17  C    1.456426   3.829782   3.993340   5.548383   6.678149
    18  N    2.624099   3.957290   3.778647   6.063783   7.208191
                   11         12         13         14         15
    11  C    0.000000
    12  N    1.140650   0.000000
    13  C    2.522801   3.564633   0.000000
    14  N    3.572309   4.527072   1.151193   0.000000
    15  C    5.558299   6.689849   3.847365   3.998446   0.000000
    16  N    6.039566   7.179356   3.944759   3.756298   1.150152
    17  C    6.360403   7.360749   5.544728   6.075380   2.517530
    18  N    7.374850   8.325210   6.701052   7.243545   3.591785
                   16         17         18
    16  N    0.000000
    17  C    3.586473   0.000000
    18  N    4.583111   1.168624   0.000000
 Symmetry turned off by external request.
 Stoichiometry    C12N6(2-)
 Framework group  C1[X(C12N6)]
 Deg. of freedom    48
 Full point group                 C1      NOp   1
 Rotational constants (GHZ):           0.4233452           0.4200781           0.2108813
 Standard basis: def2SVP (5D, 7F)
   252 basis functions,   450 primitive gaussians,   270 cartesian basis functions
    58 alpha electrons       58 beta electrons
       nuclear repulsion energy       956.6621714417 Hartrees.
 NAtoms=   18 NActive=   18 NUniq=   18 SFac= 1.00D+00 NAtFMM=   60 NAOKFM=F Big=F
 Integral buffers will be    131072 words long.
 Raffenetti 2 integral format.
 Two-electron integral symmetry is turned off.
 Nuclear repulsion after empirical dispersion term =      956.6506398808 Hartrees.
 Force PCM accuracy= 1.00D-10.
 ------------------------------------------------------------------------------
 Polarizable Continuum Model (PCM)
 =================================
 Model                : PCM (using non-symmetric T matrix).
 Atomic radii         : SMD-Coulomb.
 Polarization charges : Total charges.
 Charge compensation  : None.
 Solution method      : On-the-fly selection.
 Cavity type          : VdW (van der Waals Surface) (Alpha=1.000).
 Cavity algorithm     : GePol (No added spheres)
                        Default sphere list used, NSphG=   18.
                        Lebedev-Laikov grids with approx.  5.0 points / Ang**2.
                        Smoothing algorithm: York/Karplus (Gamma=1.0000).
                        Polarization charges: spherical gaussians, with
                                              point-specific exponents (IZeta= 3).
                        Self-potential: point-specific (ISelfS= 7).
                        Self-field    : sphere-specific E.n sum rule (ISelfD= 2).
 1st derivatives      : Analytical E(r).r(x)/FMM algorithm (CHGder, D1EAlg=3).
                        Cavity 1st derivative terms included.
 Solvent              : Acetonitrile, Eps=  35.688000 Eps(inf)=   1.806874
 ------------------------------------------------------------------------------
 Spheres list:
 ISph  on   Nord     Re0    Alpha      Xe            Ye            Ze
    1   C      1    1.8500  1.000     -8.936451     -0.853221      1.112573
    2   C      2    1.8500  1.000     -8.940355      0.477001      1.247228
    3   C      3    1.8500  1.000     -8.193622     -2.139198      0.983686
    4   C      4    1.8500  1.000     -7.045543     -2.806675      0.900514
    5   C      5    1.8500  1.000     -9.692704     -2.149385      0.993031
    6   C      6    1.8500  1.000    -10.847646     -2.803062      0.939408
    7   C      7    1.8500  1.000    -10.213095      1.208290      1.337491
    8   N      8    1.8900  1.000    -11.203519      1.768408      1.416105
    9   C      9    1.8500  1.000     -7.681730      1.218655      1.321591
   10   N     10    1.8900  1.000     -6.660370      1.731609      1.380084
   11   C     11    1.8500  1.000     -5.759238     -2.089584      0.951468
   12   N     12    1.8900  1.000     -4.782742     -1.501641      0.994609
   13   C     13    1.8500  1.000     -7.022348     -4.263322      0.741844
   14   N     14    1.8900  1.000     -7.040327     -5.406385      0.606458
   15   C     15    1.8500  1.000    -10.868799     -4.273864      0.825012
   16   N     16    1.8900  1.000    -10.794136     -5.418631      0.742639
   17   C     17    1.8500  1.000    -12.119486     -2.095628      0.995394
   18   N     18    1.8900  1.000    -13.107783     -1.473543      1.039671
 ------------------------------------------------------------------------------
 ------------------------------------------------------------------------------
 Atomic radii for non-electrostatic terms: SMD-CDS.
 ------------------------------------------------------------------------------
 Nuclear repulsion after PCM non-electrostatic terms =      956.6594709165 Hartrees.
 One-electron integrals computed using PRISM.
   1 Symmetry operations used in ECPInt.
 ECPInt:  NShTT=    5886 NPrTT=   23670 LenC2=    5391 LenP2D=   14891.
 LDataN:  DoStor=T MaxTD1= 4 Len=   56
 NBasis=   252 RedAO= T EigKep=  2.67D-04  NBF=   252
 NBsUse=   252 1.00D-06 EigRej= -1.00D+00 NBFU=   252
 Initial guess from the checkpoint file:  "a.chk"
 B after Tr=     0.000738   -0.001269    0.001768
         Rot=    1.000000    0.000067    0.000063    0.000037 Ang=   0.01 deg.
 Requested convergence on RMS density matrix=1.00D-08 within  64 cycles.
 Requested convergence on MAX density matrix=1.00D-06.
 Requested convergence on             energy=1.00D-06.
 No special actions if energy rises.
 Inv3:  Mode=1 IEnd=    19339563.
 Iteration    1 A*A^-1 deviation from unit magnitude is 2.89D-15 for    988.
 Iteration    1 A*A^-1 deviation from orthogonality  is 2.65D-15 for   1035    872.
 Iteration    1 A^-1*A deviation from unit magnitude is 3.11D-15 for   2005.
 Iteration    1 A^-1*A deviation from orthogonality  is 5.42D-10 for   1616   1584.
 Iteration    2 A*A^-1 deviation from unit magnitude is 5.11D-15 for   2005.
 Iteration    2 A*A^-1 deviation from orthogonality  is 6.71D-15 for   1828    270.
 Iteration    2 A^-1*A deviation from unit magnitude is 1.44D-15 for   1119.
 Iteration    2 A^-1*A deviation from orthogonality  is 6.61D-16 for   1482    963.
 Error on total polarization charges =  0.02183
 SCF Done:  E(RwB97XD) =  -784.980444630     A.U. after   13 cycles
            NFock= 13  Conv=0.69D-08     -V/T= 2.0099
 SMD-CDS (non-electrostatic) energy       (kcal/mol) =       5.54
 (included in total energy above)
 QCSCF skips out because SCF is already converged.

 **********************************************************************

            Population analysis using the SCF Density.

 **********************************************************************

 Alpha  occ. eigenvalues --  -14.43250 -14.43036 -14.42898 -14.42754 -14.42738
 Alpha  occ. eigenvalues --  -14.42708 -10.34788 -10.34762 -10.34734 -10.34212
 Alpha  occ. eigenvalues --  -10.33958 -10.33863 -10.33701 -10.33678 -10.33659
 Alpha  occ. eigenvalues --  -10.33312 -10.33174 -10.33167  -1.00173  -0.99756
 Alpha  occ. eigenvalues --   -0.99505  -0.99009  -0.98833  -0.98307  -0.96598
 Alpha  occ. eigenvalues --   -0.88404  -0.88257  -0.83773  -0.68271  -0.68026
 Alpha  occ. eigenvalues --   -0.64514  -0.64375  -0.63774  -0.63443  -0.50862
 Alpha  occ. eigenvalues --   -0.47585  -0.47510  -0.46021  -0.45937  -0.45409
 Alpha  occ. eigenvalues --   -0.45298  -0.45258  -0.44741  -0.43684  -0.43581
 Alpha  occ. eigenvalues --   -0.43358  -0.42907  -0.42786  -0.42686  -0.42405
 Alpha  occ. eigenvalues --   -0.42370  -0.42178  -0.41158  -0.40302  -0.40068
 Alpha  occ. eigenvalues --   -0.32784  -0.32724  -0.21737
 Alpha virt. eigenvalues --    0.07195   0.07601   0.09228   0.09700   0.09884
 Alpha virt. eigenvalues --    0.11228   0.12748   0.13234   0.13611   0.14485
 Alpha virt. eigenvalues --    0.14817   0.16407   0.20352   0.20394   0.23336
 Alpha virt. eigenvalues --    0.24511   0.27117   0.27300   0.28087   0.28377
 Alpha virt. eigenvalues --    0.30065   0.31996   0.32396   0.33169   0.33307
 Alpha virt. eigenvalues --    0.35004   0.36291   0.49135   0.49458   0.51482
 Alpha virt. eigenvalues --    0.51669   0.52774   0.52946   0.54848   0.54867
 Alpha virt. eigenvalues --    0.56106   0.56214   0.56484   0.58911   0.61458
 Alpha virt. eigenvalues --    0.61562   0.62119   0.63309   0.63676   0.64937
 Alpha virt. eigenvalues --    0.66306   0.71208   0.71295   0.73182   0.73557
 Alpha virt. eigenvalues --    0.73837   0.73972   0.74192   0.74844   0.74914
 Alpha virt. eigenvalues --    0.75323   0.75467   0.76258   0.76922   0.77194
 Alpha virt. eigenvalues --    0.81016   0.81247   0.81835   0.83222   0.83382
 Alpha virt. eigenvalues --    0.85971   0.86335   0.88615   0.89104   0.94677
 Alpha virt. eigenvalues --    0.94861   0.94962   0.95001   0.95319   0.95949
 Alpha virt. eigenvalues --    0.97810   1.00247   1.00410   1.01338   1.01592
 Alpha virt. eigenvalues --    1.03293   1.03470   1.04624   1.04901   1.05133
 Alpha virt. eigenvalues --    1.07558   1.09232   1.09354   1.10489   1.12962
 Alpha virt. eigenvalues --    1.14009   1.17303   1.18708   1.19450   1.19681
 Alpha virt. eigenvalues --    1.23839   1.24598   1.24952   1.28181   1.34273
 Alpha virt. eigenvalues --    1.35956   1.36370   1.42499   1.42540   1.45339
 Alpha virt. eigenvalues --    1.45701   1.46199   1.48767   1.48971   1.57901
 Alpha virt. eigenvalues --    1.63930   1.69048   1.70346   1.70424   1.70595
 Alpha virt. eigenvalues --    1.70966   1.71137   1.76771   1.76946   1.79994
 Alpha virt. eigenvalues --    1.80147   1.80366   1.80464   1.80830   1.82164
 Alpha virt. eigenvalues --    1.82196   1.83777   1.86735   1.94974   1.96823
 Alpha virt. eigenvalues --    1.96975   1.99812   2.00106   2.00232   2.03076
 Alpha virt. eigenvalues --    2.03596   2.04137   2.06475   2.10188   2.10647
 Alpha virt. eigenvalues --    2.15112   2.21453   2.21955   2.25969   2.26374
 Alpha virt. eigenvalues --    2.29156   2.32174   2.32220   2.35041   2.35717
 Alpha virt. eigenvalues --    2.35761   2.36311   2.36971   2.37158   2.37213
 Alpha virt. eigenvalues --    2.37475   2.37533   2.38493   2.38612   2.38947
 Alpha virt. eigenvalues --    2.40134   2.40722   2.58859   2.59561   2.60738
 Alpha virt. eigenvalues --    2.71557   2.72723   2.92845   2.95008   2.97601
 Alpha virt. eigenvalues --    2.98054   3.00518   3.00866   3.01970   3.05104
 Alpha virt. eigenvalues --    3.07524   3.08140   3.11169   3.11252   3.11355
 Alpha virt. eigenvalues --    3.12964   3.13823   3.22786   3.24121   3.29415
 Alpha virt. eigenvalues --    3.41682   3.41793   3.42449   3.52767   3.56427
 Alpha virt. eigenvalues --    3.58116   3.64703   3.66221   3.79080
          Condensed to atoms (all electrons):
               1          2          3          4          5          6
     1  C    4.949461   0.489702   0.314724  -0.122240   0.327750  -0.114884
     2  C    0.489702   5.556551  -0.117400  -0.008832  -0.111351  -0.008231
     3  C    0.314724  -0.117400   4.951527   0.485653   0.321095  -0.119833
     4  C   -0.122240  -0.008832   0.485653   5.579843  -0.118993  -0.009304
     5  C    0.327750  -0.111351   0.321095  -0.118993   4.933455   0.480055
     6  C   -0.114884  -0.008231  -0.119833  -0.009304   0.480055   5.576371
     7  C    0.009402   0.389518   0.004876  -0.000342  -0.016798   0.001614
     8  N   -0.001254  -0.037035  -0.000048  -0.000001  -0.000435   0.000067
     9  C    0.007515   0.388396  -0.018036   0.001516   0.005965  -0.000345
    10  N   -0.001072  -0.037676  -0.000520   0.000069  -0.000008  -0.000001
    11  C   -0.016905   0.001531   0.009246   0.387306   0.005216  -0.000308
    12  N   -0.000476   0.000065  -0.001244  -0.036690  -0.000035  -0.000001
    13  C    0.005029  -0.000348   0.008994   0.389998  -0.017130   0.001325
    14  N   -0.000040  -0.000001  -0.001149  -0.037458  -0.000448   0.000053
    15  C    0.006112  -0.000283  -0.017442   0.001580   0.006900   0.379880
    16  N    0.000010  -0.000001  -0.000520   0.000080  -0.000774  -0.036764
    17  C   -0.018365   0.001476   0.005405  -0.000363   0.009053   0.388759
    18  N   -0.000476   0.000078  -0.000014  -0.000001  -0.000685  -0.038296
               7          8          9         10         11         12
     1  C    0.009402  -0.001254   0.007515  -0.001072  -0.016905  -0.000476
     2  C    0.389518  -0.037035   0.388396  -0.037676   0.001531   0.000065
     3  C    0.004876  -0.000048  -0.018036  -0.000520   0.009246  -0.001244
     4  C   -0.000342  -0.000001   0.001516   0.000069   0.387306  -0.036690
     5  C   -0.016798  -0.000435   0.005965  -0.000008   0.005216  -0.000035
     6  C    0.001614   0.000067  -0.000345  -0.000001  -0.000308  -0.000001
     7  C    4.839644   0.949100  -0.036942   0.001879   0.000054   0.000001
     8  N    0.949100   6.109283   0.001678   0.000057   0.000000   0.000000
     9  C   -0.036942   0.001678   4.844429   0.944553   0.000294   0.000110
    10  N    0.001879   0.000057   0.944553   6.116214   0.000429  -0.000874
    11  C    0.000054   0.000000   0.000294   0.000429   4.841424   0.950574
    12  N    0.000001   0.000000   0.000110  -0.000874   0.950574   6.105357
    13  C   -0.000006  -0.000000   0.000062   0.000001  -0.035380   0.001821
    14  N   -0.000000  -0.000000   0.000000   0.000000   0.001792   0.000059
    15  C    0.000054   0.000001  -0.000005  -0.000000   0.000053   0.000000
    16  N    0.000000   0.000000  -0.000000  -0.000000   0.000001   0.000000
    17  C    0.000366  -0.000043   0.000063   0.000000  -0.000005  -0.000000
    18  N    0.000502  -0.000852   0.000001   0.000000  -0.000000  -0.000000
              13         14         15         16         17         18
     1  C    0.005029  -0.000040   0.006112   0.000010  -0.018365  -0.000476
     2  C   -0.000348  -0.000001  -0.000283  -0.000001   0.001476   0.000078
     3  C    0.008994  -0.001149  -0.017442  -0.000520   0.005405  -0.000014
     4  C    0.389998  -0.037458   0.001580   0.000080  -0.000363  -0.000001
     5  C   -0.017130  -0.000448   0.006900  -0.000774   0.009053  -0.000685
     6  C    0.001325   0.000053   0.379880  -0.036764   0.388759  -0.038296
     7  C   -0.000006  -0.000000   0.000054   0.000000   0.000366   0.000502
     8  N   -0.000000  -0.000000   0.000001   0.000000  -0.000043  -0.000852
     9  C    0.000062   0.000000  -0.000005  -0.000000   0.000063   0.000001
    10  N    0.000001   0.000000  -0.000000  -0.000000   0.000000   0.000000
    11  C   -0.035380   0.001792   0.000053   0.000001  -0.000005  -0.000000
    12  N    0.001821   0.000059   0.000000   0.000000  -0.000000  -0.000000
    13  C    4.845213   0.937683   0.000312   0.000445   0.000061   0.000000
    14  N    0.937683   6.129707   0.000096  -0.000853   0.000001   0.000000
    15  C    0.000312   0.000096   4.845806   0.939754  -0.032573   0.001820
    16  N    0.000445  -0.000853   0.939754   6.129081   0.001898   0.000050
    17  C    0.000061   0.000001  -0.032573   0.001898   4.851433   0.916463
    18  N    0.000000   0.000000   0.001820   0.000050   0.916463   6.175768
 Mulliken charges:
               1
     1  C    0.166007
     2  C   -0.506160
     3  C    0.174686
     4  C   -0.511820
     5  C    0.177166
     6  C   -0.500159
     7  C   -0.142922
     8  N   -0.020519
     9  C   -0.139258
    10  N   -0.023051
    11  C   -0.145323
    12  N   -0.018667
    13  C   -0.138081
    14  N   -0.029442
    15  C   -0.132064
    16  N   -0.032407
    17  C   -0.123629
    18  N   -0.054357
 Sum of Mulliken charges =  -2.00000
 Mulliken charges with hydrogens summed into heavy atoms:
               1
     1  C    0.166007
     2  C   -0.506160
     3  C    0.174686
     4  C   -0.511820
     5  C    0.177166
     6  C   -0.500159
     7  C   -0.142922
     8  N   -0.020519
     9  C   -0.139258
    10  N   -0.023051
    11  C   -0.145323
    12  N   -0.018667
    13  C   -0.138081
    14  N   -0.029442
    15  C   -0.132064
    16  N   -0.032407
    17  C   -0.123629
    18  N   -0.054357
 Electronic spatial extent (au):  <R**2>=          39406.2324
 Charge=             -2.0000 electrons
 Dipole moment (field-independent basis, Debye):
    X=             85.8396    Y=             16.4687    Z=             -9.9004  Tot=             87.9641
 Quadrupole moment (field-independent basis, Debye-Ang):
   XX=           -964.5758   YY=           -224.2694   ZZ=           -114.0657
   XY=           -146.3006   XZ=             89.4134   YZ=              7.6308
 Traceless Quadrupole moment (field-independent basis, Debye-Ang):
   XX=           -530.2722   YY=            210.0342   ZZ=            320.2379
   XY=           -146.3006   XZ=             89.4134   YZ=              7.6308
 Octapole moment (field-independent basis, Debye-Ang**2):
  XXX=          12153.7019  YYY=           1129.9274  ZZZ=           -331.1884  XYY=           2000.9130
  XXY=           1565.8992  XXZ=          -1016.1775  XZZ=           1021.6784  YZZ=            176.8923
  YYZ=           -193.6114  XYZ=            -70.0625
 Hexadecapole moment (field-independent basis, Debye-Ang**3):
 XXXX=        -160763.0763 YYYY=          -8690.4782 ZZZZ=           -808.4503 XXXY=         -18676.9046
 XXXZ=          12915.8284 YYYX=         -10071.5026 YYYZ=            754.7087 ZZZX=           2980.2688
 ZZZY=            381.9836 XXYY=         -19743.3623 XXZZ=          -9943.1849 YYZZ=          -1042.9559
 XXYZ=            825.9610 YYXZ=           1749.9345 ZZXY=          -1582.6833
 N-N= 9.566594709165D+02 E-N=-3.767277493066D+03  KE= 7.772880312861D+02
   1 Symmetry operations used in ECPInt.
 ECPInt:  NShTT=    5886 NPrTT=   23670 LenC2=    5391 LenP2D=   14891.
 LDataN:  DoStor=T MaxTD1= 5 Len=  102
 D1PCM: PCM CHGder 1st derivatives, ID1Alg=3 FixD1E=F DoIter=F DoCFld=F I1PDM=0.
 Calling FoFJK, ICntrl=      2127 FMM=F ISym2X=0 I1Cent= 0 IOpClX= 0 NMat=1 NMatS=1 NMatT=0.
 -------------------------------------------------------------------
 Center     Atomic                   Forces (Hartrees/Bohr)
 Number     Number              X              Y              Z
 -------------------------------------------------------------------
      1        6          -0.002894780   -0.179019633   -0.017187043
      2        6          -0.005054492    0.094275621    0.009418999
      3        6          -0.161156982    0.089102725    0.009656369
      4        6           0.093748129   -0.049610424   -0.006159482
      5        6           0.165894335    0.098051036    0.008325341
      6        6          -0.090337805   -0.060015392   -0.004794359
      7        6           0.081797452   -0.042067566   -0.004959119
      8        7          -0.049975045    0.027102278    0.003470193
      9        6          -0.068785771   -0.037890225   -0.003699532
     10        7           0.041573314    0.022586623    0.002334751
     11        6          -0.079543058   -0.047442372   -0.003229901
     12        7           0.048538638    0.028941170    0.001975545
     13        6           0.000155552    0.062314055    0.006168548
     14        7          -0.000245997   -0.029409020   -0.003097795
     15        6           0.001678690    0.067278393    0.005201009
     16        7          -0.000054658   -0.031026344   -0.002330151
     17        6           0.015140811   -0.005928023   -0.000622858
     18        7           0.009521668   -0.007242903   -0.000470516
 -------------------------------------------------------------------
 Cartesian Forces:  Max     0.179019633 RMS     0.057462352

 GradGradGradGradGradGradGradGradGradGradGradGradGradGradGradGradGradGrad
 Berny optimization.
 Search for a local minimum.
 Step number   1 out of a maximum of    2
 All quantities printed in internal units (Hartrees-Bohrs-Radians)
 Second derivative matrix not updated -- first step.
 ITU=  0
     Eigenvalues ---    0.00244   0.00259   0.00262   0.00294   0.00295
     Eigenvalues ---    0.01047   0.01519   0.01651   0.01964   0.01970
     Eigenvalues ---    0.04260   0.04694   0.05216   0.05291   0.09978
     Eigenvalues ---    0.18217   0.19456   0.19927   0.23718   0.24154
     Eigenvalues ---    0.24359   0.24403   0.30521   0.30664   0.37216
     Eigenvalues ---    0.43201   0.66506   0.67344   0.71301   0.75745
     Eigenvalues ---    0.78482   0.99548   0.99757   1.06469   1.63031
     Eigenvalues ---    1.65735   1.93052   2.69259   2.90470   2.91130
     Eigenvalues ---    2.99737   3.04777   3.05537   3.48965   5.82741
     Eigenvalues ---    9.35158  18.93434  24.58835
 Quadratic step=3.631D-01 exceeds max=3.000D-01 adjusted using Lamda=-3.313D-02.
 Angle between NR and scaled steps=  11.86 degrees.
 Angle between quadratic step and forces=  45.20 degrees.
 Linear search not attempted -- first point.
 B after Tr=    -0.000030    0.000279    0.000044
         Rot=    1.000000    0.000002    0.000002   -0.000007 Ang=   0.00 deg.
 Variable       Old X    -DE/DX   Delta X   Delta X   Delta X     New X
                                 (Linear)    (Quad)   (Total)
    X1      -16.88745  -0.00289   0.00000  -0.00804  -0.00805 -16.89549
    Y1       -1.61235  -0.17902   0.00000  -0.11224  -0.11219  -1.72455
    Z1        2.10246  -0.01719   0.00000  -0.01016  -0.01018   2.09228
    X2      -16.89482  -0.00505   0.00000  -0.00645  -0.00651 -16.90133
    Y2        0.90140   0.09428   0.00000   0.00264   0.00269   0.90409
    Z2        2.35692   0.00942   0.00000   0.00180   0.00178   2.35869
    X3      -15.48370  -0.16116   0.00000  -0.09579  -0.09577 -15.57947
    Y3       -4.04250   0.08910   0.00000   0.04973   0.04979  -3.99271
    Z3        1.85890   0.00966   0.00000   0.00434   0.00434   1.86323
    X4      -13.31415   0.09375   0.00000   0.01499   0.01503 -13.29912
    Y4       -5.30385  -0.04961   0.00000  -0.00799  -0.00789  -5.31174
    Z4        1.70173  -0.00616   0.00000  -0.00195  -0.00194   1.69978
    X5      -18.31656   0.16589   0.00000   0.09884   0.09886 -18.21769
    Y5       -4.06175   0.09805   0.00000   0.05985   0.05987  -4.00187
    Z5        1.87656   0.00833   0.00000   0.00528   0.00527   1.88182
    X6      -20.49908  -0.09034   0.00000  -0.00978  -0.00974 -20.50882
    Y6       -5.29702  -0.06002   0.00000  -0.00816  -0.00816  -5.30518
    Z6        1.77522  -0.00479   0.00000   0.00006   0.00004   1.77527
    X7      -19.29995   0.08180   0.00000   0.07823   0.07816 -19.22179
    Y7        2.28334  -0.04207   0.00000  -0.02509  -0.02507   2.25826
    Z7        2.52749  -0.00496   0.00000  -0.00126  -0.00130   2.52620
    X8      -21.17158  -0.04998   0.00000   0.03783   0.03774 -21.13384
    Y8        3.34181   0.02710   0.00000  -0.01246  -0.01247   3.32934
    Z8        2.67605   0.00347   0.00000  -0.00286  -0.00291   2.67314
    X9      -14.51637  -0.06879   0.00000  -0.06990  -0.06997 -14.58634
    Y9        2.30292  -0.03789   0.00000  -0.03593  -0.03585   2.26708
    Z9        2.49745  -0.00370   0.00000  -0.00295  -0.00297   2.49448
   X10      -12.58628   0.04157   0.00000  -0.04623  -0.04632 -12.63260
   Y10        3.27227   0.02259   0.00000  -0.00460  -0.00449   3.26778
   Z10        2.60798   0.00233   0.00000  -0.00207  -0.00209   2.60589
   X11      -10.88338  -0.07954   0.00000  -0.06417  -0.06415 -10.94754
   Y11       -3.94874  -0.04744   0.00000  -0.05239  -0.05226  -4.00100
   Z11        1.79801  -0.00323   0.00000  -0.00411  -0.00409   1.79392
   X12       -9.03807   0.04854   0.00000  -0.02982  -0.02982  -9.06789
   Y12       -2.83769   0.02894   0.00000  -0.03014  -0.02998  -2.86767
   Z12        1.87954   0.00198   0.00000  -0.00170  -0.00169   1.87785
   X13      -13.27031   0.00016   0.00000   0.01103   0.01111 -13.25920
   Y13       -8.05651   0.06231   0.00000   0.07154   0.07163  -7.98488
   Z13        1.40188   0.00617   0.00000   0.00685   0.00687   1.40875
   X14      -13.30429  -0.00025   0.00000   0.00959   0.00970 -13.29459
   Y14      -10.21659  -0.02941   0.00000   0.04834   0.04844 -10.16815
   Z14        1.14604  -0.00310   0.00000   0.00460   0.00463   1.15067
   X15      -20.53905   0.00168   0.00000   0.00107   0.00114 -20.53791
   Y15       -8.07643   0.06728   0.00000   0.08197   0.08197  -7.99446
   Z15        1.55905   0.00520   0.00000   0.00756   0.00755   1.56660
   X16      -20.39796  -0.00005   0.00000  -0.01931  -0.01920 -20.41716
   Y16      -10.23973  -0.03103   0.00000   0.05628   0.05627 -10.18345
   Z16        1.40338  -0.00233   0.00000   0.00402   0.00402   1.40741
   X17      -22.90251   0.01514   0.00000   0.04785   0.04787 -22.85464
   Y17       -3.96016  -0.00593   0.00000  -0.03533  -0.03537  -3.99553
   Z17        1.88102  -0.00062   0.00000  -0.00321  -0.00324   1.87779
   X18      -24.77012   0.00952   0.00000   0.04991   0.04992 -24.72020
   Y18       -2.78459  -0.00724   0.00000  -0.04687  -0.04694  -2.83153
   Z18        1.96469  -0.00047   0.00000  -0.00406  -0.00410   1.96059
         Item               Value     Threshold  Converged?
 Maximum Force            0.179020     0.000450     NO 
 RMS     Force            0.057462     0.000300     NO 
 Maximum Displacement     0.112192     0.001800     NO 
 RMS     Displacement     0.040828     0.001200     NO 
 Predicted change in Energy=-4.612402D-02
 GradGradGradGradGradGradGradGradGradGradGradGradGradGradGradGradGradGrad

 Unable to Open any file for archive entry.
 1\1\GINC-X10P1N4\Force\RwB97XD\def2SVP\C12N6(2-)\MAYUMIAO\11-Oct-2024\
 0\\# wb97xd def2svp scrf=(smd,solvent=acetonitrile) g09default scf=(xq
 c,maxcycle=64) force guess=read nosymm\\Title Card\\-2,1\C,-8.93645144
 ,-0.85322102,1.11257266\C,-8.94035458,0.4770012,1.24722758\C,-8.193622
 29,-2.13919817,0.98368617\C,-7.04554306,-2.80667497,0.90051413\C,-9.69
 270368,-2.14938502,0.9930305\C,-10.84764566,-2.80306236,0.93940763\C,-
 10.21309508,1.20828989,1.33749146\N,-11.20351936,1.76840786,1.41610548
 \C,-7.68172989,1.21865472,1.32159128\N,-6.66037047,1.73160943,1.380083
 56\C,-5.75923769,-2.0895843,0.95146808\N,-4.782742,-1.50164132,0.99460
 927\C,-7.02234769,-4.26332246,0.7418439\N,-7.04032738,-5.40638549,0.60
 645804\C,-10.86879947,-4.273864,0.82501169\N,-10.79413562,-5.41863059,
 0.74263852\C,-12.11948598,-2.09562796,0.99539446\N,-13.10778312,-1.473
 54322,1.03967052\\Version=ES64L-G16RevC.01\HF=-784.9804446\RMSD=6.864e
 -09\RMSF=5.746e-02\Dipole=-0.0126883,-0.0028532,-0.0045379\Quadrupole=
 -394.2443791,156.1553028,238.0890764,-108.7709484,66.4767103,5.6733469
 \PG=C01 [X(C12N6)]\\@
 The archive entry for this job was punched.


 The number of Unix installations has grown to 10,
  with more expected.
                  -- The Unix Programmer's Manual,
                     2nd Edition, June, 1972.
 Job cpu time:       0 days  0 hours 10 minutes 47.1 seconds.
 Elapsed time:       0 days  0 hours  0 minutes 24.4 seconds.
 File lengths (MBytes):  RWF=    148 Int=      0 D2E=      0 Chk=      8 Scr=      1
 Normal termination of Gaussian 16 at Fri Oct 11 15:56:38 2024.
