 Entering Gaussian System, Link 0=g16
 Input=JOBS/31_B.gjf
 Output=JOBS/31_B.log
 Initial command:
 /data/app/gaussian/C01-avx2//g16/l1.exe "/tmp/Gau-2543039.inp" -scrdir="/tmp/"
 Entering Link 1 = /data/app/gaussian/C01-avx2//g16/l1.exe PID=   2543040.
  
 Copyright (c) 1988-2019, Gaussian, Inc.  All Rights Reserved.
  
 This is part of the Gaussian(R) 16 program.  It is based on
 the Gaussian(R) 09 system (copyright 2009, Gaussian, Inc.),
 the Gaussian(R) 03 system (copyright 2003, Gaussian, Inc.),
 the Gaussian(R) 98 system (copyright 1998, Gaussian, Inc.),
 the Gaussian(R) 94 system (copyright 1995, Gaussian, Inc.),
 the Gaussian 92(TM) system (copyright 1992, Gaussian, Inc.),
 the Gaussian 90(TM) system (copyright 1990, Gaussian, Inc.),
 the Gaussian 88(TM) system (copyright 1988, Gaussian, Inc.),
 the Gaussian 86(TM) system (copyright 1986, Carnegie Mellon
 University), and the Gaussian 82(TM) system (copyright 1983,
 Carnegie Mellon University). Gaussian is a federally registered
 trademark of Gaussian, Inc.
  
 This software contains proprietary and confidential information,
 including trade secrets, belonging to Gaussian, Inc.
  
 This software is provided under written license and may be
 used, copied, transmitted, or stored only in accord with that
 written license.
  
 The following legend is applicable only to US Government
 contracts under FAR:
  
                    RESTRICTED RIGHTS LEGEND
  
 Use, reproduction and disclosure by the US Government is
 subject to restrictions as set forth in subparagraphs (a)
 and (c) of the Commercial Computer Software - Restricted
 Rights clause in FAR 52.227-19.
  
 Gaussian, Inc.
 340 Quinnipiac St., Bldg. 40, Wallingford CT 06492
  
  
 ---------------------------------------------------------------
 Warning -- This program may not be used in any manner that
 competes with the business of Gaussian, Inc. or will provide
 assistance to any competitor of Gaussian, Inc.  The licensee
 of this program is prohibited from giving any competitor of
 Gaussian, Inc. access to this program.  By using this program,
 the user acknowledges that Gaussian, Inc. is engaged in the
 business of creating and licensing software in the field of
 computational chemistry and represents and warrants to the
 licensee that it is not a competitor of Gaussian, Inc. and that
 it will not use this program in any manner prohibited above.
 ---------------------------------------------------------------
  

 Cite this work as:
 Gaussian 16, Revision C.01,
 M. J. Frisch, G. W. Trucks, H. B. Schlegel, G. E. Scuseria, 
 M. A. Robb, J. R. Cheeseman, G. Scalmani, V. Barone, 
 G. A. Petersson, H. Nakatsuji, X. Li, M. Caricato, A. V. Marenich, 
 J. Bloino, B. G. Janesko, R. Gomperts, B. Mennucci, H. P. Hratchian, 
 J. V. Ortiz, A. F. Izmaylov, J. L. Sonnenberg, D. Williams-Young, 
 F. Ding, F. Lipparini, F. Egidi, J. Goings, B. Peng, A. Petrone, 
 T. Henderson, D. Ranasinghe, V. G. Zakrzewski, J. Gao, N. Rega, 
 G. Zheng, W. Liang, M. Hada, M. Ehara, K. Toyota, R. Fukuda, 
 J. Hasegawa, M. Ishida, T. Nakajima, Y. Honda, O. Kitao, H. Nakai, 
 T. Vreven, K. Throssell, J. A. Montgomery, Jr., J. E. Peralta, 
 F. Ogliaro, M. J. Bearpark, J. J. Heyd, E. N. Brothers, K. N. Kudin, 
 V. N. Staroverov, T. A. Keith, R. Kobayashi, J. Normand, 
 K. Raghavachari, A. P. Rendell, J. C. Burant, S. S. Iyengar, 
 J. Tomasi, M. Cossi, J. M. Millam, M. Klene, C. Adamo, R. Cammi, 
 J. W. Ochterski, R. L. Martin, K. Morokuma, O. Farkas, 
 J. B. Foresman, and D. J. Fox, Gaussian, Inc., Wallingford CT, 2019.
 
 ******************************************
 Gaussian 16:  ES64L-G16RevC.01  3-Jul-2019
                11-Oct-2024 
 ******************************************
 %chk=b.chk
 %nprocshared=28
 Will use up to   28 processors via shared memory.
 %mem=48gb
 ----------------------------------------------------------------------
 # wb97xd def2svp scrf=(smd,solvent=acetonitrile) g09default scf=(xqc,m
 axcycle=64) force guess=read nosymm
 ----------------------------------------------------------------------
 1/10=7,30=1,38=1,158=3,167=1/1,3;
 2/12=2,15=1,17=6,18=5,40=1/2;
 3/5=43,7=101,11=2,25=1,27=10,30=1,70=32201,71=1,72=2,74=-58,75=-4,116=-2,158=3/1,2,3;
 4/5=1,60=-1/1;
 5/5=2,7=64,8=3,13=1,38=6,53=2,87=10/2,8;
 6/7=2,8=2,9=2,10=2,28=1,87=10/1;
 7/29=1,30=1,87=10/1,2,3,16;
 1/10=7,30=1,158=3,167=1/3;
 99//99;
 Using 2006 physical constants.
 ----------
 Title Card
 ----------
 Symbolic Z-matrix:
 Charge = -1 Multiplicity = 2
 6                    -8.93645  -0.85322   1.11257 
 6                    -8.94035   0.477     1.24723 
 6                    -8.19362  -2.1392    0.98369 
 6                    -7.04554  -2.80667   0.90051 
 6                    -9.6927   -2.14939   0.99303 
 6                    -10.84765  -2.80306   0.93941 
 6                    -10.2131   1.20829   1.33749 
 7                    -11.20352   1.76841   1.41611 
 6                    -7.68173   1.21865   1.32159 
 7                    -6.66037   1.73161   1.38008 
 6                    -5.75924  -2.08958   0.95147 
 7                    -4.78274  -1.50164   0.99461 
 6                    -7.02235  -4.26332   0.74184 
 7                    -7.04033  -5.40639   0.60646 
 6                    -10.8688  -4.27386   0.82501 
 7                    -10.79414  -5.41863   0.74264 
 6                    -12.11949  -2.09563   0.99539 
 7                    -13.10778  -1.47354   1.03967 
 

 GradGradGradGradGradGradGradGradGradGradGradGradGradGradGradGradGradGrad
 Berny optimization.
 Initialization pass.
 Trust Radius=3.00D-01 FncErr=1.00D-07 GrdErr=1.00D-07 EigMax=2.50D+02 EigMin=1.00D-04
 Number of steps in this run=      2 maximum allowed number of steps=      2.
 GradGradGradGradGradGradGradGradGradGradGradGradGradGradGradGradGradGrad

                          Input orientation:                          
 ---------------------------------------------------------------------
 Center     Atomic      Atomic             Coordinates (Angstroms)
 Number     Number       Type             X           Y           Z
 ---------------------------------------------------------------------
      1          6           0       -8.936451   -0.853221    1.112573
      2          6           0       -8.940355    0.477001    1.247228
      3          6           0       -8.193622   -2.139198    0.983686
      4          6           0       -7.045543   -2.806675    0.900514
      5          6           0       -9.692704   -2.149385    0.993031
      6          6           0      -10.847646   -2.803062    0.939408
      7          6           0      -10.213095    1.208290    1.337491
      8          7           0      -11.203519    1.768408    1.416105
      9          6           0       -7.681730    1.218655    1.321591
     10          7           0       -6.660370    1.731609    1.380084
     11          6           0       -5.759238   -2.089584    0.951468
     12          7           0       -4.782742   -1.501641    0.994609
     13          6           0       -7.022348   -4.263322    0.741844
     14          7           0       -7.040327   -5.406385    0.606458
     15          6           0      -10.868799   -4.273864    0.825012
     16          7           0      -10.794136   -5.418631    0.742639
     17          6           0      -12.119486   -2.095628    0.995394
     18          7           0      -13.107783   -1.473543    1.039671
 ---------------------------------------------------------------------
                    Distance matrix (angstroms):
                    1          2          3          4          5
     1  C    0.000000
     2  C    1.337026   0.000000
     3  C    1.490686   2.733416   0.000000
     4  C    2.726992   3.806974   1.330612   0.000000
     5  C    1.505407   2.743820   1.499145   2.729111   0.000000
     6  C    2.735787   3.806748   2.736150   3.802303   1.328179
     7  C    2.435207   1.470646   3.925446   5.132668   3.415178
     8  N    3.479176   2.611162   4.951348   6.203707   4.220267
     9  C    2.431190   1.462777   3.413413   4.096989   3.936453
    10  N    3.454483   2.605767   4.182241   4.579778   4.940341
    11  C    3.413098   4.098090   2.435103   1.473566   3.934140
    12  N    4.205671   4.611354   3.469972   2.613855   4.952504
    13  C    3.928107   5.138563   2.437678   1.465447   3.415059
    14  N    4.958099   6.215700   3.485241   2.616293   4.218126
    15  C    3.939221   5.144695   3.426157   4.095807   2.434100
    16  N    4.942753   6.200773   4.192308   4.571562   3.458875
    17  C    3.418920   4.097404   3.926123   5.124401   2.427379
    18  N    4.217834   4.605992   4.959356   6.208652   3.481624
                    6          7          8          9         10
     6  C    0.000000
     7  C    4.080695   0.000000
     8  N    4.610014   1.140549   0.000000
     9  C    5.132572   2.531436   3.565692   0.000000
    10  N    6.187949   3.591313   4.543441   1.144430   0.000000
    11  C    5.138199   5.555343   6.688811   3.844140   3.949338
    12  N    6.203209   6.078654   7.217843   3.988867   3.758722
    13  C    4.099304   6.361934   7.370115   5.551843   6.039668
    14  N    4.624264   7.372570   8.334588   6.694324   7.189843
    15  C    1.475395   5.544961   6.080335   6.369597   7.354229
    16  N    2.623505   6.678887   7.230123   7.353626   8.283736
    17  C    1.456426   3.829782   3.993340   5.548383   6.678149
    18  N    2.624099   3.957290   3.778647   6.063783   7.208191
                   11         12         13         14         15
    11  C    0.000000
    12  N    1.140650   0.000000
    13  C    2.522801   3.564633   0.000000
    14  N    3.572309   4.527072   1.151193   0.000000
    15  C    5.558299   6.689849   3.847365   3.998446   0.000000
    16  N    6.039566   7.179356   3.944759   3.756298   1.150152
    17  C    6.360403   7.360749   5.544728   6.075380   2.517530
    18  N    7.374850   8.325210   6.701052   7.243545   3.591785
                   16         17         18
    16  N    0.000000
    17  C    3.586473   0.000000
    18  N    4.583111   1.168624   0.000000
 Symmetry turned off by external request.
 Stoichiometry    C12N6(1-,2)
 Framework group  C1[X(C12N6)]
 Deg. of freedom    48
 Full point group                 C1      NOp   1
 Rotational constants (GHZ):           0.4233452           0.4200781           0.2108813
 Standard basis: def2SVP (5D, 7F)
   252 basis functions,   450 primitive gaussians,   270 cartesian basis functions
    58 alpha electrons       57 beta electrons
       nuclear repulsion energy       956.6621714417 Hartrees.
 NAtoms=   18 NActive=   18 NUniq=   18 SFac= 1.00D+00 NAtFMM=   60 NAOKFM=F Big=F
 Integral buffers will be    131072 words long.
 Raffenetti 2 integral format.
 Two-electron integral symmetry is turned off.
 Nuclear repulsion after empirical dispersion term =      956.6506398808 Hartrees.
 Force PCM accuracy= 1.00D-10.
 ------------------------------------------------------------------------------
 Polarizable Continuum Model (PCM)
 =================================
 Model                : PCM (using non-symmetric T matrix).
 Atomic radii         : SMD-Coulomb.
 Polarization charges : Total charges.
 Charge compensation  : None.
 Solution method      : On-the-fly selection.
 Cavity type          : VdW (van der Waals Surface) (Alpha=1.000).
 Cavity algorithm     : GePol (No added spheres)
                        Default sphere list used, NSphG=   18.
                        Lebedev-Laikov grids with approx.  5.0 points / Ang**2.
                        Smoothing algorithm: York/Karplus (Gamma=1.0000).
                        Polarization charges: spherical gaussians, with
                                              point-specific exponents (IZeta= 3).
                        Self-potential: point-specific (ISelfS= 7).
                        Self-field    : sphere-specific E.n sum rule (ISelfD= 2).
 1st derivatives      : Analytical E(r).r(x)/FMM algorithm (CHGder, D1EAlg=3).
                        Cavity 1st derivative terms included.
 Solvent              : Acetonitrile, Eps=  35.688000 Eps(inf)=   1.806874
 ------------------------------------------------------------------------------
 Spheres list:
 ISph  on   Nord     Re0    Alpha      Xe            Ye            Ze
    1   C      1    1.8500  1.000     -8.936451     -0.853221      1.112573
    2   C      2    1.8500  1.000     -8.940355      0.477001      1.247228
    3   C      3    1.8500  1.000     -8.193622     -2.139198      0.983686
    4   C      4    1.8500  1.000     -7.045543     -2.806675      0.900514
    5   C      5    1.8500  1.000     -9.692704     -2.149385      0.993031
    6   C      6    1.8500  1.000    -10.847646     -2.803062      0.939408
    7   C      7    1.8500  1.000    -10.213095      1.208290      1.337491
    8   N      8    1.8900  1.000    -11.203519      1.768408      1.416105
    9   C      9    1.8500  1.000     -7.681730      1.218655      1.321591
   10   N     10    1.8900  1.000     -6.660370      1.731609      1.380084
   11   C     11    1.8500  1.000     -5.759238     -2.089584      0.951468
   12   N     12    1.8900  1.000     -4.782742     -1.501641      0.994609
   13   C     13    1.8500  1.000     -7.022348     -4.263322      0.741844
   14   N     14    1.8900  1.000     -7.040327     -5.406385      0.606458
   15   C     15    1.8500  1.000    -10.868799     -4.273864      0.825012
   16   N     16    1.8900  1.000    -10.794136     -5.418631      0.742639
   17   C     17    1.8500  1.000    -12.119486     -2.095628      0.995394
   18   N     18    1.8900  1.000    -13.107783     -1.473543      1.039671
 ------------------------------------------------------------------------------
 ------------------------------------------------------------------------------
 Atomic radii for non-electrostatic terms: SMD-CDS.
 ------------------------------------------------------------------------------
 Nuclear repulsion after PCM non-electrostatic terms =      956.6594709165 Hartrees.
 One-electron integrals computed using PRISM.
   1 Symmetry operations used in ECPInt.
 ECPInt:  NShTT=    5886 NPrTT=   23670 LenC2=    5391 LenP2D=   14891.
 LDataN:  DoStor=T MaxTD1= 4 Len=   56
 NBasis=   252 RedAO= T EigKep=  2.67D-04  NBF=   252
 NBsUse=   252 1.00D-06 EigRej= -1.00D+00 NBFU=   252
 Initial guess from the checkpoint file:  "b.chk"
 B after Tr=     0.000738   -0.001269    0.001768
         Rot=    1.000000    0.000067    0.000063    0.000037 Ang=   0.01 deg.
 Initial guess <Sx>= 0.0000 <Sy>= 0.0000 <Sz>= 0.5000 <S**2>= 0.7823 S= 0.5160
 Requested convergence on RMS density matrix=1.00D-08 within  64 cycles.
 Requested convergence on MAX density matrix=1.00D-06.
 Requested convergence on             energy=1.00D-06.
 No special actions if energy rises.
 Inv3:  Mode=1 IEnd=    19339563.
 Iteration    1 A*A^-1 deviation from unit magnitude is 3.11D-15 for   1869.
 Iteration    1 A*A^-1 deviation from orthogonality  is 2.77D-15 for    715    300.
 Iteration    1 A^-1*A deviation from unit magnitude is 3.33D-15 for   2369.
 Iteration    1 A^-1*A deviation from orthogonality  is 6.42D-10 for   1641   1584.
 Iteration    2 A*A^-1 deviation from unit magnitude is 5.33D-15 for   2005.
 Iteration    2 A*A^-1 deviation from orthogonality  is 5.61D-15 for   1828    270.
 Iteration    2 A^-1*A deviation from unit magnitude is 1.44D-15 for   1502.
 Iteration    2 A^-1*A deviation from orthogonality  is 6.06D-16 for   1283   1263.
 Error on total polarization charges =  0.01975
 SCF Done:  E(UwB97XD) =  -784.829441335     A.U. after   16 cycles
            NFock= 16  Conv=0.70D-08     -V/T= 2.0100
 <Sx>= 0.0000 <Sy>= 0.0000 <Sz>= 0.5000 <S**2>= 0.7780 S= 0.5139
 <L.S>=  0.00000000000    
 SMD-CDS (non-electrostatic) energy       (kcal/mol) =       5.54
 (included in total energy above)
 Annihilation of the first spin contaminant:
 S**2 before annihilation     0.7780,   after     0.7506
 QCSCF skips out because SCF is already converged.

 **********************************************************************

            Population analysis using the SCF Density.

 **********************************************************************

 Alpha  occ. eigenvalues --  -14.46252 -14.45877 -14.45873 -14.45701 -14.45627
 Alpha  occ. eigenvalues --  -14.45603 -10.38483 -10.38480 -10.38473 -10.38380
 Alpha  occ. eigenvalues --  -10.38363 -10.38327 -10.36553 -10.36233 -10.36216
 Alpha  occ. eigenvalues --  -10.36040 -10.35994 -10.35977  -1.03161  -1.02380
 Alpha  occ. eigenvalues --   -1.02121  -1.01518  -1.01367  -1.00885  -1.00175
 Alpha  occ. eigenvalues --   -0.92264  -0.92182  -0.87973  -0.71876  -0.71656
 Alpha  occ. eigenvalues --   -0.68033  -0.67896  -0.67414  -0.67106  -0.54362
 Alpha  occ. eigenvalues --   -0.50668  -0.50579  -0.48702  -0.48524  -0.47660
 Alpha  occ. eigenvalues --   -0.47550  -0.47509  -0.47034  -0.46241  -0.46120
 Alpha  occ. eigenvalues --   -0.45621  -0.45448  -0.45328  -0.45199  -0.44853
 Alpha  occ. eigenvalues --   -0.44776  -0.44599  -0.43449  -0.43046  -0.42855
 Alpha  occ. eigenvalues --   -0.36488  -0.36454  -0.26049
 Alpha virt. eigenvalues --    0.04270   0.04664   0.06959   0.07378   0.07544
 Alpha virt. eigenvalues --    0.08550   0.10440   0.10915   0.11260   0.12076
 Alpha virt. eigenvalues --    0.12401   0.14547   0.18392   0.18443   0.20211
 Alpha virt. eigenvalues --    0.21816   0.24517   0.24769   0.25023   0.25274
 Alpha virt. eigenvalues --    0.27721   0.29146   0.29493   0.30973   0.31091
 Alpha virt. eigenvalues --    0.32798   0.34362   0.46507   0.46850   0.49538
 Alpha virt. eigenvalues --    0.49929   0.51179   0.51331   0.53169   0.53177
 Alpha virt. eigenvalues --    0.53763   0.53834   0.54117   0.56446   0.59947
 Alpha virt. eigenvalues --    0.60048   0.60321   0.61460   0.61835   0.63526
 Alpha virt. eigenvalues --    0.64048   0.69075   0.69142   0.70635   0.71561
 Alpha virt. eigenvalues --    0.71942   0.72533   0.72638   0.73170   0.73339
 Alpha virt. eigenvalues --    0.73554   0.73614   0.74393   0.74575   0.74932
 Alpha virt. eigenvalues --    0.78860   0.79070   0.79147   0.80767   0.80912
 Alpha virt. eigenvalues --    0.83583   0.83938   0.86264   0.87099   0.92831
 Alpha virt. eigenvalues --    0.93006   0.93091   0.93121   0.93221   0.94069
 Alpha virt. eigenvalues --    0.95709   0.98271   0.98433   0.99152   0.99463
 Alpha virt. eigenvalues --    1.01045   1.01224   1.01875   1.02372   1.03183
 Alpha virt. eigenvalues --    1.04893   1.06683   1.07018   1.07951   1.10806
 Alpha virt. eigenvalues --    1.11823   1.14876   1.16428   1.17151   1.17399
 Alpha virt. eigenvalues --    1.21355   1.22425   1.22746   1.24171   1.32454
 Alpha virt. eigenvalues --    1.33374   1.33773   1.38702   1.38734   1.41869
 Alpha virt. eigenvalues --    1.43387   1.44126   1.45009   1.45176   1.55500
 Alpha virt. eigenvalues --    1.60733   1.66661   1.68043   1.68121   1.68322
 Alpha virt. eigenvalues --    1.68622   1.68796   1.74233   1.74460   1.76829
 Alpha virt. eigenvalues --    1.76976   1.77908   1.77941   1.78331   1.79501
 Alpha virt. eigenvalues --    1.79569   1.80805   1.84370   1.92082   1.94037
 Alpha virt. eigenvalues --    1.94268   1.96379   1.96761   1.97543   1.99755
 Alpha virt. eigenvalues --    2.00451   2.01026   2.02688   2.06723   2.07240
 Alpha virt. eigenvalues --    2.11549   2.17715   2.18184   2.21834   2.22681
 Alpha virt. eigenvalues --    2.25526   2.28491   2.28569   2.31682   2.32442
 Alpha virt. eigenvalues --    2.33041   2.33662   2.34324   2.34353   2.34541
 Alpha virt. eigenvalues --    2.34715   2.34804   2.35642   2.35880   2.36340
 Alpha virt. eigenvalues --    2.37207   2.37806   2.55534   2.56190   2.57011
 Alpha virt. eigenvalues --    2.67499   2.68644   2.90041   2.92283   2.94946
 Alpha virt. eigenvalues --    2.95371   2.97931   2.98312   2.99408   3.02233
 Alpha virt. eigenvalues --    3.04519   3.05149   3.08085   3.08236   3.08317
 Alpha virt. eigenvalues --    3.10021   3.10880   3.19928   3.21279   3.26564
 Alpha virt. eigenvalues --    3.38459   3.38581   3.39332   3.50072   3.53673
 Alpha virt. eigenvalues --    3.55344   3.61797   3.63295   3.75765
  Beta  occ. eigenvalues --  -14.46084 -14.45734 -14.45717 -14.45548 -14.45483
  Beta  occ. eigenvalues --  -14.45458 -10.38416 -10.38401 -10.38362 -10.38130
  Beta  occ. eigenvalues --  -10.38114 -10.38108 -10.36635 -10.36305 -10.36295
  Beta  occ. eigenvalues --  -10.36116 -10.36067 -10.36051  -1.02810  -1.02103
  Beta  occ. eigenvalues --   -1.01844  -1.01268  -1.01111  -1.00611  -0.99766
  Beta  occ. eigenvalues --   -0.91589  -0.91480  -0.86971  -0.71662  -0.71434
  Beta  occ. eigenvalues --   -0.67794  -0.67659  -0.67180  -0.66860  -0.53270
  Beta  occ. eigenvalues --   -0.49447  -0.49370  -0.48498  -0.48316  -0.47366
  Beta  occ. eigenvalues --   -0.47259  -0.47222  -0.46749  -0.46077  -0.45970
  Beta  occ. eigenvalues --   -0.45532  -0.44643  -0.44629  -0.44541  -0.44460
  Beta  occ. eigenvalues --   -0.44362  -0.44097  -0.43338  -0.42915  -0.42718
  Beta  occ. eigenvalues --   -0.34169  -0.34077
  Beta virt. eigenvalues --   -0.08434   0.05514   0.05896   0.07055   0.07471
  Beta virt. eigenvalues --    0.07629   0.08541   0.11311   0.11802   0.11973
  Beta virt. eigenvalues --    0.12136   0.12465   0.14800   0.18666   0.18708
  Beta virt. eigenvalues --    0.21696   0.21812   0.25215   0.25464   0.26141
  Beta virt. eigenvalues --    0.26431   0.27979   0.29268   0.29624   0.31469
  Beta virt. eigenvalues --    0.31574   0.33358   0.34474   0.46672   0.47008
  Beta virt. eigenvalues --    0.49616   0.50023   0.51264   0.51418   0.53130
  Beta virt. eigenvalues --    0.53147   0.53925   0.54001   0.54280   0.56610
  Beta virt. eigenvalues --    0.59868   0.59967   0.60282   0.61489   0.61871
  Beta virt. eigenvalues --    0.63411   0.64331   0.69227   0.69303   0.70906
  Beta virt. eigenvalues --    0.71726   0.72111   0.72643   0.72756   0.73318
  Beta virt. eigenvalues --    0.73398   0.73722   0.73785   0.74466   0.74702
  Beta virt. eigenvalues --    0.75058   0.78892   0.79111   0.80060   0.81461
  Beta virt. eigenvalues --    0.81609   0.83709   0.84066   0.86522   0.87185
  Beta virt. eigenvalues --    0.92960   0.93183   0.93393   0.93556   0.93593
  Beta virt. eigenvalues --    0.94558   0.96314   0.98785   0.98956   0.99329
  Beta virt. eigenvalues --    0.99609   1.01180   1.01351   1.02105   1.02581
  Beta virt. eigenvalues --    1.03300   1.05202   1.06973   1.07153   1.08197
  Beta virt. eigenvalues --    1.10906   1.11917   1.15055   1.16707   1.17377
  Beta virt. eigenvalues --    1.17618   1.21796   1.22652   1.22978   1.24862
  Beta virt. eigenvalues --    1.32581   1.33558   1.33966   1.39338   1.39368
  Beta virt. eigenvalues --    1.42604   1.43516   1.44221   1.45737   1.45914
  Beta virt. eigenvalues --    1.55559   1.60706   1.66524   1.67885   1.67960
  Beta virt. eigenvalues --    1.68155   1.68469   1.68623   1.74177   1.74391
  Beta virt. eigenvalues --    1.77020   1.77179   1.77855   1.77902   1.78269
  Beta virt. eigenvalues --    1.79450   1.79507   1.81039   1.84296   1.92311
  Beta virt. eigenvalues --    1.94169   1.94335   1.96914   1.97305   1.97705
  Beta virt. eigenvalues --    1.99900   2.00841   2.01443   2.03337   2.07077
  Beta virt. eigenvalues --    2.07567   2.11788   2.18617   2.19098   2.22917
  Beta virt. eigenvalues --    2.23350   2.26156   2.29144   2.29219   2.32216
  Beta virt. eigenvalues --    2.32901   2.33620   2.34202   2.34833   2.34860
  Beta virt. eigenvalues --    2.35072   2.35204   2.35343   2.36221   2.36400
  Beta virt. eigenvalues --    2.36802   2.37795   2.38374   2.55652   2.56334
  Beta virt. eigenvalues --    2.57442   2.68103   2.69252   2.90132   2.92461
  Beta virt. eigenvalues --    2.95073   2.95508   2.98056   2.98427   2.99519
  Beta virt. eigenvalues --    3.02667   3.04987   3.05612   3.08288   3.08440
  Beta virt. eigenvalues --    3.08736   3.10448   3.11307   3.20146   3.21493
  Beta virt. eigenvalues --    3.26730   3.38679   3.38792   3.39530   3.50235
  Beta virt. eigenvalues --    3.53839   3.55510   3.61975   3.63477   3.75944
          Condensed to atoms (all electrons):
               1          2          3          4          5          6
     1  C    4.900481   0.565643   0.269340  -0.106672   0.280681  -0.100476
     2  C    0.565643   5.329313  -0.102509  -0.009820  -0.096426  -0.009227
     3  C    0.269340  -0.102509   4.903122   0.561730   0.273952  -0.104688
     4  C   -0.106672  -0.009820   0.561730   5.351355  -0.103945  -0.010230
     5  C    0.280681  -0.096426   0.273952  -0.103945   4.881740   0.560187
     6  C   -0.100476  -0.009227  -0.104688  -0.010230   0.560187   5.350963
     7  C    0.006730   0.385379   0.004532  -0.000312  -0.014813   0.001260
     8  N   -0.001816  -0.023578  -0.000048  -0.000001  -0.000324   0.000049
     9  C    0.004347   0.384907  -0.015953   0.001214   0.005499  -0.000316
    10  N   -0.001709  -0.024132  -0.000401   0.000062  -0.000014  -0.000001
    11  C   -0.014855   0.001193   0.006530   0.383441   0.004799  -0.000278
    12  N   -0.000359   0.000051  -0.001812  -0.023422  -0.000038  -0.000001
    13  C    0.004658  -0.000314   0.006383   0.386235  -0.015009   0.001011
    14  N   -0.000041  -0.000001  -0.001714  -0.024099  -0.000338   0.000042
    15  C    0.005537  -0.000257  -0.015313   0.001240   0.004138   0.375989
    16  N   -0.000001  -0.000001  -0.000390   0.000067  -0.001464  -0.023916
    17  C   -0.016072   0.001152   0.004897  -0.000334   0.006065   0.385658
    18  N   -0.000360   0.000068  -0.000022  -0.000001  -0.001376  -0.025232
               7          8          9         10         11         12
     1  C    0.006730  -0.001816   0.004347  -0.001709  -0.014855  -0.000359
     2  C    0.385379  -0.023578   0.384907  -0.024132   0.001193   0.000051
     3  C    0.004532  -0.000048  -0.015953  -0.000401   0.006530  -0.001812
     4  C   -0.000312  -0.000001   0.001214   0.000062   0.383441  -0.023422
     5  C   -0.014813  -0.000324   0.005499  -0.000014   0.004799  -0.000038
     6  C    0.001260   0.000049  -0.000316  -0.000001  -0.000278  -0.000001
     7  C    4.809634   0.935297  -0.034506   0.001438   0.000045   0.000001
     8  N    0.935297   6.063656   0.001230   0.000039   0.000000   0.000000
     9  C   -0.034506   0.001230   4.813514   0.930028   0.000260   0.000147
    10  N    0.001438   0.000039   0.930028   6.069922   0.000423  -0.000768
    11  C    0.000045   0.000000   0.000260   0.000423   4.810985   0.936572
    12  N    0.000001   0.000000   0.000147  -0.000768   0.936572   6.060250
    13  C   -0.000004  -0.000000   0.000052   0.000001  -0.033279   0.001338
    14  N   -0.000000  -0.000000   0.000000   0.000000   0.001310   0.000040
    15  C    0.000044   0.000001  -0.000003  -0.000000   0.000044   0.000000
    16  N    0.000000   0.000000  -0.000000  -0.000000   0.000001   0.000000
    17  C    0.000337   0.000022   0.000053   0.000000  -0.000004  -0.000000
    18  N    0.000487  -0.000747   0.000001   0.000000  -0.000000  -0.000000
              13         14         15         16         17         18
     1  C    0.004658  -0.000041   0.005537  -0.000001  -0.016072  -0.000360
     2  C   -0.000314  -0.000001  -0.000257  -0.000001   0.001152   0.000068
     3  C    0.006383  -0.001714  -0.015313  -0.000390   0.004897  -0.000022
     4  C    0.386235  -0.024099   0.001240   0.000067  -0.000334  -0.000001
     5  C   -0.015009  -0.000338   0.004138  -0.001464   0.006065  -0.001376
     6  C    0.001011   0.000042   0.375989  -0.023916   0.385658  -0.025232
     7  C   -0.000004  -0.000000   0.000044   0.000000   0.000337   0.000487
     8  N   -0.000000  -0.000000   0.000001   0.000000   0.000022  -0.000747
     9  C    0.000052   0.000000  -0.000003  -0.000000   0.000053   0.000001
    10  N    0.000001   0.000000  -0.000000  -0.000000   0.000000   0.000000
    11  C   -0.033279   0.001310   0.000044   0.000001  -0.000004  -0.000000
    12  N    0.001338   0.000040   0.000000   0.000000  -0.000000  -0.000000
    13  C    4.814795   0.923406   0.000291   0.000452   0.000050   0.000000
    14  N    0.923406   6.082347   0.000119  -0.000753   0.000001   0.000000
    15  C    0.000291   0.000119   4.815603   0.926612  -0.030120   0.001406
    16  N    0.000452  -0.000753   0.926612   6.083446   0.001493   0.000035
    17  C    0.000050   0.000001  -0.030120   0.001493   4.821043   0.902836
    18  N    0.000000   0.000000   0.001406   0.000035   0.902836   6.125907
          Atomic-Atomic Spin Densities.
               1          2          3          4          5          6
     1  C   -0.003330  -0.077551   0.036866  -0.007517   0.035742  -0.007254
     2  C   -0.077551   0.386224  -0.007442   0.001150  -0.007273   0.001148
     3  C    0.036866  -0.007442  -0.002744  -0.078223   0.036023  -0.007245
     4  C   -0.007517   0.001150  -0.078223   0.387159  -0.007620   0.001132
     5  C    0.035742  -0.007273   0.036023  -0.007620  -0.000211  -0.076717
     6  C   -0.007254   0.001148  -0.007245   0.001132  -0.076717   0.369834
     7  C   -0.000932   0.007576  -0.000117  -0.000008   0.000239  -0.000048
     8  N    0.000479  -0.004721   0.000007  -0.000000   0.000052  -0.000028
     9  C   -0.000971   0.007789   0.000218  -0.000050  -0.000102  -0.000008
    10  N    0.000551  -0.004851   0.000055  -0.000032   0.000008  -0.000000
    11  C    0.000216  -0.000046  -0.000990   0.007534  -0.000110  -0.000008
    12  N    0.000052  -0.000028   0.000493  -0.004656   0.000007  -0.000000
    13  C   -0.000123  -0.000008  -0.001013   0.008217   0.000253  -0.000053
    14  N    0.000007  -0.000000   0.000501  -0.004804   0.000053  -0.000028
    15  C   -0.000081  -0.000007   0.000166  -0.000040  -0.000746   0.007456
    16  N    0.000008  -0.000000   0.000051  -0.000031   0.000517  -0.004474
    17  C    0.000235  -0.000046  -0.000099  -0.000009  -0.000734   0.008989
    18  N    0.000054  -0.000030   0.000008  -0.000000   0.000528  -0.004772
               7          8          9         10         11         12
     1  C   -0.000932   0.000479  -0.000971   0.000551   0.000216   0.000052
     2  C    0.007576  -0.004721   0.007789  -0.004851  -0.000046  -0.000028
     3  C   -0.000117   0.000007   0.000218   0.000055  -0.000990   0.000493
     4  C   -0.000008  -0.000000  -0.000050  -0.000032   0.007534  -0.004656
     5  C    0.000239   0.000052  -0.000102   0.000008  -0.000110   0.000007
     6  C   -0.000048  -0.000028  -0.000008  -0.000000  -0.000008  -0.000000
     7  C   -0.060084  -0.002223  -0.000890   0.000041  -0.000002   0.000000
     8  N   -0.002223   0.090490   0.000070   0.000006  -0.000000   0.000000
     9  C   -0.000890   0.000070  -0.062550  -0.002410   0.000009   0.000007
    10  N    0.000041   0.000006  -0.002410   0.094902   0.000005   0.000034
    11  C   -0.000002  -0.000000   0.000009   0.000005  -0.060037  -0.002176
    12  N    0.000000   0.000000   0.000007   0.000034  -0.002176   0.089834
    13  C    0.000000  -0.000000  -0.000002  -0.000000  -0.000941   0.000057
    14  N   -0.000000   0.000000  -0.000000   0.000000   0.000058   0.000007
    15  C   -0.000001   0.000000   0.000000  -0.000000  -0.000001  -0.000000
    16  N   -0.000000   0.000000  -0.000000   0.000000   0.000000   0.000000
    17  C    0.000008   0.000008  -0.000002  -0.000000   0.000000  -0.000000
    18  N    0.000005   0.000033   0.000000   0.000000  -0.000000   0.000000
              13         14         15         16         17         18
     1  C   -0.000123   0.000007  -0.000081   0.000008   0.000235   0.000054
     2  C   -0.000008  -0.000000  -0.000007  -0.000000  -0.000046  -0.000030
     3  C   -0.001013   0.000501   0.000166   0.000051  -0.000099   0.000008
     4  C    0.008217  -0.004804  -0.000040  -0.000031  -0.000009  -0.000000
     5  C    0.000253   0.000053  -0.000746   0.000517  -0.000734   0.000528
     6  C   -0.000053  -0.000028   0.007456  -0.004474   0.008989  -0.004772
     7  C    0.000000  -0.000000  -0.000001  -0.000000   0.000008   0.000005
     8  N   -0.000000   0.000000   0.000000   0.000000   0.000008   0.000033
     9  C   -0.000002  -0.000000   0.000000  -0.000000  -0.000002   0.000000
    10  N   -0.000000   0.000000  -0.000000   0.000000  -0.000000   0.000000
    11  C   -0.000941   0.000058  -0.000001   0.000000   0.000000  -0.000000
    12  N    0.000057   0.000007  -0.000000   0.000000  -0.000000   0.000000
    13  C   -0.064255  -0.002614   0.000007   0.000005  -0.000002  -0.000000
    14  N   -0.002614   0.097612   0.000007   0.000034   0.000000   0.000000
    15  C    0.000007   0.000007  -0.059454  -0.002289  -0.001020   0.000054
    16  N    0.000005   0.000034  -0.002289   0.088765   0.000045   0.000006
    17  C   -0.000002   0.000000  -0.001020   0.000045  -0.067554  -0.003128
    18  N   -0.000000   0.000000   0.000054   0.000006  -0.003128   0.104325
 Mulliken charges and spin densities:
               1          2
     1  C    0.204943  -0.023550
     2  C   -0.401440   0.301885
     3  C    0.212364  -0.023485
     4  C   -0.406509   0.302200
     5  C    0.216683  -0.020090
     6  C   -0.400794   0.287922
     7  C   -0.095548  -0.056436
     8  N    0.026221   0.084173
     9  C   -0.090472  -0.058892
    10  N    0.025112   0.088310
    11  C   -0.097187  -0.056489
    12  N    0.028000   0.083631
    13  C   -0.090066  -0.060472
    14  N    0.019682   0.090833
    15  C   -0.085329  -0.055950
    16  N    0.014420   0.082636
    17  C   -0.077077  -0.063309
    18  N   -0.003002   0.097083
 Sum of Mulliken charges =  -1.00000   1.00000
 Mulliken charges and spin densities with hydrogens summed into heavy atoms:
               1          2
     1  C    0.204943  -0.023550
     2  C   -0.401440   0.301885
     3  C    0.212364  -0.023485
     4  C   -0.406509   0.302200
     5  C    0.216683  -0.020090
     6  C   -0.400794   0.287922
     7  C   -0.095548  -0.056436
     8  N    0.026221   0.084173
     9  C   -0.090472  -0.058892
    10  N    0.025112   0.088310
    11  C   -0.097187  -0.056489
    12  N    0.028000   0.083631
    13  C   -0.090066  -0.060472
    14  N    0.019682   0.090833
    15  C   -0.085329  -0.055950
    16  N    0.014420   0.082636
    17  C   -0.077077  -0.063309
    18  N   -0.003002   0.097083
 Electronic spatial extent (au):  <R**2>=          39063.0973
 Charge=             -1.0000 electrons
 Dipole moment (field-independent basis, Debye):
    X=             42.9068    Y=              8.2738    Z=             -4.9525  Tot=             43.9770
 Quadrupole moment (field-independent basis, Debye-Ang):
   XX=           -553.4986   YY=           -183.3739   ZZ=           -104.5099
   XY=            -73.2807   XZ=             44.9479   YZ=              1.4581
 Traceless Quadrupole moment (field-independent basis, Debye-Ang):
   XX=           -273.0378   YY=             97.0869   ZZ=            175.9509
   XY=            -73.2807   XZ=             44.9479   YZ=              1.4581
 Octapole moment (field-independent basis, Debye-Ang**2):
  XXX=           7989.4449  YYY=            968.3453  ZZZ=           -312.1549  XYY=           1636.8945
  XXY=            867.9467  XXZ=           -588.7722  XZZ=            935.8422  YZZ=            165.3121
  YYZ=           -158.9596  XYZ=            -14.3891
 Hexadecapole moment (field-independent basis, Debye-Ang**3):
 XXXX=        -116605.0107 YYYY=          -7840.7550 ZZZZ=           -766.3360 XXXY=         -11610.2412
 XXXZ=           8575.6113 YYYX=          -8635.7894 YYYZ=            634.5447 ZZZX=           2808.9812
 ZZZY=            362.4720 XXYY=         -16307.5402 XXZZ=          -9122.3754 YYZZ=           -979.4436
 XXYZ=            285.0385 YYXZ=           1438.1109 ZZXY=          -1478.4982
 N-N= 9.566594709165D+02 E-N=-3.748775320206D+03  KE= 7.770837503388D+02
                          Isotropic Fermi Contact Couplings
        Atom                 a.u.       MegaHertz       Gauss      10(-4) cm-1
     1  C(13)             -0.01335     -15.01143      -5.35645      -5.00727
     2  C(13)              0.04931      55.43093      19.77913      18.48977
     3  C(13)             -0.01348     -15.14963      -5.40576      -5.05337
     4  C(13)              0.04917      55.28055      19.72548      18.43961
     5  C(13)             -0.01249     -14.04336      -5.01102      -4.68436
     6  C(13)              0.04673      52.53803      18.74688      17.52480
     7  C(13)             -0.02954     -33.21203     -11.85088     -11.07834
     8  N(14)              0.01926       6.22416       2.22093       2.07616
     9  C(13)             -0.02993     -33.64854     -12.00663     -11.22394
    10  N(14)              0.02032       6.56504       2.34257       2.18986
    11  C(13)             -0.02952     -33.18140     -11.83995     -11.06812
    12  N(14)              0.01912       6.17825       2.20455       2.06084
    13  C(13)             -0.03047     -34.25114     -12.22166     -11.42495
    14  N(14)              0.02100       6.78629       2.42152       2.26366
    15  C(13)             -0.02890     -32.48446     -11.59126     -10.83565
    16  N(14)              0.01903       6.14711       2.19344       2.05045
    17  C(13)             -0.03057     -34.36441     -12.26208     -11.46273
    18  N(14)              0.02277       7.35564       2.62467       2.45358
 --------------------------------------------------------
       Center         ----  Spin Dipole Couplings  ----
                      3XX-RR        3YY-RR        3ZZ-RR
 --------------------------------------------------------
     1   Atom       -0.015373      0.015558     -0.000185
     2   Atom       -0.156815     -0.153401      0.310216
     3   Atom        0.007994     -0.007456     -0.000539
     4   Atom       -0.157757     -0.151850      0.309606
     5   Atom        0.007373     -0.008324      0.000951
     6   Atom       -0.150166     -0.146056      0.296223
     7   Atom        0.027823      0.006142     -0.033965
     8   Atom       -0.085868     -0.070096      0.155963
     9   Atom        0.029427      0.005995     -0.035422
    10   Atom       -0.091419     -0.072026      0.163445
    11   Atom        0.026611      0.007250     -0.033862
    12   Atom       -0.084424     -0.070850      0.155274
    13   Atom       -0.002946      0.038983     -0.036037
    14   Atom       -0.071203     -0.095204      0.166407
    15   Atom       -0.002383      0.035905     -0.033522
    16   Atom       -0.064703     -0.089052      0.153755
    17   Atom        0.030239      0.008778     -0.039016
    18   Atom       -0.096536     -0.082074      0.178610
 --------------------------------------------------------
                        XY            XZ            YZ
 --------------------------------------------------------
     1   Atom        0.000122     -0.002507      0.000984
     2   Atom       -0.000430      0.003112     -0.049170
     3   Atom       -0.013723      0.000101      0.000519
     4   Atom        0.000092      0.007984     -0.048816
     5   Atom        0.013060      0.000599      0.000139
     6   Atom       -0.000798      0.000073     -0.035623
     7   Atom       -0.016833     -0.002424      0.004350
     8   Atom        0.010108      0.006388     -0.025299
     9   Atom        0.017446      0.001812      0.004563
    10   Atom       -0.010381     -0.001791     -0.026511
    11   Atom        0.017447      0.000658      0.003988
    12   Atom       -0.011638      0.003267     -0.023663
    13   Atom        0.000436     -0.000342      0.008292
    14   Atom       -0.001080      0.003039     -0.032513
    15   Atom       -0.001054      0.000018      0.005398
    16   Atom        0.002115     -0.000500     -0.016973
    17   Atom       -0.019858     -0.001521      0.003724
    18   Atom        0.014454     -0.000121     -0.019657
 --------------------------------------------------------


 ---------------------------------------------------------------------------------
              Anisotropic Spin Dipole Couplings in Principal Axis System
 ---------------------------------------------------------------------------------

       Atom             a.u.   MegaHertz   Gauss  10(-4) cm-1        Axes

              Baa    -0.0158    -2.117    -0.756    -0.706  0.9872 -0.0088  0.1593
     1 C(13)  Bbb     0.0002     0.021     0.008     0.007 -0.1595 -0.0617  0.9853
              Bcc     0.0156     2.096     0.748     0.699 -0.0011  0.9981  0.0623
 
              Baa    -0.1586   -21.278    -7.592    -7.098  0.0597  0.9928  0.1037
     2 C(13)  Bbb    -0.1568   -21.045    -7.509    -7.020  0.9982 -0.0587 -0.0128
              Bcc     0.3154    42.323    15.102    14.117  0.0066 -0.1043  0.9945
 
              Baa    -0.0155    -2.079    -0.742    -0.694  0.5043  0.8629 -0.0334
     3 C(13)  Bbb    -0.0005    -0.070    -0.025    -0.023  0.0259  0.0235  0.9994
              Bcc     0.0160     2.150     0.767     0.717  0.8632 -0.5048 -0.0105
 
              Baa    -0.1585   -21.263    -7.587    -7.093  0.8517 -0.5195 -0.0687
     4 C(13)  Bbb    -0.1564   -20.986    -7.488    -7.000  0.5238  0.8481  0.0799
              Bcc     0.3148    42.249    15.076    14.093  0.0168 -0.1040  0.9944
 
              Baa    -0.0157    -2.109    -0.752    -0.703 -0.4925  0.8702  0.0105
     5 C(13)  Bbb     0.0009     0.124     0.044     0.042 -0.0319 -0.0301  0.9990
              Bcc     0.0148     1.984     0.708     0.662  0.8697  0.4917  0.0426
 
              Baa    -0.1505   -20.202    -7.209    -6.739  0.9010  0.4325  0.0343
     6 C(13)  Bbb    -0.1485   -19.931    -7.112    -6.648 -0.4339  0.8981  0.0720
              Bcc     0.2991    40.133    14.320    13.387  0.0003 -0.0798  0.9968
 
              Baa    -0.0344    -4.621    -1.649    -1.541  0.0112 -0.1020  0.9947
     7 C(13)  Bbb    -0.0028    -0.378    -0.135    -0.126  0.4849  0.8705  0.0838
              Bcc     0.0373     4.999     1.784     1.668  0.8745 -0.4814 -0.0592
 
              Baa    -0.0920    -3.549    -1.266    -1.184  0.8716 -0.4849 -0.0719
     8 N(14)  Bbb    -0.0669    -2.578    -0.920    -0.860  0.4897  0.8678  0.0845
              Bcc     0.1589     6.127     2.186     2.044  0.0214 -0.1089  0.9938
 
              Baa    -0.0359    -4.820    -1.720    -1.608  0.0015 -0.1088  0.9941
     9 C(13)  Bbb    -0.0030    -0.402    -0.143    -0.134 -0.4758  0.8743  0.0964
              Bcc     0.0389     5.222     1.863     1.742  0.8796  0.4731  0.0505
 
              Baa    -0.0965    -3.724    -1.329    -1.242  0.8989  0.4352  0.0506
    10 N(14)  Bbb    -0.0698    -2.694    -0.961    -0.899 -0.4382  0.8935  0.0982
              Bcc     0.1664     6.417     2.290     2.141 -0.0025 -0.1104  0.9939
 
              Baa    -0.0343    -4.598    -1.641    -1.534  0.0189 -0.1035  0.9945
    11 C(13)  Bbb    -0.0027    -0.364    -0.130    -0.121 -0.5104  0.8542  0.0986
              Bcc     0.0370     4.962     1.771     1.655  0.8597  0.5095  0.0367
 
              Baa    -0.0915    -3.527    -1.259    -1.177  0.8502  0.5250  0.0391
    12 N(14)  Bbb    -0.0663    -2.559    -0.913    -0.854 -0.5261  0.8448  0.0980
              Bcc     0.1578     6.086     2.172     2.030  0.0184 -0.1038  0.9944
 
              Baa    -0.0369    -4.958    -1.769    -1.654  0.0114 -0.1086  0.9940
    13 C(13)  Bbb    -0.0029    -0.395    -0.141    -0.132  0.9999 -0.0080 -0.0123
              Bcc     0.0399     5.353     1.910     1.786  0.0093  0.9941  0.1085
 
              Baa    -0.0992    -3.826    -1.365    -1.276  0.0251  0.9923  0.1212
    14 N(14)  Bbb    -0.0712    -2.747    -0.980    -0.916  0.9996 -0.0233 -0.0160
              Bcc     0.1704     6.573     2.345     2.193  0.0130 -0.1215  0.9925
 
              Baa    -0.0339    -4.554    -1.625    -1.519 -0.0031 -0.0771  0.9970
    15 C(13)  Bbb    -0.0024    -0.324    -0.115    -0.108  0.9996  0.0268  0.0052
              Bcc     0.0364     4.878     1.741     1.627 -0.0271  0.9967  0.0770
 
              Baa    -0.0904    -3.487    -1.244    -1.163 -0.0805  0.9944  0.0690
    16 N(14)  Bbb    -0.0645    -2.489    -0.888    -0.830  0.9967  0.0801  0.0085
              Bcc     0.1549     5.976     2.132     1.993 -0.0029 -0.0694  0.9976
 
              Baa    -0.0393    -5.274    -1.882    -1.759 -0.0003 -0.0773  0.9970
    17 C(13)  Bbb    -0.0029    -0.389    -0.139    -0.130  0.5151  0.8546  0.0664
              Bcc     0.0422     5.664     2.021     1.889  0.8571 -0.5136 -0.0396
 
              Baa    -0.1058    -4.082    -1.457    -1.362  0.8400 -0.5414 -0.0371
    18 N(14)  Bbb    -0.0742    -2.863    -1.022    -0.955  0.5426  0.8374  0.0654
              Bcc     0.1801     6.946     2.478     2.317 -0.0044 -0.0750  0.9972
 

 ---------------------------------------------------------------------------------

   1 Symmetry operations used in ECPInt.
 ECPInt:  NShTT=    5886 NPrTT=   23670 LenC2=    5391 LenP2D=   14891.
 LDataN:  DoStor=T MaxTD1= 5 Len=  102
 D1PCM: PCM CHGder 1st derivatives, ID1Alg=3 FixD1E=F DoIter=F DoCFld=F I1PDM=0.
 Calling FoFJK, ICntrl=      2127 FMM=F ISym2X=0 I1Cent= 0 IOpClX= 1 NMat=1 NMatS=1 NMatT=0.
 -------------------------------------------------------------------
 Center     Atomic                   Forces (Hartrees/Bohr)
 Number     Number              X              Y              Z
 -------------------------------------------------------------------
      1        6          -0.002821511   -0.128828450   -0.012581975
      2        6          -0.005053390    0.060295518    0.006188910
      3        6          -0.117437525    0.063981049    0.007146781
      4        6           0.064273729   -0.032100792   -0.004332740
      5        6           0.121677798    0.072774421    0.006183305
      6        6          -0.059853733   -0.043532168   -0.003458756
      7        6           0.066409886   -0.034919674   -0.004171761
      8        7          -0.040471797    0.022094731    0.002793172
      9        6          -0.052960649   -0.030566670   -0.002897628
     10        7           0.031720208    0.017746263    0.001760266
     11        6          -0.065585123   -0.037808681   -0.002519260
     12        7           0.039461200    0.023221141    0.001625725
     13        6          -0.001143425    0.044822691    0.004453364
     14        7           0.000142117   -0.018435175   -0.001819542
     15        6           0.003209280    0.050806956    0.003838230
     16        7          -0.000782309   -0.020590260   -0.001626470
     17        6           0.000408621    0.004316470    0.000291915
     18        7           0.018806624   -0.013277370   -0.000873535
 -------------------------------------------------------------------
 Cartesian Forces:  Max     0.128828450 RMS     0.042131625

 GradGradGradGradGradGradGradGradGradGradGradGradGradGradGradGradGradGrad
 Berny optimization.
 Search for a local minimum.
 Step number   1 out of a maximum of    2
 All quantities printed in internal units (Hartrees-Bohrs-Radians)
 Second derivative matrix not updated -- first step.
 ITU=  0
     Eigenvalues ---    0.00244   0.00259   0.00262   0.00294   0.00295
     Eigenvalues ---    0.01047   0.01519   0.01651   0.01964   0.01970
     Eigenvalues ---    0.04260   0.04694   0.05216   0.05291   0.09978
     Eigenvalues ---    0.18217   0.19456   0.19927   0.23718   0.24154
     Eigenvalues ---    0.24359   0.24403   0.30521   0.30664   0.37216
     Eigenvalues ---    0.43201   0.66506   0.67344   0.71301   0.75745
     Eigenvalues ---    0.78482   0.99548   0.99757   1.06469   1.63031
     Eigenvalues ---    1.65735   1.93052   2.69259   2.90470   2.91130
     Eigenvalues ---    2.99737   3.04777   3.05537   3.48965   5.82741
     Eigenvalues ---    9.35158  18.93434  24.58835
 Quadratic step=3.451D-01 exceeds max=3.000D-01 adjusted using Lamda=-1.450D-02.
 Angle between NR and scaled steps=  11.36 degrees.
 Angle between quadratic step and forces=  56.00 degrees.
 Linear search not attempted -- first point.
 B after Tr=    -0.000032    0.000279    0.000074
         Rot=    1.000000    0.000004    0.000003   -0.000007 Ang=   0.00 deg.
 Variable       Old X    -DE/DX   Delta X   Delta X   Delta X     New X
                                 (Linear)    (Quad)   (Total)
    X1      -16.88745  -0.00282   0.00000  -0.00733  -0.00735 -16.89479
    Y1       -1.61235  -0.12883   0.00000  -0.09351  -0.09346  -1.70581
    Z1        2.10246  -0.01258   0.00000  -0.00852  -0.00853   2.09393
    X2      -16.89482  -0.00505   0.00000  -0.00658  -0.00664 -16.90146
    Y2        0.90140   0.06030   0.00000  -0.02926  -0.02920   0.87220
    Z2        2.35692   0.00619   0.00000  -0.00048  -0.00051   2.35641
    X3      -15.48370  -0.11744   0.00000  -0.07857  -0.07855 -15.56225
    Y3       -4.04250   0.06398   0.00000   0.04029   0.04036  -4.00214
    Z3        1.85890   0.00715   0.00000   0.00296   0.00297   1.86187
    X4      -13.31415   0.06427   0.00000  -0.01055  -0.01051 -13.32466
    Y4       -5.30385  -0.03210   0.00000   0.00743   0.00753  -5.29632
    Z4        1.70173  -0.00433   0.00000  -0.00182  -0.00179   1.69994
    X5      -18.31656   0.12168   0.00000   0.08252   0.08253 -18.23402
    Y5       -4.06175   0.07277   0.00000   0.04997   0.05001  -4.01174
    Z5        1.87656   0.00618   0.00000   0.00425   0.00425   1.88081
    X6      -20.49908  -0.05985   0.00000   0.01666   0.01669 -20.48239
    Y6       -5.29702  -0.04353   0.00000   0.00728   0.00728  -5.28974
    Z6        1.77522  -0.00346   0.00000   0.00130   0.00129   1.77652
    X7      -19.29995   0.06641   0.00000   0.06941   0.06933 -19.23062
    Y7        2.28334  -0.03492   0.00000  -0.04849  -0.04846   2.23487
    Z7        2.52749  -0.00417   0.00000  -0.00443  -0.00448   2.52302
    X8      -21.17158  -0.04047   0.00000   0.04274   0.04264 -21.12894
    Y8        3.34181   0.02209   0.00000  -0.02776  -0.02776   3.31405
    Z8        2.67605   0.00279   0.00000  -0.00667  -0.00674   2.66931
    X9      -14.51637  -0.05296   0.00000  -0.06235  -0.06243 -14.57879
    Y9        2.30292  -0.03057   0.00000  -0.05720  -0.05711   2.24581
    Z9        2.49745  -0.00290   0.00000  -0.00506  -0.00509   2.49236
   X10      -12.58628   0.03172   0.00000  -0.05245  -0.05254 -12.63882
   Y10        3.27227   0.01775   0.00000  -0.01711  -0.01699   3.25527
   Z10        2.60798   0.00176   0.00000  -0.00493  -0.00495   2.60303
   X11      -10.88338  -0.06559   0.00000  -0.07782  -0.07781 -10.96119
   Y11       -3.94874  -0.03781   0.00000  -0.03459  -0.03445  -3.98319
   Z11        1.79801  -0.00252   0.00000  -0.00199  -0.00195   1.79607
   X12       -9.03807   0.03946   0.00000  -0.04368  -0.04368  -9.08175
   Y12       -2.83769   0.02322   0.00000  -0.02757  -0.02740  -2.86509
   Z12        1.87954   0.00163   0.00000   0.00039   0.00043   1.87997
   X13      -13.27031  -0.00114   0.00000  -0.01135  -0.01127 -13.28159
   Y13       -8.05651   0.04482   0.00000   0.07450   0.07460  -7.98191
   Z13        1.40188   0.00445   0.00000   0.00747   0.00752   1.40941
   X14      -13.30429   0.00014   0.00000  -0.00147  -0.00136 -13.30566
   Y14      -10.21659  -0.01844   0.00000   0.05941   0.05951 -10.15708
   Z14        1.14604  -0.00182   0.00000   0.01023   0.01030   1.15634
   X15      -20.53905   0.00321   0.00000   0.02321   0.02329 -20.51577
   Y15       -8.07643   0.05081   0.00000   0.08708   0.08708  -7.98936
   Z15        1.55905   0.00384   0.00000   0.00533   0.00534   1.56439
   X16      -20.39796  -0.00078   0.00000  -0.00999  -0.00988 -20.40784
   Y16      -10.23973  -0.02059   0.00000   0.06921   0.06921 -10.17052
   Z16        1.40338  -0.00163   0.00000  -0.00039  -0.00036   1.40302
   X17      -22.90251   0.00041   0.00000   0.06199   0.06201 -22.84050
   Y17       -3.96016   0.00432   0.00000  -0.01633  -0.01636  -3.97653
   Z17        1.88102   0.00029   0.00000   0.00081   0.00078   1.88180
   X18      -24.77012   0.01881   0.00000   0.06555   0.06554 -24.70458
   Y18       -2.78459  -0.01328   0.00000  -0.04431  -0.04436  -2.82896
   Z18        1.96469  -0.00087   0.00000   0.00155   0.00150   1.96619
         Item               Value     Threshold  Converged?
 Maximum Force            0.128828     0.000450     NO 
 RMS     Force            0.042132     0.000300     NO 
 Maximum Displacement     0.093461     0.001800     NO 
 RMS     Displacement     0.040869     0.001200     NO 
 Predicted change in Energy=-2.665085D-02
 GradGradGradGradGradGradGradGradGradGradGradGradGradGradGradGradGradGrad

 Unable to Open any file for archive entry.
 1\1\GINC-X10P1N4\Force\UwB97XD\def2SVP\C12N6(1-,2)\MAYUMIAO\11-Oct-202
 4\0\\# wb97xd def2svp scrf=(smd,solvent=acetonitrile) g09default scf=(
 xqc,maxcycle=64) force guess=read nosymm\\Title Card\\-1,2\C,-8.936451
 44,-0.85322102,1.11257266\C,-8.94035458,0.4770012,1.24722758\C,-8.1936
 2229,-2.13919817,0.98368617\C,-7.04554306,-2.80667497,0.90051413\C,-9.
 69270368,-2.14938502,0.9930305\C,-10.84764566,-2.80306236,0.93940763\C
 ,-10.21309508,1.20828989,1.33749146\N,-11.20351936,1.76840786,1.416105
 48\C,-7.68172989,1.21865472,1.32159128\N,-6.66037047,1.73160943,1.3800
 8356\C,-5.75923769,-2.0895843,0.95146808\N,-4.782742,-1.50164132,0.994
 60927\C,-7.02234769,-4.26332246,0.7418439\N,-7.04032738,-5.40638549,0.
 60645804\C,-10.86879947,-4.273864,0.82501169\N,-10.79413562,-5.4186305
 9,0.74263852\C,-12.11948598,-2.09562796,0.99539446\N,-13.10778312,-1.4
 7354322,1.03967052\\Version=ES64L-G16RevC.01\HF=-784.8294413\S2=0.7779
 62\S2-1=0.\S2A=0.75062\RMSD=6.975e-09\RMSF=4.213e-02\Dipole=-0.0114672
 ,0.0141117,-0.0031733\Quadrupole=-202.9969274,72.1817492,130.8151782,-
 54.4824292,33.417683,1.0840861\PG=C01 [X(C12N6)]\\@
 The archive entry for this job was punched.


 AS FAR AS THE LAWS OF MATHEMATICS REFER TO REALITY,
 THEY ARE NOT CERTAIN; AND AS FAR AS THEY ARE CERTAIN,
 THEY DO NOT REFER TO REALITY.

                                         -- ALBERT EINSTEIN
 Job cpu time:       0 days  0 hours 13 minutes 13.0 seconds.
 Elapsed time:       0 days  0 hours  0 minutes 29.7 seconds.
 File lengths (MBytes):  RWF=    174 Int=      0 D2E=      0 Chk=      9 Scr=      1
 Normal termination of Gaussian 16 at Fri Oct 11 15:56:13 2024.
