 Entering Gaussian System, Link 0=g16
 Input=JOBS/32_B.gjf
 Output=JOBS/32_B.log
 Initial command:
 /data/app/gaussian/C01-avx2//g16/l1.exe "/tmp/Gau-2543964.inp" -scrdir="/tmp/"
 Entering Link 1 = /data/app/gaussian/C01-avx2//g16/l1.exe PID=   2543965.
  
 Copyright (c) 1988-2019, Gaussian, Inc.  All Rights Reserved.
  
 This is part of the Gaussian(R) 16 program.  It is based on
 the Gaussian(R) 09 system (copyright 2009, Gaussian, Inc.),
 the Gaussian(R) 03 system (copyright 2003, Gaussian, Inc.),
 the Gaussian(R) 98 system (copyright 1998, Gaussian, Inc.),
 the Gaussian(R) 94 system (copyright 1995, Gaussian, Inc.),
 the Gaussian 92(TM) system (copyright 1992, Gaussian, Inc.),
 the Gaussian 90(TM) system (copyright 1990, Gaussian, Inc.),
 the Gaussian 88(TM) system (copyright 1988, Gaussian, Inc.),
 the Gaussian 86(TM) system (copyright 1986, Carnegie Mellon
 University), and the Gaussian 82(TM) system (copyright 1983,
 Carnegie Mellon University). Gaussian is a federally registered
 trademark of Gaussian, Inc.
  
 This software contains proprietary and confidential information,
 including trade secrets, belonging to Gaussian, Inc.
  
 This software is provided under written license and may be
 used, copied, transmitted, or stored only in accord with that
 written license.
  
 The following legend is applicable only to US Government
 contracts under FAR:
  
                    RESTRICTED RIGHTS LEGEND
  
 Use, reproduction and disclosure by the US Government is
 subject to restrictions as set forth in subparagraphs (a)
 and (c) of the Commercial Computer Software - Restricted
 Rights clause in FAR 52.227-19.
  
 Gaussian, Inc.
 340 Quinnipiac St., Bldg. 40, Wallingford CT 06492
  
  
 ---------------------------------------------------------------
 Warning -- This program may not be used in any manner that
 competes with the business of Gaussian, Inc. or will provide
 assistance to any competitor of Gaussian, Inc.  The licensee
 of this program is prohibited from giving any competitor of
 Gaussian, Inc. access to this program.  By using this program,
 the user acknowledges that Gaussian, Inc. is engaged in the
 business of creating and licensing software in the field of
 computational chemistry and represents and warrants to the
 licensee that it is not a competitor of Gaussian, Inc. and that
 it will not use this program in any manner prohibited above.
 ---------------------------------------------------------------
  

 Cite this work as:
 Gaussian 16, Revision C.01,
 M. J. Frisch, G. W. Trucks, H. B. Schlegel, G. E. Scuseria, 
 M. A. Robb, J. R. Cheeseman, G. Scalmani, V. Barone, 
 G. A. Petersson, H. Nakatsuji, X. Li, M. Caricato, A. V. Marenich, 
 J. Bloino, B. G. Janesko, R. Gomperts, B. Mennucci, H. P. Hratchian, 
 J. V. Ortiz, A. F. Izmaylov, J. L. Sonnenberg, D. Williams-Young, 
 F. Ding, F. Lipparini, F. Egidi, J. Goings, B. Peng, A. Petrone, 
 T. Henderson, D. Ranasinghe, V. G. Zakrzewski, J. Gao, N. Rega, 
 G. Zheng, W. Liang, M. Hada, M. Ehara, K. Toyota, R. Fukuda, 
 J. Hasegawa, M. Ishida, T. Nakajima, Y. Honda, O. Kitao, H. Nakai, 
 T. Vreven, K. Throssell, J. A. Montgomery, Jr., J. E. Peralta, 
 F. Ogliaro, M. J. Bearpark, J. J. Heyd, E. N. Brothers, K. N. Kudin, 
 V. N. Staroverov, T. A. Keith, R. Kobayashi, J. Normand, 
 K. Raghavachari, A. P. Rendell, J. C. Burant, S. S. Iyengar, 
 J. Tomasi, M. Cossi, J. M. Millam, M. Klene, C. Adamo, R. Cammi, 
 J. W. Ochterski, R. L. Martin, K. Morokuma, O. Farkas, 
 J. B. Foresman, and D. J. Fox, Gaussian, Inc., Wallingford CT, 2019.
 
 ******************************************
 Gaussian 16:  ES64L-G16RevC.01  3-Jul-2019
                11-Oct-2024 
 ******************************************
 %chk=b.chk
 %nprocshared=28
 Will use up to   28 processors via shared memory.
 %mem=48gb
 ----------------------------------------------------------------------
 # wb97xd def2svp scrf=(smd,solvent=acetonitrile) g09default scf=(xqc,m
 axcycle=64) force guess=read nosymm
 ----------------------------------------------------------------------
 1/10=7,30=1,38=1,158=3,167=1/1,3;
 2/12=2,15=1,17=6,18=5,40=1/2;
 3/5=43,7=101,11=2,25=1,27=10,30=1,70=32201,71=1,72=2,74=-58,75=-4,116=-2,158=3/1,2,3;
 4/5=1,60=-1/1;
 5/5=2,7=64,8=3,13=1,38=6,53=2,87=10/2,8;
 6/7=2,8=2,9=2,10=2,28=1,87=10/1;
 7/29=1,30=1,87=10/1,2,3,16;
 1/10=7,30=1,158=3,167=1/3;
 99//99;
 Using 2006 physical constants.
 ----------
 Title Card
 ----------
 Symbolic Z-matrix:
 Charge = -1 Multiplicity = 2
 6                    -8.93727  -0.84766   1.11135 
 6                    -8.94364   0.4492    1.24406 
 6                    -8.19166  -2.14059   0.98405 
 6                    -7.06818  -2.79241   0.90115 
 6                    -9.69479  -2.1491    0.99308 
 6                    -10.82623  -2.79127   0.94056 
 6                    -10.21253   1.18245   1.33448 
 7                    -11.18667   1.76984   1.41612 
 6                    -7.68471   1.19273   1.31885 
 7                    -6.67319   1.72853   1.37995 
 6                    -5.78582  -2.08189   0.95193 
 7                    -4.78762  -1.51285   0.99473 
 6                    -7.04187  -4.25638   0.74413 
 7                    -7.03544  -5.38767   0.60957 
 6                    -10.84692  -4.26425   0.82573 
 7                    -10.79443  -5.40192   0.74361 
 6                    -12.10433  -2.08444   0.9964 
 7                    -13.09461  -1.48249   1.03906 
 

 GradGradGradGradGradGradGradGradGradGradGradGradGradGradGradGradGradGrad
 Berny optimization.
 Initialization pass.
 Trust Radius=3.00D-01 FncErr=1.00D-07 GrdErr=1.00D-07 EigMax=2.50D+02 EigMin=1.00D-04
 Number of steps in this run=      2 maximum allowed number of steps=      2.
 GradGradGradGradGradGradGradGradGradGradGradGradGradGradGradGradGradGrad

                          Input orientation:                          
 ---------------------------------------------------------------------
 Center     Atomic      Atomic             Coordinates (Angstroms)
 Number     Number       Type             X           Y           Z
 ---------------------------------------------------------------------
      1          6           0       -8.937267   -0.847664    1.111346
      2          6           0       -8.943642    0.449199    1.244060
      3          6           0       -8.191661   -2.140591    0.984051
      4          6           0       -7.068184   -2.792413    0.901155
      5          6           0       -9.694786   -2.149100    0.993081
      6          6           0      -10.826230   -2.791265    0.940559
      7          6           0      -10.212531    1.182451    1.334477
      8          7           0      -11.186665    1.769838    1.416122
      9          6           0       -7.684713    1.192726    1.318853
     10          7           0       -6.673188    1.728530    1.379954
     11          6           0       -5.785816   -2.081887    0.951928
     12          7           0       -4.787621   -1.512855    0.994728
     13          6           0       -7.041867   -4.256380    0.744127
     14          7           0       -7.035436   -5.387670    0.609570
     15          6           0      -10.846920   -4.264245    0.825728
     16          7           0      -10.794431   -5.401921    0.743609
     17          6           0      -12.104331   -2.084437    0.996401
     18          7           0      -13.094607   -1.482493    1.039056
 ---------------------------------------------------------------------
                    Distance matrix (angstroms):
                    1          2          3          4          5
     1  C    0.000000
     2  C    1.303651   0.000000
     3  C    1.497929   2.709260   0.000000
     4  C    2.705494   3.760714   1.301516   0.000000
     5  C    1.510482   2.716314   1.503176   2.705797   0.000000
     6  C    2.715683   3.759901   2.714078   3.758252   1.302037
     7  C    2.407790   1.468303   3.905038   5.086672   3.388782
     8  N    3.464679   2.608610   4.944511   6.167756   4.214587
     9  C    2.403152   1.464011   3.388229   4.054123   3.913351
    10  N    3.440201   2.609620   4.175237   4.563354   4.931099
    11  C    3.388268   4.057536   2.406776   1.466933   3.909764
    12  N    4.204241   4.602644   3.461454   2.616676   4.948240
    13  C    3.917490   5.099916   2.419948   1.472599   3.397143
    14  N    4.947766   6.173562   3.467076   2.611791   4.208035
    15  C    3.924459   5.100395   3.403729   4.055962   2.414386
    16  N    4.932094   6.157230   4.179533   4.551842   3.442717
    17  C    3.401928   4.058399   3.913092   5.086558   2.410415
    18  N    4.206151   4.583009   4.947221   6.168685   3.464861
                    6          7          8          9         10
     6  C    0.000000
     7  C    4.040077   0.000000
     8  N    4.599971   1.140450   0.000000
     9  C    5.087673   2.527887   3.550519   0.000000
    10  N    6.153810   3.581510   4.513811   1.146299   0.000000
    11  C    5.090099   5.513442   6.649844   3.803095   3.935722
    12  N    6.172687   6.067104   7.204264   3.977231   3.769660
    13  C    4.062825   6.323172   7.344809   5.516911   6.029871
    14  N    4.606624   7.333888   8.313432   6.650282   7.166939
    15  C    1.477594   5.507067   6.072409   6.326236   7.323972
    16  N    2.618268   6.636392   7.213893   7.313728   8.260322
    17  C    1.461597   3.790220   3.984183   5.511515   6.647041
    18  N    2.620710   3.936441   3.789469   6.041691   7.187594
                   11         12         13         14         15
    11  C    0.000000
    12  N    1.149793   0.000000
    13  C    2.519775   3.559685   0.000000
    14  N    3.550628   4.496133   1.139283   0.000000
    15  C    5.513020   6.656863   3.805936   3.979474   0.000000
    16  N    6.012674   7.160284   3.923519   3.761411   1.141843
    17  C    6.318672   7.339003   5.514482   6.062563   2.522256
    18  N    7.333845   8.307160   6.664615   7.221386   3.582702
                   16         17         18
    16  N    0.000000
    17  C    3.575673   0.000000
    18  N    4.554121   1.159656   0.000000
 Symmetry turned off by external request.
 Stoichiometry    C12N6(1-,2)
 Framework group  C1[X(C12N6)]
 Deg. of freedom    48
 Full point group                 C1      NOp   1
 Rotational constants (GHZ):           0.4274218           0.4237115           0.2128077
 Standard basis: def2SVP (5D, 7F)
   252 basis functions,   450 primitive gaussians,   270 cartesian basis functions
    58 alpha electrons       57 beta electrons
       nuclear repulsion energy       961.0974927054 Hartrees.
 NAtoms=   18 NActive=   18 NUniq=   18 SFac= 1.00D+00 NAtFMM=   60 NAOKFM=F Big=F
 Integral buffers will be    131072 words long.
 Raffenetti 2 integral format.
 Two-electron integral symmetry is turned off.
 Nuclear repulsion after empirical dispersion term =      961.0858360892 Hartrees.
 Force PCM accuracy= 1.00D-10.
 ------------------------------------------------------------------------------
 Polarizable Continuum Model (PCM)
 =================================
 Model                : PCM (using non-symmetric T matrix).
 Atomic radii         : SMD-Coulomb.
 Polarization charges : Total charges.
 Charge compensation  : None.
 Solution method      : On-the-fly selection.
 Cavity type          : VdW (van der Waals Surface) (Alpha=1.000).
 Cavity algorithm     : GePol (No added spheres)
                        Default sphere list used, NSphG=   18.
                        Lebedev-Laikov grids with approx.  5.0 points / Ang**2.
                        Smoothing algorithm: York/Karplus (Gamma=1.0000).
                        Polarization charges: spherical gaussians, with
                                              point-specific exponents (IZeta= 3).
                        Self-potential: point-specific (ISelfS= 7).
                        Self-field    : sphere-specific E.n sum rule (ISelfD= 2).
 1st derivatives      : Analytical E(r).r(x)/FMM algorithm (CHGder, D1EAlg=3).
                        Cavity 1st derivative terms included.
 Solvent              : Acetonitrile, Eps=  35.688000 Eps(inf)=   1.806874
 ------------------------------------------------------------------------------
 Spheres list:
 ISph  on   Nord     Re0    Alpha      Xe            Ye            Ze
    1   C      1    1.8500  1.000     -8.937267     -0.847664      1.111346
    2   C      2    1.8500  1.000     -8.943642      0.449199      1.244060
    3   C      3    1.8500  1.000     -8.191661     -2.140591      0.984051
    4   C      4    1.8500  1.000     -7.068184     -2.792413      0.901155
    5   C      5    1.8500  1.000     -9.694786     -2.149100      0.993081
    6   C      6    1.8500  1.000    -10.826230     -2.791265      0.940559
    7   C      7    1.8500  1.000    -10.212531      1.182451      1.334477
    8   N      8    1.8900  1.000    -11.186665      1.769838      1.416122
    9   C      9    1.8500  1.000     -7.684713      1.192726      1.318853
   10   N     10    1.8900  1.000     -6.673188      1.728530      1.379954
   11   C     11    1.8500  1.000     -5.785816     -2.081887      0.951928
   12   N     12    1.8900  1.000     -4.787621     -1.512855      0.994728
   13   C     13    1.8500  1.000     -7.041867     -4.256380      0.744127
   14   N     14    1.8900  1.000     -7.035436     -5.387670      0.609570
   15   C     15    1.8500  1.000    -10.846920     -4.264245      0.825728
   16   N     16    1.8900  1.000    -10.794431     -5.401921      0.743609
   17   C     17    1.8500  1.000    -12.104331     -2.084437      0.996401
   18   N     18    1.8900  1.000    -13.094607     -1.482493      1.039056
 ------------------------------------------------------------------------------
 ------------------------------------------------------------------------------
 Atomic radii for non-electrostatic terms: SMD-CDS.
 ------------------------------------------------------------------------------
 Nuclear repulsion after PCM non-electrostatic terms =      961.0947283493 Hartrees.
 One-electron integrals computed using PRISM.
   1 Symmetry operations used in ECPInt.
 ECPInt:  NShTT=    5886 NPrTT=   23670 LenC2=    5395 LenP2D=   14926.
 LDataN:  DoStor=T MaxTD1= 4 Len=   56
 NBasis=   252 RedAO= T EigKep=  2.43D-04  NBF=   252
 NBsUse=   252 1.00D-06 EigRej= -1.00D+00 NBFU=   252
 Initial guess from the checkpoint file:  "b.chk"
 B after Tr=     0.000661   -0.001233    0.000933
         Rot=    1.000000    0.000047    0.000035    0.000038 Ang=   0.01 deg.
 Initial guess <Sx>= 0.0000 <Sy>= 0.0000 <Sz>= 0.5000 <S**2>= 0.7774 S= 0.5136
 Requested convergence on RMS density matrix=1.00D-08 within  64 cycles.
 Requested convergence on MAX density matrix=1.00D-06.
 Requested convergence on             energy=1.00D-06.
 No special actions if energy rises.
 Inv3:  Mode=1 IEnd=    19324332.
 Iteration    1 A*A^-1 deviation from unit magnitude is 3.00D-15 for     24.
 Iteration    1 A*A^-1 deviation from orthogonality  is 2.58D-15 for   1866    310.
 Iteration    1 A^-1*A deviation from unit magnitude is 3.33D-15 for   2201.
 Iteration    1 A^-1*A deviation from orthogonality  is 1.74D-10 for   2060   2014.
 Iteration    2 A*A^-1 deviation from unit magnitude is 4.66D-15 for   1291.
 Iteration    2 A*A^-1 deviation from orthogonality  is 5.35D-15 for   1928    413.
 Iteration    2 A^-1*A deviation from unit magnitude is 1.44D-15 for   1293.
 Iteration    2 A^-1*A deviation from orthogonality  is 8.43D-16 for    214     96.
 Error on total polarization charges =  0.01952
 SCF Done:  E(UwB97XD) =  -784.817295649     A.U. after   15 cycles
            NFock= 15  Conv=0.99D-08     -V/T= 2.0095
 <Sx>= 0.0000 <Sy>= 0.0000 <Sz>= 0.5000 <S**2>= 0.7743 S= 0.5121
 <L.S>=  0.00000000000    
 SMD-CDS (non-electrostatic) energy       (kcal/mol) =       5.58
 (included in total energy above)
 Annihilation of the first spin contaminant:
 S**2 before annihilation     0.7743,   after     0.7505
 QCSCF skips out because SCF is already converged.

 **********************************************************************

            Population analysis using the SCF Density.

 **********************************************************************

 Alpha  occ. eigenvalues --  -14.46032 -14.45792 -14.45727 -14.45649 -14.45594
 Alpha  occ. eigenvalues --  -14.45588 -10.38151 -10.38090 -10.38052 -10.37854
 Alpha  occ. eigenvalues --  -10.37841 -10.37815 -10.36338 -10.36118 -10.36052
 Alpha  occ. eigenvalues --  -10.35999 -10.35941 -10.35928  -1.03264  -1.02423
 Alpha  occ. eigenvalues --   -1.02290  -1.01474  -1.01375  -1.01145  -1.00158
 Alpha  occ. eigenvalues --   -0.92718  -0.92678  -0.87828  -0.72004  -0.71920
 Alpha  occ. eigenvalues --   -0.68238  -0.68010  -0.67654  -0.67211  -0.54626
 Alpha  occ. eigenvalues --   -0.50787  -0.50709  -0.48581  -0.48431  -0.47619
 Alpha  occ. eigenvalues --   -0.47520  -0.47495  -0.47018  -0.46048  -0.45945
 Alpha  occ. eigenvalues --   -0.45713  -0.45441  -0.45281  -0.45178  -0.45011
 Alpha  occ. eigenvalues --   -0.44762  -0.44672  -0.43468  -0.43047  -0.42815
 Alpha  occ. eigenvalues --   -0.36808  -0.36795  -0.25456
 Alpha virt. eigenvalues --    0.04647   0.04909   0.06977   0.07490   0.07652
 Alpha virt. eigenvalues --    0.08639   0.10761   0.10912   0.11343   0.12389
 Alpha virt. eigenvalues --    0.12729   0.14879   0.18414   0.18436   0.20370
 Alpha virt. eigenvalues --    0.21543   0.24743   0.24995   0.25149   0.25293
 Alpha virt. eigenvalues --    0.27831   0.29527   0.29829   0.31123   0.31213
 Alpha virt. eigenvalues --    0.33466   0.34859   0.47184   0.47469   0.49464
 Alpha virt. eigenvalues --    0.49896   0.51265   0.51460   0.53092   0.53111
 Alpha virt. eigenvalues --    0.53848   0.53932   0.54520   0.56840   0.59912
 Alpha virt. eigenvalues --    0.60020   0.60455   0.61823   0.62224   0.63624
 Alpha virt. eigenvalues --    0.64243   0.69224   0.69241   0.71924   0.72121
 Alpha virt. eigenvalues --    0.72411   0.72669   0.72886   0.73478   0.73587
 Alpha virt. eigenvalues --    0.74015   0.74147   0.74839   0.75127   0.75404
 Alpha virt. eigenvalues --    0.79546   0.79702   0.79924   0.80908   0.81086
 Alpha virt. eigenvalues --    0.83865   0.84245   0.86961   0.87360   0.93067
 Alpha virt. eigenvalues --    0.93124   0.93232   0.93361   0.93432   0.94108
 Alpha virt. eigenvalues --    0.96086   0.98565   0.98611   0.99601   0.99812
 Alpha virt. eigenvalues --    1.01382   1.01489   1.03091   1.03278   1.03661
 Alpha virt. eigenvalues --    1.05924   1.07243   1.07672   1.08755   1.11737
 Alpha virt. eigenvalues --    1.12128   1.15012   1.16365   1.17490   1.17996
 Alpha virt. eigenvalues --    1.21728   1.23183   1.23481   1.24586   1.32908
 Alpha virt. eigenvalues --    1.33985   1.34489   1.38640   1.38777   1.41870
 Alpha virt. eigenvalues --    1.43396   1.44064   1.45572   1.45840   1.55799
 Alpha virt. eigenvalues --    1.62324   1.66768   1.68073   1.68102   1.68243
 Alpha virt. eigenvalues --    1.68737   1.68859   1.74694   1.74887   1.77303
 Alpha virt. eigenvalues --    1.77472   1.78058   1.78238   1.78911   1.79954
 Alpha virt. eigenvalues --    1.80026   1.81524   1.84969   1.93126   1.94266
 Alpha virt. eigenvalues --    1.94757   1.96703   1.96998   1.97344   1.98922
 Alpha virt. eigenvalues --    2.00947   2.01309   2.02830   2.06123   2.06649
 Alpha virt. eigenvalues --    2.12684   2.18292   2.18707   2.23101   2.23422
 Alpha virt. eigenvalues --    2.26613   2.30388   2.30508   2.32598   2.33370
 Alpha virt. eigenvalues --    2.33405   2.33803   2.34396   2.34522   2.34634
 Alpha virt. eigenvalues --    2.34783   2.35068   2.36116   2.36285   2.36557
 Alpha virt. eigenvalues --    2.38337   2.39123   2.57323   2.58167   2.60091
 Alpha virt. eigenvalues --    2.70186   2.71298   2.91379   2.93564   2.95680
 Alpha virt. eigenvalues --    2.96124   2.98618   2.99297   2.99609   3.02832
 Alpha virt. eigenvalues --    3.05137   3.05655   3.09450   3.09981   3.10153
 Alpha virt. eigenvalues --    3.10623   3.11158   3.21916   3.23104   3.27025
 Alpha virt. eigenvalues --    3.40575   3.40648   3.41516   3.51673   3.54588
 Alpha virt. eigenvalues --    3.56070   3.63459   3.64166   3.78729
  Beta  occ. eigenvalues --  -14.45875 -14.45642 -14.45580 -14.45514 -14.45453
  Beta  occ. eigenvalues --  -14.45447 -10.37900 -10.37880 -10.37858 -10.37784
  Beta  occ. eigenvalues --  -10.37722 -10.37696 -10.36414 -10.36192 -10.36125
  Beta  occ. eigenvalues --  -10.36068 -10.36012 -10.35998  -1.02909  -1.02155
  Beta  occ. eigenvalues --   -1.02025  -1.01232  -1.01128  -1.00891  -0.99726
  Beta  occ. eigenvalues --   -0.92066  -0.92031  -0.86830  -0.71760  -0.71671
  Beta  occ. eigenvalues --   -0.68001  -0.67773  -0.67417  -0.66959  -0.53483
  Beta  occ. eigenvalues --   -0.49588  -0.49513  -0.48364  -0.48214  -0.47343
  Beta  occ. eigenvalues --   -0.47238  -0.47222  -0.46743  -0.45900  -0.45802
  Beta  occ. eigenvalues --   -0.45624  -0.44631  -0.44623  -0.44568  -0.44531
  Beta  occ. eigenvalues --   -0.44442  -0.44132  -0.43362  -0.42909  -0.42669
  Beta  occ. eigenvalues --   -0.34628  -0.34581
  Beta virt. eigenvalues --   -0.07810   0.05999   0.06250   0.07082   0.07582
  Beta virt. eigenvalues --    0.07739   0.08634   0.11638   0.11805   0.12021
  Beta virt. eigenvalues --    0.12453   0.12795   0.15107   0.18669   0.18683
  Beta virt. eigenvalues --    0.21498   0.21910   0.24962   0.25268   0.26704
  Beta virt. eigenvalues --    0.26921   0.28084   0.29654   0.29963   0.31626
  Beta virt. eigenvalues --    0.31705   0.33997   0.34963   0.47344   0.47624
  Beta virt. eigenvalues --    0.49531   0.49997   0.51346   0.51545   0.53057
  Beta virt. eigenvalues --    0.53069   0.54025   0.54093   0.54699   0.57001
  Beta virt. eigenvalues --    0.59848   0.59954   0.60431   0.61847   0.62254
  Beta virt. eigenvalues --    0.63516   0.64592   0.69380   0.69404   0.72139
  Beta virt. eigenvalues --    0.72275   0.72551   0.72777   0.73010   0.73655
  Beta virt. eigenvalues --    0.73679   0.74141   0.74290   0.74890   0.75294
  Beta virt. eigenvalues --    0.75544   0.79740   0.79966   0.80453   0.81581
  Beta virt. eigenvalues --    0.81759   0.83988   0.84362   0.87191   0.87459
  Beta virt. eigenvalues --    0.93220   0.93467   0.93552   0.93607   0.93718
  Beta virt. eigenvalues --    0.94577   0.96674   0.99058   0.99118   0.99735
  Beta virt. eigenvalues --    0.99924   1.01499   1.01604   1.03398   1.03528
  Beta virt. eigenvalues --    1.03790   1.06242   1.07531   1.07890   1.08902
  Beta virt. eigenvalues --    1.11837   1.12231   1.15177   1.16649   1.17707
  Beta virt. eigenvalues --    1.18213   1.22228   1.23384   1.23693   1.25320
  Beta virt. eigenvalues --    1.33030   1.34175   1.34682   1.39276   1.39416
  Beta virt. eigenvalues --    1.42568   1.43544   1.44193   1.46293   1.46561
  Beta virt. eigenvalues --    1.55856   1.62288   1.66639   1.67923   1.67954
  Beta virt. eigenvalues --    1.68088   1.68599   1.68708   1.74637   1.74826
  Beta virt. eigenvalues --    1.77516   1.77689   1.78036   1.78206   1.78867
  Beta virt. eigenvalues --    1.79933   1.79990   1.81764   1.84911   1.93302
  Beta virt. eigenvalues --    1.94467   1.94881   1.97210   1.97533   1.97565
  Beta virt. eigenvalues --    1.99080   2.01331   2.01693   2.03538   2.06454
  Beta virt. eigenvalues --    2.06948   2.12910   2.19171   2.19588   2.23728
  Beta virt. eigenvalues --    2.24458   2.27243   2.31002   2.31111   2.33142
  Beta virt. eigenvalues --    2.33844   2.33941   2.34323   2.34921   2.35034
  Beta virt. eigenvalues --    2.35112   2.35298   2.35523   2.36611   2.36869
  Beta virt. eigenvalues --    2.37008   2.38935   2.39698   2.57447   2.58297
  Beta virt. eigenvalues --    2.60552   2.70821   2.71938   2.91476   2.93747
  Beta virt. eigenvalues --    2.95803   2.96249   2.98740   2.99412   2.99733
  Beta virt. eigenvalues --    3.03252   3.05608   3.06123   3.09863   3.10184
  Beta virt. eigenvalues --    3.10368   3.11028   3.11573   3.22127   3.23310
  Beta virt. eigenvalues --    3.27192   3.40787   3.40877   3.41721   3.51829
  Beta virt. eigenvalues --    3.54750   3.56230   3.63636   3.64345   3.78909
          Condensed to atoms (all electrons):
               1          2          3          4          5          6
     1  C    4.904425   0.568428   0.266029  -0.119633   0.279969  -0.111379
     2  C    0.568428   5.370775  -0.116812  -0.012718  -0.110691  -0.011850
     3  C    0.266029  -0.116812   4.911885   0.562531   0.274801  -0.117142
     4  C   -0.119633  -0.012718   0.562531   5.392114  -0.117402  -0.012926
     5  C    0.279969  -0.110691   0.274801  -0.117402   4.892062   0.561020
     6  C   -0.111379  -0.011850  -0.117142  -0.012926   0.561020   5.388016
     7  C    0.009376   0.388046   0.004199  -0.000427  -0.016578   0.001564
     8  N   -0.002553  -0.022471  -0.000081  -0.000002  -0.000357   0.000043
     9  C    0.008070   0.382517  -0.017370   0.001563   0.005554  -0.000406
    10  N   -0.002240  -0.022041  -0.000407   0.000057  -0.000037  -0.000001
    11  C   -0.016677   0.001443   0.010451   0.387407   0.004550  -0.000378
    12  N   -0.000378   0.000041  -0.002324  -0.022642  -0.000064  -0.000001
    13  C    0.004553  -0.000397   0.008015   0.383467  -0.015952   0.001277
    14  N   -0.000066  -0.000001  -0.002355  -0.022080  -0.000371   0.000036
    15  C    0.005416  -0.000337  -0.016577   0.001462   0.006713   0.377383
    16  N   -0.000022  -0.000001  -0.000431   0.000062  -0.001936  -0.022324
    17  C   -0.017235   0.001400   0.004860  -0.000406   0.008233   0.384911
    18  N   -0.000392   0.000065  -0.000041  -0.000001  -0.001827  -0.023425
               7          8          9         10         11         12
     1  C    0.009376  -0.002553   0.008070  -0.002240  -0.016677  -0.000378
     2  C    0.388046  -0.022471   0.382517  -0.022041   0.001443   0.000041
     3  C    0.004199  -0.000081  -0.017370  -0.000407   0.010451  -0.002324
     4  C   -0.000427  -0.000002   0.001563   0.000057   0.387407  -0.022642
     5  C   -0.016578  -0.000357   0.005554  -0.000037   0.004550  -0.000064
     6  C    0.001564   0.000043  -0.000406  -0.000001  -0.000378  -0.000001
     7  C    4.823450   0.933483  -0.040890   0.001476   0.000060   0.000001
     8  N    0.933483   6.058723   0.001217   0.000046   0.000000   0.000000
     9  C   -0.040890   0.001217   4.831011   0.928310   0.000109   0.000133
    10  N    0.001476   0.000046   0.928310   6.065027   0.000372  -0.000785
    11  C    0.000060   0.000000   0.000109   0.000372   4.828601   0.924845
    12  N    0.000001   0.000000   0.000133  -0.000785   0.924845   6.075191
    13  C   -0.000007  -0.000000   0.000065   0.000001  -0.038772   0.001324
    14  N   -0.000000  -0.000000   0.000000   0.000000   0.001309   0.000046
    15  C    0.000055   0.000001  -0.000005  -0.000000   0.000058   0.000000
    16  N    0.000000   0.000000  -0.000000  -0.000000   0.000001   0.000000
    17  C    0.000197  -0.000017   0.000067   0.000000  -0.000006  -0.000000
    18  N    0.000488  -0.000777   0.000001   0.000000  -0.000000  -0.000000
              13         14         15         16         17         18
     1  C    0.004553  -0.000066   0.005416  -0.000022  -0.017235  -0.000392
     2  C   -0.000397  -0.000001  -0.000337  -0.000001   0.001400   0.000065
     3  C    0.008015  -0.002355  -0.016577  -0.000431   0.004860  -0.000041
     4  C    0.383467  -0.022080   0.001462   0.000062  -0.000406  -0.000001
     5  C   -0.015952  -0.000371   0.006713  -0.001936   0.008233  -0.001827
     6  C    0.001277   0.000036   0.377383  -0.022324   0.384911  -0.023425
     7  C   -0.000007  -0.000000   0.000055   0.000000   0.000197   0.000488
     8  N   -0.000000  -0.000000   0.000001   0.000000  -0.000017  -0.000777
     9  C    0.000065   0.000000  -0.000005  -0.000000   0.000067   0.000001
    10  N    0.000001   0.000000  -0.000000  -0.000000   0.000000   0.000000
    11  C   -0.038772   0.001309   0.000058   0.000001  -0.000006  -0.000000
    12  N    0.001324   0.000046   0.000000   0.000000  -0.000000  -0.000000
    13  C    4.822089   0.936576   0.000197   0.000478   0.000060   0.000000
    14  N    0.936576   6.050611   0.000082  -0.000797   0.000001   0.000000
    15  C    0.000197   0.000082   4.821494   0.934793  -0.034161   0.001447
    16  N    0.000478  -0.000797   0.934793   6.061823   0.001526   0.000041
    17  C    0.000060   0.000001  -0.034161   0.001526   4.828632   0.912189
    18  N    0.000000   0.000000   0.001447   0.000041   0.912189   6.101701
          Atomic-Atomic Spin Densities.
               1          2          3          4          5          6
     1  C    0.010565  -0.080475   0.037556  -0.008426   0.036501  -0.008054
     2  C   -0.080475   0.375567  -0.008351   0.001322  -0.008134   0.001326
     3  C    0.037556  -0.008351   0.011419  -0.081699   0.037259  -0.008129
     4  C   -0.008426   0.001322  -0.081699   0.380861  -0.008412   0.001301
     5  C    0.036501  -0.008134   0.037259  -0.008412   0.010805  -0.079884
     6  C   -0.008054   0.001326  -0.008129   0.001301  -0.079884   0.369680
     7  C   -0.001441   0.008799  -0.000122  -0.000009   0.000261  -0.000057
     8  N    0.000489  -0.004697   0.000007  -0.000000   0.000059  -0.000030
     9  C   -0.001507   0.009079   0.000221  -0.000061  -0.000109  -0.000008
    10  N    0.000565  -0.004765   0.000063  -0.000034   0.000009  -0.000000
    11  C    0.000237  -0.000060  -0.001529   0.009520  -0.000120  -0.000008
    12  N    0.000060  -0.000031   0.000522  -0.004758   0.000008  -0.000000
    13  C   -0.000121  -0.000008  -0.001518   0.008674   0.000261  -0.000061
    14  N    0.000007  -0.000000   0.000497  -0.004688   0.000059  -0.000030
    15  C   -0.000078  -0.000007   0.000182  -0.000051  -0.001317   0.008426
    16  N    0.000008  -0.000000   0.000060  -0.000035   0.000524  -0.004491
    17  C    0.000247  -0.000056  -0.000100  -0.000009  -0.001350   0.009870
    18  N    0.000061  -0.000033   0.000008  -0.000000   0.000536  -0.004749
               7          8          9         10         11         12
     1  C   -0.001441   0.000489  -0.001507   0.000565   0.000237   0.000060
     2  C    0.008799  -0.004697   0.009079  -0.004765  -0.000060  -0.000031
     3  C   -0.000122   0.000007   0.000221   0.000063  -0.001529   0.000522
     4  C   -0.000009  -0.000000  -0.000061  -0.000034   0.009520  -0.004758
     5  C    0.000261   0.000059  -0.000109   0.000009  -0.000120   0.000008
     6  C   -0.000057  -0.000030  -0.000008  -0.000000  -0.000008  -0.000000
     7  C   -0.057878  -0.002558  -0.000633   0.000045  -0.000002   0.000000
     8  N   -0.002558   0.088209   0.000077   0.000007  -0.000000   0.000000
     9  C   -0.000633   0.000077  -0.060206  -0.002788   0.000015   0.000006
    10  N    0.000045   0.000007  -0.002788   0.091979   0.000004   0.000034
    11  C   -0.000002  -0.000000   0.000015   0.000004  -0.061399  -0.002922
    12  N    0.000000   0.000000   0.000006   0.000034  -0.002922   0.094208
    13  C    0.000000  -0.000000  -0.000002  -0.000000  -0.000741   0.000060
    14  N   -0.000000   0.000000  -0.000000   0.000000   0.000060   0.000007
    15  C   -0.000001   0.000000   0.000000   0.000000  -0.000002  -0.000000
    16  N   -0.000000   0.000000   0.000000   0.000000  -0.000000   0.000000
    17  C    0.000014   0.000007  -0.000002  -0.000000   0.000000   0.000000
    18  N    0.000004   0.000031  -0.000000   0.000000  -0.000000   0.000000
              13         14         15         16         17         18
     1  C   -0.000121   0.000007  -0.000078   0.000008   0.000247   0.000061
     2  C   -0.000008  -0.000000  -0.000007  -0.000000  -0.000056  -0.000033
     3  C   -0.001518   0.000497   0.000182   0.000060  -0.000100   0.000008
     4  C    0.008674  -0.004688  -0.000051  -0.000035  -0.000009  -0.000000
     5  C    0.000261   0.000059  -0.001317   0.000524  -0.001350   0.000536
     6  C   -0.000061  -0.000030   0.008426  -0.004491   0.009870  -0.004749
     7  C    0.000000  -0.000000  -0.000001  -0.000000   0.000014   0.000004
     8  N   -0.000000   0.000000   0.000000   0.000000   0.000007   0.000031
     9  C   -0.000002  -0.000000   0.000000   0.000000  -0.000002  -0.000000
    10  N   -0.000000   0.000000   0.000000   0.000000  -0.000000   0.000000
    11  C   -0.000741   0.000060  -0.000002  -0.000000   0.000000  -0.000000
    12  N    0.000060   0.000007  -0.000000   0.000000   0.000000   0.000000
    13  C   -0.058458  -0.002529   0.000013   0.000004  -0.000002  -0.000000
    14  N   -0.002529   0.088187   0.000006   0.000033   0.000000   0.000000
    15  C    0.000013   0.000006  -0.056448  -0.002444  -0.000893   0.000049
    16  N    0.000004   0.000033  -0.002444   0.084677   0.000041   0.000006
    17  C   -0.000002   0.000000  -0.000893   0.000041  -0.063418  -0.003226
    18  N   -0.000000   0.000000   0.000049   0.000006  -0.003226   0.098147
 Mulliken charges and spin densities:
               1          2
     1  C    0.224308  -0.013804
     2  C   -0.415397   0.289475
     3  C    0.230770  -0.013652
     4  C   -0.420427   0.293498
     5  C    0.232314  -0.013045
     6  C   -0.414418   0.285103
     7  C   -0.104493  -0.053577
     8  N    0.032744   0.081600
     9  C   -0.099946  -0.055917
    10  N    0.030223   0.085117
    11  C   -0.103374  -0.056947
    12  N    0.024613   0.087196
    13  C   -0.102975  -0.054428
    14  N    0.037009   0.081609
    15  C   -0.098020  -0.052567
    16  N    0.026787   0.078383
    17  C   -0.090250  -0.058877
    18  N    0.010529   0.090835
 Sum of Mulliken charges =  -1.00000   1.00000
 Mulliken charges and spin densities with hydrogens summed into heavy atoms:
               1          2
     1  C    0.224308  -0.013804
     2  C   -0.415397   0.289475
     3  C    0.230770  -0.013652
     4  C   -0.420427   0.293498
     5  C    0.232314  -0.013045
     6  C   -0.414418   0.285103
     7  C   -0.104493  -0.053577
     8  N    0.032744   0.081600
     9  C   -0.099946  -0.055917
    10  N    0.030223   0.085117
    11  C   -0.103374  -0.056947
    12  N    0.024613   0.087196
    13  C   -0.102975  -0.054428
    14  N    0.037009   0.081609
    15  C   -0.098020  -0.052567
    16  N    0.026787   0.078383
    17  C   -0.090250  -0.058877
    18  N    0.010529   0.090835
 Electronic spatial extent (au):  <R**2>=          39020.9996
 Charge=             -1.0000 electrons
 Dipole moment (field-independent basis, Debye):
    X=             42.7981    Y=              8.1927    Z=             -4.9640  Tot=             43.8570
 Quadrupole moment (field-independent basis, Debye-Ang):
   XX=           -551.4169   YY=           -182.8206   ZZ=           -104.2725
   XY=            -72.3748   XZ=             44.9293   YZ=              1.3901
 Traceless Quadrupole moment (field-independent basis, Debye-Ang):
   XX=           -271.9135   YY=             96.6827   ZZ=            175.2308
   XY=            -72.3748   XZ=             44.9293   YZ=              1.3901
 Octapole moment (field-independent basis, Debye-Ang**2):
  XXX=           7957.1319  YYY=            961.7932  ZZZ=           -311.4524  XYY=           1631.6052
  XXY=            860.0673  XXZ=           -587.2136  XZZ=            933.3613  YZZ=            164.5479
  YYZ=           -158.8320  XYZ=            -13.5644
 Hexadecapole moment (field-independent basis, Debye-Ang**3):
 XXXX=        -116104.1381 YYYY=          -7768.2866 ZZZZ=           -764.0506 XXXY=         -11552.2797
 XXXZ=           8543.6285 YYYX=          -8576.0084 YYYZ=            631.9311 ZZZX=           2801.6320
 ZZZY=            362.1597 XXYY=         -16250.9830 XXZZ=          -9091.1767 YYZZ=           -972.2141
 XXYZ=            278.0946 YYXZ=           1436.3767 ZZXY=          -1470.9691
 N-N= 9.610947283493D+02 E-N=-3.757932802918D+03  KE= 7.774250622367D+02
                          Isotropic Fermi Contact Couplings
        Atom                 a.u.       MegaHertz       Gauss      10(-4) cm-1
     1  C(13)             -0.01142     -12.83989      -4.58159      -4.28293
     2  C(13)              0.04539      51.02747      18.20787      17.02093
     3  C(13)             -0.01165     -13.09617      -4.67304      -4.36841
     4  C(13)              0.04602      51.73327      18.45972      17.25636
     5  C(13)             -0.01127     -12.67302      -4.52205      -4.22726
     6  C(13)              0.04483      50.39268      17.98136      16.80919
     7  C(13)             -0.02833     -31.85195     -11.36557     -10.62467
     8  N(14)              0.01876       6.06200       2.16307       2.02207
     9  C(13)             -0.02875     -32.31821     -11.53194     -10.78020
    10  N(14)              0.01968       6.35982       2.26934       2.12141
    11  C(13)             -0.02931     -32.95239     -11.75823     -10.99173
    12  N(14)              0.02019       6.52465       2.32816       2.17639
    13  C(13)             -0.02866     -32.22204     -11.49762     -10.74812
    14  N(14)              0.01874       6.05345       2.16002       2.01921
    15  C(13)             -0.02792     -31.38221     -11.19795     -10.46798
    16  N(14)              0.01799       5.81161       2.07373       1.93854
    17  C(13)             -0.02939     -33.03859     -11.78899     -11.02049
    18  N(14)              0.02123       6.85880       2.44739       2.28785
 --------------------------------------------------------
       Center         ----  Spin Dipole Couplings  ----
                      3XX-RR        3YY-RR        3ZZ-RR
 --------------------------------------------------------
     1   Atom       -0.020976      0.012041      0.008936
     2   Atom       -0.149390     -0.145449      0.294839
     3   Atom        0.003657     -0.012878      0.009221
     4   Atom       -0.151920     -0.146611      0.298530
     5   Atom        0.003996     -0.012872      0.008876
     6   Atom       -0.147501     -0.143827      0.291328
     7   Atom        0.026130      0.006162     -0.032292
     8   Atom       -0.082839     -0.068892      0.151731
     9   Atom        0.027628      0.005892     -0.033519
    10   Atom       -0.087811     -0.070100      0.157911
    11   Atom        0.027657      0.006783     -0.034440
    12   Atom       -0.088476     -0.073089      0.161564
    13   Atom       -0.002970      0.034925     -0.031955
    14   Atom       -0.065442     -0.085684      0.151127
    15   Atom       -0.002660      0.033876     -0.031216
    16   Atom       -0.062519     -0.084577      0.147097
    17   Atom        0.028384      0.007509     -0.035893
    18   Atom       -0.091160     -0.077494      0.168654
 --------------------------------------------------------
                        XY            XZ            YZ
 --------------------------------------------------------
     1   Atom        0.000115     -0.002655     -0.000041
     2   Atom       -0.000366      0.002942     -0.046983
     3   Atom       -0.014525      0.000142     -0.000504
     4   Atom       -0.000234      0.007935     -0.046542
     5   Atom        0.014110      0.000487     -0.000583
     6   Atom       -0.000531      0.000091     -0.035112
     7   Atom       -0.016532     -0.002330      0.004158
     8   Atom        0.009895      0.006210     -0.024878
     9   Atom        0.016939      0.001795      0.004385
    10   Atom       -0.010224     -0.001588     -0.025831
    11   Atom        0.017758      0.000644      0.003993
    12   Atom       -0.011840      0.002865     -0.024921
    13   Atom       -0.000041     -0.000351      0.007297
    14   Atom       -0.000513      0.003002     -0.029558
    15   Atom       -0.000647      0.000019      0.005043
    16   Atom        0.001556     -0.000339     -0.016313
    17   Atom       -0.018442     -0.001370      0.003386
    18   Atom        0.012807     -0.000228     -0.018734
 --------------------------------------------------------


 ---------------------------------------------------------------------------------
              Anisotropic Spin Dipole Couplings in Principal Axis System
 ---------------------------------------------------------------------------------

       Atom             a.u.   MegaHertz   Gauss  10(-4) cm-1        Axes

              Baa    -0.0212    -2.846    -1.016    -0.949  0.9961 -0.0033  0.0877
     1 C(13)  Bbb     0.0092     1.230     0.439     0.410 -0.0877  0.0177  0.9960
              Bcc     0.0120     1.616     0.577     0.539  0.0049  0.9998 -0.0173
 
              Baa    -0.1504   -20.183    -7.202    -6.732  0.0555  0.9930  0.1044
     2 C(13)  Bbb    -0.1494   -20.049    -7.154    -6.688  0.9984 -0.0545 -0.0124
              Bcc     0.2998    40.232    14.356    13.420  0.0066 -0.1049  0.9945
 
              Baa    -0.0213    -2.862    -1.021    -0.955  0.5025  0.8645  0.0119
     3 C(13)  Bbb     0.0092     1.232     0.439     0.411 -0.1161  0.0538  0.9918
              Bcc     0.0122     1.630     0.582     0.544  0.8567 -0.4998  0.1274
 
              Baa    -0.1524   -20.451    -7.298    -6.822  0.8591 -0.5074 -0.0675
     4 C(13)  Bbb    -0.1511   -20.273    -7.234    -6.762  0.5116  0.8556  0.0795
              Bcc     0.3035    40.724    14.531    13.584  0.0174 -0.1029  0.9945
 
              Baa    -0.0209    -2.804    -1.001    -0.935 -0.4933  0.8695  0.0251
     5 C(13)  Bbb     0.0089     1.193     0.426     0.398 -0.0256 -0.0434  0.9987
              Bcc     0.0120     1.611     0.575     0.537  0.8695  0.4921  0.0437
 
              Baa    -0.1477   -19.826    -7.075    -6.613  0.9043  0.4257  0.0339
     6 C(13)  Bbb    -0.1464   -19.645    -7.010    -6.553 -0.4270  0.9014  0.0724
              Bcc     0.2941    39.471    14.084    13.166  0.0003 -0.0799  0.9968
 
              Baa    -0.0327    -4.394    -1.568    -1.466  0.0108 -0.1017  0.9948
     7 C(13)  Bbb    -0.0030    -0.397    -0.142    -0.133  0.4974  0.8636  0.0829
              Bcc     0.0357     4.791     1.710     1.598  0.8675 -0.4939 -0.0599
 
              Baa    -0.0892    -3.442    -1.228    -1.148  0.8579 -0.5083 -0.0746
     8 N(14)  Bbb    -0.0654    -2.521    -0.900    -0.841  0.5133  0.8541  0.0832
              Bcc     0.1546     5.963     2.128     1.989  0.0214 -0.1097  0.9937
 
              Baa    -0.0340    -4.563    -1.628    -1.522  0.0012 -0.1098  0.9940
     9 C(13)  Bbb    -0.0031    -0.413    -0.147    -0.138 -0.4851  0.8691  0.0966
              Bcc     0.0371     4.975     1.775     1.660  0.8744  0.4823  0.0522
 
              Baa    -0.0931    -3.591    -1.282    -1.198  0.8896  0.4538  0.0523
    10 N(14)  Bbb    -0.0677    -2.610    -0.931    -0.871 -0.4568  0.8842  0.0980
              Bcc     0.1608     6.202     2.213     2.069 -0.0018 -0.1111  0.9938
 
              Baa    -0.0348    -4.676    -1.668    -1.560  0.0192 -0.1036  0.9944
    11 C(13)  Bbb    -0.0031    -0.411    -0.147    -0.137 -0.4995  0.8606  0.0993
              Bcc     0.0379     5.087     1.815     1.697  0.8661  0.4987  0.0352
 
              Baa    -0.0953    -3.674    -1.311    -1.226  0.8625  0.5046  0.0393
    12 N(14)  Bbb    -0.0690    -2.660    -0.949    -0.887 -0.5058  0.8569  0.0989
              Bcc     0.1642     6.335     2.260     2.113  0.0162 -0.1052  0.9943
 
              Baa    -0.0327    -4.394    -1.568    -1.466  0.0116 -0.1072  0.9942
    13 C(13)  Bbb    -0.0030    -0.398    -0.142    -0.133  0.9999  0.0033 -0.0113
              Bcc     0.0357     4.792     1.710     1.599 -0.0020  0.9942  0.1072
 
              Baa    -0.0893    -3.445    -1.229    -1.149  0.0060  0.9925  0.1219
    14 N(14)  Bbb    -0.0655    -2.526    -0.901    -0.842  0.9999 -0.0043 -0.0144
              Bcc     0.1548     5.970     2.130     1.992  0.0138 -0.1220  0.9924
 
              Baa    -0.0316    -4.241    -1.513    -1.415 -0.0024 -0.0768  0.9970
    15 C(13)  Bbb    -0.0027    -0.358    -0.128    -0.120  0.9998  0.0172  0.0037
              Bcc     0.0343     4.599     1.641     1.534 -0.0174  0.9969  0.0768
 
              Baa    -0.0858    -3.310    -1.181    -1.104 -0.0654  0.9954  0.0696
    16 N(14)  Bbb    -0.0624    -2.407    -0.859    -0.803  0.9979  0.0651  0.0067
              Bcc     0.1482     5.717     2.040     1.907 -0.0021 -0.0699  0.9976
 
              Baa    -0.0362    -4.852    -1.731    -1.618 -0.0011 -0.0778  0.9970
    17 C(13)  Bbb    -0.0031    -0.415    -0.148    -0.138  0.5065  0.8596  0.0676
              Bcc     0.0392     5.267     1.879     1.757  0.8622 -0.5051 -0.0385
 
              Baa    -0.0992    -3.825    -1.365    -1.276  0.8465 -0.5312 -0.0364
    18 N(14)  Bbb    -0.0709    -2.734    -0.976    -0.912  0.5324  0.8439  0.0665
              Bcc     0.1701     6.560     2.341     2.188 -0.0046 -0.0757  0.9971
 

 ---------------------------------------------------------------------------------

   1 Symmetry operations used in ECPInt.
 ECPInt:  NShTT=    5886 NPrTT=   23670 LenC2=    5395 LenP2D=   14926.
 LDataN:  DoStor=T MaxTD1= 5 Len=  102
 D1PCM: PCM CHGder 1st derivatives, ID1Alg=3 FixD1E=F DoIter=F DoCFld=F I1PDM=0.
 Calling FoFJK, ICntrl=      2127 FMM=F ISym2X=0 I1Cent= 0 IOpClX= 1 NMat=1 NMatS=1 NMatT=0.
 -------------------------------------------------------------------
 Center     Atomic                   Forces (Hartrees/Bohr)
 Number     Number              X              Y              Z
 -------------------------------------------------------------------
      1        6          -0.002404787   -0.173781580   -0.016758513
      2        6          -0.003221107    0.098579007    0.009960988
      3        6          -0.152229635    0.084595110    0.009338884
      4        6           0.092005040   -0.054161330   -0.006688132
      5        6           0.152368195    0.090152556    0.007505945
      6        6          -0.089243416   -0.058809518   -0.004718916
      7        6           0.064604727   -0.032143008   -0.003819797
      8        7          -0.040360754    0.022300548    0.002809172
      9        6          -0.048215943   -0.025784765   -0.002369798
     10        7           0.026897255    0.015036276    0.001468273
     11        6          -0.039985334   -0.024845156   -0.001614073
     12        7           0.018655822    0.011150901    0.000716370
     13        6           0.000303633    0.077341143    0.008004481
     14        7          -0.000056425   -0.048948552   -0.005345182
     15        6           0.000177562    0.072175649    0.005434962
     16        7           0.000599621   -0.041959086   -0.003174858
     17        6           0.018264012   -0.008993519   -0.000687467
     18        7           0.001841534   -0.001904677   -0.000062339
 -------------------------------------------------------------------
 Cartesian Forces:  Max     0.173781580 RMS     0.053561354

 GradGradGradGradGradGradGradGradGradGradGradGradGradGradGradGradGradGrad
 Berny optimization.
 Search for a local minimum.
 Step number   1 out of a maximum of    2
 All quantities printed in internal units (Hartrees-Bohrs-Radians)
 Second derivative matrix not updated -- first step.
 ITU=  0
     Eigenvalues ---    0.00279   0.00288   0.00294   0.00297   0.00299
     Eigenvalues ---    0.01099   0.01564   0.01692   0.02007   0.02061
     Eigenvalues ---    0.04375   0.04962   0.05337   0.05552   0.10163
     Eigenvalues ---    0.19179   0.19933   0.20453   0.23894   0.24233
     Eigenvalues ---    0.24353   0.25787   0.30445   0.31148   0.39633
     Eigenvalues ---    0.43307   0.63866   0.66719   0.68989   0.80873
     Eigenvalues ---    0.87295   0.99699   1.01270   1.07730   1.73723
     Eigenvalues ---    1.77280   2.04311   2.79935   2.92006   2.97198
     Eigenvalues ---    3.02717   3.05797   3.07032   5.90713  11.71275
     Eigenvalues ---   15.51997  54.70800  81.96315
 Angle between quadratic step and forces=  49.32 degrees.
 Linear search not attempted -- first point.
 B after Tr=    -0.000153    0.000165   -0.000014
         Rot=    1.000000    0.000002    0.000001   -0.000005 Ang=   0.00 deg.
 Variable       Old X    -DE/DX   Delta X   Delta X   Delta X     New X
                                 (Linear)    (Quad)   (Total)
    X1      -16.88899  -0.00240   0.00000  -0.00415  -0.00429 -16.89327
    Y1       -1.60185  -0.17378   0.00000  -0.10629  -0.10628  -1.70814
    Z1        2.10014  -0.01676   0.00000  -0.00875  -0.00880   2.09134
    X2      -16.90103  -0.00322   0.00000  -0.00584  -0.00601 -16.90704
    Y2        0.84886   0.09858   0.00000   0.01153   0.01154   0.86040
    Z2        2.35093   0.00996   0.00000   0.00340   0.00334   2.35427
    X3      -15.48000  -0.15223   0.00000  -0.08124  -0.08136 -15.56135
    Y3       -4.04513   0.08460   0.00000   0.03990   0.03992  -4.00521
    Z3        1.85959   0.00934   0.00000   0.00316   0.00313   1.86272
    X4      -13.35693   0.09201   0.00000   0.02681   0.02671 -13.33023
    Y4       -5.27690  -0.05416   0.00000  -0.01626  -0.01622  -5.29311
    Z4        1.70294  -0.00669   0.00000  -0.00246  -0.00248   1.70045
    X5      -18.32049   0.15237   0.00000   0.09042   0.09030 -18.23019
    Y5       -4.06121   0.09015   0.00000   0.04874   0.04873  -4.01248
    Z5        1.87665   0.00751   0.00000   0.00435   0.00431   1.88096
    X6      -20.45861  -0.08924   0.00000  -0.01253  -0.01263 -20.47124
    Y6       -5.27473  -0.05881   0.00000  -0.00997  -0.00999  -5.28472
    Z6        1.77740  -0.00472   0.00000   0.00014   0.00010   1.77750
    X7      -19.29889   0.06460   0.00000   0.06833   0.06815 -19.23073
    Y7        2.23451  -0.03214   0.00000  -0.00392  -0.00393   2.23058
    Z7        2.52180  -0.00382   0.00000  -0.00199  -0.00205   2.51974
    X8      -21.13973  -0.04036   0.00000   0.03390   0.03371 -21.10602
    Y8        3.34451   0.02230   0.00000   0.00428   0.00425   3.34876
    Z8        2.67608   0.00281   0.00000  -0.01611  -0.01618   2.65990
    X9      -14.52200  -0.04822   0.00000  -0.07304  -0.07322 -14.59523
    Y9        2.25393  -0.02578   0.00000  -0.00285  -0.00282   2.25111
    Z9        2.49227  -0.00237   0.00000  -0.00186  -0.00192   2.49035
   X10      -12.61050   0.02690   0.00000  -0.06728  -0.06747 -12.67797
   Y10        3.26645   0.01504   0.00000   0.03447   0.03452   3.30097
   Z10        2.60774   0.00147   0.00000  -0.00274  -0.00280   2.60494
   X11      -10.93361  -0.03999   0.00000  -0.02707  -0.02719 -10.96080
   Y11       -3.93420  -0.02485   0.00000  -0.06377  -0.06370  -3.99790
   Z11        1.79888  -0.00161   0.00000  -0.00204  -0.00206   1.79683
   X12       -9.04729   0.01866   0.00000  -0.01126  -0.01139  -9.05868
   Y12       -2.85888   0.01115   0.00000  -0.05902  -0.05894  -2.91782
   Z12        1.87976   0.00072   0.00000  -0.00047  -0.00049   1.87928
   X13      -13.30720   0.00030   0.00000   0.02876   0.02868 -13.27852
   Y13       -8.04339   0.07734   0.00000   0.06331   0.06335  -7.98004
   Z13        1.40620   0.00800   0.00000   0.01047   0.01047   1.41666
   X14      -13.29505  -0.00006   0.00000   0.03306   0.03300 -13.26205
   Y14      -10.18122  -0.04895   0.00000   0.02842   0.02846 -10.15276
   Z14        1.15192  -0.00535   0.00000   0.01113   0.01114   1.16306
   X15      -20.49771   0.00018   0.00000  -0.02205  -0.02213 -20.51984
   Y15       -8.05826   0.07218   0.00000   0.07795   0.07792  -7.98034
   Z15        1.56040   0.00543   0.00000  -0.00653  -0.00655   1.55385
   X16      -20.39852   0.00060   0.00000  -0.05382  -0.05388 -20.45240
   Y16      -10.20815  -0.04196   0.00000   0.04753   0.04751 -10.16064
   Z16        1.40522  -0.00317   0.00000  -0.02193  -0.02194   1.38328
   X17      -22.87387   0.01826   0.00000   0.04204   0.04192 -22.83195
   Y17       -3.93902  -0.00899   0.00000  -0.04082  -0.04087  -3.97989
   Z17        1.88292  -0.00069   0.00000   0.01091   0.01087   1.89379
   X18      -24.74522   0.00184   0.00000   0.03722   0.03709 -24.70813
   Y18       -2.80151  -0.00190   0.00000  -0.05339  -0.05346  -2.85496
   Z18        1.96353  -0.00006   0.00000   0.02196   0.02191   1.98544
         Item               Value     Threshold  Converged?
 Maximum Force            0.173782     0.000450     NO 
 RMS     Force            0.053561     0.000300     NO 
 Maximum Displacement     0.106283     0.001800     NO 
 RMS     Displacement     0.039597     0.001200     NO 
 Predicted change in Energy=-3.732878D-02
 GradGradGradGradGradGradGradGradGradGradGradGradGradGradGradGradGradGrad

 Unable to Open any file for archive entry.
 1\1\GINC-X10P1N4\Force\UwB97XD\def2SVP\C12N6(1-,2)\MAYUMIAO\11-Oct-202
 4\0\\# wb97xd def2svp scrf=(smd,solvent=acetonitrile) g09default scf=(
 xqc,maxcycle=64) force guess=read nosymm\\Title Card\\-1,2\C,-8.937266
 88,-0.84766403,1.11134556\C,-8.94364155,0.4491989,1.24405988\C,-8.1916
 6143,-2.14059128,0.98405114\C,-7.06818392,-2.79241303,0.90115474\C,-9.
 69478573,-2.14909978,0.99308069\C,-10.82622952,-2.7912653,0.94055907\C
 ,-10.2125306,1.1824515,1.33447748\N,-11.18666511,1.76983784,1.41612225
 \C,-7.68471296,1.19272594,1.31885258\N,-6.67318785,1.72853001,1.379954
 07\C,-5.78581631,-2.08188685,0.95192827\N,-4.78762063,-1.51285473,0.99
 472814\C,-7.04186714,-4.25637958,0.74412707\N,-7.03543621,-5.38766996,
 0.60956999\C,-10.84691983,-4.26424545,0.82572833\N,-10.79443086,-5.401
 92122,0.7436091\C,-12.10433083,-2.0844374,0.99640093\N,-13.09460687,-1
 .4824932,1.03905567\\Version=ES64L-G16RevC.01\HF=-784.8172956\S2=0.774
 297\S2-1=0.\S2A=0.750472\RMSD=9.924e-09\RMSF=5.356e-02\Dipole=-0.05394
 73,-0.0175895,-0.0076435\Quadrupole=-202.1610622,71.8812448,130.279817
 4,-53.8088656,33.4038493,1.0335277\PG=C01 [X(C12N6)]\\@
 The archive entry for this job was punched.


 IT IS DOUBTED WHETHER A MAN EVER BRINGS HIS FACULTIES TO BEAR WITH THEIR FULL FORCE
 ON A SUBJECT UNTIL HE WRITES UPON IT.

                          -- CICERO
 Job cpu time:       0 days  0 hours 12 minutes 24.5 seconds.
 Elapsed time:       0 days  0 hours  0 minutes 28.0 seconds.
 File lengths (MBytes):  RWF=    173 Int=      0 D2E=      0 Chk=      9 Scr=      1
 Normal termination of Gaussian 16 at Fri Oct 11 15:57:06 2024.
