 Entering Gaussian System, Link 0=g16
 Input=JOBS/35_B.gjf
 Output=JOBS/35_B.log
 Initial command:
 /data/app/gaussian/C01-avx2//g16/l1.exe "/tmp/Gau-2546738.inp" -scrdir="/tmp/"
 Entering Link 1 = /data/app/gaussian/C01-avx2//g16/l1.exe PID=   2546739.
  
 Copyright (c) 1988-2019, Gaussian, Inc.  All Rights Reserved.
  
 This is part of the Gaussian(R) 16 program.  It is based on
 the Gaussian(R) 09 system (copyright 2009, Gaussian, Inc.),
 the Gaussian(R) 03 system (copyright 2003, Gaussian, Inc.),
 the Gaussian(R) 98 system (copyright 1998, Gaussian, Inc.),
 the Gaussian(R) 94 system (copyright 1995, Gaussian, Inc.),
 the Gaussian 92(TM) system (copyright 1992, Gaussian, Inc.),
 the Gaussian 90(TM) system (copyright 1990, Gaussian, Inc.),
 the Gaussian 88(TM) system (copyright 1988, Gaussian, Inc.),
 the Gaussian 86(TM) system (copyright 1986, Carnegie Mellon
 University), and the Gaussian 82(TM) system (copyright 1983,
 Carnegie Mellon University). Gaussian is a federally registered
 trademark of Gaussian, Inc.
  
 This software contains proprietary and confidential information,
 including trade secrets, belonging to Gaussian, Inc.
  
 This software is provided under written license and may be
 used, copied, transmitted, or stored only in accord with that
 written license.
  
 The following legend is applicable only to US Government
 contracts under FAR:
  
                    RESTRICTED RIGHTS LEGEND
  
 Use, reproduction and disclosure by the US Government is
 subject to restrictions as set forth in subparagraphs (a)
 and (c) of the Commercial Computer Software - Restricted
 Rights clause in FAR 52.227-19.
  
 Gaussian, Inc.
 340 Quinnipiac St., Bldg. 40, Wallingford CT 06492
  
  
 ---------------------------------------------------------------
 Warning -- This program may not be used in any manner that
 competes with the business of Gaussian, Inc. or will provide
 assistance to any competitor of Gaussian, Inc.  The licensee
 of this program is prohibited from giving any competitor of
 Gaussian, Inc. access to this program.  By using this program,
 the user acknowledges that Gaussian, Inc. is engaged in the
 business of creating and licensing software in the field of
 computational chemistry and represents and warrants to the
 licensee that it is not a competitor of Gaussian, Inc. and that
 it will not use this program in any manner prohibited above.
 ---------------------------------------------------------------
  

 Cite this work as:
 Gaussian 16, Revision C.01,
 M. J. Frisch, G. W. Trucks, H. B. Schlegel, G. E. Scuseria, 
 M. A. Robb, J. R. Cheeseman, G. Scalmani, V. Barone, 
 G. A. Petersson, H. Nakatsuji, X. Li, M. Caricato, A. V. Marenich, 
 J. Bloino, B. G. Janesko, R. Gomperts, B. Mennucci, H. P. Hratchian, 
 J. V. Ortiz, A. F. Izmaylov, J. L. Sonnenberg, D. Williams-Young, 
 F. Ding, F. Lipparini, F. Egidi, J. Goings, B. Peng, A. Petrone, 
 T. Henderson, D. Ranasinghe, V. G. Zakrzewski, J. Gao, N. Rega, 
 G. Zheng, W. Liang, M. Hada, M. Ehara, K. Toyota, R. Fukuda, 
 J. Hasegawa, M. Ishida, T. Nakajima, Y. Honda, O. Kitao, H. Nakai, 
 T. Vreven, K. Throssell, J. A. Montgomery, Jr., J. E. Peralta, 
 F. Ogliaro, M. J. Bearpark, J. J. Heyd, E. N. Brothers, K. N. Kudin, 
 V. N. Staroverov, T. A. Keith, R. Kobayashi, J. Normand, 
 K. Raghavachari, A. P. Rendell, J. C. Burant, S. S. Iyengar, 
 J. Tomasi, M. Cossi, J. M. Millam, M. Klene, C. Adamo, R. Cammi, 
 J. W. Ochterski, R. L. Martin, K. Morokuma, O. Farkas, 
 J. B. Foresman, and D. J. Fox, Gaussian, Inc., Wallingford CT, 2019.
 
 ******************************************
 Gaussian 16:  ES64L-G16RevC.01  3-Jul-2019
                11-Oct-2024 
 ******************************************
 %chk=b.chk
 %nprocshared=28
 Will use up to   28 processors via shared memory.
 %mem=48gb
 ----------------------------------------------------------------------
 # wb97xd def2svp scrf=(smd,solvent=acetonitrile) g09default scf=(xqc,m
 axcycle=64) force guess=read nosymm
 ----------------------------------------------------------------------
 1/10=7,30=1,38=1,158=3,167=1/1,3;
 2/12=2,15=1,17=6,18=5,40=1/2;
 3/5=43,7=101,11=2,25=1,27=10,30=1,70=32201,71=1,72=2,74=-58,75=-4,116=-2,158=3/1,2,3;
 4/5=1,60=-1/1;
 5/5=2,7=64,8=3,13=1,38=6,53=2,87=10/2,8;
 6/7=2,8=2,9=2,10=2,28=1,87=10/1;
 7/29=1,30=1,87=10/1,2,3,16;
 1/10=7,30=1,158=3,167=1/3;
 99//99;
 Using 2006 physical constants.
 ----------
 Title Card
 ----------
 Symbolic Z-matrix:
 Charge = -1 Multiplicity = 2
 6                    -8.93849  -0.8584    1.11378 
 6                    -8.94644   0.48436   1.24794 
 6                    -8.1978   -2.14264   0.98331 
 6                    -7.04184  -2.80555   0.90129 
 6                    -9.68167  -2.14155   0.99405 
 6                    -10.85649  -2.81259   0.93903 
 6                    -10.20398   1.2136    1.33773 
 7                    -11.20431   1.77073   1.41782 
 6                    -7.68584   1.22444   1.32386 
 7                    -6.6603    1.73062   1.38075 
 6                    -5.77364  -2.10783   0.94887 
 7                    -4.76302  -1.49059   0.99374 
 6                    -7.01708  -4.27227   0.73829 
 7                    -7.03703  -5.39917   0.60368 
 6                    -10.86929  -4.27531   0.82699 
 7                    -10.79687  -5.41613   0.74622 
 6                    -12.1323  -2.0938    0.99422 
 7                    -13.1035  -1.47808   1.03725 
 

 GradGradGradGradGradGradGradGradGradGradGradGradGradGradGradGradGradGrad
 Berny optimization.
 Initialization pass.
 Trust Radius=3.00D-01 FncErr=1.00D-07 GrdErr=1.00D-07 EigMax=2.50D+02 EigMin=1.00D-04
 Number of steps in this run=      2 maximum allowed number of steps=      2.
 GradGradGradGradGradGradGradGradGradGradGradGradGradGradGradGradGradGrad

                          Input orientation:                          
 ---------------------------------------------------------------------
 Center     Atomic      Atomic             Coordinates (Angstroms)
 Number     Number       Type             X           Y           Z
 ---------------------------------------------------------------------
      1          6           0       -8.938490   -0.858400    1.113780
      2          6           0       -8.946438    0.484358    1.247941
      3          6           0       -8.197795   -2.142637    0.983307
      4          6           0       -7.041844   -2.805554    0.901288
      5          6           0       -9.681669   -2.141552    0.994047
      6          6           0      -10.856485   -2.812590    0.939028
      7          6           0      -10.203984    1.213599    1.337732
      8          7           0      -11.204306    1.770731    1.417820
      9          6           0       -7.685840    1.224436    1.323857
     10          7           0       -6.660296    1.730617    1.380747
     11          6           0       -5.773640   -2.107829    0.948868
     12          7           0       -4.763022   -1.490589    0.993738
     13          6           0       -7.017084   -4.272274    0.738291
     14          7           0       -7.037035   -5.399173    0.603678
     15          6           0      -10.869291   -4.275310    0.826992
     16          7           0      -10.796870   -5.416128    0.746217
     17          6           0      -12.132303   -2.093802    0.994220
     18          7           0      -13.103502   -1.478079    1.037254
 ---------------------------------------------------------------------
                    Distance matrix (angstroms):
                    1          2          3          4          5
     1  C    0.000000
     2  C    1.349466   0.000000
     3  C    1.488260   2.744375   0.000000
     4  C    2.726506   3.817220   1.335070   0.000000
     5  C    1.487659   2.738691   1.483913   2.723634   0.000000
     6  C    2.743738   3.822770   2.742158   3.814835   1.354072
     7  C    2.438197   1.456461   3.926160   5.132564   3.412912
     8  N    3.484062   2.604147   4.954024   6.207679   4.219474
     9  C    2.439564   1.463758   3.422755   4.102940   3.927084
    10  N    3.458966   2.607152   4.186162   4.577369   4.926654
    11  C    3.406545   4.107983   2.424649   1.448249   3.908435
    12  N    4.224762   4.633142   3.496133   2.632624   4.961537
    13  C    3.935395   5.158265   2.447339   1.475956   3.421316
    14  N    4.949178   6.219070   3.478004   2.610643   4.214093
    15  C    3.935164   5.150631   3.421933   4.100617   2.447709
    16  N    4.935744   6.204157   4.186544   4.575955   3.468132
    17  C    3.426507   4.106217   3.934826   5.140817   2.451099
    18  N    4.211554   4.601819   4.950809   6.206801   3.485829
                    6          7          8          9         10
     6  C    0.000000
     7  C    4.098160   0.000000
     8  N    4.621369   1.147804   0.000000
     9  C    5.147685   2.518206   3.561863   0.000000
    10  N    6.200310   3.581464   4.544338   1.145074   0.000000
    11  C    5.131481   5.550770   6.689938   3.860197   3.963123
    12  N    6.235461   6.085642   7.232302   4.002900   3.758403
    13  C    4.112417   6.372634   7.383258   5.568118   6.047706
    14  N    4.625049   7.368661   8.332857   6.694162   7.181899
    15  C    1.467061   5.552622   6.084072   6.374045   7.354825
    16  N    2.611349   6.682416   7.229661   7.355900   8.281898
    17  C    1.465405   3.843868   3.996903   5.557913   6.687185
    18  N    2.615273   3.967698   3.782399   6.061089   7.206152
                   11         12         13         14         15
    11  C    0.000000
    12  N    1.185052   0.000000
    13  C    2.505058   3.589404   0.000000
    14  N    3.542353   4.538756   1.135086   0.000000
    15  C    5.538816   6.713345   3.853229   3.999891   0.000000
    16  N    6.018201   7.202669   3.949081   3.762574   1.145965
    17  C    6.358840   7.393928   5.565671   6.086030   2.526290
    18  N    7.357396   8.340604   6.703834   7.236366   3.586142
                   16         17         18
    16  N    0.000000
    17  C    3.589253   0.000000
    18  N    4.573126   1.150737   0.000000
 Symmetry turned off by external request.
 Stoichiometry    C12N6(1-,2)
 Framework group  C1[X(C12N6)]
 Deg. of freedom    48
 Full point group                 C1      NOp   1
 Rotational constants (GHZ):           0.4227067           0.4194855           0.2105768
 Standard basis: def2SVP (5D, 7F)
   252 basis functions,   450 primitive gaussians,   270 cartesian basis functions
    58 alpha electrons       57 beta electrons
       nuclear repulsion energy       956.0157675509 Hartrees.
 NAtoms=   18 NActive=   18 NUniq=   18 SFac= 1.00D+00 NAtFMM=   60 NAOKFM=F Big=F
 Integral buffers will be    131072 words long.
 Raffenetti 2 integral format.
 Two-electron integral symmetry is turned off.
 Nuclear repulsion after empirical dispersion term =      956.0042675174 Hartrees.
 Force PCM accuracy= 1.00D-10.
 ------------------------------------------------------------------------------
 Polarizable Continuum Model (PCM)
 =================================
 Model                : PCM (using non-symmetric T matrix).
 Atomic radii         : SMD-Coulomb.
 Polarization charges : Total charges.
 Charge compensation  : None.
 Solution method      : On-the-fly selection.
 Cavity type          : VdW (van der Waals Surface) (Alpha=1.000).
 Cavity algorithm     : GePol (No added spheres)
                        Default sphere list used, NSphG=   18.
                        Lebedev-Laikov grids with approx.  5.0 points / Ang**2.
                        Smoothing algorithm: York/Karplus (Gamma=1.0000).
                        Polarization charges: spherical gaussians, with
                                              point-specific exponents (IZeta= 3).
                        Self-potential: point-specific (ISelfS= 7).
                        Self-field    : sphere-specific E.n sum rule (ISelfD= 2).
 1st derivatives      : Analytical E(r).r(x)/FMM algorithm (CHGder, D1EAlg=3).
                        Cavity 1st derivative terms included.
 Solvent              : Acetonitrile, Eps=  35.688000 Eps(inf)=   1.806874
 ------------------------------------------------------------------------------
 Spheres list:
 ISph  on   Nord     Re0    Alpha      Xe            Ye            Ze
    1   C      1    1.8500  1.000     -8.938490     -0.858400      1.113780
    2   C      2    1.8500  1.000     -8.946438      0.484358      1.247941
    3   C      3    1.8500  1.000     -8.197795     -2.142637      0.983307
    4   C      4    1.8500  1.000     -7.041844     -2.805554      0.901288
    5   C      5    1.8500  1.000     -9.681669     -2.141552      0.994047
    6   C      6    1.8500  1.000    -10.856485     -2.812590      0.939028
    7   C      7    1.8500  1.000    -10.203984      1.213599      1.337732
    8   N      8    1.8900  1.000    -11.204306      1.770731      1.417820
    9   C      9    1.8500  1.000     -7.685840      1.224436      1.323857
   10   N     10    1.8900  1.000     -6.660296      1.730617      1.380747
   11   C     11    1.8500  1.000     -5.773640     -2.107829      0.948868
   12   N     12    1.8900  1.000     -4.763022     -1.490589      0.993738
   13   C     13    1.8500  1.000     -7.017084     -4.272274      0.738291
   14   N     14    1.8900  1.000     -7.037035     -5.399173      0.603678
   15   C     15    1.8500  1.000    -10.869291     -4.275310      0.826992
   16   N     16    1.8900  1.000    -10.796870     -5.416128      0.746217
   17   C     17    1.8500  1.000    -12.132303     -2.093802      0.994220
   18   N     18    1.8900  1.000    -13.103502     -1.478079      1.037254
 ------------------------------------------------------------------------------
 ------------------------------------------------------------------------------
 Atomic radii for non-electrostatic terms: SMD-CDS.
 ------------------------------------------------------------------------------
 Nuclear repulsion after PCM non-electrostatic terms =      956.0130762919 Hartrees.
 One-electron integrals computed using PRISM.
   1 Symmetry operations used in ECPInt.
 ECPInt:  NShTT=    5886 NPrTT=   23670 LenC2=    5392 LenP2D=   14878.
 LDataN:  DoStor=T MaxTD1= 4 Len=   56
 NBasis=   252 RedAO= T EigKep=  2.67D-04  NBF=   252
 NBsUse=   252 1.00D-06 EigRej= -1.00D+00 NBFU=   252
 Initial guess from the checkpoint file:  "b.chk"
 B after Tr=    -0.001086    0.002432   -0.005143
         Rot=    1.000000   -0.000141   -0.000177   -0.000055 Ang=  -0.03 deg.
 Initial guess <Sx>= 0.0000 <Sy>= 0.0000 <Sz>= 0.5000 <S**2>= 0.7783 S= 0.5140
 Requested convergence on RMS density matrix=1.00D-08 within  64 cycles.
 Requested convergence on MAX density matrix=1.00D-06.
 Requested convergence on             energy=1.00D-06.
 No special actions if energy rises.
 Inv3:  Mode=1 IEnd=    19370043.
 Iteration    1 A*A^-1 deviation from unit magnitude is 3.33D-15 for    986.
 Iteration    1 A*A^-1 deviation from orthogonality  is 2.96D-15 for   1664   1020.
 Iteration    1 A^-1*A deviation from unit magnitude is 3.22D-15 for    581.
 Iteration    1 A^-1*A deviation from orthogonality  is 1.01D-10 for   1973   1956.
 Iteration    2 A*A^-1 deviation from unit magnitude is 4.33D-15 for    584.
 Iteration    2 A*A^-1 deviation from orthogonality  is 4.33D-15 for   1094    653.
 Iteration    2 A^-1*A deviation from unit magnitude is 1.33D-15 for   1465.
 Iteration    2 A^-1*A deviation from orthogonality  is 7.49D-16 for   2370   2358.
 Error on total polarization charges =  0.01979
 SCF Done:  E(UwB97XD) =  -784.835212765     A.U. after   17 cycles
            NFock= 17  Conv=0.81D-08     -V/T= 2.0101
 <Sx>= 0.0000 <Sy>= 0.0000 <Sz>= 0.5000 <S**2>= 0.7803 S= 0.5150
 <L.S>=  0.00000000000    
 SMD-CDS (non-electrostatic) energy       (kcal/mol) =       5.53
 (included in total energy above)
 Annihilation of the first spin contaminant:
 S**2 before annihilation     0.7803,   after     0.7507
 QCSCF skips out because SCF is already converged.

 **********************************************************************

            Population analysis using the SCF Density.

 **********************************************************************

 Alpha  occ. eigenvalues --  -14.46588 -14.45848 -14.45754 -14.45736 -14.45712
 Alpha  occ. eigenvalues --  -14.45551 -10.38670 -10.38562 -10.38526 -10.38501
 Alpha  occ. eigenvalues --  -10.38483 -10.38422 -10.36862 -10.36202 -10.36089
 Alpha  occ. eigenvalues --  -10.36074 -10.36052 -10.35917  -1.03273  -1.02377
 Alpha  occ. eigenvalues --   -1.02254  -1.01383  -1.01298  -1.00927  -1.00079
 Alpha  occ. eigenvalues --   -0.92175  -0.91937  -0.88252  -0.71891  -0.71622
 Alpha  occ. eigenvalues --   -0.68107  -0.67877  -0.67355  -0.67189  -0.54392
 Alpha  occ. eigenvalues --   -0.50658  -0.50569  -0.48794  -0.48645  -0.47666
 Alpha  occ. eigenvalues --   -0.47561  -0.47514  -0.47036  -0.46364  -0.46243
 Alpha  occ. eigenvalues --   -0.45646  -0.45627  -0.45246  -0.45136  -0.44773
 Alpha  occ. eigenvalues --   -0.44755  -0.44541  -0.43418  -0.43119  -0.42693
 Alpha  occ. eigenvalues --   -0.36291  -0.36226  -0.26418
 Alpha virt. eigenvalues --    0.04315   0.04432   0.06676   0.07317   0.07532
 Alpha virt. eigenvalues --    0.08822   0.10441   0.10781   0.11143   0.11988
 Alpha virt. eigenvalues --    0.12396   0.14446   0.18454   0.18534   0.20227
 Alpha virt. eigenvalues --    0.22132   0.24483   0.24573   0.25228   0.25431
 Alpha virt. eigenvalues --    0.27712   0.29508   0.29707   0.31016   0.31084
 Alpha virt. eigenvalues --    0.32480   0.34286   0.46315   0.46634   0.49499
 Alpha virt. eigenvalues --    0.49853   0.51239   0.51531   0.53158   0.53241
 Alpha virt. eigenvalues --    0.53687   0.53957   0.54324   0.56407   0.59965
 Alpha virt. eigenvalues --    0.60040   0.60259   0.61299   0.61667   0.63543
 Alpha virt. eigenvalues --    0.63788   0.69060   0.69160   0.69986   0.71352
 Alpha virt. eigenvalues --    0.71726   0.72399   0.72615   0.73084   0.73241
 Alpha virt. eigenvalues --    0.73411   0.73532   0.74288   0.74570   0.74782
 Alpha virt. eigenvalues --    0.78732   0.78790   0.79061   0.80737   0.80899
 Alpha virt. eigenvalues --    0.83700   0.84002   0.86133   0.86970   0.92605
 Alpha virt. eigenvalues --    0.92837   0.92894   0.93204   0.93340   0.94062
 Alpha virt. eigenvalues --    0.95601   0.98209   0.98355   0.98862   0.99454
 Alpha virt. eigenvalues --    1.00800   1.01012   1.01788   1.01965   1.02910
 Alpha virt. eigenvalues --    1.04713   1.06225   1.06877   1.07647   1.11130
 Alpha virt. eigenvalues --    1.11418   1.14734   1.16452   1.17098   1.17556
 Alpha virt. eigenvalues --    1.21037   1.22213   1.22579   1.23921   1.32384
 Alpha virt. eigenvalues --    1.33410   1.33762   1.38485   1.38809   1.41821
 Alpha virt. eigenvalues --    1.43384   1.44319   1.44542   1.45206   1.55926
 Alpha virt. eigenvalues --    1.59751   1.66543   1.68037   1.68154   1.68238
 Alpha virt. eigenvalues --    1.68522   1.69068   1.74418   1.74557   1.76631
 Alpha virt. eigenvalues --    1.76819   1.77837   1.77959   1.78258   1.79467
 Alpha virt. eigenvalues --    1.79756   1.80453   1.84226   1.92229   1.93072
 Alpha virt. eigenvalues --    1.94279   1.96791   1.96818   1.97591   2.00500
 Alpha virt. eigenvalues --    2.00787   2.01283   2.02971   2.07456   2.07745
 Alpha virt. eigenvalues --    2.11720   2.17722   2.18155   2.21110   2.22866
 Alpha virt. eigenvalues --    2.25481   2.27546   2.27895   2.31647   2.32285
 Alpha virt. eigenvalues --    2.32575   2.33536   2.33986   2.34322   2.34623
 Alpha virt. eigenvalues --    2.34790   2.34831   2.35532   2.35634   2.36299
 Alpha virt. eigenvalues --    2.37178   2.37472   2.55388   2.55813   2.56375
 Alpha virt. eigenvalues --    2.66978   2.68034   2.89573   2.92710   2.94352
 Alpha virt. eigenvalues --    2.94828   2.97573   2.98401   2.98913   3.01601
 Alpha virt. eigenvalues --    3.03970   3.05017   3.07273   3.07983   3.09247
 Alpha virt. eigenvalues --    3.09907   3.10622   3.19786   3.20596   3.26666
 Alpha virt. eigenvalues --    3.37832   3.38468   3.38897   3.50172   3.52982
 Alpha virt. eigenvalues --    3.54783   3.62185   3.62851   3.75076
  Beta  occ. eigenvalues --  -14.46399 -14.45689 -14.45596 -14.45583 -14.45561
  Beta  occ. eigenvalues --  -14.45416 -10.38567 -10.38552 -10.38483 -10.38304
  Beta  occ. eigenvalues --  -10.38158 -10.38125 -10.36953 -10.36282 -10.36167
  Beta  occ. eigenvalues --  -10.36152 -10.36129 -10.35987  -1.02914  -1.02111
  Beta  occ. eigenvalues --   -1.01968  -1.01122  -1.01035  -1.00585  -0.99720
  Beta  occ. eigenvalues --   -0.91482  -0.91214  -0.87249  -0.71694  -0.71421
  Beta  occ. eigenvalues --   -0.67869  -0.67641  -0.67114  -0.66959  -0.53342
  Beta  occ. eigenvalues --   -0.49438  -0.49339  -0.48588  -0.48453  -0.47363
  Beta  occ. eigenvalues --   -0.47255  -0.47219  -0.46744  -0.46200  -0.46067
  Beta  occ. eigenvalues --   -0.45539  -0.44654  -0.44611  -0.44511  -0.44441
  Beta  occ. eigenvalues --   -0.44408  -0.43918  -0.43303  -0.42991  -0.42555
  Beta  occ. eigenvalues --   -0.33883  -0.33726
  Beta virt. eigenvalues --   -0.08838   0.05461   0.05594   0.06775   0.07409
  Beta virt. eigenvalues --    0.07618   0.08811   0.11328   0.11694   0.11864
  Beta virt. eigenvalues --    0.12045   0.12453   0.14709   0.18718   0.18806
  Beta virt. eigenvalues --    0.21755   0.22079   0.25419   0.25614   0.26130
  Beta virt. eigenvalues --    0.26200   0.27967   0.29625   0.29814   0.31524
  Beta virt. eigenvalues --    0.31570   0.33060   0.34399   0.46477   0.46788
  Beta virt. eigenvalues --    0.49585   0.49943   0.51328   0.51623   0.53122
  Beta virt. eigenvalues --    0.53202   0.53859   0.54110   0.54480   0.56570
  Beta virt. eigenvalues --    0.59881   0.59963   0.60195   0.61328   0.61703
  Beta virt. eigenvalues --    0.63424   0.64037   0.69210   0.69322   0.70275
  Beta virt. eigenvalues --    0.71521   0.71902   0.72520   0.72729   0.73195
  Beta virt. eigenvalues --    0.73338   0.73577   0.73703   0.74373   0.74693
  Beta virt. eigenvalues --    0.74897   0.78758   0.78812   0.80001   0.81449
  Beta virt. eigenvalues --    0.81601   0.83837   0.84125   0.86403   0.87053
  Beta virt. eigenvalues --    0.92738   0.92992   0.93432   0.93515   0.93688
  Beta virt. eigenvalues --    0.94567   0.96221   0.98755   0.98864   0.99072
  Beta virt. eigenvalues --    0.99613   1.00955   1.01160   1.01985   1.02135
  Beta virt. eigenvalues --    1.03050   1.04979   1.06477   1.07070   1.07886
  Beta virt. eigenvalues --    1.11239   1.11523   1.14920   1.16717   1.17332
  Beta virt. eigenvalues --    1.17787   1.21450   1.22439   1.22815   1.24583
  Beta virt. eigenvalues --    1.32515   1.33597   1.33949   1.39113   1.39440
  Beta virt. eigenvalues --    1.42576   1.43459   1.44570   1.45260   1.45821
  Beta virt. eigenvalues --    1.55984   1.59733   1.66403   1.67880   1.67984
  Beta virt. eigenvalues --    1.68067   1.68362   1.68854   1.74347   1.74484
  Beta virt. eigenvalues --    1.76817   1.77009   1.77789   1.77892   1.78181
  Beta virt. eigenvalues --    1.79416   1.79670   1.80684   1.84143   1.92515
  Beta virt. eigenvalues --    1.93119   1.94328   1.97333   1.97363   1.97766
  Beta virt. eigenvalues --    2.00721   2.01096   2.01688   2.03605   2.07834
  Beta virt. eigenvalues --    2.08102   2.11967   2.18646   2.19078   2.22208
  Beta virt. eigenvalues --    2.23532   2.26099   2.28205   2.28546   2.32149
  Beta virt. eigenvalues --    2.32804   2.33238   2.34091   2.34513   2.34864
  Beta virt. eigenvalues --    2.35165   2.35277   2.35374   2.36089   2.36164
  Beta virt. eigenvalues --    2.36802   2.37765   2.38036   2.55541   2.56084
  Beta virt. eigenvalues --    2.56631   2.67561   2.68604   2.89669   2.92906
  Beta virt. eigenvalues --    2.94470   2.94957   2.97704   2.98521   2.99023
  Beta virt. eigenvalues --    3.02069   3.04445   3.05487   3.07472   3.08177
  Beta virt. eigenvalues --    3.09666   3.10337   3.11059   3.20009   3.20815
  Beta virt. eigenvalues --    3.26835   3.38048   3.38683   3.39090   3.50342
  Beta virt. eigenvalues --    3.53153   3.54951   3.62367   3.63030   3.75251
          Condensed to atoms (all electrons):
               1          2          3          4          5          6
     1  C    4.894351   0.562201   0.272841  -0.105002   0.285041  -0.094160
     2  C    0.562201   5.321542  -0.097430  -0.009434  -0.096729  -0.008076
     3  C    0.272841  -0.097430   4.889078   0.557295   0.275598  -0.097670
     4  C   -0.105002  -0.009434   0.557295   5.354949  -0.107411  -0.009263
     5  C    0.285041  -0.096729   0.275598  -0.107411   4.900651   0.558140
     6  C   -0.094160  -0.008076  -0.097670  -0.009263   0.558140   5.320948
     7  C    0.005457   0.390057   0.004493  -0.000349  -0.015735   0.001255
     8  N   -0.001661  -0.025025  -0.000042  -0.000001  -0.000349   0.000061
     9  C    0.004344   0.382321  -0.015331   0.001285   0.005724  -0.000271
    10  N   -0.001566  -0.024630  -0.000368   0.000063  -0.000006  -0.000001
    11  C   -0.015985   0.001138   0.008533   0.388293   0.004879  -0.000300
    12  N   -0.000327   0.000057  -0.001439  -0.026507  -0.000032  -0.000001
    13  C    0.004702  -0.000273   0.004107   0.379622  -0.014688   0.001140
    14  N   -0.000037  -0.000001  -0.001814  -0.023499  -0.000367   0.000054
    15  C    0.005398  -0.000268  -0.015519   0.001123   0.003728   0.384165
    16  N   -0.000003  -0.000001  -0.000411   0.000066  -0.001308  -0.024849
    17  C   -0.015098   0.001210   0.004963  -0.000287   0.004467   0.384828
    18  N   -0.000354   0.000071  -0.000019  -0.000001  -0.001288  -0.024714
               7          8          9         10         11         12
     1  C    0.005457  -0.001661   0.004344  -0.001566  -0.015985  -0.000327
     2  C    0.390057  -0.025025   0.382321  -0.024630   0.001138   0.000057
     3  C    0.004493  -0.000042  -0.015331  -0.000368   0.008533  -0.001439
     4  C   -0.000349  -0.000001   0.001285   0.000063   0.388293  -0.026507
     5  C   -0.015735  -0.000349   0.005724  -0.000006   0.004879  -0.000032
     6  C    0.001255   0.000061  -0.000271  -0.000001  -0.000300  -0.000001
     7  C    4.810336   0.925377  -0.033966   0.001523   0.000053   0.000001
     8  N    0.925377   6.081202   0.001306   0.000040   0.000000   0.000000
     9  C   -0.033966   0.001306   4.811399   0.931257   0.000225   0.000286
    10  N    0.001523   0.000040   0.931257   6.070748   0.000223  -0.000723
    11  C    0.000053   0.000000   0.000225   0.000223   4.828439   0.886409
    12  N    0.000001   0.000000   0.000286  -0.000723   0.886409   6.158734
    13  C   -0.000004  -0.000000   0.000045   0.000001  -0.031954   0.001477
    14  N   -0.000000  -0.000000   0.000000   0.000000   0.001460   0.000041
    15  C    0.000048   0.000001  -0.000003  -0.000000   0.000052   0.000000
    16  N    0.000000   0.000000  -0.000000  -0.000000   0.000001   0.000000
    17  C    0.000312   0.000134   0.000048   0.000000  -0.000004  -0.000000
    18  N    0.000364  -0.000734   0.000001   0.000000  -0.000000  -0.000000
              13         14         15         16         17         18
     1  C    0.004702  -0.000037   0.005398  -0.000003  -0.015098  -0.000354
     2  C   -0.000273  -0.000001  -0.000268  -0.000001   0.001210   0.000071
     3  C    0.004107  -0.001814  -0.015519  -0.000411   0.004963  -0.000019
     4  C    0.379622  -0.023499   0.001123   0.000066  -0.000287  -0.000001
     5  C   -0.014688  -0.000367   0.003728  -0.001308   0.004467  -0.001288
     6  C    0.001140   0.000054   0.384165  -0.024849   0.384828  -0.024714
     7  C   -0.000004  -0.000000   0.000048   0.000000   0.000312   0.000364
     8  N   -0.000000  -0.000000   0.000001   0.000000   0.000134  -0.000734
     9  C    0.000045   0.000000  -0.000003  -0.000000   0.000048   0.000001
    10  N    0.000001   0.000000  -0.000000  -0.000000   0.000000   0.000000
    11  C   -0.031954   0.001460   0.000052   0.000001  -0.000004  -0.000000
    12  N    0.001477   0.000041   0.000000   0.000000  -0.000000  -0.000000
    13  C    4.805649   0.943442   0.000310   0.000496   0.000043   0.000000
    14  N    0.943442   6.047157   0.000091  -0.000757   0.000001   0.000000
    15  C    0.000310   0.000091   4.807813   0.928714  -0.030481   0.001335
    16  N    0.000496  -0.000757   0.928714   6.079082   0.001416   0.000035
    17  C    0.000043   0.000001  -0.030481   0.001416   4.809464   0.923415
    18  N    0.000000   0.000000   0.001335   0.000035   0.923415   6.088099
          Atomic-Atomic Spin Densities.
               1          2          3          4          5          6
     1  C   -0.012093  -0.075175   0.035358  -0.007205   0.036380  -0.006805
     2  C   -0.075175   0.384541  -0.006950   0.001074  -0.006984   0.001091
     3  C    0.035358  -0.006950  -0.008942  -0.075823   0.036379  -0.006997
     4  C   -0.007205   0.001074  -0.075823   0.375184  -0.007173   0.001068
     5  C    0.036380  -0.006984   0.036379  -0.007173  -0.011330  -0.076080
     6  C   -0.006805   0.001091  -0.006997   0.001068  -0.076080   0.390921
     7  C   -0.000595   0.007350  -0.000107  -0.000009   0.000260  -0.000044
     8  N    0.000492  -0.004894   0.000007  -0.000000   0.000049  -0.000027
     9  C   -0.000639   0.006880   0.000201  -0.000048  -0.000109  -0.000008
    10  N    0.000536  -0.004793   0.000049  -0.000030   0.000008  -0.000000
    11  C    0.000248  -0.000049  -0.000472   0.009475  -0.000130  -0.000009
    12  N    0.000050  -0.000028   0.000545  -0.004906   0.000008  -0.000000
    13  C   -0.000103  -0.000008  -0.000637   0.006107   0.000215  -0.000041
    14  N    0.000006  -0.000000   0.000452  -0.004464   0.000045  -0.000026
    15  C   -0.000096  -0.000008   0.000220  -0.000050  -0.000641   0.007108
    16  N    0.000008  -0.000000   0.000051  -0.000032   0.000526  -0.004807
    17  C    0.000240  -0.000045  -0.000105  -0.000009  -0.000615   0.007404
    18  N    0.000049  -0.000029   0.000007  -0.000000   0.000504  -0.004838
               7          8          9         10         11         12
     1  C   -0.000595   0.000492  -0.000639   0.000536   0.000248   0.000050
     2  C    0.007350  -0.004894   0.006880  -0.004793  -0.000049  -0.000028
     3  C   -0.000107   0.000007   0.000201   0.000049  -0.000472   0.000545
     4  C   -0.000009  -0.000000  -0.000048  -0.000030   0.009475  -0.004906
     5  C    0.000260   0.000049  -0.000109   0.000008  -0.000130   0.000008
     6  C   -0.000044  -0.000027  -0.000008  -0.000000  -0.000009  -0.000000
     7  C   -0.064225  -0.002264  -0.000936   0.000050  -0.000002   0.000000
     8  N   -0.002264   0.098089   0.000075   0.000006  -0.000000   0.000000
     9  C   -0.000936   0.000075  -0.062496  -0.002122   0.000007   0.000008
    10  N    0.000050   0.000006  -0.002122   0.094099   0.000008   0.000037
    11  C   -0.000002  -0.000000   0.000007   0.000008  -0.075762  -0.003593
    12  N    0.000000   0.000000   0.000008   0.000037  -0.003593   0.117623
    13  C    0.000000  -0.000000  -0.000001   0.000000  -0.000904   0.000069
    14  N   -0.000000   0.000000  -0.000000   0.000000   0.000071   0.000007
    15  C   -0.000001   0.000000   0.000000  -0.000000  -0.000002  -0.000000
    16  N   -0.000000   0.000000  -0.000000   0.000000   0.000000   0.000000
    17  C    0.000007   0.000008  -0.000002  -0.000000   0.000000  -0.000000
    18  N    0.000007   0.000033   0.000000   0.000000  -0.000000   0.000000
              13         14         15         16         17         18
     1  C   -0.000103   0.000006  -0.000096   0.000008   0.000240   0.000049
     2  C   -0.000008  -0.000000  -0.000008  -0.000000  -0.000045  -0.000029
     3  C   -0.000637   0.000452   0.000220   0.000051  -0.000105   0.000007
     4  C    0.006107  -0.004464  -0.000050  -0.000032  -0.000009  -0.000000
     5  C    0.000215   0.000045  -0.000641   0.000526  -0.000615   0.000504
     6  C   -0.000041  -0.000026   0.007108  -0.004807   0.007404  -0.004838
     7  C    0.000000  -0.000000  -0.000001  -0.000000   0.000007   0.000007
     8  N   -0.000000   0.000000   0.000000   0.000000   0.000008   0.000033
     9  C   -0.000001  -0.000000   0.000000  -0.000000  -0.000002   0.000000
    10  N    0.000000   0.000000  -0.000000   0.000000  -0.000000   0.000000
    11  C   -0.000904   0.000071  -0.000002   0.000000   0.000000  -0.000000
    12  N    0.000069   0.000007  -0.000000   0.000000  -0.000000   0.000000
    13  C   -0.056938  -0.001611   0.000006   0.000006  -0.000001  -0.000000
    14  N   -0.001611   0.083558   0.000008   0.000032   0.000000   0.000000
    15  C    0.000006   0.000008  -0.063606  -0.002177  -0.001098   0.000053
    16  N    0.000006   0.000032  -0.002177   0.095497   0.000043   0.000006
    17  C   -0.000001   0.000000  -0.001098   0.000043  -0.065278  -0.002358
    18  N   -0.000000   0.000000   0.000053   0.000006  -0.002358   0.098591
 Mulliken charges and spin densities:
               1          2
     1  C    0.199858  -0.029344
     2  C   -0.396731   0.301974
     3  C    0.213133  -0.026763
     4  C   -0.400943   0.293158
     5  C    0.199685  -0.028687
     6  C   -0.391288   0.307909
     7  C   -0.089222  -0.060508
     8  N    0.019692   0.091575
     9  C   -0.088669  -0.059189
    10  N    0.023440   0.087847
    11  C   -0.071462  -0.071114
    12  N   -0.017978   0.109819
    13  C   -0.094116  -0.053843
    14  N    0.034228   0.078080
    15  C   -0.086507  -0.060284
    16  N    0.017519   0.089153
    17  C   -0.084431  -0.061809
    18  N    0.013791   0.092026
 Sum of Mulliken charges =  -1.00000   1.00000
 Mulliken charges and spin densities with hydrogens summed into heavy atoms:
               1          2
     1  C    0.199858  -0.029344
     2  C   -0.396731   0.301974
     3  C    0.213133  -0.026763
     4  C   -0.400943   0.293158
     5  C    0.199685  -0.028687
     6  C   -0.391288   0.307909
     7  C   -0.089222  -0.060508
     8  N    0.019692   0.091575
     9  C   -0.088669  -0.059189
    10  N    0.023440   0.087847
    11  C   -0.071462  -0.071114
    12  N   -0.017978   0.109819
    13  C   -0.094116  -0.053843
    14  N    0.034228   0.078080
    15  C   -0.086507  -0.060284
    16  N    0.017519   0.089153
    17  C   -0.084431  -0.061809
    18  N    0.013791   0.092026
 Electronic spatial extent (au):  <R**2>=          39064.9896
 Charge=             -1.0000 electrons
 Dipole moment (field-independent basis, Debye):
    X=             42.7064    Y=              8.1492    Z=             -4.9618  Tot=             43.7592
 Quadrupole moment (field-independent basis, Debye-Ang):
   XX=           -550.5683   YY=           -182.7539   ZZ=           -104.5769
   XY=            -71.9948   XZ=             44.8365   YZ=              1.3674
 Traceless Quadrupole moment (field-independent basis, Debye-Ang):
   XX=           -271.2686   YY=             96.5458   ZZ=            174.7228
   XY=            -71.9948   XZ=             44.8365   YZ=              1.3674
 Octapole moment (field-independent basis, Debye-Ang**2):
  XXX=           7952.8588  YYY=            964.4686  ZZZ=           -312.4164  XYY=           1631.7815
  XXY=            855.2758  XXZ=           -586.6469  XZZ=            935.6557  YZZ=            165.0104
  YYZ=           -158.5884  XYZ=            -13.3744
 Hexadecapole moment (field-independent basis, Debye-Ang**3):
 XXXX=        -116150.0776 YYYY=          -7821.0233 ZZZZ=           -767.2883 XXXY=         -11479.2993
 XXXZ=           8546.2772 YYYX=          -8605.5655 YYYZ=            631.4694 ZZZX=           2809.6400
 ZZZY=            361.5862 XXYY=         -16266.5559 XXZZ=          -9116.5773 YYZZ=           -978.5418
 XXYZ=            274.3883 YYXZ=           1435.5356 ZZXY=          -1474.7704
 N-N= 9.560130762919D+02 E-N=-3.747375526763D+03  KE= 7.769937073475D+02
                          Isotropic Fermi Contact Couplings
        Atom                 a.u.       MegaHertz       Gauss      10(-4) cm-1
     1  C(13)             -0.01432     -16.09792      -5.74414      -5.36969
     2  C(13)              0.04973      55.90708      19.94904      18.64860
     3  C(13)             -0.01381     -15.52716      -5.54048      -5.17930
     4  C(13)              0.04786      53.80678      19.19960      17.94801
     5  C(13)             -0.01439     -16.17411      -5.77133      -5.39510
     6  C(13)              0.05120      57.55936      20.53861      19.19974
     7  C(13)             -0.03029     -34.04665     -12.14869     -11.35674
     8  N(14)              0.02111       6.82053       2.43374       2.27509
     9  C(13)             -0.02999     -33.71541     -12.03050     -11.24625
    10  N(14)              0.02016       6.51249       2.32382       2.17233
    11  C(13)             -0.03271     -36.76933     -13.12021     -12.26493
    12  N(14)              0.02598       8.39451       2.99537       2.80011
    13  C(13)             -0.02846     -31.99692     -11.41730     -10.67303
    14  N(14)              0.01773       5.72789       2.04386       1.91062
    15  C(13)             -0.03059     -34.38816     -12.27055     -11.47066
    16  N(14)              0.02046       6.61115       2.35902       2.20524
    17  C(13)             -0.03099     -34.83846     -12.43123     -11.62086
    18  N(14)              0.02121       6.85432       2.44579       2.28636
 --------------------------------------------------------
       Center         ----  Spin Dipole Couplings  ----
                      3XX-RR        3YY-RR        3ZZ-RR
 --------------------------------------------------------
     1   Atom       -0.011681      0.017810     -0.006129
     2   Atom       -0.157089     -0.154054      0.311143
     3   Atom        0.010380     -0.004773     -0.005606
     4   Atom       -0.153109     -0.146770      0.299879
     5   Atom        0.009785     -0.005204     -0.004581
     6   Atom       -0.161671     -0.157468      0.319140
     7   Atom        0.030301      0.006817     -0.037118
     8   Atom       -0.093259     -0.075510      0.168769
     9   Atom        0.029751      0.005974     -0.035725
    10   Atom       -0.090927     -0.071351      0.162277
    11   Atom        0.034418      0.009634     -0.044051
    12   Atom       -0.108819     -0.089045      0.197864
    13   Atom       -0.002295      0.033986     -0.031690
    14   Atom       -0.062228     -0.081969      0.144198
    15   Atom       -0.002762      0.039044     -0.036282
    16   Atom       -0.070182     -0.096020      0.166202
    17   Atom        0.028858      0.008740     -0.037598
    18   Atom       -0.091984     -0.078978      0.170962
 --------------------------------------------------------
                        XY            XZ            YZ
 --------------------------------------------------------
     1   Atom        0.000206     -0.002518      0.001493
     2   Atom       -0.000166      0.002479     -0.049245
     3   Atom       -0.012861      0.000284      0.000809
     4   Atom        0.000156      0.008141     -0.047892
     5   Atom        0.012734      0.000672      0.000781
     6   Atom       -0.000914     -0.000251     -0.037754
     7   Atom       -0.018216     -0.002672      0.004808
     8   Atom        0.011087      0.007297     -0.027655
     9   Atom        0.017220      0.001804      0.004560
    10   Atom       -0.010421     -0.001752     -0.025931
    11   Atom        0.022269      0.000801      0.005233
    12   Atom       -0.017470      0.004306     -0.029965
    13   Atom        0.000426     -0.000319      0.007344
    14   Atom       -0.000953      0.002727     -0.028468
    15   Atom       -0.001384      0.000042      0.005781
    16   Atom        0.002133     -0.000813     -0.018005
    17   Atom       -0.019273     -0.001467      0.003556
    18   Atom        0.013163     -0.000219     -0.018422
 --------------------------------------------------------


 ---------------------------------------------------------------------------------
              Anisotropic Spin Dipole Couplings in Principal Axis System
 ---------------------------------------------------------------------------------

       Atom             a.u.   MegaHertz   Gauss  10(-4) cm-1        Axes

              Baa    -0.0127    -1.700    -0.607    -0.567  0.9311 -0.0241  0.3639
     1 C(13)  Bbb    -0.0052    -0.702    -0.251    -0.234 -0.3647 -0.0570  0.9294
              Bcc     0.0179     2.402     0.857     0.801  0.0017  0.9981  0.0618
 
              Baa    -0.1592   -21.365    -7.624    -7.127 -0.0439  0.9936  0.1043
     2 C(13)  Bbb    -0.1571   -21.081    -7.522    -7.032  0.9990  0.0442 -0.0006
              Bcc     0.3163    42.446    15.146    14.158  0.0052 -0.1041  0.9946
 
              Baa    -0.0122    -1.641    -0.586    -0.547  0.4917  0.8616 -0.1264
     3 C(13)  Bbb    -0.0055    -0.738    -0.263    -0.246  0.0684  0.1064  0.9920
              Bcc     0.0177     2.379     0.849     0.794  0.8681 -0.4964 -0.0066
 
              Baa    -0.1538   -20.636    -7.363    -6.883  0.8857 -0.4597 -0.0644
     4 C(13)  Bbb    -0.1513   -20.305    -7.245    -6.773  0.4638  0.8818  0.0852
              Bcc     0.3051    40.941    14.609    13.657  0.0176 -0.1054  0.9943
 
              Baa    -0.0125    -1.677    -0.599    -0.560 -0.4947  0.8680 -0.0436
     5 C(13)  Bbb    -0.0046    -0.619    -0.221    -0.206 -0.0604  0.0157  0.9980
              Bcc     0.0171     2.296     0.819     0.766  0.8670  0.4963  0.0447
 
              Baa    -0.1622   -21.762    -7.765    -7.259  0.8809  0.4719  0.0375
     6 C(13)  Bbb    -0.1599   -21.462    -7.658    -7.159 -0.4734  0.8781  0.0690
              Bcc     0.3221    43.224    15.424    14.418 -0.0004 -0.0785  0.9969
 
              Baa    -0.0376    -5.052    -1.803    -1.685  0.0115 -0.1028  0.9946
     7 C(13)  Bbb    -0.0029    -0.384    -0.137    -0.128  0.4849  0.8705  0.0844
              Bcc     0.0405     5.436     1.940     1.813  0.8745 -0.4813 -0.0599
 
              Baa    -0.0999    -3.855    -1.375    -1.286  0.8745 -0.4795 -0.0731
     8 N(14)  Bbb    -0.0721    -2.779    -0.992    -0.927  0.4845  0.8706  0.0853
              Bcc     0.1720     6.634     2.367     2.213  0.0227 -0.1100  0.9937
 
              Baa    -0.0362    -4.860    -1.734    -1.621  0.0010 -0.1078  0.9942
     9 C(13)  Bbb    -0.0028    -0.370    -0.132    -0.123 -0.4701  0.8774  0.0956
              Bcc     0.0390     5.230     1.866     1.744  0.8826  0.4675  0.0499
 
              Baa    -0.0960    -3.704    -1.322    -1.235  0.9004  0.4323  0.0495
    10 N(14)  Bbb    -0.0691    -2.665    -0.951    -0.889 -0.4351  0.8951  0.0970
              Bcc     0.1651     6.368     2.272     2.124 -0.0024 -0.1089  0.9940
 
              Baa    -0.0446    -5.982    -2.135    -1.996  0.0192 -0.1039  0.9944
    11 C(13)  Bbb    -0.0031    -0.409    -0.146    -0.137 -0.5100  0.8545  0.0991
              Bcc     0.0476     6.392     2.281     2.132  0.8600  0.5090  0.0366
 
              Baa    -0.1194    -4.607    -1.644    -1.537  0.8497  0.5260  0.0381
    12 N(14)  Bbb    -0.0816    -3.149    -1.124    -1.050 -0.5270  0.8441  0.0986
              Bcc     0.2011     7.755     2.767     2.587  0.0197 -0.1039  0.9944
 
              Baa    -0.0325    -4.362    -1.556    -1.455  0.0120 -0.1099  0.9939
    13 C(13)  Bbb    -0.0023    -0.308    -0.110    -0.103  0.9999 -0.0091 -0.0131
              Bcc     0.0348     4.670     1.666     1.558  0.0105  0.9939  0.1097
 
              Baa    -0.0855    -3.298    -1.177    -1.100  0.0262  0.9921  0.1226
    14 N(14)  Bbb    -0.0623    -2.401    -0.857    -0.801  0.9996 -0.0244 -0.0166
              Bcc     0.1478     5.699     2.034     1.901  0.0134 -0.1230  0.9923
 
              Baa    -0.0367    -4.928    -1.758    -1.644 -0.0044 -0.0762  0.9971
    15 C(13)  Bbb    -0.0028    -0.377    -0.134    -0.126  0.9995  0.0321  0.0068
              Bcc     0.0395     5.305     1.893     1.769 -0.0325  0.9966  0.0760
 
              Baa    -0.0974    -3.757    -1.341    -1.253 -0.0759  0.9948  0.0677
    16 N(14)  Bbb    -0.0700    -2.701    -0.964    -0.901  0.9971  0.0755  0.0092
              Bcc     0.1674     6.458     2.304     2.154 -0.0040 -0.0682  0.9977
 
              Baa    -0.0379    -5.082    -1.813    -1.695 -0.0001 -0.0761  0.9971
    17 C(13)  Bbb    -0.0028    -0.375    -0.134    -0.125  0.5212  0.8510  0.0650
              Bcc     0.0407     5.456     1.947     1.820  0.8534 -0.5197 -0.0396
 
              Baa    -0.1005    -3.876    -1.383    -1.293  0.8385 -0.5437 -0.0362
    18 N(14)  Bbb    -0.0718    -2.770    -0.988    -0.924  0.5448  0.8361  0.0639
              Bcc     0.1723     6.646     2.371     2.217 -0.0045 -0.0733  0.9973
 

 ---------------------------------------------------------------------------------

   1 Symmetry operations used in ECPInt.
 ECPInt:  NShTT=    5886 NPrTT=   23670 LenC2=    5392 LenP2D=   14878.
 LDataN:  DoStor=T MaxTD1= 5 Len=  102
 D1PCM: PCM CHGder 1st derivatives, ID1Alg=3 FixD1E=F DoIter=F DoCFld=F I1PDM=0.
 Calling FoFJK, ICntrl=      2127 FMM=F ISym2X=0 I1Cent= 0 IOpClX= 1 NMat=1 NMatS=1 NMatT=0.
 -------------------------------------------------------------------
 Center     Atomic                   Forces (Hartrees/Bohr)
 Number     Number              X              Y              Z
 -------------------------------------------------------------------
      1        6          -0.001279648   -0.108892248   -0.010993969
      2        6           0.002809964    0.044962662    0.004786805
      3        6          -0.106361659    0.061536099    0.007142003
      4        6           0.050652966   -0.041184567   -0.005479997
      5        6           0.087959361    0.052644998    0.004586184
      6        6          -0.039661663   -0.023442334   -0.001866839
      7        6           0.042799964   -0.023598597   -0.002508373
      8        7          -0.024239543    0.013288920    0.001508204
      9        6          -0.051190767   -0.030675264   -0.003146099
     10        7           0.030161859    0.017011586    0.001743145
     11        6           0.032972804    0.023725470    0.002175762
     12        7          -0.048649236   -0.030780706   -0.002344605
     13        6          -0.001728593    0.090463365    0.010126227
     14        7          -0.000394276   -0.060334235   -0.006888641
     15        6           0.001584297    0.059946324    0.004391279
     16        7           0.000195401   -0.032349204   -0.002449234
     17        6           0.041931433   -0.022069354   -0.001517660
     18        7          -0.017562665    0.009747085    0.000735806
 -------------------------------------------------------------------
 Cartesian Forces:  Max     0.108892248 RMS     0.038087694

 GradGradGradGradGradGradGradGradGradGradGradGradGradGradGradGradGradGrad
 Berny optimization.
 Search for a local minimum.
 Step number   1 out of a maximum of    2
 All quantities printed in internal units (Hartrees-Bohrs-Radians)
 Second derivative matrix not updated -- first step.
 ITU=  0
     Eigenvalues ---    0.00227   0.00242   0.00257   0.00294   0.00295
     Eigenvalues ---    0.01054   0.01524   0.01656   0.01954   0.02008
     Eigenvalues ---    0.04507   0.04635   0.05207   0.05342   0.10011
     Eigenvalues ---    0.18256   0.19449   0.20156   0.23606   0.24142
     Eigenvalues ---    0.24563   0.25254   0.30320   0.30512   0.43579
     Eigenvalues ---    0.66936   0.68078   0.71579   0.75615   0.78703
     Eigenvalues ---    0.98475   0.99563   1.05962   1.57519   1.60953
     Eigenvalues ---    1.89872   2.51834   2.90732   2.95318   2.97931
     Eigenvalues ---    2.99734   3.12846   4.64791   4.88662   9.41502
     Eigenvalues ---   13.24094  18.63985  75.35415
 Quadratic step=3.628D-01 exceeds max=3.000D-01 adjusted using Lamda=-1.587D-02.
 Angle between NR and scaled steps=  14.14 degrees.
 Angle between quadratic step and forces=  59.17 degrees.
 Linear search not attempted -- first point.
 B after Tr=    -0.000117   -0.000421    0.000034
         Rot=    1.000000    0.000004    0.000002    0.000009 Ang=   0.00 deg.
 Variable       Old X    -DE/DX   Delta X   Delta X   Delta X     New X
                                 (Linear)    (Quad)   (Total)
    X1      -16.89130  -0.00128   0.00000  -0.00795  -0.00811 -16.89941
    Y1       -1.62214  -0.10889   0.00000  -0.08367  -0.08377  -1.70591
    Z1        2.10474  -0.01099   0.00000  -0.00792  -0.00793   2.09681
    X2      -16.90632   0.00281   0.00000  -0.00070  -0.00081 -16.90713
    Y2        0.91530   0.04496   0.00000  -0.03948  -0.03957   0.87573
    Z2        2.35827   0.00479   0.00000  -0.00112  -0.00115   2.35711
    X3      -15.49159  -0.10636   0.00000  -0.07515  -0.07535 -15.56694
    Y3       -4.04900   0.06154   0.00000   0.04087   0.04075  -4.00825
    Z3        1.85818   0.00714   0.00000   0.00286   0.00286   1.86104
    X4      -13.30716   0.05065   0.00000  -0.01237  -0.01259 -13.31975
    Y4       -5.30173  -0.04118   0.00000   0.01050   0.01033  -5.29140
    Z4        1.70319  -0.00548   0.00000  -0.00273  -0.00270   1.70048
    X5      -18.29570   0.08796   0.00000   0.06099   0.06079 -18.23491
    Y5       -4.04695   0.05264   0.00000   0.04065   0.04057  -4.00637
    Z5        1.87848   0.00459   0.00000   0.00346   0.00346   1.88193
    X6      -20.51578  -0.03966   0.00000   0.03115   0.03093 -20.48485
    Y6       -5.31502  -0.02344   0.00000   0.01988   0.01985  -5.29518
    Z6        1.77451  -0.00187   0.00000   0.00228   0.00228   1.77678
    X7      -19.28274   0.04280   0.00000   0.05137   0.05129 -19.23145
    Y7        2.29337  -0.02360   0.00000  -0.05239  -0.05244   2.24093
    Z7        2.52795  -0.00251   0.00000  -0.00536  -0.00542   2.52253
    X8      -21.17307  -0.02424   0.00000   0.03977   0.03971 -21.13336
    Y8        3.34620   0.01329   0.00000  -0.03008  -0.03010   3.31610
    Z8        2.67929   0.00151   0.00000  -0.00572  -0.00578   2.67351
    X9      -14.52413  -0.05119   0.00000  -0.05534  -0.05542 -14.57956
    Y9        2.31385  -0.03068   0.00000  -0.06986  -0.06999   2.24386
    Z9        2.50173  -0.00315   0.00000  -0.00693  -0.00696   2.49477
   X10      -12.58614   0.03016   0.00000  -0.04873  -0.04880 -12.63493
   Y10        3.27039   0.01701   0.00000  -0.02514  -0.02531   3.24508
   Z10        2.60923   0.00174   0.00000  -0.00649  -0.00653   2.60270
   X11      -10.91060   0.03297   0.00000  -0.04839  -0.04859 -10.95919
   Y11       -3.98322   0.02373   0.00000  -0.00480  -0.00501  -3.98823
   Z11        1.79310   0.00218   0.00000   0.00065   0.00068   1.79378
   X12       -9.00081  -0.04865   0.00000  -0.08221  -0.08238  -9.08319
   Y12       -2.81681  -0.03078   0.00000  -0.04502  -0.04526  -2.86207
   Z12        1.87789  -0.00234   0.00000   0.00033   0.00035   1.87825
   X13      -13.26037  -0.00173   0.00000  -0.01837  -0.01863 -13.27900
   Y13       -8.07343   0.09046   0.00000   0.08989   0.08972  -7.98371
   Z13        1.39517   0.01013   0.00000   0.00914   0.00919   1.40436
   X14      -13.29807  -0.00039   0.00000  -0.00742  -0.00772 -13.30579
   Y14      -10.20296  -0.06033   0.00000   0.04705   0.04688 -10.15607
   Z14        1.14079  -0.00689   0.00000   0.01004   0.01010   1.15089
   X15      -20.53998   0.00158   0.00000   0.03075   0.03048 -20.50950
   Y15       -8.07917   0.05995   0.00000   0.08981   0.08978  -7.98939
   Z15        1.56279   0.00439   0.00000   0.00514   0.00517   1.56795
   X16      -20.40313   0.00020   0.00000  -0.00324  -0.00355 -20.40667
   Y16      -10.23500  -0.03235   0.00000   0.06371   0.06367 -10.17133
   Z16        1.41015  -0.00245   0.00000  -0.00139  -0.00136   1.40879
   X17      -22.92673   0.04193   0.00000   0.08850   0.08831 -22.83842
   Y17       -3.95671  -0.02207   0.00000  -0.01778  -0.01777  -3.97448
   Z17        1.87880  -0.00152   0.00000   0.00102   0.00100   1.87981
   X18      -24.76203  -0.01756   0.00000   0.06063   0.06045 -24.70158
   Y18       -2.79317   0.00975   0.00000  -0.03238  -0.03234  -2.82550
   Z18        1.96013   0.00074   0.00000   0.00278   0.00275   1.96287
         Item               Value     Threshold  Converged?
 Maximum Force            0.108892     0.000450     NO 
 RMS     Force            0.038088     0.000300     NO 
 Maximum Displacement     0.089778     0.001800     NO 
 RMS     Displacement     0.040830     0.001200     NO 
 Predicted change in Energy=-2.223275D-02
 GradGradGradGradGradGradGradGradGradGradGradGradGradGradGradGradGradGrad

 Unable to Open any file for archive entry.
 1\1\GINC-X10P1N4\Force\UwB97XD\def2SVP\C12N6(1-,2)\MAYUMIAO\11-Oct-202
 4\0\\# wb97xd def2svp scrf=(smd,solvent=acetonitrile) g09default scf=(
 xqc,maxcycle=64) force guess=read nosymm\\Title Card\\-1,2\C,-8.938490
 47,-0.85839958,1.1137803\C,-8.94643779,0.48435776,1.24794064\C,-8.1977
 9527,-2.14263667,0.98330689\C,-7.0418437,-2.80555443,0.90128831\C,-9.6
 816692,-2.14155196,0.99404696\C,-10.85648521,-2.8125896,0.93902821\C,-
 10.20398407,1.21359912,1.33773188\N,-11.20430594,1.77073089,1.4178199\
 C,-7.68583985,1.22443614,1.32385667\N,-6.66029598,1.73061675,1.3807472
 5\C,-5.77364032,-2.10782949,0.94886829\N,-4.76302177,-1.49058942,0.993
 73825\C,-7.0170842,-4.27227394,0.73829089\N,-7.03703462,-5.39917339,0.
 60367785\C,-10.8692913,-4.27531031,0.82699175\N,-10.79686979,-5.416128
 14,0.74621679\C,-12.13230268,-2.09380235,0.99422029\N,-13.10350242,-1.
 47807926,1.03725371\\Version=ES64L-G16RevC.01\HF=-784.8352128\S2=0.780
 313\S2-1=0.\S2A=0.75073\RMSD=8.121e-09\RMSF=3.809e-02\Dipole=-0.089902
 4,-0.0346257,-0.0068108\Quadrupole=-201.6815676,71.7794551,129.9021125
 ,-53.5263784,33.334834,1.0166084\PG=C01 [X(C12N6)]\\@
 The archive entry for this job was punched.


 We're simply so accustomed to the marvels of everyday thought
 that we never wonder about it.
 -- Marvin Minsky in "Why people think computers are smart"
 Job cpu time:       0 days  0 hours 13 minutes 41.9 seconds.
 Elapsed time:       0 days  0 hours  0 minutes 30.8 seconds.
 File lengths (MBytes):  RWF=    174 Int=      0 D2E=      0 Chk=      9 Scr=      1
 Normal termination of Gaussian 16 at Fri Oct 11 15:59:47 2024.
