 Entering Gaussian System, Link 0=g16
 Input=JOBS/36_B.gjf
 Output=JOBS/36_B.log
 Initial command:
 /data/app/gaussian/C01-avx2//g16/l1.exe "/tmp/Gau-2547662.inp" -scrdir="/tmp/"
 Entering Link 1 = /data/app/gaussian/C01-avx2//g16/l1.exe PID=   2547663.
  
 Copyright (c) 1988-2019, Gaussian, Inc.  All Rights Reserved.
  
 This is part of the Gaussian(R) 16 program.  It is based on
 the Gaussian(R) 09 system (copyright 2009, Gaussian, Inc.),
 the Gaussian(R) 03 system (copyright 2003, Gaussian, Inc.),
 the Gaussian(R) 98 system (copyright 1998, Gaussian, Inc.),
 the Gaussian(R) 94 system (copyright 1995, Gaussian, Inc.),
 the Gaussian 92(TM) system (copyright 1992, Gaussian, Inc.),
 the Gaussian 90(TM) system (copyright 1990, Gaussian, Inc.),
 the Gaussian 88(TM) system (copyright 1988, Gaussian, Inc.),
 the Gaussian 86(TM) system (copyright 1986, Carnegie Mellon
 University), and the Gaussian 82(TM) system (copyright 1983,
 Carnegie Mellon University). Gaussian is a federally registered
 trademark of Gaussian, Inc.
  
 This software contains proprietary and confidential information,
 including trade secrets, belonging to Gaussian, Inc.
  
 This software is provided under written license and may be
 used, copied, transmitted, or stored only in accord with that
 written license.
  
 The following legend is applicable only to US Government
 contracts under FAR:
  
                    RESTRICTED RIGHTS LEGEND
  
 Use, reproduction and disclosure by the US Government is
 subject to restrictions as set forth in subparagraphs (a)
 and (c) of the Commercial Computer Software - Restricted
 Rights clause in FAR 52.227-19.
  
 Gaussian, Inc.
 340 Quinnipiac St., Bldg. 40, Wallingford CT 06492
  
  
 ---------------------------------------------------------------
 Warning -- This program may not be used in any manner that
 competes with the business of Gaussian, Inc. or will provide
 assistance to any competitor of Gaussian, Inc.  The licensee
 of this program is prohibited from giving any competitor of
 Gaussian, Inc. access to this program.  By using this program,
 the user acknowledges that Gaussian, Inc. is engaged in the
 business of creating and licensing software in the field of
 computational chemistry and represents and warrants to the
 licensee that it is not a competitor of Gaussian, Inc. and that
 it will not use this program in any manner prohibited above.
 ---------------------------------------------------------------
  

 Cite this work as:
 Gaussian 16, Revision C.01,
 M. J. Frisch, G. W. Trucks, H. B. Schlegel, G. E. Scuseria, 
 M. A. Robb, J. R. Cheeseman, G. Scalmani, V. Barone, 
 G. A. Petersson, H. Nakatsuji, X. Li, M. Caricato, A. V. Marenich, 
 J. Bloino, B. G. Janesko, R. Gomperts, B. Mennucci, H. P. Hratchian, 
 J. V. Ortiz, A. F. Izmaylov, J. L. Sonnenberg, D. Williams-Young, 
 F. Ding, F. Lipparini, F. Egidi, J. Goings, B. Peng, A. Petrone, 
 T. Henderson, D. Ranasinghe, V. G. Zakrzewski, J. Gao, N. Rega, 
 G. Zheng, W. Liang, M. Hada, M. Ehara, K. Toyota, R. Fukuda, 
 J. Hasegawa, M. Ishida, T. Nakajima, Y. Honda, O. Kitao, H. Nakai, 
 T. Vreven, K. Throssell, J. A. Montgomery, Jr., J. E. Peralta, 
 F. Ogliaro, M. J. Bearpark, J. J. Heyd, E. N. Brothers, K. N. Kudin, 
 V. N. Staroverov, T. A. Keith, R. Kobayashi, J. Normand, 
 K. Raghavachari, A. P. Rendell, J. C. Burant, S. S. Iyengar, 
 J. Tomasi, M. Cossi, J. M. Millam, M. Klene, C. Adamo, R. Cammi, 
 J. W. Ochterski, R. L. Martin, K. Morokuma, O. Farkas, 
 J. B. Foresman, and D. J. Fox, Gaussian, Inc., Wallingford CT, 2019.
 
 ******************************************
 Gaussian 16:  ES64L-G16RevC.01  3-Jul-2019
                11-Oct-2024 
 ******************************************
 %chk=b.chk
 %nprocshared=28
 Will use up to   28 processors via shared memory.
 %mem=48gb
 ----------------------------------------------------------------------
 # wb97xd def2svp scrf=(smd,solvent=acetonitrile) g09default scf=(xqc,m
 axcycle=64) force guess=read nosymm
 ----------------------------------------------------------------------
 1/10=7,30=1,38=1,158=3,167=1/1,3;
 2/12=2,15=1,17=6,18=5,40=1/2;
 3/5=43,7=101,11=2,25=1,27=10,30=1,70=32201,71=1,72=2,74=-58,75=-4,116=-2,158=3/1,2,3;
 4/5=1,60=-1/1;
 5/5=2,7=64,8=3,13=1,38=6,53=2,87=10/2,8;
 6/7=2,8=2,9=2,10=2,28=1,87=10/1;
 7/29=1,30=1,87=10/1,2,3,16;
 1/10=7,30=1,158=3,167=1/3;
 99//99;
 Using 2006 physical constants.
 ----------
 Title Card
 ----------
 Symbolic Z-matrix:
 Charge = -1 Multiplicity = 2
 6                    -8.93767  -0.87338   1.11334 
 6                    -8.94492   0.4938    1.24808 
 6                    -8.2252   -2.12667   0.98207 
 6                    -7.02537  -2.81758   0.90078 
 6                    -9.66442  -2.13298   0.99533 
 6                    -10.86429  -2.81585   0.93915 
 6                    -10.18607   1.21286   1.33913 
 7                    -11.19153   1.76309   1.4161 
 6                    -7.70504   1.22312   1.32266 
 7                    -6.67481   1.71913   1.37985 
 6                    -5.78089  -2.12495   0.94774 
 7                    -4.77789  -1.4918    0.99407 
 6                    -7.01381  -4.25656   0.74003 
 7                    -7.03485  -5.38752   0.60625 
 6                    -10.87149  -4.25852   0.82944 
 7                    -10.80082  -5.40292   0.74606 
 6                    -12.11771  -2.11089   0.9911 
 7                    -13.0931  -1.48256   1.03761 
 

 GradGradGradGradGradGradGradGradGradGradGradGradGradGradGradGradGradGrad
 Berny optimization.
 Initialization pass.
 Trust Radius=3.00D-01 FncErr=1.00D-07 GrdErr=1.00D-07 EigMax=2.50D+02 EigMin=1.00D-04
 Number of steps in this run=      2 maximum allowed number of steps=      2.
 GradGradGradGradGradGradGradGradGradGradGradGradGradGradGradGradGradGrad

                          Input orientation:                          
 ---------------------------------------------------------------------
 Center     Atomic      Atomic             Coordinates (Angstroms)
 Number     Number       Type             X           Y           Z
 ---------------------------------------------------------------------
      1          6           0       -8.937665   -0.873384    1.113340
      2          6           0       -8.944924    0.493805    1.248081
      3          6           0       -8.225201   -2.126673    0.982073
      4          6           0       -7.025369   -2.817582    0.900785
      5          6           0       -9.664419   -2.132979    0.995330
      6          6           0      -10.864293   -2.815846    0.939153
      7          6           0      -10.186072    1.212863    1.339131
      8          7           0      -11.191531    1.763086    1.416098
      9          6           0       -7.705037    1.223118    1.322658
     10          7           0       -6.674809    1.719127    1.379849
     11          6           0       -5.780891   -2.124949    0.947736
     12          7           0       -4.777894   -1.491795    0.994074
     13          6           0       -7.013813   -4.256564    0.740032
     14          7           0       -7.034854   -5.387518    0.606249
     15          6           0      -10.871491   -4.258518    0.829442
     16          7           0      -10.800820   -5.402918    0.746062
     17          6           0      -12.117708   -2.110893    0.991104
     18          7           0      -13.093102   -1.482557    1.037608
 ---------------------------------------------------------------------
                    Distance matrix (angstroms):
                    1          2          3          4          5
     1  C    0.000000
     2  C    1.373832   0.000000
     3  C    1.447608   2.730506   0.000000
     4  C    2.735317   3.843252   1.386924   0.000000
     5  C    1.458999   2.735242   1.439293   2.728040   0.000000
     6  C    2.741421   3.838385   2.727931   3.839116   1.381723
     7  C    2.441707   1.437284   3.889089   5.140689   3.403672
     8  N    3.481745   2.585836   4.910979   6.213290   4.205763
     9  C    2.441006   1.440409   3.407003   4.119124   3.899963
    10  N    3.451472   2.583060   4.165587   4.575382   4.891252
    11  C    3.399862   4.118152   2.444551   1.425016   3.883828
    12  N    4.207178   4.622906   3.505301   2.611045   4.928411
    13  C    3.909792   5.152990   2.462211   1.447980   3.405951
    14  N    4.924961   6.216935   3.491601   2.586777   4.202145
    15  C    3.908889   5.145045   3.401604   4.107802   2.449991
    16  N    4.911509   6.202235   4.174123   4.578420   3.470741
    17  C    3.414534   4.113034   3.892550   5.141934   2.453393
    18  N    4.200534   4.599749   4.910645   6.214370   3.490087
                    6          7          8          9         10
     6  C    0.000000
     7  C    4.104931   0.000000
     8  N    4.615319   1.148745   0.000000
     9  C    5.142101   2.481111   3.529297   0.000000
    10  N    6.189666   3.547806   4.517081   1.144843   0.000000
    11  C    5.130145   5.540740   6.679161   3.879750   3.970230
    12  N    6.228994   6.056619   7.204657   4.005857   3.749284
    13  C    4.116007   6.351125   7.358436   5.553753   6.019400
    14  N    4.624817   7.350669   8.310533   6.683031   7.157688
    15  C    1.446856   5.537652   6.058573   6.349648   7.324433
    16  N    2.595045   6.670698   7.207858   7.336259   8.255252
    17  C    1.438995   3.860013   4.005763   5.540508   6.666733
    18  N    2.599028   3.975805   3.780665   6.035990   7.180696
                   11         12         13         14         15
    11  C    0.000000
    12  N    1.187027   0.000000
    13  C    2.471239   3.564803   0.000000
    14  N    3.511894   4.518953   1.139033   0.000000
    15  C    5.520898   6.694309   3.858715   4.005527   0.000000
    16  N    5.998787   7.185682   3.956714   3.768592   1.149608
    17  C    6.336981   7.365878   5.542264   6.059686   2.488269
    18  N    7.340925   8.315327   6.688904   7.220607   3.561580
                   16         17         18
    16  N    0.000000
    17  C    3.554106   0.000000
    18  N    4.550691   1.161190   0.000000
 Symmetry turned off by external request.
 Stoichiometry    C12N6(1-,2)
 Framework group  C1[X(C12N6)]
 Deg. of freedom    48
 Full point group                 C1      NOp   1
 Rotational constants (GHZ):           0.4250070           0.4216125           0.2116827
 Standard basis: def2SVP (5D, 7F)
   252 basis functions,   450 primitive gaussians,   270 cartesian basis functions
    58 alpha electrons       57 beta electrons
       nuclear repulsion energy       958.7064445964 Hartrees.
 NAtoms=   18 NActive=   18 NUniq=   18 SFac= 1.00D+00 NAtFMM=   60 NAOKFM=F Big=F
 Integral buffers will be    131072 words long.
 Raffenetti 2 integral format.
 Two-electron integral symmetry is turned off.
 Nuclear repulsion after empirical dispersion term =      958.6949297126 Hartrees.
 Force PCM accuracy= 1.00D-10.
 ------------------------------------------------------------------------------
 Polarizable Continuum Model (PCM)
 =================================
 Model                : PCM (using non-symmetric T matrix).
 Atomic radii         : SMD-Coulomb.
 Polarization charges : Total charges.
 Charge compensation  : None.
 Solution method      : On-the-fly selection.
 Cavity type          : VdW (van der Waals Surface) (Alpha=1.000).
 Cavity algorithm     : GePol (No added spheres)
                        Default sphere list used, NSphG=   18.
                        Lebedev-Laikov grids with approx.  5.0 points / Ang**2.
                        Smoothing algorithm: York/Karplus (Gamma=1.0000).
                        Polarization charges: spherical gaussians, with
                                              point-specific exponents (IZeta= 3).
                        Self-potential: point-specific (ISelfS= 7).
                        Self-field    : sphere-specific E.n sum rule (ISelfD= 2).
 1st derivatives      : Analytical E(r).r(x)/FMM algorithm (CHGder, D1EAlg=3).
                        Cavity 1st derivative terms included.
 Solvent              : Acetonitrile, Eps=  35.688000 Eps(inf)=   1.806874
 ------------------------------------------------------------------------------
 Spheres list:
 ISph  on   Nord     Re0    Alpha      Xe            Ye            Ze
    1   C      1    1.8500  1.000     -8.937665     -0.873384      1.113340
    2   C      2    1.8500  1.000     -8.944924      0.493805      1.248081
    3   C      3    1.8500  1.000     -8.225201     -2.126673      0.982073
    4   C      4    1.8500  1.000     -7.025369     -2.817582      0.900785
    5   C      5    1.8500  1.000     -9.664419     -2.132979      0.995330
    6   C      6    1.8500  1.000    -10.864293     -2.815846      0.939153
    7   C      7    1.8500  1.000    -10.186072      1.212863      1.339131
    8   N      8    1.8900  1.000    -11.191531      1.763086      1.416098
    9   C      9    1.8500  1.000     -7.705037      1.223118      1.322658
   10   N     10    1.8900  1.000     -6.674809      1.719127      1.379849
   11   C     11    1.8500  1.000     -5.780891     -2.124949      0.947736
   12   N     12    1.8900  1.000     -4.777894     -1.491795      0.994074
   13   C     13    1.8500  1.000     -7.013813     -4.256564      0.740032
   14   N     14    1.8900  1.000     -7.034854     -5.387518      0.606249
   15   C     15    1.8500  1.000    -10.871491     -4.258518      0.829442
   16   N     16    1.8900  1.000    -10.800820     -5.402918      0.746062
   17   C     17    1.8500  1.000    -12.117708     -2.110893      0.991104
   18   N     18    1.8900  1.000    -13.093102     -1.482557      1.037608
 ------------------------------------------------------------------------------
 ------------------------------------------------------------------------------
 Atomic radii for non-electrostatic terms: SMD-CDS.
 ------------------------------------------------------------------------------
 Nuclear repulsion after PCM non-electrostatic terms =      958.7035897976 Hartrees.
 One-electron integrals computed using PRISM.
   1 Symmetry operations used in ECPInt.
 ECPInt:  NShTT=    5886 NPrTT=   23670 LenC2=    5396 LenP2D=   14910.
 LDataN:  DoStor=T MaxTD1= 4 Len=   56
 NBasis=   252 RedAO= T EigKep=  2.48D-04  NBF=   252
 NBsUse=   252 1.00D-06 EigRej= -1.00D+00 NBFU=   252
 Initial guess from the checkpoint file:  "b.chk"
 B after Tr=     0.000026   -0.000236    0.000991
         Rot=    1.000000    0.000028    0.000035    0.000004 Ang=   0.01 deg.
 Initial guess <Sx>= 0.0000 <Sy>= 0.0000 <Sz>= 0.5000 <S**2>= 0.7807 S= 0.5152
 Requested convergence on RMS density matrix=1.00D-08 within  64 cycles.
 Requested convergence on MAX density matrix=1.00D-06.
 Requested convergence on             energy=1.00D-06.
 No special actions if energy rises.
 Inv3:  Mode=1 IEnd=    19476912.
 Iteration    1 A*A^-1 deviation from unit magnitude is 3.55D-15 for   1133.
 Iteration    1 A*A^-1 deviation from orthogonality  is 2.88D-15 for   1023     29.
 Iteration    1 A^-1*A deviation from unit magnitude is 2.89D-15 for   1372.
 Iteration    1 A^-1*A deviation from orthogonality  is 3.08D-10 for   1609   1526.
 Iteration    2 A*A^-1 deviation from unit magnitude is 4.66D-15 for     96.
 Iteration    2 A*A^-1 deviation from orthogonality  is 7.81D-15 for   1836    270.
 Iteration    2 A^-1*A deviation from unit magnitude is 1.78D-15 for   2205.
 Iteration    2 A^-1*A deviation from orthogonality  is 5.99D-16 for   1666   1571.
 Error on total polarization charges =  0.01978
 SCF Done:  E(UwB97XD) =  -784.851302875     A.U. after   19 cycles
            NFock= 19  Conv=0.46D-08     -V/T= 2.0100
 <Sx>= 0.0000 <Sy>= 0.0000 <Sz>= 0.5000 <S**2>= 0.7857 S= 0.5177
 <L.S>=  0.00000000000    
 SMD-CDS (non-electrostatic) energy       (kcal/mol) =       5.43
 (included in total energy above)
 Annihilation of the first spin contaminant:
 S**2 before annihilation     0.7857,   after     0.7510
 QCSCF skips out because SCF is already converged.

 **********************************************************************

            Population analysis using the SCF Density.

 **********************************************************************

 Alpha  occ. eigenvalues --  -14.46512 -14.46009 -14.45753 -14.45704 -14.45636
 Alpha  occ. eigenvalues --  -14.45529 -10.38718 -10.38687 -10.38663 -10.38494
 Alpha  occ. eigenvalues --  -10.38426 -10.38337 -10.36701 -10.36259 -10.36026
 Alpha  occ. eigenvalues --  -10.35941 -10.35873 -10.35810  -1.04117  -1.02356
 Alpha  occ. eigenvalues --   -1.02178  -1.01470  -1.01332  -1.00975  -1.00219
 Alpha  occ. eigenvalues --   -0.92005  -0.91835  -0.89188  -0.72010  -0.71757
 Alpha  occ. eigenvalues --   -0.68396  -0.68251  -0.67858  -0.67306  -0.54741
 Alpha  occ. eigenvalues --   -0.50845  -0.50704  -0.49339  -0.48866  -0.47638
 Alpha  occ. eigenvalues --   -0.47557  -0.47481  -0.47015  -0.46729  -0.46508
 Alpha  occ. eigenvalues --   -0.46054  -0.45474  -0.45207  -0.44983  -0.44747
 Alpha  occ. eigenvalues --   -0.44683  -0.44449  -0.43236  -0.43068  -0.42615
 Alpha  occ. eigenvalues --   -0.35773  -0.35586  -0.27343
 Alpha virt. eigenvalues --    0.04285   0.04412   0.06582   0.07080   0.07437
 Alpha virt. eigenvalues --    0.09555   0.10322   0.10593   0.11104   0.12013
 Alpha virt. eigenvalues --    0.12526   0.14428   0.18949   0.19058   0.20628
 Alpha virt. eigenvalues --    0.23469   0.24590   0.24768   0.25931   0.26031
 Alpha virt. eigenvalues --    0.27768   0.30712   0.31185   0.31342   0.31413
 Alpha virt. eigenvalues --    0.31787   0.34430   0.46121   0.46528   0.49228
 Alpha virt. eigenvalues --    0.49600   0.51951   0.52286   0.53167   0.53284
 Alpha virt. eigenvalues --    0.54322   0.54651   0.55056   0.56697   0.59812
 Alpha virt. eigenvalues --    0.60053   0.60238   0.60881   0.61381   0.63341
 Alpha virt. eigenvalues --    0.63700   0.68718   0.69161   0.69308   0.71037
 Alpha virt. eigenvalues --    0.71317   0.72394   0.72552   0.73095   0.73236
 Alpha virt. eigenvalues --    0.73271   0.73380   0.74506   0.74528   0.74815
 Alpha virt. eigenvalues --    0.78681   0.78802   0.79097   0.80868   0.81013
 Alpha virt. eigenvalues --    0.84323   0.84925   0.86140   0.86880   0.92495
 Alpha virt. eigenvalues --    0.92702   0.92941   0.93214   0.93680   0.94185
 Alpha virt. eigenvalues --    0.95459   0.98198   0.98369   0.98979   0.99468
 Alpha virt. eigenvalues --    1.00540   1.00672   1.01565   1.01843   1.02960
 Alpha virt. eigenvalues --    1.04974   1.05768   1.06776   1.08151   1.10805
 Alpha virt. eigenvalues --    1.11529   1.15359   1.16845   1.17354   1.17708
 Alpha virt. eigenvalues --    1.20053   1.22047   1.22510   1.23600   1.32260
 Alpha virt. eigenvalues --    1.34299   1.34693   1.38257   1.38516   1.41583
 Alpha virt. eigenvalues --    1.43565   1.44216   1.44414   1.45629   1.57046
 Alpha virt. eigenvalues --    1.57691   1.66111   1.68053   1.68257   1.68310
 Alpha virt. eigenvalues --    1.68446   1.69040   1.75339   1.75427   1.76348
 Alpha virt. eigenvalues --    1.76535   1.77809   1.78367   1.78566   1.79979
 Alpha virt. eigenvalues --    1.80467   1.80608   1.84459   1.91829   1.92445
 Alpha virt. eigenvalues --    1.93518   1.97672   1.98193   1.98281   2.01320
 Alpha virt. eigenvalues --    2.02260   2.03920   2.04249   2.10065   2.10298
 Alpha virt. eigenvalues --    2.14009   2.18667   2.19099   2.19817   2.24484
 Alpha virt. eigenvalues --    2.26164   2.26266   2.26508   2.32312   2.32592
 Alpha virt. eigenvalues --    2.32920   2.33376   2.34155   2.34492   2.34681
 Alpha virt. eigenvalues --    2.35015   2.35030   2.35453   2.35686   2.36466
 Alpha virt. eigenvalues --    2.37168   2.37408   2.54268   2.57163   2.57772
 Alpha virt. eigenvalues --    2.66858   2.67464   2.90393   2.93598   2.94337
 Alpha virt. eigenvalues --    2.95176   2.97807   2.98644   2.99165   3.02017
 Alpha virt. eigenvalues --    3.04143   3.05803   3.06826   3.07639   3.10210
 Alpha virt. eigenvalues --    3.10896   3.11906   3.20212   3.21195   3.28439
 Alpha virt. eigenvalues --    3.38870   3.39561   3.39724   3.51370   3.53706
 Alpha virt. eigenvalues --    3.55955   3.61974   3.63300   3.74567
  Beta  occ. eigenvalues --  -14.46293 -14.45828 -14.45588 -14.45537 -14.45474
  Beta  occ. eigenvalues --  -14.45369 -10.38751 -10.38721 -10.38689 -10.38142
  Beta  occ. eigenvalues --  -10.38065 -10.37992 -10.36805 -10.36347 -10.36109
  Beta  occ. eigenvalues --  -10.36023 -10.35953 -10.35890  -1.03726  -1.02052
  Beta  occ. eigenvalues --   -1.01868  -1.01148  -1.01048  -1.00672  -0.99850
  Beta  occ. eigenvalues --   -0.91266  -0.91068  -0.88190  -0.71858  -0.71607
  Beta  occ. eigenvalues --   -0.68162  -0.68019  -0.67593  -0.67126  -0.53822
  Beta  occ. eigenvalues --   -0.49603  -0.49425  -0.49174  -0.48708  -0.47296
  Beta  occ. eigenvalues --   -0.47209  -0.47164  -0.46693  -0.46495  -0.46298
  Beta  occ. eigenvalues --   -0.45381  -0.44985  -0.44537  -0.44426  -0.44314
  Beta  occ. eigenvalues --   -0.44188  -0.43847  -0.43107  -0.42942  -0.42466
  Beta  occ. eigenvalues --   -0.33134  -0.32728
  Beta virt. eigenvalues --   -0.09897   0.05175   0.05343   0.06691   0.07174
  Beta virt. eigenvalues --    0.07522   0.09547   0.11304   0.11516   0.11887
  Beta virt. eigenvalues --    0.12062   0.12579   0.14687   0.19182   0.19294
  Beta virt. eigenvalues --    0.22184   0.23376   0.26098   0.26179   0.26247
  Beta virt. eigenvalues --    0.26358   0.27997   0.30772   0.31293   0.31899
  Beta virt. eigenvalues --    0.31905   0.32418   0.34537   0.46262   0.46667
  Beta virt. eigenvalues --    0.49337   0.49677   0.52051   0.52391   0.53114
  Beta virt. eigenvalues --    0.53223   0.54488   0.54806   0.55207   0.56864
  Beta virt. eigenvalues --    0.59748   0.59954   0.60117   0.60909   0.61413
  Beta virt. eigenvalues --    0.63503   0.63573   0.69045   0.69303   0.69474
  Beta virt. eigenvalues --    0.71184   0.71472   0.72531   0.72680   0.73232
  Beta virt. eigenvalues --    0.73332   0.73457   0.73545   0.74598   0.74650
  Beta virt. eigenvalues --    0.74928   0.78689   0.78812   0.80064   0.81595
  Beta virt. eigenvalues --    0.81756   0.84453   0.85059   0.86413   0.86971
  Beta virt. eigenvalues --    0.92646   0.92868   0.93548   0.93742   0.93896
  Beta virt. eigenvalues --    0.94735   0.96128   0.98792   0.98925   0.99202
  Beta virt. eigenvalues --    0.99677   1.00707   1.00831   1.01686   1.01970
  Beta virt. eigenvalues --    1.03111   1.05210   1.05945   1.07036   1.08452
  Beta virt. eigenvalues --    1.10924   1.11644   1.15564   1.17118   1.17608
  Beta virt. eigenvalues --    1.17959   1.20381   1.22282   1.22763   1.24179
  Beta virt. eigenvalues --    1.32404   1.34489   1.34885   1.38855   1.39107
  Beta virt. eigenvalues --    1.42351   1.44106   1.44572   1.45044   1.45719
  Beta virt. eigenvalues --    1.57067   1.57746   1.65965   1.67875   1.68071
  Beta virt. eigenvalues --    1.68126   1.68263   1.68796   1.75235   1.75332
  Beta virt. eigenvalues --    1.76504   1.76707   1.77714   1.78288   1.78456
  Beta virt. eigenvalues --    1.80201   1.80414   1.80524   1.84362   1.91983
  Beta virt. eigenvalues --    1.92542   1.93540   1.97857   1.98716   1.98844
  Beta virt. eigenvalues --    2.01684   2.02641   2.04028   2.04921   2.10473
  Beta virt. eigenvalues --    2.10747   2.14278   2.19633   2.20035   2.20927
  Beta virt. eigenvalues --    2.25132   2.26782   2.26863   2.27135   2.32890
  Beta virt. eigenvalues --    2.33332   2.33513   2.33986   2.34782   2.34964
  Beta virt. eigenvalues --    2.35276   2.35485   2.35613   2.36061   2.36251
  Beta virt. eigenvalues --    2.37013   2.37798   2.38058   2.54710   2.57268
  Beta virt. eigenvalues --    2.57862   2.67341   2.67964   2.90483   2.93799
  Beta virt. eigenvalues --    2.94470   2.95308   2.97943   2.98778   2.99285
  Beta virt. eigenvalues --    3.02531   3.04649   3.06282   3.07011   3.07822
  Beta virt. eigenvalues --    3.10680   3.11365   3.12360   3.20452   3.21427
  Beta virt. eigenvalues --    3.28616   3.39085   3.39753   3.39924   3.51556
  Beta virt. eigenvalues --    3.53887   3.56127   3.62164   3.63485   3.74735
          Condensed to atoms (all electrons):
               1          2          3          4          5          6
     1  C    4.882474   0.553479   0.285882  -0.092757   0.290256  -0.090344
     2  C    0.553479   5.317321  -0.098829  -0.007692  -0.094674  -0.007353
     3  C    0.285882  -0.098829   4.916449   0.541379   0.287224  -0.098023
     4  C   -0.092757  -0.007692   0.541379   5.316337  -0.096299  -0.007341
     5  C    0.290256  -0.094674   0.287224  -0.096299   4.896035   0.546338
     6  C   -0.090344  -0.007353  -0.098023  -0.007341   0.546338   5.312964
     7  C    0.006055   0.391743   0.004955  -0.000341  -0.017421   0.001494
     8  N   -0.001452  -0.027413  -0.000038  -0.000001  -0.000395   0.000089
     9  C    0.003306   0.388550  -0.017555   0.001558   0.006036  -0.000310
    10  N   -0.001516  -0.027277  -0.000452   0.000112  -0.000004  -0.000001
    11  C   -0.017609   0.001400   0.006979   0.393780   0.005580  -0.000316
    12  N   -0.000361   0.000086  -0.001140  -0.030003  -0.000019  -0.000001
    13  C    0.004939  -0.000310   0.003672   0.387434  -0.016881   0.001400
    14  N   -0.000033  -0.000001  -0.001444  -0.026827  -0.000401   0.000081
    15  C    0.005551  -0.000299  -0.017771   0.001524   0.003522   0.388224
    16  N   -0.000005  -0.000001  -0.000469   0.000117  -0.001243  -0.026932
    17  C   -0.017011   0.001430   0.005561  -0.000302   0.005255   0.390063
    18  N   -0.000393   0.000098  -0.000012  -0.000001  -0.001083  -0.027776
               7          8          9         10         11         12
     1  C    0.006055  -0.001452   0.003306  -0.001516  -0.017609  -0.000361
     2  C    0.391743  -0.027413   0.388550  -0.027277   0.001400   0.000086
     3  C    0.004955  -0.000038  -0.017555  -0.000452   0.006979  -0.001140
     4  C   -0.000341  -0.000001   0.001558   0.000112   0.393780  -0.030003
     5  C   -0.017421  -0.000395   0.006036  -0.000004   0.005580  -0.000019
     6  C    0.001494   0.000089  -0.000310  -0.000001  -0.000316  -0.000001
     7  C    4.811687   0.923227  -0.036995   0.001744   0.000067   0.000001
     8  N    0.923227   6.084300   0.001508   0.000046   0.000000   0.000000
     9  C   -0.036995   0.001508   4.812538   0.929449   0.000009   0.000299
    10  N    0.001744   0.000046   0.929449   6.072524   0.000178  -0.000721
    11  C    0.000067   0.000000   0.000009   0.000178   4.826337   0.881695
    12  N    0.000001   0.000000   0.000299  -0.000721   0.881695   6.168680
    13  C   -0.000006  -0.000000   0.000060   0.000001  -0.035457   0.001758
    14  N   -0.000000  -0.000000   0.000000   0.000000   0.001702   0.000050
    15  C    0.000060   0.000001  -0.000005  -0.000000   0.000068   0.000000
    16  N    0.000000   0.000000  -0.000000  -0.000000   0.000002   0.000000
    17  C    0.000092   0.000079   0.000064   0.000000  -0.000006  -0.000000
    18  N    0.000383  -0.000726   0.000001   0.000000  -0.000000  -0.000000
              13         14         15         16         17         18
     1  C    0.004939  -0.000033   0.005551  -0.000005  -0.017011  -0.000393
     2  C   -0.000310  -0.000001  -0.000299  -0.000001   0.001430   0.000098
     3  C    0.003672  -0.001444  -0.017771  -0.000469   0.005561  -0.000012
     4  C    0.387434  -0.026827   0.001524   0.000117  -0.000302  -0.000001
     5  C   -0.016881  -0.000401   0.003522  -0.001243   0.005255  -0.001083
     6  C    0.001400   0.000081   0.388224  -0.026932   0.390063  -0.027776
     7  C   -0.000006  -0.000000   0.000060   0.000000   0.000092   0.000383
     8  N   -0.000000  -0.000000   0.000001   0.000000   0.000079  -0.000726
     9  C    0.000060   0.000000  -0.000005  -0.000000   0.000064   0.000001
    10  N    0.000001   0.000000  -0.000000  -0.000000   0.000000   0.000000
    11  C   -0.035457   0.001702   0.000068   0.000002  -0.000006  -0.000000
    12  N    0.001758   0.000050   0.000000   0.000000  -0.000000  -0.000000
    13  C    4.806398   0.935912   0.000112   0.000446   0.000059   0.000000
    14  N    0.935912   6.059800   0.000072  -0.000748   0.000001   0.000000
    15  C    0.000112   0.000072   4.811398   0.923456  -0.033641   0.001592
    16  N    0.000446  -0.000748   0.923456   6.087411   0.001626   0.000041
    17  C    0.000059   0.000001  -0.033641   0.001626   4.813305   0.909461
    18  N    0.000000   0.000000   0.001592   0.000041   0.909461   6.111961
          Atomic-Atomic Spin Densities.
               1          2          3          4          5          6
     1  C   -0.038070  -0.068200   0.035482  -0.006061   0.033762  -0.005789
     2  C   -0.068200   0.378128  -0.006397   0.000946  -0.006072   0.000951
     3  C    0.035482  -0.006397  -0.025697  -0.073463   0.037419  -0.006430
     4  C   -0.006061   0.000946  -0.073463   0.393951  -0.006242   0.000950
     5  C    0.033762  -0.006072   0.037419  -0.006242  -0.033343  -0.070280
     6  C   -0.005789   0.000951  -0.006430   0.000950  -0.070280   0.385632
     7  C    0.000050   0.005685  -0.000123  -0.000011   0.000301  -0.000045
     8  N    0.000486  -0.005076   0.000008  -0.000000   0.000041  -0.000026
     9  C    0.000074   0.005162   0.000237  -0.000043  -0.000111  -0.000010
    10  N    0.000545  -0.005026   0.000041  -0.000029   0.000008  -0.000000
    11  C    0.000291  -0.000062   0.000456   0.007987  -0.000134  -0.000011
    12  N    0.000040  -0.000028   0.000592  -0.005529   0.000009  -0.000000
    13  C   -0.000107  -0.000010   0.000108   0.004774   0.000270  -0.000051
    14  N    0.000007  -0.000000   0.000487  -0.005104   0.000038  -0.000025
    15  C   -0.000094  -0.000010   0.000252  -0.000048   0.000120   0.005437
    16  N    0.000008  -0.000000   0.000042  -0.000030   0.000525  -0.004996
    17  C    0.000292  -0.000052  -0.000128  -0.000011   0.000114   0.006264
    18  N    0.000040  -0.000028   0.000008  -0.000000   0.000524  -0.005164
               7          8          9         10         11         12
     1  C    0.000050   0.000486   0.000074   0.000545   0.000291   0.000040
     2  C    0.005685  -0.005076   0.005162  -0.005026  -0.000062  -0.000028
     3  C   -0.000123   0.000008   0.000237   0.000041   0.000456   0.000592
     4  C   -0.000011  -0.000000  -0.000043  -0.000029   0.007987  -0.005529
     5  C    0.000301   0.000041  -0.000111   0.000008  -0.000134   0.000009
     6  C   -0.000045  -0.000026  -0.000010  -0.000000  -0.000011  -0.000000
     7  C   -0.067013  -0.001670  -0.000890   0.000069  -0.000002   0.000000
     8  N   -0.001670   0.103046   0.000102   0.000007  -0.000000   0.000000
     9  C   -0.000890   0.000102  -0.065464  -0.001493   0.000006   0.000011
    10  N    0.000069   0.000007  -0.001493   0.099721   0.000012   0.000042
    11  C   -0.000002  -0.000000   0.000006   0.000012  -0.086140  -0.003315
    12  N    0.000000   0.000000   0.000011   0.000042  -0.003315   0.135719
    13  C    0.000000  -0.000000  -0.000002   0.000000  -0.000931   0.000099
    14  N   -0.000000   0.000000  -0.000000   0.000000   0.000112   0.000008
    15  C   -0.000002   0.000000   0.000000  -0.000000  -0.000002  -0.000000
    16  N   -0.000000   0.000000  -0.000000   0.000000   0.000000   0.000000
    17  C    0.000006   0.000011  -0.000002  -0.000000   0.000000  -0.000000
    18  N    0.000010   0.000035   0.000000   0.000000  -0.000000   0.000000
              13         14         15         16         17         18
     1  C   -0.000107   0.000007  -0.000094   0.000008   0.000292   0.000040
     2  C   -0.000010  -0.000000  -0.000010  -0.000000  -0.000052  -0.000028
     3  C    0.000108   0.000487   0.000252   0.000042  -0.000128   0.000008
     4  C    0.004774  -0.005104  -0.000048  -0.000030  -0.000011  -0.000000
     5  C    0.000270   0.000038   0.000120   0.000525   0.000114   0.000524
     6  C   -0.000051  -0.000025   0.005437  -0.004996   0.006264  -0.005164
     7  C    0.000000  -0.000000  -0.000002  -0.000000   0.000006   0.000010
     8  N   -0.000000   0.000000   0.000000   0.000000   0.000011   0.000035
     9  C   -0.000002  -0.000000   0.000000  -0.000000  -0.000002   0.000000
    10  N    0.000000   0.000000  -0.000000   0.000000  -0.000000   0.000000
    11  C   -0.000931   0.000112  -0.000002   0.000000   0.000000  -0.000000
    12  N    0.000099   0.000008  -0.000000   0.000000  -0.000000   0.000000
    13  C   -0.065335  -0.001259   0.000004   0.000009  -0.000002  -0.000000
    14  N   -0.001259   0.098700   0.000011   0.000035   0.000000   0.000000
    15  C    0.000004   0.000011  -0.067259  -0.001609  -0.001021   0.000080
    16  N    0.000009   0.000035  -0.001609   0.101942   0.000076   0.000007
    17  C   -0.000002   0.000000  -0.001021   0.000076  -0.072468  -0.002134
    18  N   -0.000000   0.000000   0.000080   0.000007  -0.002134   0.111564
 Mulliken charges and spin densities:
               1          2
     1  C    0.189540  -0.047245
     2  C   -0.390259   0.299911
     3  C    0.183632  -0.037106
     4  C   -0.380677   0.312039
     5  C    0.188173  -0.043052
     6  C   -0.382257   0.306405
     7  C   -0.086745  -0.063636
     8  N    0.020774   0.096964
     9  C   -0.088514  -0.062424
    10  N    0.025918   0.093896
    11  C   -0.064410  -0.081736
    12  N   -0.020324   0.127648
    13  C   -0.089538  -0.062432
    14  N    0.031837   0.093010
    15  C   -0.083864  -0.064139
    16  N    0.016299   0.096008
    17  C   -0.076037  -0.069055
    18  N    0.006452   0.104942
 Sum of Mulliken charges =  -1.00000   1.00000
 Mulliken charges and spin densities with hydrogens summed into heavy atoms:
               1          2
     1  C    0.189540  -0.047245
     2  C   -0.390259   0.299911
     3  C    0.183632  -0.037106
     4  C   -0.380677   0.312039
     5  C    0.188173  -0.043052
     6  C   -0.382257   0.306405
     7  C   -0.086745  -0.063636
     8  N    0.020774   0.096964
     9  C   -0.088514  -0.062424
    10  N    0.025918   0.093896
    11  C   -0.064410  -0.081736
    12  N   -0.020324   0.127648
    13  C   -0.089538  -0.062432
    14  N    0.031837   0.093010
    15  C   -0.083864  -0.064139
    16  N    0.016299   0.096008
    17  C   -0.076037  -0.069055
    18  N    0.006452   0.104942
 Electronic spatial extent (au):  <R**2>=          39043.2875
 Charge=             -1.0000 electrons
 Dipole moment (field-independent basis, Debye):
    X=             42.6807    Y=              8.2194    Z=             -4.9552  Tot=             43.7465
 Quadrupole moment (field-independent basis, Debye-Ang):
   XX=           -550.5799   YY=           -183.1221   ZZ=           -104.4376
   XY=            -72.5358   XZ=             44.7522   YZ=              1.4069
 Traceless Quadrupole moment (field-independent basis, Debye-Ang):
   XX=           -271.2001   YY=             96.2578   ZZ=            174.9423
   XY=            -72.5358   XZ=             44.7522   YZ=              1.4069
 Octapole moment (field-independent basis, Debye-Ang**2):
  XXX=           7959.8917  YYY=            966.4603  ZZZ=           -311.9528  XYY=           1634.8879
  XXY=            861.2543  XXZ=           -586.0791  XZZ=            934.3880  YZZ=            164.9752
  YYZ=           -158.8048  XYZ=            -13.6367
 Hexadecapole moment (field-independent basis, Debye-Ang**3):
 XXXX=        -116303.8451 YYYY=          -7807.9704 ZZZZ=           -765.8533 XXXY=         -11561.5165
 XXXZ=           8547.0492 YYYX=          -8621.2407 YYYZ=            634.4632 ZZZX=           2805.4402
 ZZZY=            362.0423 XXYY=         -16291.7102 XXZZ=          -9103.4453 YYZZ=           -976.4587
 XXYZ=            278.2328 YYXZ=           1437.1135 ZZXY=          -1474.1417
 N-N= 9.587035897976D+02 E-N=-3.752715383691D+03  KE= 7.770446302415D+02
                          Isotropic Fermi Contact Couplings
        Atom                 a.u.       MegaHertz       Gauss      10(-4) cm-1
     1  C(13)             -0.01740     -19.56124      -6.97994      -6.52493
     2  C(13)              0.04963      55.79502      19.90905      18.61121
     3  C(13)             -0.01595     -17.92757      -6.39700      -5.97999
     4  C(13)              0.05205      58.51469      20.87950      19.51840
     5  C(13)             -0.01683     -18.92246      -6.75200      -6.31185
     6  C(13)              0.05123      57.59382      20.55091      19.21123
     7  C(13)             -0.03040     -34.17802     -12.19557     -11.40056
     8  N(14)              0.02233       7.21464       2.57436       2.40654
     9  C(13)             -0.03005     -33.77771     -12.05273     -11.26703
    10  N(14)              0.02152       6.95413       2.48141       2.31965
    11  C(13)             -0.03571     -40.14571     -14.32499     -13.39117
    12  N(14)              0.03015       9.74060       3.47569       3.24912
    13  C(13)             -0.03102     -34.87687     -12.44493     -11.63367
    14  N(14)              0.02119       6.84759       2.44339       2.28411
    15  C(13)             -0.03101     -34.85984     -12.43886     -11.62799
    16  N(14)              0.02206       7.12772       2.54335       2.37755
    17  C(13)             -0.03218     -36.18063     -12.91015     -12.06856
    18  N(14)              0.02437       7.87420       2.80971       2.62655
 --------------------------------------------------------
       Center         ----  Spin Dipole Couplings  ----
                      3XX-RR        3YY-RR        3ZZ-RR
 --------------------------------------------------------
     1   Atom       -0.001036      0.025350     -0.024314
     2   Atom       -0.156394     -0.154091      0.310485
     3   Atom        0.012317     -0.000341     -0.011976
     4   Atom       -0.165187     -0.158425      0.323611
     5   Atom        0.016247      0.002582     -0.018829
     6   Atom       -0.161875     -0.157603      0.319478
     7   Atom        0.032753      0.007235     -0.039989
     8   Atom       -0.098663     -0.079775      0.178438
     9   Atom        0.032442      0.006373     -0.038814
    10   Atom       -0.097126     -0.075987      0.173113
    11   Atom        0.039527      0.012052     -0.051578
    12   Atom       -0.125785     -0.103599      0.229384
    13   Atom       -0.002620      0.040731     -0.038111
    14   Atom       -0.073850     -0.097435      0.171285
    15   Atom       -0.002537      0.042320     -0.039782
    16   Atom       -0.075017     -0.103155      0.178172
    17   Atom        0.032807      0.010556     -0.043363
    18   Atom       -0.104282     -0.089149      0.193431
 --------------------------------------------------------
                        XY            XZ            YZ
 --------------------------------------------------------
     1   Atom        0.000035     -0.002077      0.003717
     2   Atom       -0.000384      0.003342     -0.049269
     3   Atom       -0.010717      0.000785      0.001533
     4   Atom        0.000195      0.008181     -0.051530
     5   Atom        0.011020      0.000690      0.002478
     6   Atom       -0.001072     -0.000996     -0.037033
     7   Atom       -0.019146     -0.002906      0.005212
     8   Atom        0.011806      0.007052     -0.028718
     9   Atom        0.018224      0.001880      0.004937
    10   Atom       -0.010993     -0.002362     -0.027951
    11   Atom        0.026328      0.001016      0.006177
    12   Atom       -0.020495      0.004939     -0.034283
    13   Atom        0.001017     -0.000305      0.008859
    14   Atom       -0.000848      0.002938     -0.033420
    15   Atom       -0.001818      0.000100      0.006330
    16   Atom        0.002081     -0.001396     -0.020029
    17   Atom       -0.022042     -0.001729      0.004085
    18   Atom        0.015354      0.000650     -0.020922
 --------------------------------------------------------


 ---------------------------------------------------------------------------------
              Anisotropic Spin Dipole Couplings in Principal Axis System
 ---------------------------------------------------------------------------------

       Atom             a.u.   MegaHertz   Gauss  10(-4) cm-1        Axes

              Baa    -0.0248    -3.324    -1.186    -1.109  0.0871 -0.0737  0.9935
     1 C(13)  Bbb    -0.0009    -0.115    -0.041    -0.038  0.9962  0.0109 -0.0865
              Bcc     0.0256     3.439     1.227     1.147 -0.0045  0.9972  0.0744
 
              Baa    -0.1593   -21.371    -7.626    -7.129  0.0117  0.9945  0.1042
     2 C(13)  Bbb    -0.1564   -20.990    -7.490    -7.001  0.9999 -0.0108 -0.0083
              Bcc     0.3157    42.361    15.115    14.130  0.0071 -0.1043  0.9945
 
              Baa    -0.0125    -1.673    -0.597    -0.558 -0.1343 -0.2403  0.9614
     3 C(13)  Bbb    -0.0060    -0.801    -0.286    -0.267  0.4773  0.8345  0.2752
              Bcc     0.0184     2.474     0.883     0.825  0.8684 -0.4959 -0.0026
 
              Baa    -0.1659   -22.259    -7.942    -7.425  0.8848 -0.4616 -0.0634
     4 C(13)  Bbb    -0.1633   -21.916    -7.820    -7.310  0.4657  0.8808  0.0854
              Bcc     0.3292    44.174    15.763    14.735  0.0164 -0.1051  0.9943
 
              Baa    -0.0191    -2.566    -0.916    -0.856  0.0189 -0.1229  0.9922
     5 C(13)  Bbb    -0.0033    -0.448    -0.160    -0.149 -0.4902  0.8638  0.1164
              Bcc     0.0225     3.014     1.075     1.005  0.8714  0.4886  0.0439
 
              Baa    -0.1625   -21.808    -7.782    -7.274  0.8734  0.4854  0.0391
     6 C(13)  Bbb    -0.1598   -21.447    -7.653    -7.154 -0.4869  0.8709  0.0663
              Bcc     0.3223    43.255    15.434    14.428 -0.0019 -0.0769  0.9970
 
              Baa    -0.0406    -5.444    -1.942    -1.816  0.0124 -0.1035  0.9946
     7 C(13)  Bbb    -0.0027    -0.367    -0.131    -0.123  0.4784  0.8740  0.0850
              Bcc     0.0433     5.811     2.074     1.938  0.8780 -0.4748 -0.0603
 
              Baa    -0.1057    -4.075    -1.454    -1.359  0.8760 -0.4772 -0.0700
     8 N(14)  Bbb    -0.0761    -2.933    -1.047    -0.978  0.4819  0.8721  0.0851
              Bcc     0.1817     7.008     2.501     2.338  0.0204 -0.1082  0.9939
 
              Baa    -0.0393    -5.280    -1.884    -1.761  0.0014 -0.1079  0.9942
     9 C(13)  Bbb    -0.0027    -0.357    -0.127    -0.119 -0.4627  0.8813  0.0963
              Bcc     0.0420     5.637     2.011     1.880  0.8865  0.4602  0.0487
 
              Baa    -0.1025    -3.952    -1.410    -1.318  0.9022  0.4284  0.0512
    10 N(14)  Bbb    -0.0737    -2.844    -1.015    -0.949 -0.4314  0.8969  0.0974
              Bcc     0.1762     6.796     2.425     2.267 -0.0042 -0.1100  0.9939
 
              Baa    -0.0522    -7.005    -2.499    -2.337  0.0186 -0.1032  0.9945
    11 C(13)  Bbb    -0.0034    -0.462    -0.165    -0.154 -0.5216  0.8475  0.0977
              Bcc     0.0556     7.466     2.664     2.491  0.8530  0.5206  0.0381
 
              Baa    -0.1385    -5.342    -1.906    -1.782  0.8448  0.5337  0.0384
    12 N(14)  Bbb    -0.0945    -3.645    -1.301    -1.216 -0.5347  0.8395  0.0970
              Bcc     0.2330     8.987     3.207     2.998  0.0195 -0.1025  0.9945
 
              Baa    -0.0391    -5.247    -1.872    -1.750  0.0114 -0.1104  0.9938
    13 C(13)  Bbb    -0.0026    -0.354    -0.126    -0.118  0.9997 -0.0206 -0.0137
              Bcc     0.0417     5.601     1.998     1.868  0.0220  0.9937  0.1102
 
              Baa    -0.1015    -3.916    -1.397    -1.306  0.0175  0.9925  0.1214
    14 N(14)  Bbb    -0.0739    -2.849    -1.017    -0.950  0.9998 -0.0159 -0.0142
              Bcc     0.1754     6.765     2.414     2.257  0.0121 -0.1216  0.9925
 
              Baa    -0.0403    -5.404    -1.928    -1.802 -0.0063 -0.0766  0.9970
    15 C(13)  Bbb    -0.0026    -0.350    -0.125    -0.117  0.9992  0.0391  0.0094
              Bcc     0.0429     5.754     2.053     1.919 -0.0397  0.9963  0.0762
 
              Baa    -0.1047    -4.038    -1.441    -1.347 -0.0665  0.9953  0.0701
    16 N(14)  Bbb    -0.0749    -2.889    -1.031    -0.964  0.9978  0.0659  0.0107
              Bcc     0.1796     6.927     2.472     2.311 -0.0060 -0.0707  0.9975
 
              Baa    -0.0437    -5.860    -2.091    -1.955  0.0010 -0.0747  0.9972
    17 C(13)  Bbb    -0.0028    -0.382    -0.136    -0.127  0.5270  0.8475  0.0630
              Bcc     0.0465     6.242     2.227     2.082  0.8499 -0.5255 -0.0402
 
              Baa    -0.1143    -4.408    -1.573    -1.470  0.8380 -0.5442 -0.0388
    18 N(14)  Bbb    -0.0807    -3.112    -1.110    -1.038  0.5456  0.8357  0.0625
              Bcc     0.1950     7.520     2.683     2.508 -0.0016 -0.0735  0.9973
 

 ---------------------------------------------------------------------------------

   1 Symmetry operations used in ECPInt.
 ECPInt:  NShTT=    5886 NPrTT=   23670 LenC2=    5396 LenP2D=   14910.
 LDataN:  DoStor=T MaxTD1= 5 Len=  102
 D1PCM: PCM CHGder 1st derivatives, ID1Alg=3 FixD1E=F DoIter=F DoCFld=F I1PDM=0.
 Calling FoFJK, ICntrl=      2127 FMM=F ISym2X=0 I1Cent= 0 IOpClX= 1 NMat=1 NMatS=1 NMatT=0.
 -------------------------------------------------------------------
 Center     Atomic                   Forces (Hartrees/Bohr)
 Number     Number              X              Y              Z
 -------------------------------------------------------------------
      1        6          -0.003138890   -0.058489964   -0.006579821
      2        6           0.000714840    0.011622771    0.001679232
      3        6          -0.035413905    0.022337155    0.003410146
      4        6          -0.001769790   -0.010629423   -0.002011233
      5        6           0.039405659    0.029231664    0.002438463
      6        6          -0.006594125   -0.008771498   -0.000721367
      7        6           0.029626572   -0.018320131   -0.002139095
      8        7          -0.022925585    0.012866379    0.001565602
      9        6          -0.038981425   -0.025998430   -0.002650442
     10        7           0.031813256    0.018189730    0.001835279
     11        6           0.044907630    0.033472162    0.002993693
     12        7          -0.049228401   -0.032734970   -0.002518742
     13        6          -0.001837888    0.066676720    0.007551018
     14        7          -0.000490795   -0.051523301   -0.005850815
     15        6           0.002825965    0.039266260    0.002616107
     16        7          -0.000318710   -0.024080306   -0.001774027
     17        6           0.008900822    0.000440456    0.000553624
     18        7           0.002504770   -0.003555272   -0.000397622
 -------------------------------------------------------------------
 Cartesian Forces:  Max     0.066676720 RMS     0.023402009

 GradGradGradGradGradGradGradGradGradGradGradGradGradGradGradGradGradGrad
 Berny optimization.
 Search for a local minimum.
 Step number   1 out of a maximum of    2
 All quantities printed in internal units (Hartrees-Bohrs-Radians)
 Second derivative matrix not updated -- first step.
 ITU=  0
     Eigenvalues ---    0.00103   0.00154   0.00203   0.00297   0.00298
     Eigenvalues ---    0.00759   0.01520   0.01666   0.01964   0.01992
     Eigenvalues ---    0.03976   0.04010   0.05198   0.05302   0.10134
     Eigenvalues ---    0.17142   0.20135   0.20735   0.24086   0.24554
     Eigenvalues ---    0.24791   0.25124   0.29982   0.30309   0.45631
     Eigenvalues ---    0.72451   0.73240   0.74987   0.76469   0.77796
     Eigenvalues ---    1.01159   1.01454   1.08223   1.51743   1.55426
     Eigenvalues ---    1.88457   2.52425   2.79925   2.94795   2.96076
     Eigenvalues ---    3.02475   3.09554   4.68908   6.54092   9.32514
     Eigenvalues ---   11.31196  40.99591  54.71342
 Quadratic step=3.409D-01 exceeds max=3.000D-01 adjusted using Lamda=-2.642D-03.
 Angle between NR and scaled steps=  10.80 degrees.
 Angle between quadratic step and forces=  69.81 degrees.
 Linear search not attempted -- first point.
 B after Tr=    -0.000178   -0.000350   -0.000003
         Rot=    1.000000    0.000003    0.000000    0.000008 Ang=   0.00 deg.
 Variable       Old X    -DE/DX   Delta X   Delta X   Delta X     New X
                                 (Linear)    (Quad)   (Total)
    X1      -16.88974  -0.00314   0.00000  -0.00069  -0.00090 -16.89064
    Y1       -1.65046  -0.05849   0.00000  -0.06164  -0.06170  -1.71216
    Z1        2.10391  -0.00658   0.00000  -0.00636  -0.00636   2.09755
    X2      -16.90346   0.00071   0.00000  -0.00029  -0.00046 -16.90391
    Y2        0.93316   0.01162   0.00000  -0.06341  -0.06347   0.86968
    Z2        2.35853   0.00168   0.00000  -0.00343  -0.00345   2.35509
    X3      -15.54338  -0.03541   0.00000  -0.02979  -0.03003 -15.57341
    Y3       -4.01883   0.02234   0.00000   0.01649   0.01640  -4.00243
    Z3        1.85585   0.00341   0.00000  -0.00017  -0.00016   1.85569
    X4      -13.27602  -0.00177   0.00000  -0.04352  -0.04378 -13.31980
    Y4       -5.32446  -0.01063   0.00000   0.03050   0.03038  -5.29408
    Z4        1.70224  -0.00201   0.00000  -0.00094  -0.00092   1.70132
    X5      -18.26310   0.03941   0.00000   0.04320   0.04295 -18.22015
    Y5       -4.03075   0.02923   0.00000   0.02194   0.02190  -4.00885
    Z5        1.88090   0.00244   0.00000   0.00083   0.00085   1.88175
    X6      -20.53054  -0.00659   0.00000   0.05568   0.05542 -20.47512
    Y6       -5.32118  -0.00877   0.00000   0.02915   0.02914  -5.29203
    Z6        1.77474  -0.00072   0.00000   0.00212   0.00214   1.77689
    X7      -19.24889   0.02963   0.00000   0.01472   0.01458 -19.23431
    Y7        2.29198  -0.01832   0.00000  -0.07850  -0.07853   2.21345
    Z7        2.53059  -0.00214   0.00000  -0.00855  -0.00858   2.52201
    X8      -21.14893  -0.02293   0.00000  -0.00055  -0.00068 -21.14961
    Y8        3.33175   0.01287   0.00000  -0.06528  -0.06527   3.26648
    Z8        2.67604   0.00157   0.00000  -0.01155  -0.01158   2.66446
    X9      -14.56041  -0.03898   0.00000  -0.01745  -0.01760 -14.57801
    Y9        2.31136  -0.02600   0.00000  -0.08287  -0.08297   2.22839
    Z9        2.49946  -0.00265   0.00000  -0.01350  -0.01352   2.48594
   X10      -12.61356   0.03181   0.00000  -0.01209  -0.01222 -12.62578
   Y10        3.24868   0.01819   0.00000  -0.03226  -0.03239   3.21629
   Z10        2.60754   0.00184   0.00000  -0.01800  -0.01803   2.58951
   X11      -10.92430   0.04491   0.00000  -0.05708  -0.05732 -10.98162
   Y11       -4.01557   0.03347   0.00000   0.03887   0.03871  -3.97686
   Z11        1.79096   0.00299   0.00000   0.00946   0.00948   1.80044
   X12       -9.02891  -0.04923   0.00000  -0.09164  -0.09187  -9.12078
   Y12       -2.81908  -0.03273   0.00000  -0.00561  -0.00580  -2.82489
   Z12        1.87853  -0.00252   0.00000   0.01271   0.01272   1.89125
   X13      -13.25419  -0.00184   0.00000  -0.05511  -0.05542 -13.30960
   Y13       -8.04374   0.06668   0.00000   0.06820   0.06807  -7.97567
   Z13        1.39846   0.00755   0.00000   0.01152   0.01156   1.41002
   X14      -13.29395  -0.00049   0.00000  -0.05291  -0.05325 -13.34720
   Y14      -10.18093  -0.05152   0.00000   0.03088   0.03076 -10.15018
   Z14        1.14564  -0.00585   0.00000   0.01644   0.01649   1.16214
   X15      -20.54414   0.00283   0.00000   0.05846   0.05815 -20.48599
   Y15       -8.04743   0.03927   0.00000   0.06856   0.06855  -7.97888
   Z15        1.56742   0.00262   0.00000  -0.00754  -0.00751   1.55991
   X16      -20.41059  -0.00032   0.00000   0.02635   0.02601 -20.38458
   Y16      -10.21004  -0.02408   0.00000   0.04952   0.04951 -10.16052
   Z16        1.40985  -0.00177   0.00000  -0.02095  -0.02090   1.38895
   X17      -22.89915   0.00890   0.00000   0.08794   0.08770 -22.81145
   Y17       -3.98901   0.00044   0.00000   0.02844   0.02847  -3.96054
   Z17        1.87291   0.00055   0.00000   0.01453   0.01454   1.88746
   X18      -24.74238   0.00250   0.00000   0.07894   0.07872 -24.66366
   Y18       -2.80163  -0.00356   0.00000   0.00818   0.00824  -2.79339
   Z18        1.96080  -0.00040   0.00000   0.02320   0.02321   1.98400
         Item               Value     Threshold  Converged?
 Maximum Force            0.066677     0.000450     NO 
 RMS     Force            0.023402     0.000300     NO 
 Maximum Displacement     0.091869     0.001800     NO 
 RMS     Displacement     0.040942     0.001200     NO 
 Predicted change in Energy=-9.048680D-03
 GradGradGradGradGradGradGradGradGradGradGradGradGradGradGradGradGradGrad

 Unable to Open any file for archive entry.
 1\1\GINC-X10P1N4\Force\UwB97XD\def2SVP\C12N6(1-,2)\MAYUMIAO\11-Oct-202
 4\0\\# wb97xd def2svp scrf=(smd,solvent=acetonitrile) g09default scf=(
 xqc,maxcycle=64) force guess=read nosymm\\Title Card\\-1,2\C,-8.937665
 19,-0.87338431,1.11333983\C,-8.9449239,0.49380462,1.24808098\C,-8.2252
 0075,-2.12667322,0.98207319\C,-7.0253693,-2.81758182,0.90078478\C,-9.6
 6441878,-2.13297938,0.99533031\C,-10.86429278,-2.81584556,0.93915345\C
 ,-10.1860724,1.21286341,1.33913084\N,-11.19153104,1.76308587,1.4160978
 6\C,-7.70503734,1.22311833,1.322658\N,-6.67480909,1.71912692,1.3798493
 6\C,-5.78089118,-2.12494851,0.94773552\N,-4.77789449,-1.4917951,0.9940
 7392\C,-7.01381269,-4.25656439,0.74003162\N,-7.0348538,-5.38751831,0.6
 062489\C,-10.87149105,-4.25851787,0.82944224\N,-10.80082001,-5.4029184
 5,0.74606179\C,-12.11770837,-2.11089328,0.9911039\N,-13.09310235,-1.48
 255683,1.03760837\\Version=ES64L-G16RevC.01\HF=-784.8513029\S2=0.78566
 \S2-1=0.\S2A=0.751018\RMSD=4.583e-09\RMSF=2.340e-02\Dipole=-0.1001471,
 -0.007024,-0.0042262\Quadrupole=-201.6306088,71.565309,130.0652998,-53
 .9286029,33.2721432,1.0459947\PG=C01 [X(C12N6)]\\@
 The archive entry for this job was punched.


 IN THE LONG RUN, DIGGING FOR TRUTH HAS ALWAYS PROVED NOT ONLY 
 MORE INTERESTING BUT MORE PROFITABLE THAN DIGGING FOR GOLD.

                             -- GEORGE R. HARRISON
 Job cpu time:       0 days  0 hours 14 minutes 20.1 seconds.
 Elapsed time:       0 days  0 hours  0 minutes 32.1 seconds.
 File lengths (MBytes):  RWF=    174 Int=      0 D2E=      0 Chk=      9 Scr=      1
 Normal termination of Gaussian 16 at Fri Oct 11 16:00:43 2024.
