 Entering Gaussian System, Link 0=g16
 Input=JOBS/37_B.gjf
 Output=JOBS/37_B.log
 Initial command:
 /data/app/gaussian/C01-avx2//g16/l1.exe "/tmp/Gau-2548603.inp" -scrdir="/tmp/"
 Entering Link 1 = /data/app/gaussian/C01-avx2//g16/l1.exe PID=   2548604.
  
 Copyright (c) 1988-2019, Gaussian, Inc.  All Rights Reserved.
  
 This is part of the Gaussian(R) 16 program.  It is based on
 the Gaussian(R) 09 system (copyright 2009, Gaussian, Inc.),
 the Gaussian(R) 03 system (copyright 2003, Gaussian, Inc.),
 the Gaussian(R) 98 system (copyright 1998, Gaussian, Inc.),
 the Gaussian(R) 94 system (copyright 1995, Gaussian, Inc.),
 the Gaussian 92(TM) system (copyright 1992, Gaussian, Inc.),
 the Gaussian 90(TM) system (copyright 1990, Gaussian, Inc.),
 the Gaussian 88(TM) system (copyright 1988, Gaussian, Inc.),
 the Gaussian 86(TM) system (copyright 1986, Carnegie Mellon
 University), and the Gaussian 82(TM) system (copyright 1983,
 Carnegie Mellon University). Gaussian is a federally registered
 trademark of Gaussian, Inc.
  
 This software contains proprietary and confidential information,
 including trade secrets, belonging to Gaussian, Inc.
  
 This software is provided under written license and may be
 used, copied, transmitted, or stored only in accord with that
 written license.
  
 The following legend is applicable only to US Government
 contracts under FAR:
  
                    RESTRICTED RIGHTS LEGEND
  
 Use, reproduction and disclosure by the US Government is
 subject to restrictions as set forth in subparagraphs (a)
 and (c) of the Commercial Computer Software - Restricted
 Rights clause in FAR 52.227-19.
  
 Gaussian, Inc.
 340 Quinnipiac St., Bldg. 40, Wallingford CT 06492
  
  
 ---------------------------------------------------------------
 Warning -- This program may not be used in any manner that
 competes with the business of Gaussian, Inc. or will provide
 assistance to any competitor of Gaussian, Inc.  The licensee
 of this program is prohibited from giving any competitor of
 Gaussian, Inc. access to this program.  By using this program,
 the user acknowledges that Gaussian, Inc. is engaged in the
 business of creating and licensing software in the field of
 computational chemistry and represents and warrants to the
 licensee that it is not a competitor of Gaussian, Inc. and that
 it will not use this program in any manner prohibited above.
 ---------------------------------------------------------------
  

 Cite this work as:
 Gaussian 16, Revision C.01,
 M. J. Frisch, G. W. Trucks, H. B. Schlegel, G. E. Scuseria, 
 M. A. Robb, J. R. Cheeseman, G. Scalmani, V. Barone, 
 G. A. Petersson, H. Nakatsuji, X. Li, M. Caricato, A. V. Marenich, 
 J. Bloino, B. G. Janesko, R. Gomperts, B. Mennucci, H. P. Hratchian, 
 J. V. Ortiz, A. F. Izmaylov, J. L. Sonnenberg, D. Williams-Young, 
 F. Ding, F. Lipparini, F. Egidi, J. Goings, B. Peng, A. Petrone, 
 T. Henderson, D. Ranasinghe, V. G. Zakrzewski, J. Gao, N. Rega, 
 G. Zheng, W. Liang, M. Hada, M. Ehara, K. Toyota, R. Fukuda, 
 J. Hasegawa, M. Ishida, T. Nakajima, Y. Honda, O. Kitao, H. Nakai, 
 T. Vreven, K. Throssell, J. A. Montgomery, Jr., J. E. Peralta, 
 F. Ogliaro, M. J. Bearpark, J. J. Heyd, E. N. Brothers, K. N. Kudin, 
 V. N. Staroverov, T. A. Keith, R. Kobayashi, J. Normand, 
 K. Raghavachari, A. P. Rendell, J. C. Burant, S. S. Iyengar, 
 J. Tomasi, M. Cossi, J. M. Millam, M. Klene, C. Adamo, R. Cammi, 
 J. W. Ochterski, R. L. Martin, K. Morokuma, O. Farkas, 
 J. B. Foresman, and D. J. Fox, Gaussian, Inc., Wallingford CT, 2019.
 
 ******************************************
 Gaussian 16:  ES64L-G16RevC.01  3-Jul-2019
                11-Oct-2024 
 ******************************************
 %chk=b.chk
 %nprocshared=28
 Will use up to   28 processors via shared memory.
 %mem=48gb
 ----------------------------------------------------------------------
 # wb97xd def2svp scrf=(smd,solvent=acetonitrile) g09default scf=(xqc,m
 axcycle=64) force guess=read nosymm
 ----------------------------------------------------------------------
 1/10=7,30=1,38=1,158=3,167=1/1,3;
 2/12=2,15=1,17=6,18=5,40=1/2;
 3/5=43,7=101,11=2,25=1,27=10,30=1,70=32201,71=1,72=2,74=-58,75=-4,116=-2,158=3/1,2,3;
 4/5=1,60=-1/1;
 5/5=2,7=64,8=3,13=1,38=6,53=2,87=10/2,8;
 6/7=2,8=2,9=2,10=2,28=1,87=10/1;
 7/29=1,30=1,87=10/1,2,3,16;
 1/10=7,30=1,158=3,167=1/3;
 99//99;
 Using 2006 physical constants.
 ----------
 Title Card
 ----------
 Symbolic Z-matrix:
 Charge = -1 Multiplicity = 2
 6                    -8.94018  -0.86782   1.11181 
 6                    -8.94537   0.46889   1.24509 
 6                    -8.21748  -2.13335   0.98313 
 6                    -7.04955  -2.80459   0.90133 
 6                    -9.66487  -2.13108   0.99523 
 6                    -10.85467  -2.80968   0.93973 
 6                    -10.19852   1.18737   1.33524 
 7                    -11.17881   1.76988   1.41752 
 6                    -7.69398   1.19876   1.32084 
 7                    -6.68658   1.7191    1.38008 
 6                    -5.79528  -2.1018    0.94892 
 7                    -4.78223  -1.50908   0.9935 
 6                    -7.03538  -4.24339   0.74291 
 7                    -7.03175  -5.3856    0.60645 
 6                    -10.84739  -4.25062   0.82969 
 7                    -10.79635  -5.39686   0.74752 
 6                    -12.10235  -2.09435   0.99327 
 7                    -13.08918  -1.48597   1.03653 
 

 GradGradGradGradGradGradGradGradGradGradGradGradGradGradGradGradGradGrad
 Berny optimization.
 Initialization pass.
 Trust Radius=3.00D-01 FncErr=1.00D-07 GrdErr=1.00D-07 EigMax=2.50D+02 EigMin=1.00D-04
 Number of steps in this run=      2 maximum allowed number of steps=      2.
 GradGradGradGradGradGradGradGradGradGradGradGradGradGradGradGradGradGrad

                          Input orientation:                          
 ---------------------------------------------------------------------
 Center     Atomic      Atomic             Coordinates (Angstroms)
 Number     Number       Type             X           Y           Z
 ---------------------------------------------------------------------
      1          6           0       -8.940185   -0.867819    1.111807
      2          6           0       -8.945367    0.468887    1.245086
      3          6           0       -8.217478   -2.133354    0.983130
      4          6           0       -7.049546   -2.804591    0.901332
      5          6           0       -9.664866   -2.131076    0.995231
      6          6           0      -10.854667   -2.809679    0.939728
      7          6           0      -10.198521    1.187372    1.335238
      8          7           0      -11.178807    1.769877    1.417523
      9          6           0       -7.693982    1.198760    1.320844
     10          7           0       -6.686576    1.719098    1.380084
     11          6           0       -5.795277   -2.101795    0.948925
     12          7           0       -4.782231   -1.509079    0.993501
     13          6           0       -7.035379   -4.243388    0.742911
     14          7           0       -7.031751   -5.385598    0.606449
     15          6           0      -10.847389   -4.250618    0.829694
     16          7           0      -10.796348   -5.396859    0.747523
     17          6           0      -12.102346   -2.094348    0.993269
     18          7           0      -13.089180   -1.485968    1.036530
 ---------------------------------------------------------------------
                    Distance matrix (angstroms):
                    1          2          3          4          5
     1  C    0.000000
     2  C    1.343343   0.000000
     3  C    1.463025   2.714793   0.000000
     4  C    2.714756   3.798416   1.349561   0.000000
     5  C    1.461018   2.709228   1.447441   2.702284   0.000000
     6  C    2.732339   3.806266   2.722879   3.805318   1.370842
     7  C    2.420153   1.447323   3.882748   5.102949   3.378238
     8  N    3.473087   2.590476   4.918677   6.184093   4.205685
     9  C    2.422285   1.450661   3.389849   4.076531   3.883068
    10  N    3.441346   2.585225   4.164447   4.563411   4.882845
    11  C    3.382259   4.076664   2.422648   1.438534   3.869977
    12  N    4.208775   4.615988   3.491525   2.612960   4.922094
    13  C    3.893436   5.109381   2.430496   1.447562   3.382267
    14  N    4.930298   6.192316   3.482087   2.597858   4.204326
    15  C    3.893629   5.105288   3.379761   4.064448   2.432739
    16  N    4.908183   6.170954   4.166120   4.558732   3.465104
    17  C    3.393772   4.074322   3.885077   5.103301   2.437757
    18  N    4.195467   4.586518   4.914819   6.183383   3.484795
                    6          7          8          9         10
     6  C    0.000000
     7  C    4.069813   0.000000
     8  N    4.615808   1.143260   0.000000
     9  C    5.118863   2.504606   3.532637   0.000000
    10  N    6.170634   3.552253   4.492674   1.135398   0.000000
    11  C    5.108681   5.509666   6.647693   3.825842   3.947092
    12  N    6.210389   6.060018   7.200523   3.989716   3.767904
    13  C    4.084266   6.312645   7.333653   5.512235   6.006571
    14  N    4.621810   7.332360   8.310039   6.656025   7.155024
    15  C    1.445153   5.499850   6.058197   6.315134   7.297452
    16  N    2.594966   6.637388   7.208140   7.311331   8.241797
    17  C    1.439189   3.809355   3.995642   5.512307   6.634950
    18  N    2.598967   3.948657   3.794102   6.032973   7.168251
                   11         12         13         14         15
    11  C    0.000000
    12  N    1.174547   0.000000
    13  C    2.483287   3.551889   0.000000
    14  N    3.525552   4.498616   1.150338   0.000000
    15  C    5.491402   6.658003   3.813005   3.987118   0.000000
    16  N    5.992389   7.165539   3.933880   3.767257   1.150315
    17  C    6.307229   7.343474   5.509556   6.057466   2.500235
    18  N    7.320379   8.307093   6.658686   7.216962   3.565347
                   16         17         18
    16  N    0.000000
    17  C    3.559860   0.000000
    18  N    4.542651   1.160104   0.000000
 Symmetry turned off by external request.
 Stoichiometry    C12N6(1-,2)
 Framework group  C1[X(C12N6)]
 Deg. of freedom    48
 Full point group                 C1      NOp   1
 Rotational constants (GHZ):           0.4280218           0.4238903           0.2130050
 Standard basis: def2SVP (5D, 7F)
   252 basis functions,   450 primitive gaussians,   270 cartesian basis functions
    58 alpha electrons       57 beta electrons
       nuclear repulsion energy       961.5402711030 Hartrees.
 NAtoms=   18 NActive=   18 NUniq=   18 SFac= 1.00D+00 NAtFMM=   60 NAOKFM=F Big=F
 Integral buffers will be    131072 words long.
 Raffenetti 2 integral format.
 Two-electron integral symmetry is turned off.
 Nuclear repulsion after empirical dispersion term =      961.5286452553 Hartrees.
 Force PCM accuracy= 1.00D-10.
 ------------------------------------------------------------------------------
 Polarizable Continuum Model (PCM)
 =================================
 Model                : PCM (using non-symmetric T matrix).
 Atomic radii         : SMD-Coulomb.
 Polarization charges : Total charges.
 Charge compensation  : None.
 Solution method      : On-the-fly selection.
 Cavity type          : VdW (van der Waals Surface) (Alpha=1.000).
 Cavity algorithm     : GePol (No added spheres)
                        Default sphere list used, NSphG=   18.
                        Lebedev-Laikov grids with approx.  5.0 points / Ang**2.
                        Smoothing algorithm: York/Karplus (Gamma=1.0000).
                        Polarization charges: spherical gaussians, with
                                              point-specific exponents (IZeta= 3).
                        Self-potential: point-specific (ISelfS= 7).
                        Self-field    : sphere-specific E.n sum rule (ISelfD= 2).
 1st derivatives      : Analytical E(r).r(x)/FMM algorithm (CHGder, D1EAlg=3).
                        Cavity 1st derivative terms included.
 Solvent              : Acetonitrile, Eps=  35.688000 Eps(inf)=   1.806874
 ------------------------------------------------------------------------------
 Spheres list:
 ISph  on   Nord     Re0    Alpha      Xe            Ye            Ze
    1   C      1    1.8500  1.000     -8.940185     -0.867819      1.111807
    2   C      2    1.8500  1.000     -8.945367      0.468887      1.245086
    3   C      3    1.8500  1.000     -8.217478     -2.133354      0.983130
    4   C      4    1.8500  1.000     -7.049546     -2.804591      0.901332
    5   C      5    1.8500  1.000     -9.664866     -2.131076      0.995231
    6   C      6    1.8500  1.000    -10.854667     -2.809679      0.939728
    7   C      7    1.8500  1.000    -10.198521      1.187372      1.335238
    8   N      8    1.8900  1.000    -11.178807      1.769877      1.417523
    9   C      9    1.8500  1.000     -7.693982      1.198760      1.320844
   10   N     10    1.8900  1.000     -6.686576      1.719098      1.380084
   11   C     11    1.8500  1.000     -5.795277     -2.101795      0.948925
   12   N     12    1.8900  1.000     -4.782231     -1.509079      0.993501
   13   C     13    1.8500  1.000     -7.035379     -4.243388      0.742911
   14   N     14    1.8900  1.000     -7.031751     -5.385598      0.606449
   15   C     15    1.8500  1.000    -10.847389     -4.250618      0.829694
   16   N     16    1.8900  1.000    -10.796348     -5.396859      0.747523
   17   C     17    1.8500  1.000    -12.102346     -2.094348      0.993269
   18   N     18    1.8900  1.000    -13.089180     -1.485968      1.036530
 ------------------------------------------------------------------------------
 ------------------------------------------------------------------------------
 Atomic radii for non-electrostatic terms: SMD-CDS.
 ------------------------------------------------------------------------------
 Nuclear repulsion after PCM non-electrostatic terms =      961.5373976700 Hartrees.
 One-electron integrals computed using PRISM.
   1 Symmetry operations used in ECPInt.
 ECPInt:  NShTT=    5886 NPrTT=   23670 LenC2=    5396 LenP2D=   14933.
 LDataN:  DoStor=T MaxTD1= 4 Len=   56
 NBasis=   252 RedAO= T EigKep=  2.26D-04  NBF=   252
 NBsUse=   252 1.00D-06 EigRej= -1.00D+00 NBFU=   252
 Initial guess from the checkpoint file:  "b.chk"
 B after Tr=     0.000605   -0.002481    0.000147
         Rot=    1.000000    0.000036    0.000010    0.000066 Ang=   0.01 deg.
 Initial guess <Sx>= 0.0000 <Sy>= 0.0000 <Sz>= 0.5000 <S**2>= 0.7852 S= 0.5174
 Requested convergence on RMS density matrix=1.00D-08 within  64 cycles.
 Requested convergence on MAX density matrix=1.00D-06.
 Requested convergence on             energy=1.00D-06.
 No special actions if energy rises.
 Inv3:  Mode=1 IEnd=    19172352.
 Iteration    1 A*A^-1 deviation from unit magnitude is 3.33D-15 for   1093.
 Iteration    1 A*A^-1 deviation from orthogonality  is 2.82D-15 for   1183     32.
 Iteration    1 A^-1*A deviation from unit magnitude is 3.22D-15 for    915.
 Iteration    1 A^-1*A deviation from orthogonality  is 8.87D-13 for   2283   2271.
 Error on total polarization charges =  0.01958
 SCF Done:  E(UwB97XD) =  -784.848826414     A.U. after   19 cycles
            NFock= 19  Conv=0.36D-08     -V/T= 2.0098
 <Sx>= 0.0000 <Sy>= 0.0000 <Sz>= 0.5000 <S**2>= 0.7816 S= 0.5157
 <L.S>=  0.00000000000    
 SMD-CDS (non-electrostatic) energy       (kcal/mol) =       5.49
 (included in total energy above)
 Annihilation of the first spin contaminant:
 S**2 before annihilation     0.7816,   after     0.7508
 QCSCF skips out because SCF is already converged.

 **********************************************************************

            Population analysis using the SCF Density.

 **********************************************************************

 Alpha  occ. eigenvalues --  -14.46293 -14.45957 -14.45789 -14.45732 -14.45611
 Alpha  occ. eigenvalues --  -14.45450 -10.38321 -10.38269 -10.38240 -10.38226
 Alpha  occ. eigenvalues --  -10.38146 -10.38134 -10.36534 -10.36220 -10.36058
 Alpha  occ. eigenvalues --  -10.36013 -10.35880 -10.35732  -1.03947  -1.02460
 Alpha  occ. eigenvalues --   -1.02042  -1.01606  -1.01221  -1.00955  -1.00527
 Alpha  occ. eigenvalues --   -0.92354  -0.92091  -0.89010  -0.72054  -0.71817
 Alpha  occ. eigenvalues --   -0.68472  -0.68383  -0.67864  -0.67417  -0.54847
 Alpha  occ. eigenvalues --   -0.50883  -0.50721  -0.49093  -0.48722  -0.47639
 Alpha  occ. eigenvalues --   -0.47543  -0.47479  -0.47019  -0.46566  -0.46306
 Alpha  occ. eigenvalues --   -0.45865  -0.45485  -0.45382  -0.44993  -0.44764
 Alpha  occ. eigenvalues --   -0.44737  -0.44667  -0.43254  -0.42930  -0.42823
 Alpha  occ. eigenvalues --   -0.36131  -0.35825  -0.26841
 Alpha virt. eigenvalues --    0.04606   0.04656   0.06668   0.07098   0.07625
 Alpha virt. eigenvalues --    0.09612   0.10291   0.10559   0.11326   0.12226
 Alpha virt. eigenvalues --    0.12797   0.14703   0.18872   0.18953   0.20683
 Alpha virt. eigenvalues --    0.22939   0.24847   0.25106   0.25608   0.25779
 Alpha virt. eigenvalues --    0.28026   0.30942   0.31217   0.31413   0.31569
 Alpha virt. eigenvalues --    0.32410   0.34759   0.46731   0.47063   0.49232
 Alpha virt. eigenvalues --    0.49508   0.51889   0.52299   0.53135   0.53238
 Alpha virt. eigenvalues --    0.54329   0.54370   0.55077   0.56888   0.59940
 Alpha virt. eigenvalues --    0.60036   0.60167   0.61298   0.61764   0.63604
 Alpha virt. eigenvalues --    0.63759   0.69354   0.69469   0.69754   0.71850
 Alpha virt. eigenvalues --    0.72008   0.72627   0.72829   0.73115   0.73478
 Alpha virt. eigenvalues --    0.73572   0.73597   0.74656   0.74935   0.75250
 Alpha virt. eigenvalues --    0.79327   0.79441   0.79548   0.80851   0.81019
 Alpha virt. eigenvalues --    0.84573   0.85029   0.86452   0.87080   0.92899
 Alpha virt. eigenvalues --    0.93043   0.93078   0.93248   0.93523   0.94143
 Alpha virt. eigenvalues --    0.95889   0.98528   0.98574   0.99224   0.99808
 Alpha virt. eigenvalues --    1.00538   1.00697   1.02230   1.02501   1.03541
 Alpha virt. eigenvalues --    1.05586   1.06742   1.07543   1.08662   1.10748
 Alpha virt. eigenvalues --    1.12037   1.15392   1.16450   1.17632   1.18014
 Alpha virt. eigenvalues --    1.20555   1.22708   1.23095   1.23633   1.32913
 Alpha virt. eigenvalues --    1.34717   1.35067   1.38334   1.38490   1.41614
 Alpha virt. eigenvalues --    1.43841   1.44324   1.44588   1.45215   1.57071
 Alpha virt. eigenvalues --    1.59030   1.66329   1.68008   1.68270   1.68414
 Alpha virt. eigenvalues --    1.68550   1.68978   1.75432   1.75639   1.76696
 Alpha virt. eigenvalues --    1.76954   1.78095   1.78587   1.78742   1.80500
 Alpha virt. eigenvalues --    1.80558   1.80775   1.84832   1.92832   1.93466
 Alpha virt. eigenvalues --    1.94309   1.97522   1.97894   1.98044   2.01800
 Alpha virt. eigenvalues --    2.02058   2.02937   2.03969   2.08993   2.09272
 Alpha virt. eigenvalues --    2.14489   2.18911   2.19372   2.20818   2.24229
 Alpha virt. eigenvalues --    2.27027   2.27566   2.28245   2.32836   2.32938
 Alpha virt. eigenvalues --    2.33488   2.33591   2.33912   2.34384   2.34693
 Alpha virt. eigenvalues --    2.34926   2.34986   2.35816   2.35901   2.36430
 Alpha virt. eigenvalues --    2.37441   2.38282   2.56647   2.58127   2.59292
 Alpha virt. eigenvalues --    2.68803   2.69764   2.91813   2.94130   2.94739
 Alpha virt. eigenvalues --    2.95503   2.98394   2.99166   2.99749   3.02171
 Alpha virt. eigenvalues --    3.04099   3.05969   3.08135   3.08909   3.10152
 Alpha virt. eigenvalues --    3.11148   3.12782   3.21834   3.23060   3.27554
 Alpha virt. eigenvalues --    3.39070   3.39784   3.41277   3.52384   3.55170
 Alpha virt. eigenvalues --    3.58013   3.61531   3.63724   3.76232
  Beta  occ. eigenvalues --  -14.46105 -14.45775 -14.45628 -14.45563 -14.45457
  Beta  occ. eigenvalues --  -14.45303 -10.38313 -10.38263 -10.38235 -10.37930
  Beta  occ. eigenvalues --  -10.37823 -10.37805 -10.36624 -10.36309 -10.36137
  Beta  occ. eigenvalues --  -10.36096 -10.35956 -10.35806  -1.03544  -1.02165
  Beta  occ. eigenvalues --   -1.01728  -1.01346  -1.00893  -1.00646  -1.00204
  Beta  occ. eigenvalues --   -0.91658  -0.91350  -0.88018  -0.71869  -0.71632
  Beta  occ. eigenvalues --   -0.68231  -0.68156  -0.67604  -0.67218  -0.53857
  Beta  occ. eigenvalues --   -0.49666  -0.49440  -0.48905  -0.48545  -0.47320
  Beta  occ. eigenvalues --   -0.47214  -0.47181  -0.46706  -0.46351  -0.46114
  Beta  occ. eigenvalues --   -0.45391  -0.44772  -0.44650  -0.44591  -0.44538
  Beta  occ. eigenvalues --   -0.44177  -0.43975  -0.43129  -0.42803  -0.42684
  Beta  occ. eigenvalues --   -0.33657  -0.33122
  Beta virt. eigenvalues --   -0.09333   0.05643   0.05687   0.06774   0.07200
  Beta virt. eigenvalues --    0.07709   0.09603   0.11234   0.11488   0.12085
  Beta virt. eigenvalues --    0.12277   0.12853   0.14942   0.19096   0.19187
  Beta virt. eigenvalues --    0.22233   0.22874   0.25779   0.25944   0.26515
  Beta virt. eigenvalues --    0.26688   0.28260   0.31010   0.31388   0.31945
  Beta virt. eigenvalues --    0.32047   0.33007   0.34858   0.46870   0.47199
  Beta virt. eigenvalues --    0.49327   0.49598   0.51990   0.52401   0.53081
  Beta virt. eigenvalues --    0.53182   0.54489   0.54538   0.55244   0.57051
  Beta virt. eigenvalues --    0.59860   0.59973   0.60084   0.61324   0.61793
  Beta virt. eigenvalues --    0.63638   0.63846   0.69495   0.69642   0.70039
  Beta virt. eigenvalues --    0.72012   0.72164   0.72751   0.72959   0.73276
  Beta virt. eigenvalues --    0.73603   0.73727   0.73755   0.74784   0.75009
  Beta virt. eigenvalues --    0.75339   0.79453   0.79576   0.80284   0.81583
  Beta virt. eigenvalues --    0.81721   0.84696   0.85160   0.86712   0.87170
  Beta virt. eigenvalues --    0.93043   0.93255   0.93592   0.93706   0.93763
  Beta virt. eigenvalues --    0.94664   0.96543   0.99075   0.99132   0.99429
  Beta virt. eigenvalues --    0.99980   1.00691   1.00840   1.02420   1.02672
  Beta virt. eigenvalues --    1.03665   1.05905   1.06995   1.07692   1.08929
  Beta virt. eigenvalues --    1.10864   1.12150   1.15576   1.16746   1.17867
  Beta virt. eigenvalues --    1.18253   1.20926   1.22929   1.23325   1.24263
  Beta virt. eigenvalues --    1.33050   1.34904   1.35255   1.38947   1.39104
  Beta virt. eigenvalues --    1.42372   1.44089   1.44789   1.45077   1.45646
  Beta virt. eigenvalues --    1.57121   1.59032   1.66182   1.67847   1.68081
  Beta virt. eigenvalues --    1.68220   1.68387   1.68773   1.75325   1.75537
  Beta virt. eigenvalues --    1.76872   1.77155   1.78024   1.78516   1.78665
  Beta virt. eigenvalues --    1.80448   1.80661   1.80874   1.84756   1.92929
  Beta virt. eigenvalues --    1.93639   1.94377   1.97707   1.98457   1.98587
  Beta virt. eigenvalues --    2.02128   2.02381   2.03093   2.04691   2.09389
  Beta virt. eigenvalues --    2.09733   2.14739   2.19849   2.20289   2.21908
  Beta virt. eigenvalues --    2.24843   2.27615   2.28220   2.28887   2.33416
  Beta virt. eigenvalues --    2.33555   2.34061   2.34184   2.34507   2.34995
  Beta virt. eigenvalues --    2.35115   2.35438   2.35508   2.36372   2.36507
  Beta virt. eigenvalues --    2.36939   2.38084   2.38865   2.57092   2.58260
  Beta virt. eigenvalues --    2.59404   2.69349   2.70292   2.91900   2.94328
  Beta virt. eigenvalues --    2.94864   2.95631   2.98530   2.99298   2.99873
  Beta virt. eigenvalues --    3.02644   3.04611   3.06429   3.08333   3.09098
  Beta virt. eigenvalues --    3.10611   3.11626   3.13211   3.22067   3.23279
  Beta virt. eigenvalues --    3.27732   3.39295   3.39990   3.41463   3.52558
  Beta virt. eigenvalues --    3.55349   3.58177   3.61721   3.63906   3.76401
          Condensed to atoms (all electrons):
               1          2          3          4          5          6
     1  C    4.893552   0.564606   0.271899  -0.105550   0.286195  -0.093409
     2  C    0.564606   5.335687  -0.107542  -0.009891  -0.106969  -0.008393
     3  C    0.271899  -0.107542   4.912744   0.554578   0.282114  -0.100014
     4  C   -0.105550  -0.009891   0.554578   5.346242  -0.111573  -0.008771
     5  C    0.286195  -0.106969   0.282114  -0.111573   4.928290   0.551178
     6  C   -0.093409  -0.008393  -0.100014  -0.008771   0.551178   5.312299
     7  C    0.008413   0.392340   0.004468  -0.000429  -0.018567   0.001791
     8  N   -0.002138  -0.025306  -0.000076  -0.000001  -0.000413   0.000083
     9  C    0.006388   0.386908  -0.018020   0.001821   0.006123  -0.000357
    10  N   -0.001996  -0.023962  -0.000456   0.000099  -0.000032  -0.000001
    11  C   -0.018416   0.001685   0.009671   0.389848   0.005292  -0.000374
    12  N   -0.000378   0.000073  -0.001744  -0.026444  -0.000052  -0.000001
    13  C    0.004763  -0.000404   0.006638   0.388649  -0.018487   0.001723
    14  N   -0.000062  -0.000001  -0.002032  -0.025419  -0.000416   0.000083
    15  C    0.005720  -0.000381  -0.019218   0.001804   0.006310   0.389180
    16  N   -0.000024  -0.000001  -0.000469   0.000105  -0.001591  -0.025800
    17  C   -0.018719   0.001788   0.005635  -0.000395   0.007268   0.389922
    18  N   -0.000413   0.000097  -0.000032  -0.000001  -0.001449  -0.026479
               7          8          9         10         11         12
     1  C    0.008413  -0.002138   0.006388  -0.001996  -0.018416  -0.000378
     2  C    0.392340  -0.025306   0.386908  -0.023962   0.001685   0.000073
     3  C    0.004468  -0.000076  -0.018020  -0.000456   0.009671  -0.001744
     4  C   -0.000429  -0.000001   0.001821   0.000099   0.389848  -0.026444
     5  C   -0.018567  -0.000413   0.006123  -0.000032   0.005292  -0.000052
     6  C    0.001791   0.000083  -0.000357  -0.000001  -0.000374  -0.000001
     7  C    4.823726   0.928851  -0.044169   0.001593   0.000078   0.000001
     8  N    0.928851   6.067508   0.001278   0.000049   0.000000   0.000000
     9  C   -0.044169   0.001278   4.821005   0.939546  -0.000067   0.000251
    10  N    0.001593   0.000049   0.939546   6.043385   0.000204  -0.000760
    11  C    0.000078   0.000000  -0.000067   0.000204   4.836920   0.896584
    12  N    0.000001   0.000000   0.000251  -0.000760   0.896584   6.130290
    13  C   -0.000009  -0.000000   0.000076   0.000001  -0.042506   0.001717
    14  N   -0.000000  -0.000000   0.000000   0.000000   0.001676   0.000055
    15  C    0.000075   0.000001  -0.000007  -0.000000   0.000081   0.000000
    16  N    0.000000   0.000000  -0.000000  -0.000000   0.000002   0.000000
    17  C   -0.000004  -0.000018   0.000079   0.000000  -0.000008  -0.000000
    18  N    0.000448  -0.000761   0.000001   0.000000  -0.000000  -0.000000
              13         14         15         16         17         18
     1  C    0.004763  -0.000062   0.005720  -0.000024  -0.018719  -0.000413
     2  C   -0.000404  -0.000001  -0.000381  -0.000001   0.001788   0.000097
     3  C    0.006638  -0.002032  -0.019218  -0.000469   0.005635  -0.000032
     4  C    0.388649  -0.025419   0.001804   0.000105  -0.000395  -0.000001
     5  C   -0.018487  -0.000416   0.006310  -0.001591   0.007268  -0.001449
     6  C    0.001723   0.000083   0.389180  -0.025800   0.389922  -0.026479
     7  C   -0.000009  -0.000000   0.000075   0.000000  -0.000004   0.000448
     8  N   -0.000000  -0.000000   0.000001   0.000000  -0.000018  -0.000761
     9  C    0.000076   0.000000  -0.000007  -0.000000   0.000079   0.000001
    10  N    0.000001   0.000000  -0.000000  -0.000000   0.000000   0.000000
    11  C   -0.042506   0.001676   0.000081   0.000002  -0.000008  -0.000000
    12  N    0.001717   0.000055   0.000000   0.000000  -0.000000  -0.000000
    13  C    4.827334   0.923267  -0.000020   0.000413   0.000076   0.000000
    14  N    0.923267   6.076173   0.000065  -0.000777   0.000001   0.000000
    15  C   -0.000020   0.000065   4.823368   0.921691  -0.040531   0.001704
    16  N    0.000413  -0.000777   0.921691   6.083203   0.001756   0.000049
    17  C    0.000076   0.000001  -0.040531   0.001756   4.826064   0.909423
    18  N    0.000000   0.000000   0.001704   0.000049   0.909423   6.104924
          Atomic-Atomic Spin Densities.
               1          2          3          4          5          6
     1  C   -0.031077  -0.069810   0.034322  -0.006582   0.035824  -0.006229
     2  C   -0.069810   0.374596  -0.006970   0.001088  -0.007098   0.001102
     3  C    0.034322  -0.006970  -0.016164  -0.074874   0.039039  -0.006948
     4  C   -0.006582   0.001088  -0.074874   0.379761  -0.007325   0.001090
     5  C    0.035824  -0.007098   0.039039  -0.007325  -0.014458  -0.076138
     6  C   -0.006229   0.001102  -0.006948   0.001090  -0.076138   0.394987
     7  C   -0.000496   0.006393  -0.000125  -0.000010   0.000330  -0.000047
     8  N    0.000467  -0.004861   0.000008  -0.000000   0.000049  -0.000026
     9  C   -0.000586   0.005826   0.000277  -0.000056  -0.000135  -0.000010
    10  N    0.000519  -0.004814   0.000049  -0.000030   0.000009  -0.000000
    11  C    0.000317  -0.000067  -0.000272   0.008110  -0.000148  -0.000011
    12  N    0.000046  -0.000028   0.000542  -0.005106   0.000009  -0.000000
    13  C   -0.000112  -0.000010  -0.000288   0.006391   0.000287  -0.000056
    14  N    0.000007  -0.000000   0.000503  -0.004931   0.000046  -0.000027
    15  C   -0.000097  -0.000010   0.000279  -0.000068  -0.000243   0.006614
    16  N    0.000009  -0.000000   0.000050  -0.000033   0.000568  -0.005204
    17  C    0.000325  -0.000069  -0.000126  -0.000011  -0.000254   0.007405
    18  N    0.000046  -0.000031   0.000009  -0.000000   0.000559  -0.005331
               7          8          9         10         11         12
     1  C   -0.000496   0.000467  -0.000586   0.000519   0.000317   0.000046
     2  C    0.006393  -0.004861   0.005826  -0.004814  -0.000067  -0.000028
     3  C   -0.000125   0.000008   0.000277   0.000049  -0.000272   0.000542
     4  C   -0.000010  -0.000000  -0.000056  -0.000030   0.008110  -0.005106
     5  C    0.000330   0.000049  -0.000135   0.000009  -0.000148   0.000009
     6  C   -0.000047  -0.000026  -0.000010  -0.000000  -0.000011  -0.000000
     7  C   -0.062803  -0.001753  -0.000536   0.000065  -0.000002   0.000000
     8  N   -0.001753   0.095236   0.000103   0.000007  -0.000000   0.000000
     9  C   -0.000536   0.000103  -0.060559  -0.001527   0.000014   0.000010
    10  N    0.000065   0.000007  -0.001527   0.090630   0.000010   0.000035
    11  C   -0.000002  -0.000000   0.000014   0.000010  -0.074801  -0.002935
    12  N    0.000000   0.000000   0.000010   0.000035  -0.002935   0.115964
    13  C    0.000000  -0.000000  -0.000002   0.000000  -0.000573   0.000103
    14  N   -0.000000   0.000000  -0.000000   0.000000   0.000108   0.000008
    15  C   -0.000002   0.000000   0.000000  -0.000000  -0.000002  -0.000000
    16  N   -0.000000   0.000000  -0.000000   0.000000   0.000000   0.000000
    17  C    0.000014   0.000011  -0.000002  -0.000000   0.000000  -0.000000
    18  N    0.000009   0.000033   0.000000   0.000000  -0.000000   0.000000
              13         14         15         16         17         18
     1  C   -0.000112   0.000007  -0.000097   0.000009   0.000325   0.000046
     2  C   -0.000010  -0.000000  -0.000010  -0.000000  -0.000069  -0.000031
     3  C   -0.000288   0.000503   0.000279   0.000050  -0.000126   0.000009
     4  C    0.006391  -0.004931  -0.000068  -0.000033  -0.000011  -0.000000
     5  C    0.000287   0.000046  -0.000243   0.000568  -0.000254   0.000559
     6  C   -0.000056  -0.000027   0.006614  -0.005204   0.007405  -0.005331
     7  C    0.000000  -0.000000  -0.000002  -0.000000   0.000014   0.000009
     8  N   -0.000000   0.000000   0.000000   0.000000   0.000011   0.000033
     9  C   -0.000002  -0.000000   0.000000  -0.000000  -0.000002   0.000000
    10  N    0.000000   0.000000  -0.000000   0.000000  -0.000000   0.000000
    11  C   -0.000573   0.000108  -0.000002   0.000000   0.000000  -0.000000
    12  N    0.000103   0.000008  -0.000000   0.000000  -0.000000   0.000000
    13  C   -0.065405  -0.001905   0.000012   0.000009  -0.000002  -0.000000
    14  N   -0.001905   0.099465   0.000011   0.000036   0.000000   0.000000
    15  C    0.000012   0.000011  -0.068369  -0.002067  -0.000774   0.000090
    16  N    0.000009   0.000036  -0.002067   0.104840   0.000083   0.000007
    17  C   -0.000002   0.000000  -0.000774   0.000083  -0.072918  -0.002533
    18  N   -0.000000   0.000000   0.000090   0.000007  -0.002533   0.113131
 Mulliken charges and spin densities:
               1          2
     1  C    0.199569  -0.043107
     2  C   -0.400333   0.295237
     3  C    0.201856  -0.030690
     4  C   -0.394672   0.297412
     5  C    0.186780  -0.029080
     6  C   -0.382659   0.311172
     7  C   -0.098607  -0.058964
     8  N    0.030943   0.089275
     9  C   -0.100855  -0.057184
    10  N    0.042330   0.084952
    11  C   -0.080668  -0.070253
    12  N    0.000407   0.108648
    13  C   -0.093232  -0.061551
    14  N    0.027388   0.093322
    15  C   -0.089842  -0.064626
    16  N    0.021443   0.098297
    17  C   -0.082338  -0.068850
    18  N    0.012488   0.105990
 Sum of Mulliken charges =  -1.00000   1.00000
 Mulliken charges and spin densities with hydrogens summed into heavy atoms:
               1          2
     1  C    0.199569  -0.043107
     2  C   -0.400333   0.295237
     3  C    0.201856  -0.030690
     4  C   -0.394672   0.297412
     5  C    0.186780  -0.029080
     6  C   -0.382659   0.311172
     7  C   -0.098607  -0.058964
     8  N    0.030943   0.089275
     9  C   -0.100855  -0.057184
    10  N    0.042330   0.084952
    11  C   -0.080668  -0.070253
    12  N    0.000407   0.108648
    13  C   -0.093232  -0.061551
    14  N    0.027388   0.093322
    15  C   -0.089842  -0.064626
    16  N    0.021443   0.098297
    17  C   -0.082338  -0.068850
    18  N    0.012488   0.105990
 Electronic spatial extent (au):  <R**2>=          39017.8236
 Charge=             -1.0000 electrons
 Dipole moment (field-independent basis, Debye):
    X=             42.7789    Y=              8.3845    Z=             -4.9444  Tot=             43.8724
 Quadrupole moment (field-independent basis, Debye-Ang):
   XX=           -551.9704   YY=           -183.8096   ZZ=           -104.2802
   XY=            -73.9625   XZ=             44.7684   YZ=              1.5228
 Traceless Quadrupole moment (field-independent basis, Debye-Ang):
   XX=           -271.9503   YY=             96.2104   ZZ=            175.7399
   XY=            -73.9625   XZ=             44.7684   YZ=              1.5228
 Octapole moment (field-independent basis, Debye-Ang**2):
  XXX=           7974.7654  YYY=            968.2455  ZZZ=           -311.3998  XYY=           1640.5827
  XXY=            875.7954  XXZ=           -586.6100  XZZ=            933.3158  YZZ=            165.1420
  YYZ=           -159.5256  XYZ=            -14.6888
 Hexadecapole moment (field-independent basis, Debye-Ang**3):
 XXXX=        -116423.3676 YYYY=          -7795.1383 ZZZZ=           -763.9953 XXXY=         -11724.8237
 XXXZ=           8550.7577 YYYX=          -8631.5451 YYYZ=            637.4219 ZZZX=           2801.2847
 ZZZY=            363.3057 XXYY=         -16339.2502 XXZZ=          -9091.6241 YYZZ=           -974.4745
 XXYZ=            289.9745 YYXZ=           1443.6252 ZZXY=          -1475.3685
 N-N= 9.615373976700D+02 E-N=-3.758557898984D+03  KE= 7.772287358588D+02
                          Isotropic Fermi Contact Couplings
        Atom                 a.u.       MegaHertz       Gauss      10(-4) cm-1
     1  C(13)             -0.01643     -18.47258      -6.59147      -6.16179
     2  C(13)              0.04777      53.70137      19.16198      17.91285
     3  C(13)             -0.01436     -16.14503      -5.76095      -5.38540
     4  C(13)              0.04805      54.01547      19.27406      18.01762
     5  C(13)             -0.01435     -16.12708      -5.75454      -5.37941
     6  C(13)              0.05101      57.34167      20.46093      19.12712
     7  C(13)             -0.02920     -32.82622     -11.71321     -10.94965
     8  N(14)              0.02050       6.62497       2.36395       2.20985
     9  C(13)             -0.02864     -32.19497     -11.48797     -10.73909
    10  N(14)              0.01937       6.25988       2.23368       2.08807
    11  C(13)             -0.03240     -36.42877     -12.99869     -12.15133
    12  N(14)              0.02553       8.24851       2.94327       2.75141
    13  C(13)             -0.03021     -33.96445     -12.11936     -11.32932
    14  N(14)              0.02154       6.95996       2.48348       2.32159
    15  C(13)             -0.03157     -35.49458     -12.66535     -11.83972
    16  N(14)              0.02268       7.32715       2.61451       2.44407
    17  C(13)             -0.03260     -36.65227     -13.07844     -12.22588
    18  N(14)              0.02467       7.97231       2.84472       2.65927
 --------------------------------------------------------
       Center         ----  Spin Dipole Couplings  ----
                      3XX-RR        3YY-RR        3ZZ-RR
 --------------------------------------------------------
     1   Atom       -0.004885      0.024775     -0.019889
     2   Atom       -0.153129     -0.150436      0.303565
     3   Atom        0.010822     -0.003605     -0.007217
     4   Atom       -0.155961     -0.150102      0.306063
     5   Atom        0.008221     -0.005718     -0.002503
     6   Atom       -0.164293     -0.160387      0.324680
     7   Atom        0.029683      0.006970     -0.036653
     8   Atom       -0.090305     -0.074671      0.164976
     9   Atom        0.029027      0.005918     -0.034945
    10   Atom       -0.087766     -0.070246      0.158012
    11   Atom        0.034376      0.009702     -0.044078
    12   Atom       -0.108880     -0.088590      0.197471
    13   Atom       -0.002584      0.040383     -0.037798
    14   Atom       -0.073260     -0.097699      0.170959
    15   Atom       -0.002925      0.043038     -0.040113
    16   Atom       -0.077222     -0.105742      0.182965
    17   Atom        0.032977      0.010206     -0.043183
    18   Atom       -0.106171     -0.089964      0.196135
 --------------------------------------------------------
                        XY            XZ            YZ
 --------------------------------------------------------
     1   Atom        0.000245     -0.002179      0.003499
     2   Atom       -0.000231      0.002617     -0.048414
     3   Atom       -0.011992      0.000451      0.001050
     4   Atom        0.000140      0.008446     -0.048149
     5   Atom        0.011481      0.000570      0.000640
     6   Atom       -0.000702     -0.000603     -0.038073
     7   Atom       -0.017903     -0.002674      0.004823
     8   Atom        0.011078      0.006985     -0.027255
     9   Atom        0.016885      0.001775      0.004482
    10   Atom       -0.009961     -0.001895     -0.025566
    11   Atom        0.022197      0.000851      0.005239
    12   Atom       -0.016115      0.003654     -0.030042
    13   Atom        0.000516     -0.000392      0.008737
    14   Atom       -0.000381      0.003419     -0.033708
    15   Atom       -0.001834      0.000053      0.006366
    16   Atom        0.001540     -0.001128     -0.020187
    17   Atom       -0.022206     -0.001677      0.004055
    18   Atom        0.014973      0.000058     -0.021169
 --------------------------------------------------------


 ---------------------------------------------------------------------------------
              Anisotropic Spin Dipole Couplings in Principal Axis System
 ---------------------------------------------------------------------------------

       Atom             a.u.   MegaHertz   Gauss  10(-4) cm-1        Axes

              Baa    -0.0205    -2.747    -0.980    -0.916  0.1392 -0.0771  0.9873
     1 C(13)  Bbb    -0.0046    -0.614    -0.219    -0.205  0.9903  0.0083 -0.1390
              Bcc     0.0250     3.361     1.199     1.121  0.0025  0.9970  0.0775
 
              Baa    -0.1555   -20.872    -7.448    -6.962 -0.0184  0.9943  0.1050
     2 C(13)  Bbb    -0.1531   -20.550    -7.333    -6.855  0.9998  0.0189 -0.0037
              Bcc     0.3087    41.423    14.781    13.817  0.0057 -0.1049  0.9945
 
              Baa    -0.0108    -1.443    -0.515    -0.481  0.4674  0.8294 -0.3060
     3 C(13)  Bbb    -0.0069    -0.920    -0.328    -0.307  0.1548  0.2640  0.9520
              Bcc     0.0176     2.362     0.843     0.788  0.8704 -0.4924 -0.0050
 
              Baa    -0.1567   -21.034    -7.506    -7.016  0.8471 -0.5267 -0.0703
     4 C(13)  Bbb    -0.1545   -20.731    -7.397    -6.915  0.5311  0.8437  0.0785
              Bcc     0.3112    41.765    14.903    13.931  0.0179 -0.1038  0.9944
 
              Baa    -0.0122    -1.635    -0.584    -0.546 -0.4895  0.8715 -0.0288
     5 C(13)  Bbb    -0.0025    -0.340    -0.121    -0.113 -0.0551  0.0021  0.9985
              Bcc     0.0147     1.975     0.705     0.659  0.8703  0.4903  0.0470
 
              Baa    -0.1647   -22.102    -7.887    -7.372  0.8750  0.4825  0.0386
     6 C(13)  Bbb    -0.1629   -21.866    -7.802    -7.294 -0.4841  0.8724  0.0675
              Bcc     0.3277    43.968    15.689    14.666 -0.0011 -0.0778  0.9970
 
              Baa    -0.0372    -4.990    -1.781    -1.665  0.0120 -0.1038  0.9945
     7 C(13)  Bbb    -0.0026    -0.352    -0.126    -0.117  0.4883  0.8685  0.0847
              Bcc     0.0398     5.343     1.906     1.782  0.8726 -0.4846 -0.0611
 
              Baa    -0.0975    -3.759    -1.341    -1.254  0.8584 -0.5074 -0.0755
     8 N(14)  Bbb    -0.0707    -2.727    -0.973    -0.909  0.5125  0.8546  0.0836
              Bcc     0.1682     6.486     2.314     2.163  0.0221 -0.1105  0.9936
 
              Baa    -0.0354    -4.754    -1.697    -1.586  0.0010 -0.1081  0.9941
     9 C(13)  Bbb    -0.0027    -0.360    -0.129    -0.120 -0.4720  0.8764  0.0958
              Bcc     0.0381     5.115     1.825     1.706  0.8816  0.4693  0.0502
 
              Baa    -0.0929    -3.584    -1.279    -1.195  0.8910  0.4509  0.0527
    10 N(14)  Bbb    -0.0679    -2.620    -0.935    -0.874 -0.4539  0.8858  0.0964
              Bcc     0.1608     6.203     2.214     2.069 -0.0032 -0.1098  0.9939
 
              Baa    -0.0446    -5.986    -2.136    -1.997  0.0184 -0.1034  0.9945
    11 C(13)  Bbb    -0.0030    -0.396    -0.141    -0.132 -0.5103  0.8544  0.0983
              Bcc     0.0476     6.382     2.277     2.129  0.8598  0.5093  0.0371
 
              Baa    -0.1182    -4.559    -1.627    -1.521  0.8610  0.5072  0.0383
    12 N(14)  Bbb    -0.0825    -3.181    -1.135    -1.061 -0.5084  0.8555  0.0984
              Bcc     0.2007     7.740     2.762     2.582  0.0172 -0.1042  0.9944
 
              Baa    -0.0388    -5.202    -1.856    -1.735  0.0123 -0.1098  0.9939
    13 C(13)  Bbb    -0.0026    -0.347    -0.124    -0.116  0.9999 -0.0093 -0.0134
              Bcc     0.0414     5.549     1.980     1.851  0.0107  0.9939  0.1097
 
              Baa    -0.1019    -3.929    -1.402    -1.310 -0.0015  0.9925  0.1226
    14 N(14)  Bbb    -0.0733    -2.827    -1.009    -0.943  0.9999  0.0031 -0.0136
              Bcc     0.1752     6.756     2.411     2.254  0.0138 -0.1226  0.9924
 
              Baa    -0.0406    -5.448    -1.944    -1.817 -0.0051 -0.0760  0.9971
    15 C(13)  Bbb    -0.0030    -0.402    -0.143    -0.134  0.9992  0.0387  0.0081
              Bcc     0.0436     5.850     2.087     1.951 -0.0392  0.9964  0.0757
 
              Baa    -0.1072    -4.135    -1.476    -1.379 -0.0486  0.9964  0.0691
    16 N(14)  Bbb    -0.0772    -2.976    -1.062    -0.993  0.9988  0.0481  0.0081
              Bcc     0.1844     7.111     2.537     2.372 -0.0047 -0.0694  0.9976
 
              Baa    -0.0435    -5.836    -2.082    -1.947 -0.0000 -0.0753  0.9972
    17 C(13)  Bbb    -0.0032    -0.429    -0.153    -0.143  0.5242  0.8492  0.0641
              Bcc     0.0467     6.265     2.235     2.090  0.8516 -0.5227 -0.0395
 
              Baa    -0.1155    -4.454    -1.589    -1.486  0.8486 -0.5278 -0.0360
    18 N(14)  Bbb    -0.0822    -3.171    -1.131    -1.058  0.5290  0.8462  0.0642
              Bcc     0.1977     7.625     2.721     2.543 -0.0034 -0.0736  0.9973
 

 ---------------------------------------------------------------------------------

   1 Symmetry operations used in ECPInt.
 ECPInt:  NShTT=    5886 NPrTT=   23670 LenC2=    5396 LenP2D=   14933.
 LDataN:  DoStor=T MaxTD1= 5 Len=  102
 D1PCM: PCM CHGder 1st derivatives, ID1Alg=3 FixD1E=F DoIter=F DoCFld=F I1PDM=0.
 Calling FoFJK, ICntrl=      2127 FMM=F ISym2X=0 I1Cent= 0 IOpClX= 1 NMat=1 NMatS=1 NMatT=0.
 -------------------------------------------------------------------
 Center     Atomic                   Forces (Hartrees/Bohr)
 Number     Number              X              Y              Z
 -------------------------------------------------------------------
      1        6          -0.000712701   -0.094006168   -0.009579940
      2        6           0.000211006    0.041852904    0.004542498
      3        6          -0.072725350    0.044375147    0.005319739
      4        6           0.031158013   -0.021763331   -0.003188893
      5        6           0.054672924    0.035846822    0.002987359
      6        6          -0.012596418   -0.011091364   -0.000903974
      7        6           0.048624518   -0.023793454   -0.002813507
      8        7          -0.034936026    0.018980351    0.002378075
      9        6          -0.067723132   -0.036781066   -0.003952573
     10        7           0.053758785    0.029015984    0.003131002
     11        6           0.021397835    0.012492727    0.001522096
     12        7          -0.030187552   -0.017591328   -0.001523512
     13        6           0.000625738    0.035690720    0.003592140
     14        7          -0.000414166   -0.021325638   -0.002178295
     15        6          -0.001508746    0.036530224    0.002610194
     16        7           0.000487673   -0.022224874   -0.001693370
     17        6           0.008727009   -0.005150138   -0.000146899
     18        7           0.001140590   -0.001057519   -0.000102142
 -------------------------------------------------------------------
 Cartesian Forces:  Max     0.094006168 RMS     0.028467567

 GradGradGradGradGradGradGradGradGradGradGradGradGradGradGradGradGradGrad
 Berny optimization.
 Search for a local minimum.
 Step number   1 out of a maximum of    2
 All quantities printed in internal units (Hartrees-Bohrs-Radians)
 Second derivative matrix not updated -- first step.
 ITU=  0
     Eigenvalues ---    0.00215   0.00244   0.00252   0.00297   0.00299
     Eigenvalues ---    0.01042   0.01540   0.01689   0.01972   0.02030
     Eigenvalues ---    0.04126   0.04657   0.05306   0.05364   0.10220
     Eigenvalues ---    0.17230   0.20471   0.21004   0.24010   0.24563
     Eigenvalues ---    0.24748   0.25618   0.29796   0.30543   0.31376
     Eigenvalues ---    0.45470   0.71284   0.71584   0.75525   0.84728
     Eigenvalues ---    0.89059   1.01792   1.02821   1.09204   1.57518
     Eigenvalues ---    1.62992   1.94856   2.64454   2.81285   2.93708
     Eigenvalues ---    2.94159   3.03209   3.14806  11.19736  18.90127
     Eigenvalues ---   32.37102  85.92762  90.37638
 Angle between quadratic step and forces=  58.45 degrees.
 Linear search not attempted -- first point.
 B after Tr=    -0.000117   -0.000046    0.000042
         Rot=    1.000000    0.000005    0.000002    0.000004 Ang=   0.00 deg.
 Variable       Old X    -DE/DX   Delta X   Delta X   Delta X     New X
                                 (Linear)    (Quad)   (Total)
    X1      -16.89450  -0.00071   0.00000  -0.00711  -0.00725 -16.90175
    Y1       -1.63994  -0.09401   0.00000  -0.07337  -0.07327  -1.71321
    Z1        2.10101  -0.00958   0.00000  -0.00681  -0.00681   2.09420
    X2      -16.90429   0.00021   0.00000  -0.00523  -0.00535 -16.90964
    Y2        0.88607   0.04185   0.00000  -0.02167  -0.02157   0.86450
    Z2        2.35287   0.00454   0.00000   0.00061   0.00058   2.35345
    X3      -15.52878  -0.07273   0.00000  -0.04763  -0.04778 -15.57656
    Y3       -4.03145   0.04438   0.00000   0.01785   0.01793  -4.01352
    Z3        1.85785   0.00532   0.00000  -0.00027  -0.00024   1.85760
    X4      -13.32171   0.03116   0.00000  -0.00294  -0.00310 -13.32481
    Y4       -5.29991  -0.02176   0.00000   0.00161   0.00168  -5.29823
    Z4        1.70327  -0.00319   0.00000  -0.00325  -0.00320   1.70007
    X5      -18.26395   0.05467   0.00000   0.03852   0.03837 -18.22558
    Y5       -4.02715   0.03585   0.00000   0.01668   0.01678  -4.01037
    Z5        1.88071   0.00299   0.00000   0.00049   0.00050   1.88122
    X6      -20.51235  -0.01260   0.00000   0.02967   0.02950 -20.48284
    Y6       -5.30952  -0.01109   0.00000   0.01331   0.01343  -5.29609
    Z6        1.77583  -0.00090   0.00000   0.00086   0.00088   1.77671
    X7      -19.27241   0.04862   0.00000   0.03630   0.03619 -19.23622
    Y7        2.24381  -0.02379   0.00000  -0.02336  -0.02324   2.22057
    Z7        2.52323  -0.00281   0.00000  -0.00226  -0.00231   2.52092
    X8      -21.12488  -0.03494   0.00000   0.00585   0.00575 -21.11913
    Y8        3.34458   0.01898   0.00000  -0.01660  -0.01647   3.32812
    Z8        2.67873   0.00238   0.00000  -0.01622  -0.01628   2.66245
    X9      -14.53952  -0.06772   0.00000  -0.04498  -0.04509 -14.58461
    Y9        2.26533  -0.03678   0.00000  -0.03566  -0.03557   2.22975
    Z9        2.49603  -0.00395   0.00000  -0.01055  -0.01059   2.48545
   X10      -12.63580   0.05376   0.00000  -0.01955  -0.01966 -12.65545
   Y10        3.24862   0.02902   0.00000   0.00748   0.00755   3.25617
   Z10        2.60798   0.00313   0.00000  -0.01535  -0.01538   2.59260
   X11      -10.95149   0.02140   0.00000  -0.02818  -0.02833 -10.97982
   Y11       -3.97182   0.01249   0.00000  -0.00619  -0.00614  -3.97796
   Z11        1.79321   0.00152   0.00000   0.00547   0.00551   1.79872
   X12       -9.03711  -0.03019   0.00000  -0.05621  -0.05636  -9.09347
   Y12       -2.85175  -0.01759   0.00000  -0.01715  -0.01711  -2.86886
   Z12        1.87745  -0.00152   0.00000   0.01213   0.01216   1.88961
   X13      -13.29494   0.00063   0.00000   0.00388   0.00370 -13.29124
   Y13       -8.01884   0.03569   0.00000   0.03790   0.03797  -7.98087
   Z13        1.40390   0.00359   0.00000   0.00958   0.00966   1.41355
   X14      -13.28808  -0.00041   0.00000   0.00061   0.00041 -13.28767
   Y14      -10.17730  -0.02133   0.00000   0.02030   0.02036 -10.15695
   Z14        1.14602  -0.00218   0.00000   0.02236   0.02246   1.16848
   X15      -20.49859  -0.00151   0.00000   0.00790   0.00772 -20.49087
   Y15       -8.03250   0.03653   0.00000   0.05160   0.05172  -7.98079
   Z15        1.56789   0.00261   0.00000  -0.01759  -0.01754   1.55035
   X16      -20.40214   0.00049   0.00000  -0.01803  -0.01823 -20.42037
   Y16      -10.19859  -0.02222   0.00000   0.03521   0.03532 -10.16326
   Z16        1.41261  -0.00169   0.00000  -0.03728  -0.03721   1.37540
   X17      -22.87012   0.00873   0.00000   0.05566   0.05551 -22.81461
   Y17       -3.95774  -0.00515   0.00000  -0.00184  -0.00171  -3.95945
   Z17        1.87701  -0.00015   0.00000   0.02046   0.02046   1.89747
   X18      -24.73497   0.00114   0.00000   0.05414   0.05399 -24.68098
   Y18       -2.80807  -0.00106   0.00000  -0.00780  -0.00765  -2.81572
   Z18        1.95876  -0.00010   0.00000   0.03738   0.03736   1.99612
         Item               Value     Threshold  Converged?
 Maximum Force            0.094006     0.000450     NO 
 RMS     Force            0.028468     0.000300     NO 
 Maximum Displacement     0.073271     0.001800     NO 
 RMS     Displacement     0.026786     0.001200     NO 
 Predicted change in Energy=-1.077157D-02
 GradGradGradGradGradGradGradGradGradGradGradGradGradGradGradGradGradGrad

 Unable to Open any file for archive entry.
 1\1\GINC-X10P1N4\Force\UwB97XD\def2SVP\C12N6(1-,2)\MAYUMIAO\11-Oct-202
 4\0\\# wb97xd def2svp scrf=(smd,solvent=acetonitrile) g09default scf=(
 xqc,maxcycle=64) force guess=read nosymm\\Title Card\\-1,2\C,-8.940184
 66,-0.86781862,1.11180668\C,-8.94536692,0.46888687,1.2450856\C,-8.2174
 7768,-2.13335375,0.98313047\C,-7.04954592,-2.80459106,0.90133192\C,-9.
 66486621,-2.1310764,0.99523092\C,-10.85466727,-2.8096787,0.93972827\C,
 -10.1985206,1.1873725,1.33523844\N,-11.17880688,1.76987731,1.41752254\
 C,-7.6939822,1.19875971,1.32084379\N,-6.68657569,1.71909816,1.38008438
 \C,-5.79527659,-2.10179501,0.94892485\N,-4.78223136,-1.50907901,0.9935
 0136\C,-7.03537852,-4.24338812,0.74291073\N,-7.03175051,-5.38559781,0.
 60644861\C,-10.84738875,-4.25061823,0.82969418\N,-10.79634838,-5.39685
 926,0.74752284\C,-12.10234564,-2.0943481,0.99326944\N,-13.08918049,-1.
 48596812,1.03652991\\Version=ES64L-G16RevC.01\HF=-784.8488264\S2=0.781
 642\S2-1=0.\S2A=0.750802\RMSD=3.569e-09\RMSF=2.847e-02\Dipole=-0.06136
 64,0.0578318,0.0000673\Quadrupole=-202.1884195,71.5301084,130.6583111,
 -54.9893041,33.2842095,1.1321517\PG=C01 [X(C12N6)]\\@
 The archive entry for this job was punched.


 EVERYTHING'S GOT A MORAL, IF ONLY YOU CAN FIND IT.

                                    -- LEWIS CARROL, ALICE IN WONDERLAND
 Job cpu time:       0 days  0 hours 14 minutes  1.8 seconds.
 Elapsed time:       0 days  0 hours  0 minutes 31.4 seconds.
 File lengths (MBytes):  RWF=    173 Int=      0 D2E=      0 Chk=      9 Scr=      1
 Normal termination of Gaussian 16 at Fri Oct 11 16:01:37 2024.
