 Entering Gaussian System, Link 0=g16
 Input=JOBS/38_A.gjf
 Output=JOBS/38_A.log
 Initial command:
 /data/app/gaussian/C01-avx2//g16/l1.exe "/tmp/Gau-2549992.inp" -scrdir="/tmp/"
 Entering Link 1 = /data/app/gaussian/C01-avx2//g16/l1.exe PID=   2549993.
  
 Copyright (c) 1988-2019, Gaussian, Inc.  All Rights Reserved.
  
 This is part of the Gaussian(R) 16 program.  It is based on
 the Gaussian(R) 09 system (copyright 2009, Gaussian, Inc.),
 the Gaussian(R) 03 system (copyright 2003, Gaussian, Inc.),
 the Gaussian(R) 98 system (copyright 1998, Gaussian, Inc.),
 the Gaussian(R) 94 system (copyright 1995, Gaussian, Inc.),
 the Gaussian 92(TM) system (copyright 1992, Gaussian, Inc.),
 the Gaussian 90(TM) system (copyright 1990, Gaussian, Inc.),
 the Gaussian 88(TM) system (copyright 1988, Gaussian, Inc.),
 the Gaussian 86(TM) system (copyright 1986, Carnegie Mellon
 University), and the Gaussian 82(TM) system (copyright 1983,
 Carnegie Mellon University). Gaussian is a federally registered
 trademark of Gaussian, Inc.
  
 This software contains proprietary and confidential information,
 including trade secrets, belonging to Gaussian, Inc.
  
 This software is provided under written license and may be
 used, copied, transmitted, or stored only in accord with that
 written license.
  
 The following legend is applicable only to US Government
 contracts under FAR:
  
                    RESTRICTED RIGHTS LEGEND
  
 Use, reproduction and disclosure by the US Government is
 subject to restrictions as set forth in subparagraphs (a)
 and (c) of the Commercial Computer Software - Restricted
 Rights clause in FAR 52.227-19.
  
 Gaussian, Inc.
 340 Quinnipiac St., Bldg. 40, Wallingford CT 06492
  
  
 ---------------------------------------------------------------
 Warning -- This program may not be used in any manner that
 competes with the business of Gaussian, Inc. or will provide
 assistance to any competitor of Gaussian, Inc.  The licensee
 of this program is prohibited from giving any competitor of
 Gaussian, Inc. access to this program.  By using this program,
 the user acknowledges that Gaussian, Inc. is engaged in the
 business of creating and licensing software in the field of
 computational chemistry and represents and warrants to the
 licensee that it is not a competitor of Gaussian, Inc. and that
 it will not use this program in any manner prohibited above.
 ---------------------------------------------------------------
  

 Cite this work as:
 Gaussian 16, Revision C.01,
 M. J. Frisch, G. W. Trucks, H. B. Schlegel, G. E. Scuseria, 
 M. A. Robb, J. R. Cheeseman, G. Scalmani, V. Barone, 
 G. A. Petersson, H. Nakatsuji, X. Li, M. Caricato, A. V. Marenich, 
 J. Bloino, B. G. Janesko, R. Gomperts, B. Mennucci, H. P. Hratchian, 
 J. V. Ortiz, A. F. Izmaylov, J. L. Sonnenberg, D. Williams-Young, 
 F. Ding, F. Lipparini, F. Egidi, J. Goings, B. Peng, A. Petrone, 
 T. Henderson, D. Ranasinghe, V. G. Zakrzewski, J. Gao, N. Rega, 
 G. Zheng, W. Liang, M. Hada, M. Ehara, K. Toyota, R. Fukuda, 
 J. Hasegawa, M. Ishida, T. Nakajima, Y. Honda, O. Kitao, H. Nakai, 
 T. Vreven, K. Throssell, J. A. Montgomery, Jr., J. E. Peralta, 
 F. Ogliaro, M. J. Bearpark, J. J. Heyd, E. N. Brothers, K. N. Kudin, 
 V. N. Staroverov, T. A. Keith, R. Kobayashi, J. Normand, 
 K. Raghavachari, A. P. Rendell, J. C. Burant, S. S. Iyengar, 
 J. Tomasi, M. Cossi, J. M. Millam, M. Klene, C. Adamo, R. Cammi, 
 J. W. Ochterski, R. L. Martin, K. Morokuma, O. Farkas, 
 J. B. Foresman, and D. J. Fox, Gaussian, Inc., Wallingford CT, 2019.
 
 ******************************************
 Gaussian 16:  ES64L-G16RevC.01  3-Jul-2019
                11-Oct-2024 
 ******************************************
 %chk=a.chk
 %nprocshared=28
 Will use up to   28 processors via shared memory.
 %mem=48gb
 ----------------------------------------------------------------------
 # wb97xd def2svp scrf=(smd,solvent=acetonitrile) g09default scf=(xqc,m
 axcycle=64) force guess=read nosymm
 ----------------------------------------------------------------------
 1/10=7,30=1,38=1,158=3,167=1/1,3;
 2/12=2,15=1,17=6,18=5,40=1/2;
 3/5=43,7=101,11=2,25=1,27=10,30=1,70=32201,71=1,72=2,74=-58,75=-4,116=-2,158=3/1,2,3;
 4/5=1,60=-1/1;
 5/5=2,7=64,8=3,13=1,38=6,53=2,87=10/2,8;
 6/7=2,8=2,9=2,10=2,28=1,87=10/1;
 7/29=1,30=1,87=10/1,2,3,16;
 1/10=7,30=1,158=3,167=1/3;
 99//99;
 Using 2006 physical constants.
 ----------
 Title Card
 ----------
 Symbolic Z-matrix:
 Charge = -2 Multiplicity = 1
 6                    -8.94116  -0.88081   1.11172 
 6                    -8.9463    0.47961   1.2457 
 6                    -8.22871  -2.12811   0.98307 
 6                    -7.04144  -2.80946   0.90147 
 6                    -9.65658  -2.12458   0.99609 
 6                    -10.86298  -2.81339   0.93989 
 6                    -10.19041   1.18728   1.33521 
 7                    -11.17621   1.77375   1.41913 
 6                    -7.70407   1.19784   1.32166 
 7                    -6.68813   1.7167    1.38077 
 6                    -5.795    -2.10965   0.94739 
 7                    -4.78499  -1.50957   0.9923 
 6                    -7.0337   -4.23994   0.7416 
 7                    -7.02778  -5.38287   0.60419 
 6                    -10.84614  -4.24564   0.83218 
 7                    -10.79756  -5.39469   0.75037 
 6                    -12.10093  -2.09919   0.99144 
 7                    -13.0878  -1.48746   1.03462 
 

 GradGradGradGradGradGradGradGradGradGradGradGradGradGradGradGradGradGrad
 Berny optimization.
 Initialization pass.
 Trust Radius=3.00D-01 FncErr=1.00D-07 GrdErr=1.00D-07 EigMax=2.50D+02 EigMin=1.00D-04
 Number of steps in this run=      2 maximum allowed number of steps=      2.
 GradGradGradGradGradGradGradGradGradGradGradGradGradGradGradGradGradGrad

                          Input orientation:                          
 ---------------------------------------------------------------------
 Center     Atomic      Atomic             Coordinates (Angstroms)
 Number     Number       Type             X           Y           Z
 ---------------------------------------------------------------------
      1          6           0       -8.941164   -0.880811    1.111718
      2          6           0       -8.946299    0.479607    1.245697
      3          6           0       -8.228709   -2.128114    0.983073
      4          6           0       -7.041436   -2.809459    0.901473
      5          6           0       -9.656584   -2.124582    0.996086
      6          6           0      -10.862983   -2.813386    0.939890
      7          6           0      -10.190408    1.187283    1.335207
      8          7           0      -11.176207    1.773746    1.419134
      9          6           0       -7.704068    1.197841    1.321664
     10          7           0       -6.688135    1.716695    1.380771
     11          6           0       -5.795004   -2.109647    0.947392
     12          7           0       -4.784993   -1.509569    0.992297
     13          6           0       -7.033698   -4.239938    0.741598
     14          7           0       -7.027776   -5.382868    0.604194
     15          6           0      -10.846139   -4.245643    0.832178
     16          7           0      -10.797560   -5.394685    0.750372
     17          6           0      -12.100932   -2.099189    0.991436
     18          7           0      -13.087799   -1.487460    1.034624
 ---------------------------------------------------------------------
                    Distance matrix (angstroms):
                    1          2          3          4          5
     1  C    0.000000
     2  C    1.367009   0.000000
     3  C    1.442187   2.717372   0.000000
     4  C    2.715299   3.816405   1.371316   0.000000
     5  C    1.439501   2.710832   1.427939   2.704997   0.000000
     6  C    2.730890   3.822434   2.722290   3.821742   1.390327
     7  C    2.426432   1.434093   3.868348   5.106671   3.371709
     8  N    3.483762   2.584060   4.909420   6.194358   4.205376
     9  C    2.428019   1.436930   3.384060   4.083392   3.867404
    10  N    3.448995   2.578360   4.161020   4.565153   4.869814
    11  C    3.381621   4.089484   2.434037   1.430188   3.861916
    12  N    4.205158   4.619253   3.498838   2.605667   4.910261
    13  C    3.880612   5.117252   2.438476   1.439407   3.379205
    14  N    4.918043   6.201683   3.489873   2.590559   4.204836
    15  C    3.876747   5.109636   3.370109   4.067332   2.437377
    16  N    4.894061   6.178982   4.162167   4.562312   3.472143
    17  C    3.388664   4.082468   3.872339   5.109899   2.444483
    18  N    4.191486   4.589764   4.901413   6.190631   3.490078
                    6          7          8          9         10
     6  C    0.000000
     7  C    4.076026   0.000000
     8  N    4.622723   1.150123   0.000000
     9  C    5.120003   2.486398   3.520926   0.000000
    10  N    6.176194   3.542354   4.488599   1.142289   0.000000
    11  C    5.116612   5.508150   6.652866   3.837197   3.953024
    12  N    6.216483   6.050546   7.197914   3.994941   3.765852
    13  C    4.091185   6.306498   7.333746   5.509566   6.000787
    14  N    4.628579   7.328267   8.312084   6.654161   7.149981
    15  C    1.436400   5.495426   6.056939   6.304262   7.289680
    16  N    2.589074   6.635734   7.209509   7.304619   8.237506
    17  C    1.430122   3.816959   4.004705   5.505621   6.634073
    18  N    2.591691   3.954678   3.799671   6.023105   7.165343
                   11         12         13         14         15
    11  C    0.000000
    12  N    1.175684   0.000000
    13  C    2.472823   3.546046   0.000000
    14  N    3.514468   4.492566   1.151175   0.000000
    15  C    5.485409   6.652009   3.813521   3.990633   0.000000
    16  N    5.987976   7.162655   3.937026   3.772635   1.152974
    17  C    6.306090   7.339660   5.506549   6.055527   2.491412
    18  N    7.319808   8.302944   6.656887   7.216880   3.560000
                   16         17         18
    16  N    0.000000
    17  C    3.552068   0.000000
    18  N    4.537885   1.161889   0.000000
 Symmetry turned off by external request.
 Stoichiometry    C12N6(2-)
 Framework group  C1[X(C12N6)]
 Deg. of freedom    48
 Full point group                 C1      NOp   1
 Rotational constants (GHZ):           0.4284296           0.4238585           0.2131008
 Standard basis: def2SVP (5D, 7F)
   252 basis functions,   450 primitive gaussians,   270 cartesian basis functions
    58 alpha electrons       58 beta electrons
       nuclear repulsion energy       961.8116778501 Hartrees.
 NAtoms=   18 NActive=   18 NUniq=   18 SFac= 1.00D+00 NAtFMM=   60 NAOKFM=F Big=F
 Integral buffers will be    131072 words long.
 Raffenetti 2 integral format.
 Two-electron integral symmetry is turned off.
 Nuclear repulsion after empirical dispersion term =      961.8000646551 Hartrees.
 Force PCM accuracy= 1.00D-10.
 ------------------------------------------------------------------------------
 Polarizable Continuum Model (PCM)
 =================================
 Model                : PCM (using non-symmetric T matrix).
 Atomic radii         : SMD-Coulomb.
 Polarization charges : Total charges.
 Charge compensation  : None.
 Solution method      : On-the-fly selection.
 Cavity type          : VdW (van der Waals Surface) (Alpha=1.000).
 Cavity algorithm     : GePol (No added spheres)
                        Default sphere list used, NSphG=   18.
                        Lebedev-Laikov grids with approx.  5.0 points / Ang**2.
                        Smoothing algorithm: York/Karplus (Gamma=1.0000).
                        Polarization charges: spherical gaussians, with
                                              point-specific exponents (IZeta= 3).
                        Self-potential: point-specific (ISelfS= 7).
                        Self-field    : sphere-specific E.n sum rule (ISelfD= 2).
 1st derivatives      : Analytical E(r).r(x)/FMM algorithm (CHGder, D1EAlg=3).
                        Cavity 1st derivative terms included.
 Solvent              : Acetonitrile, Eps=  35.688000 Eps(inf)=   1.806874
 ------------------------------------------------------------------------------
 Spheres list:
 ISph  on   Nord     Re0    Alpha      Xe            Ye            Ze
    1   C      1    1.8500  1.000     -8.941164     -0.880811      1.111718
    2   C      2    1.8500  1.000     -8.946299      0.479607      1.245697
    3   C      3    1.8500  1.000     -8.228709     -2.128114      0.983073
    4   C      4    1.8500  1.000     -7.041436     -2.809459      0.901473
    5   C      5    1.8500  1.000     -9.656584     -2.124582      0.996086
    6   C      6    1.8500  1.000    -10.862983     -2.813386      0.939890
    7   C      7    1.8500  1.000    -10.190408      1.187283      1.335207
    8   N      8    1.8900  1.000    -11.176207      1.773746      1.419134
    9   C      9    1.8500  1.000     -7.704068      1.197841      1.321664
   10   N     10    1.8900  1.000     -6.688135      1.716695      1.380771
   11   C     11    1.8500  1.000     -5.795004     -2.109647      0.947392
   12   N     12    1.8900  1.000     -4.784993     -1.509569      0.992297
   13   C     13    1.8500  1.000     -7.033698     -4.239938      0.741598
   14   N     14    1.8900  1.000     -7.027776     -5.382868      0.604194
   15   C     15    1.8500  1.000    -10.846139     -4.245643      0.832178
   16   N     16    1.8900  1.000    -10.797560     -5.394685      0.750372
   17   C     17    1.8500  1.000    -12.100932     -2.099189      0.991436
   18   N     18    1.8900  1.000    -13.087799     -1.487460      1.034624
 ------------------------------------------------------------------------------
 ------------------------------------------------------------------------------
 Atomic radii for non-electrostatic terms: SMD-CDS.
 ------------------------------------------------------------------------------
 Nuclear repulsion after PCM non-electrostatic terms =      961.8087796231 Hartrees.
 One-electron integrals computed using PRISM.
   1 Symmetry operations used in ECPInt.
 ECPInt:  NShTT=    5886 NPrTT=   23670 LenC2=    5398 LenP2D=   14939.
 LDataN:  DoStor=T MaxTD1= 4 Len=   56
 NBasis=   252 RedAO= T EigKep=  2.18D-04  NBF=   252
 NBsUse=   252 1.00D-06 EigRej= -1.00D+00 NBFU=   252
 Initial guess from the checkpoint file:  "a.chk"
 B after Tr=    -0.000184    0.000031   -0.002015
         Rot=    1.000000   -0.000041   -0.000067    0.000006 Ang=  -0.01 deg.
 Requested convergence on RMS density matrix=1.00D-08 within  64 cycles.
 Requested convergence on MAX density matrix=1.00D-06.
 Requested convergence on             energy=1.00D-06.
 No special actions if energy rises.
 Inv3:  Mode=1 IEnd=    19233072.
 Iteration    1 A*A^-1 deviation from unit magnitude is 3.55D-15 for   2381.
 Iteration    1 A*A^-1 deviation from orthogonality  is 2.17D-15 for    833    502.
 Iteration    1 A^-1*A deviation from unit magnitude is 3.33D-15 for    436.
 Iteration    1 A^-1*A deviation from orthogonality  is 3.21D-12 for   1005    978.
 Error on total polarization charges =  0.02163
 SCF Done:  E(RwB97XD) =  -785.020938861     A.U. after   13 cycles
            NFock= 13  Conv=0.40D-08     -V/T= 2.0098
 SMD-CDS (non-electrostatic) energy       (kcal/mol) =       5.47
 (included in total energy above)
 QCSCF skips out because SCF is already converged.

 **********************************************************************

            Population analysis using the SCF Density.

 **********************************************************************

 Alpha  occ. eigenvalues --  -14.43122 -14.42782 -14.42752 -14.42723 -14.42646
 Alpha  occ. eigenvalues --  -14.42613 -10.35051 -10.34997 -10.34965 -10.34104
 Alpha  occ. eigenvalues --  -10.33772 -10.33672 -10.33625 -10.33611 -10.33498
 Alpha  occ. eigenvalues --  -10.32922 -10.32914 -10.32885  -1.00995  -0.99610
 Alpha  occ. eigenvalues --   -0.99224  -0.98781  -0.98522  -0.98170  -0.97787
 Alpha  occ. eigenvalues --   -0.88354  -0.88030  -0.85330  -0.68563  -0.68280
 Alpha  occ. eigenvalues --   -0.65039  -0.64898  -0.64600  -0.63667  -0.51634
 Alpha  occ. eigenvalues --   -0.47786  -0.47551  -0.46401  -0.46169  -0.45282
 Alpha  occ. eigenvalues --   -0.45179  -0.45105  -0.44612  -0.44113  -0.43895
 Alpha  occ. eigenvalues --   -0.43339  -0.43043  -0.42744  -0.42338  -0.42229
 Alpha  occ. eigenvalues --   -0.42194  -0.42164  -0.40799  -0.40234  -0.40182
 Alpha  occ. eigenvalues --   -0.32057  -0.31715  -0.23003
 Alpha virt. eigenvalues --    0.07315   0.07438   0.08970   0.09393   0.09726
 Alpha virt. eigenvalues --    0.12566   0.12687   0.12910   0.13452   0.14665
 Alpha virt. eigenvalues --    0.15036   0.16471   0.20866   0.20967   0.24015
 Alpha virt. eigenvalues --    0.26311   0.27772   0.27865   0.28424   0.28543
 Alpha virt. eigenvalues --    0.30247   0.33463   0.33521   0.34207   0.34890
 Alpha virt. eigenvalues --    0.35242   0.36701   0.48989   0.49335   0.51009
 Alpha virt. eigenvalues --    0.51060   0.54035   0.54355   0.54822   0.54971
 Alpha virt. eigenvalues --    0.56948   0.57021   0.57627   0.59529   0.61534
 Alpha virt. eigenvalues --    0.61554   0.61727   0.62911   0.63432   0.65275
 Alpha virt. eigenvalues --    0.65481   0.71472   0.71532   0.71664   0.73686
 Alpha virt. eigenvalues --    0.73788   0.74173   0.74476   0.74706   0.75041
 Alpha virt. eigenvalues --    0.75190   0.75294   0.76586   0.76889   0.77345
 Alpha virt. eigenvalues --    0.81517   0.81745   0.81964   0.83323   0.83466
 Alpha virt. eigenvalues --    0.87492   0.87901   0.88713   0.89027   0.94675
 Alpha virt. eigenvalues --    0.94879   0.95026   0.95207   0.95767   0.96089
 Alpha virt. eigenvalues --    0.98017   1.00522   1.00636   1.01283   1.01767
 Alpha virt. eigenvalues --    1.02649   1.02709   1.04663   1.04946   1.05347
 Alpha virt. eigenvalues --    1.08298   1.09019   1.09885   1.10969   1.12896
 Alpha virt. eigenvalues --    1.13975   1.17737   1.18940   1.20000   1.20335
 Alpha virt. eigenvalues --    1.22379   1.24748   1.25119   1.27289   1.34853
 Alpha virt. eigenvalues --    1.37590   1.38024   1.41954   1.42096   1.45221
 Alpha virt. eigenvalues --    1.46475   1.47244   1.47616   1.48162   1.60147
 Alpha virt. eigenvalues --    1.60661   1.68603   1.70460   1.70672   1.70788
 Alpha virt. eigenvalues --    1.70945   1.71336   1.78159   1.78424   1.79588
 Alpha virt. eigenvalues --    1.79808   1.80378   1.81172   1.81302   1.83190
 Alpha virt. eigenvalues --    1.83551   1.83856   1.87183   1.95387   1.96019
 Alpha virt. eigenvalues --    1.96545   2.00062   2.01919   2.02001   2.05264
 Alpha virt. eigenvalues --    2.05594   2.07858   2.08293   2.13952   2.14139
 Alpha virt. eigenvalues --    2.19022   2.23032   2.23500   2.23970   2.28275
 Alpha virt. eigenvalues --    2.30294   2.30685   2.30849   2.35718   2.36069
 Alpha virt. eigenvalues --    2.36204   2.36591   2.36689   2.37156   2.37532
 Alpha virt. eigenvalues --    2.37906   2.38246   2.38533   2.38656   2.39096
 Alpha virt. eigenvalues --    2.40292   2.40833   2.59355   2.61959   2.63043
 Alpha virt. eigenvalues --    2.72314   2.73042   2.94651   2.97021   2.97543
 Alpha virt. eigenvalues --    2.98085   3.00940   3.01738   3.02047   3.05117
 Alpha virt. eigenvalues --    3.07138   3.08495   3.10763   3.11302   3.13672
 Alpha virt. eigenvalues --    3.14741   3.15892   3.24871   3.25841   3.30627
 Alpha virt. eigenvalues --    3.42189   3.42660   3.44174   3.55795   3.58789
 Alpha virt. eigenvalues --    3.60846   3.64269   3.65847   3.78260
          Condensed to atoms (all electrons):
               1          2          3          4          5          6
     1  C    4.941740   0.498926   0.308002  -0.114006   0.321538  -0.102351
     2  C    0.498926   5.539046  -0.115369  -0.007837  -0.114974  -0.006570
     3  C    0.308002  -0.115369   4.959151   0.488958   0.316954  -0.108170
     4  C   -0.114006  -0.007837   0.488958   5.554276  -0.119537  -0.006924
     5  C    0.321538  -0.114974   0.316954  -0.119537   4.971149   0.486092
     6  C   -0.102351  -0.006570  -0.108170  -0.006924   0.486092   5.526136
     7  C    0.012760   0.390730   0.005100  -0.000476  -0.021999   0.002347
     8  N   -0.001376  -0.041687  -0.000078  -0.000001  -0.000515   0.000114
     9  C    0.009556   0.388421  -0.021286   0.002345   0.007028  -0.000408
    10  N   -0.001287  -0.039898  -0.000586   0.000134  -0.000028  -0.000001
    11  C   -0.021368   0.002144   0.012752   0.388236   0.006196  -0.000414
    12  N   -0.000491   0.000103  -0.000927  -0.041833  -0.000044  -0.000001
    13  C    0.005416  -0.000432   0.010756   0.388148  -0.021493   0.002283
    14  N   -0.000063  -0.000001  -0.001242  -0.041240  -0.000528   0.000115
    15  C    0.006663  -0.000420  -0.022598   0.002357   0.011656   0.388996
    16  N   -0.000020  -0.000001  -0.000589   0.000135  -0.000779  -0.041703
    17  C   -0.022037   0.002354   0.006717  -0.000431   0.011539   0.388628
    18  N   -0.000530   0.000129  -0.000025  -0.000001  -0.000658  -0.042502
               7          8          9         10         11         12
     1  C    0.012760  -0.001376   0.009556  -0.001287  -0.021368  -0.000491
     2  C    0.390730  -0.041687   0.388421  -0.039898   0.002144   0.000103
     3  C    0.005100  -0.000078  -0.021286  -0.000586   0.012752  -0.000927
     4  C   -0.000476  -0.000001   0.002345   0.000134   0.388236  -0.041833
     5  C   -0.021999  -0.000515   0.007028  -0.000028   0.006196  -0.000044
     6  C    0.002347   0.000114  -0.000408  -0.000001  -0.000414  -0.000001
     7  C    4.859796   0.936907  -0.049847   0.002298   0.000101   0.000002
     8  N    0.936907   6.129682   0.001976   0.000076   0.000000   0.000000
     9  C   -0.049847   0.001976   4.858030   0.947698  -0.000203   0.000227
    10  N    0.002298   0.000076   0.947698   6.103153   0.000162  -0.000862
    11  C    0.000101   0.000000  -0.000203   0.000162   4.869998   0.911566
    12  N    0.000002   0.000000   0.000227  -0.000862   0.911566   6.184690
    13  C   -0.000012  -0.000000   0.000098   0.000002  -0.046045   0.002371
    14  N   -0.000000  -0.000000   0.000000   0.000000   0.002333   0.000080
    15  C    0.000101   0.000002  -0.000011  -0.000000   0.000107   0.000000
    16  N    0.000000   0.000000  -0.000000  -0.000000   0.000002   0.000000
    17  C   -0.000167  -0.000100   0.000105   0.000000  -0.000012  -0.000000
    18  N    0.000426  -0.000863   0.000002   0.000000  -0.000000  -0.000000
              13         14         15         16         17         18
     1  C    0.005416  -0.000063   0.006663  -0.000020  -0.022037  -0.000530
     2  C   -0.000432  -0.000001  -0.000420  -0.000001   0.002354   0.000129
     3  C    0.010756  -0.001242  -0.022598  -0.000589   0.006717  -0.000025
     4  C    0.388148  -0.041240   0.002357   0.000135  -0.000431  -0.000001
     5  C   -0.021493  -0.000528   0.011656  -0.000779   0.011539  -0.000658
     6  C    0.002283   0.000115   0.388996  -0.041703   0.388628  -0.042502
     7  C   -0.000012  -0.000000   0.000101   0.000000  -0.000167   0.000426
     8  N   -0.000000  -0.000000   0.000002   0.000000  -0.000100  -0.000863
     9  C    0.000098   0.000000  -0.000011  -0.000000   0.000105   0.000002
    10  N    0.000002   0.000000  -0.000000  -0.000000   0.000000   0.000000
    11  C   -0.046045   0.002333   0.000107   0.000002  -0.000012  -0.000000
    12  N    0.002371   0.000080   0.000000   0.000000  -0.000000  -0.000000
    13  C    4.858362   0.938212  -0.000140   0.000401   0.000101   0.000000
    14  N    0.938212   6.127169  -0.000010  -0.000888   0.000002   0.000000
    15  C   -0.000140  -0.000010   4.857975   0.934830  -0.046257   0.002276
    16  N    0.000401  -0.000888   0.934830   6.138439   0.002325   0.000071
    17  C    0.000101   0.000002  -0.046257   0.002325   4.861882   0.923968
    18  N    0.000000   0.000000   0.002276   0.000071   0.923968   6.159319
 Mulliken charges:
               1
     1  C    0.158929
     2  C   -0.494664
     3  C    0.162481
     4  C   -0.492302
     5  C    0.148404
     6  C   -0.485668
     7  C   -0.138067
     8  N   -0.024136
     9  C   -0.143731
    10  N   -0.010859
    11  C   -0.125557
    12  N   -0.054880
    13  C   -0.138029
    14  N   -0.023937
    15  C   -0.135528
    16  N   -0.032223
    17  C   -0.128619
    18  N   -0.041612
 Sum of Mulliken charges =  -2.00000
 Mulliken charges with hydrogens summed into heavy atoms:
               1
     1  C    0.158929
     2  C   -0.494664
     3  C    0.162481
     4  C   -0.492302
     5  C    0.148404
     6  C   -0.485668
     7  C   -0.138067
     8  N   -0.024136
     9  C   -0.143731
    10  N   -0.010859
    11  C   -0.125557
    12  N   -0.054880
    13  C   -0.138029
    14  N   -0.023937
    15  C   -0.135528
    16  N   -0.032223
    17  C   -0.128619
    18  N   -0.041612
 Electronic spatial extent (au):  <R**2>=          39362.2356
 Charge=             -2.0000 electrons
 Dipole moment (field-independent basis, Debye):
    X=             85.8057    Y=             16.6871    Z=             -9.8836  Tot=             87.9702
 Quadrupole moment (field-independent basis, Debye-Ang):
   XX=           -966.3656   YY=           -226.0161   ZZ=           -113.7287
   XY=           -148.3024   XZ=             89.2658   YZ=              7.6975
 Traceless Quadrupole moment (field-independent basis, Debye-Ang):
   XX=           -530.9955   YY=            209.3540   ZZ=            321.6415
   XY=           -148.3024   XZ=             89.2658   YZ=              7.6975
 Octapole moment (field-independent basis, Debye-Ang**2):
  XXX=          12204.7463  YYY=           1136.4302  ZZZ=           -330.1329  XYY=           2018.9706
  XXY=           1591.9681  XXZ=          -1016.8120  XZZ=           1018.4256  YZZ=            176.4713
  YYZ=           -195.2134  XYZ=            -70.7024
 Hexadecapole moment (field-independent basis, Debye-Ang**3):
 XXXX=        -161630.2540 YYYY=          -8680.6094 ZZZZ=           -805.3816 XXXY=         -19039.8370
 XXXZ=          12951.6334 YYYX=         -10136.5690 YYYZ=            762.5634 ZZZX=           2970.6427
 ZZZY=            381.7686 XXYY=         -19937.2425 XXZZ=          -9910.5875 YYZZ=          -1039.4567
 XXYZ=            839.5724 YYXZ=           1767.8568 ZZXY=          -1577.6412
 N-N= 9.618087796231D+02 E-N=-3.777469699345D+03  KE= 7.773755435985D+02
   1 Symmetry operations used in ECPInt.
 ECPInt:  NShTT=    5886 NPrTT=   23670 LenC2=    5398 LenP2D=   14939.
 LDataN:  DoStor=T MaxTD1= 5 Len=  102
 D1PCM: PCM CHGder 1st derivatives, ID1Alg=3 FixD1E=F DoIter=F DoCFld=F I1PDM=0.
 Calling FoFJK, ICntrl=      2127 FMM=F ISym2X=0 I1Cent= 0 IOpClX= 0 NMat=1 NMatS=1 NMatT=0.
 -------------------------------------------------------------------
 Center     Atomic                   Forces (Hartrees/Bohr)
 Number     Number              X              Y              Z
 -------------------------------------------------------------------
      1        6          -0.000517289   -0.097868658   -0.009937220
      2        6          -0.000243141    0.041440280    0.004343895
      3        6          -0.077605418    0.048245351    0.005670342
      4        6           0.035571715   -0.024795194   -0.003429149
      5        6           0.063686558    0.040883442    0.003458048
      6        6          -0.019883295   -0.015730519   -0.001316695
      7        6           0.041659000   -0.018375214   -0.001883460
      8        7          -0.029441830    0.015205467    0.001812780
      9        6          -0.059052252   -0.031536485   -0.003493561
     10        7           0.047009366    0.025252914    0.002763687
     11        6           0.012026348    0.007239062    0.001253668
     12        7          -0.022257754   -0.013264022   -0.001307064
     13        6           0.001878959    0.045661488    0.004670035
     14        7          -0.000807411   -0.030185052   -0.003258038
     15        6          -0.003475098    0.042015024    0.003005390
     16        7           0.001152054   -0.026838919   -0.001946497
     17        6           0.015344418   -0.010326798   -0.000494088
     18        7          -0.005044930    0.002977831    0.000087928
 -------------------------------------------------------------------
 Cartesian Forces:  Max     0.097868658 RMS     0.028992878

 GradGradGradGradGradGradGradGradGradGradGradGradGradGradGradGradGradGrad
 Berny optimization.
 Search for a local minimum.
 Step number   1 out of a maximum of    2
 All quantities printed in internal units (Hartrees-Bohrs-Radians)
 Second derivative matrix not updated -- first step.
 ITU=  0
     Eigenvalues ---    0.00147   0.00204   0.00226   0.00298   0.00300
     Eigenvalues ---    0.00934   0.01535   0.01691   0.01972   0.02021
     Eigenvalues ---    0.03813   0.04513   0.05286   0.05344   0.10205
     Eigenvalues ---    0.16224   0.20701   0.21202   0.24171   0.24665
     Eigenvalues ---    0.24868   0.25599   0.29292   0.30255   0.30803
     Eigenvalues ---    0.46432   0.73957   0.74159   0.77447   0.86051
     Eigenvalues ---    0.88041   1.02268   1.03398   1.09941   1.54282
     Eigenvalues ---    1.58564   1.93808   2.64096   2.79944   2.91689
     Eigenvalues ---    2.93465   2.94940   3.06195  12.20737  30.72237
     Eigenvalues ---   39.24147  53.80597  69.45175
 Angle between quadratic step and forces=  49.15 degrees.
 Linear search not attempted -- first point.
 B after Tr=    -0.000152   -0.000107    0.000011
         Rot=    1.000000    0.000012    0.000003    0.000003 Ang=   0.00 deg.
 Variable       Old X    -DE/DX   Delta X   Delta X   Delta X     New X
                                 (Linear)    (Quad)   (Total)
    X1      -16.89635  -0.00052   0.00000  -0.00375  -0.00393 -16.90028
    Y1       -1.66449  -0.09787   0.00000  -0.06643  -0.06639  -1.73088
    Z1        2.10084  -0.00994   0.00000  -0.00465  -0.00470   2.09614
    X2      -16.90605  -0.00024   0.00000  -0.00212  -0.00228 -16.90833
    Y2        0.90633   0.04144   0.00000  -0.00473  -0.00468   0.90165
    Z2        2.35403   0.00434   0.00000   0.00575   0.00564   2.35967
    X3      -15.55001  -0.07761   0.00000  -0.04245  -0.04263 -15.59264
    Y3       -4.02155   0.04825   0.00000   0.02064   0.02067  -4.00088
    Z3        1.85774   0.00567   0.00000   0.00038   0.00039   1.85813
    X4      -13.30639   0.03557   0.00000   0.01210   0.01190 -13.29448
    Y4       -5.30911  -0.02480   0.00000  -0.00516  -0.00515  -5.31426
    Z4        1.70354  -0.00343   0.00000  -0.00478  -0.00472   1.69882
    X5      -18.24830   0.06369   0.00000   0.03959   0.03940 -18.20890
    Y5       -4.01488   0.04088   0.00000   0.01808   0.01812  -3.99676
    Z5        1.88233   0.00346   0.00000   0.00116   0.00116   1.88349
    X6      -20.52806  -0.01988   0.00000   0.01359   0.01340 -20.51467
    Y6       -5.31653  -0.01573   0.00000   0.00279   0.00285  -5.31368
    Z6        1.77613  -0.00132   0.00000  -0.00051  -0.00050   1.77563
    X7      -19.25708   0.04166   0.00000   0.03461   0.03445 -19.22263
    Y7        2.24364  -0.01838   0.00000  -0.00199  -0.00192   2.24172
    Z7        2.52318  -0.00188   0.00000   0.01199   0.01183   2.53501
    X8      -21.11997  -0.02944   0.00000   0.00376   0.00361 -21.11636
    Y8        3.35189   0.01521   0.00000  -0.00407  -0.00399   3.34790
    Z8        2.68178   0.00181   0.00000   0.00176   0.00157   2.68334
    X9      -14.55858  -0.05905   0.00000  -0.03646  -0.03661 -14.59519
    Y9        2.26359  -0.03154   0.00000  -0.01185  -0.01181   2.25178
    Z9        2.49758  -0.00349   0.00000  -0.00775  -0.00788   2.48970
   X10      -12.63874   0.04701   0.00000  -0.01553  -0.01568 -12.65442
   Y10        3.24408   0.02525   0.00000   0.03191   0.03194   3.27602
   Z10        2.60928   0.00276   0.00000  -0.01484  -0.01498   2.59430
   X11      -10.95097   0.01203   0.00000  -0.01464  -0.01482 -10.96579
   Y11       -3.98666   0.00724   0.00000  -0.01718  -0.01718  -4.00384
   Z11        1.79031   0.00125   0.00000   0.00159   0.00163   1.79194
   X12       -9.04233  -0.02226   0.00000  -0.03373  -0.03391  -9.07624
   Y12       -2.85267  -0.01326   0.00000  -0.02843  -0.02844  -2.88112
   Z12        1.87517  -0.00131   0.00000   0.00619   0.00621   1.88138
   X13      -13.29176   0.00188   0.00000   0.02170   0.02149 -13.27027
   Y13       -8.01232   0.04566   0.00000   0.03345   0.03346  -7.97886
   Z13        1.40142   0.00467   0.00000   0.00265   0.00277   1.40418
   X14      -13.28057  -0.00081   0.00000   0.01166   0.01144 -13.26913
   Y14      -10.17215  -0.03019   0.00000   0.00963   0.00963 -10.16252
   Z14        1.14176  -0.00326   0.00000   0.01023   0.01040   1.15216
   X15      -20.49623  -0.00348   0.00000  -0.01546  -0.01567 -20.51190
   Y15       -8.02310   0.04202   0.00000   0.04077   0.04082  -7.98229
   Z15        1.57259   0.00301   0.00000  -0.00296  -0.00289   1.56970
   X16      -20.40443   0.00115   0.00000  -0.03726  -0.03748 -20.44191
   Y16      -10.19448  -0.02684   0.00000   0.01986   0.01990 -10.17458
   Z16        1.41800  -0.00195   0.00000  -0.00870  -0.00857   1.40943
   X17      -22.86745   0.01534   0.00000   0.03758   0.03740 -22.83005
   Y17       -3.96689  -0.01033   0.00000  -0.01726  -0.01719  -3.98409
   Z17        1.87354  -0.00049   0.00000   0.00046   0.00042   1.87397
   X18      -24.73236  -0.00504   0.00000   0.03009   0.02991 -24.70245
   Y18       -2.81089   0.00298   0.00000  -0.02069  -0.02061  -2.83150
   Z18        1.95516   0.00009   0.00000   0.00230   0.00223   1.95738
         Item               Value     Threshold  Converged?
 Maximum Force            0.097869     0.000450     NO 
 RMS     Force            0.028993     0.000300     NO 
 Maximum Displacement     0.066390     0.001800     NO 
 RMS     Displacement     0.021367     0.001200     NO 
 Predicted change in Energy=-1.094049D-02
 GradGradGradGradGradGradGradGradGradGradGradGradGradGradGradGradGradGrad

 Unable to Open any file for archive entry.
 1\1\GINC-X10P1N4\Force\RwB97XD\def2SVP\C12N6(2-)\MAYUMIAO\11-Oct-2024\
 0\\# wb97xd def2svp scrf=(smd,solvent=acetonitrile) g09default scf=(xq
 c,maxcycle=64) force guess=read nosymm\\Title Card\\-2,1\C,-8.94116369
 ,-0.88081114,1.11171783\C,-8.94629896,0.47960695,1.24569714\C,-8.22870
 923,-2.12811354,0.9830732\C,-7.04143614,-2.80945859,0.90147331\C,-9.65
 658437,-2.12458162,0.99608586\C,-10.86298341,-2.81338589,0.93988972\C,
 -10.19040753,1.18728314,1.33520691\N,-11.17620741,1.77374608,1.4191344
 3\C,-7.70406833,1.19784077,1.32166426\N,-6.68813463,1.71669534,1.38077
 105\C,-5.79500421,-2.10964712,0.94739205\N,-4.78499273,-1.50956884,0.9
 9229742\C,-7.03369823,-4.23993826,0.74159842\N,-7.02777604,-5.38286792
 ,0.60419368\C,-10.84613859,-4.24564297,0.83217761\N,-10.79755981,-5.39
 468516,0.75037227\C,-12.10093152,-2.09918878,0.99143567\N,-13.08779944
 ,-1.48746011,1.03462407\\Version=ES64L-G16RevC.01\HF=-785.0209389\RMSD
 =4.037e-09\RMSF=2.899e-02\Dipole=-0.0251666,0.0836076,0.0021506\Quadru
 pole=-394.7821499,155.6495778,239.1325721,-110.2591723,66.3669457,5.72
 29214\PG=C01 [X(C12N6)]\\@
 The archive entry for this job was punched.


 You can't act like a skunk without someone's getting wind of it.
 -- Lorene Workman
 Job cpu time:       0 days  0 hours 10 minutes  0.3 seconds.
 Elapsed time:       0 days  0 hours  0 minutes 22.8 seconds.
 File lengths (MBytes):  RWF=    147 Int=      0 D2E=      0 Chk=      8 Scr=      1
 Normal termination of Gaussian 16 at Fri Oct 11 16:02:51 2024.
