 Entering Gaussian System, Link 0=g16
 Input=JOBS/38_B.gjf
 Output=JOBS/38_B.log
 Initial command:
 /data/app/gaussian/C01-avx2//g16/l1.exe "/tmp/Gau-2549530.inp" -scrdir="/tmp/"
 Entering Link 1 = /data/app/gaussian/C01-avx2//g16/l1.exe PID=   2549531.
  
 Copyright (c) 1988-2019, Gaussian, Inc.  All Rights Reserved.
  
 This is part of the Gaussian(R) 16 program.  It is based on
 the Gaussian(R) 09 system (copyright 2009, Gaussian, Inc.),
 the Gaussian(R) 03 system (copyright 2003, Gaussian, Inc.),
 the Gaussian(R) 98 system (copyright 1998, Gaussian, Inc.),
 the Gaussian(R) 94 system (copyright 1995, Gaussian, Inc.),
 the Gaussian 92(TM) system (copyright 1992, Gaussian, Inc.),
 the Gaussian 90(TM) system (copyright 1990, Gaussian, Inc.),
 the Gaussian 88(TM) system (copyright 1988, Gaussian, Inc.),
 the Gaussian 86(TM) system (copyright 1986, Carnegie Mellon
 University), and the Gaussian 82(TM) system (copyright 1983,
 Carnegie Mellon University). Gaussian is a federally registered
 trademark of Gaussian, Inc.
  
 This software contains proprietary and confidential information,
 including trade secrets, belonging to Gaussian, Inc.
  
 This software is provided under written license and may be
 used, copied, transmitted, or stored only in accord with that
 written license.
  
 The following legend is applicable only to US Government
 contracts under FAR:
  
                    RESTRICTED RIGHTS LEGEND
  
 Use, reproduction and disclosure by the US Government is
 subject to restrictions as set forth in subparagraphs (a)
 and (c) of the Commercial Computer Software - Restricted
 Rights clause in FAR 52.227-19.
  
 Gaussian, Inc.
 340 Quinnipiac St., Bldg. 40, Wallingford CT 06492
  
  
 ---------------------------------------------------------------
 Warning -- This program may not be used in any manner that
 competes with the business of Gaussian, Inc. or will provide
 assistance to any competitor of Gaussian, Inc.  The licensee
 of this program is prohibited from giving any competitor of
 Gaussian, Inc. access to this program.  By using this program,
 the user acknowledges that Gaussian, Inc. is engaged in the
 business of creating and licensing software in the field of
 computational chemistry and represents and warrants to the
 licensee that it is not a competitor of Gaussian, Inc. and that
 it will not use this program in any manner prohibited above.
 ---------------------------------------------------------------
  

 Cite this work as:
 Gaussian 16, Revision C.01,
 M. J. Frisch, G. W. Trucks, H. B. Schlegel, G. E. Scuseria, 
 M. A. Robb, J. R. Cheeseman, G. Scalmani, V. Barone, 
 G. A. Petersson, H. Nakatsuji, X. Li, M. Caricato, A. V. Marenich, 
 J. Bloino, B. G. Janesko, R. Gomperts, B. Mennucci, H. P. Hratchian, 
 J. V. Ortiz, A. F. Izmaylov, J. L. Sonnenberg, D. Williams-Young, 
 F. Ding, F. Lipparini, F. Egidi, J. Goings, B. Peng, A. Petrone, 
 T. Henderson, D. Ranasinghe, V. G. Zakrzewski, J. Gao, N. Rega, 
 G. Zheng, W. Liang, M. Hada, M. Ehara, K. Toyota, R. Fukuda, 
 J. Hasegawa, M. Ishida, T. Nakajima, Y. Honda, O. Kitao, H. Nakai, 
 T. Vreven, K. Throssell, J. A. Montgomery, Jr., J. E. Peralta, 
 F. Ogliaro, M. J. Bearpark, J. J. Heyd, E. N. Brothers, K. N. Kudin, 
 V. N. Staroverov, T. A. Keith, R. Kobayashi, J. Normand, 
 K. Raghavachari, A. P. Rendell, J. C. Burant, S. S. Iyengar, 
 J. Tomasi, M. Cossi, J. M. Millam, M. Klene, C. Adamo, R. Cammi, 
 J. W. Ochterski, R. L. Martin, K. Morokuma, O. Farkas, 
 J. B. Foresman, and D. J. Fox, Gaussian, Inc., Wallingford CT, 2019.
 
 ******************************************
 Gaussian 16:  ES64L-G16RevC.01  3-Jul-2019
                11-Oct-2024 
 ******************************************
 %chk=b.chk
 %nprocshared=28
 Will use up to   28 processors via shared memory.
 %mem=48gb
 ----------------------------------------------------------------------
 # wb97xd def2svp scrf=(smd,solvent=acetonitrile) g09default scf=(xqc,m
 axcycle=64) force guess=read nosymm
 ----------------------------------------------------------------------
 1/10=7,30=1,38=1,158=3,167=1/1,3;
 2/12=2,15=1,17=6,18=5,40=1/2;
 3/5=43,7=101,11=2,25=1,27=10,30=1,70=32201,71=1,72=2,74=-58,75=-4,116=-2,158=3/1,2,3;
 4/5=1,60=-1/1;
 5/5=2,7=64,8=3,13=1,38=6,53=2,87=10/2,8;
 6/7=2,8=2,9=2,10=2,28=1,87=10/1;
 7/29=1,30=1,87=10/1,2,3,16;
 1/10=7,30=1,158=3,167=1/3;
 99//99;
 Using 2006 physical constants.
 ----------
 Title Card
 ----------
 Symbolic Z-matrix:
 Charge = -1 Multiplicity = 2
 6                    -8.94116  -0.88081   1.11172 
 6                    -8.9463    0.47961   1.2457 
 6                    -8.22871  -2.12811   0.98307 
 6                    -7.04144  -2.80946   0.90147 
 6                    -9.65658  -2.12458   0.99609 
 6                    -10.86298  -2.81339   0.93989 
 6                    -10.19041   1.18728   1.33521 
 7                    -11.17621   1.77375   1.41913 
 6                    -7.70407   1.19784   1.32166 
 7                    -6.68813   1.7167    1.38077 
 6                    -5.795    -2.10965   0.94739 
 7                    -4.78499  -1.50957   0.9923 
 6                    -7.0337   -4.23994   0.7416 
 7                    -7.02778  -5.38287   0.60419 
 6                    -10.84614  -4.24564   0.83218 
 7                    -10.79756  -5.39469   0.75037 
 6                    -12.10093  -2.09919   0.99144 
 7                    -13.0878  -1.48746   1.03462 
 

 GradGradGradGradGradGradGradGradGradGradGradGradGradGradGradGradGradGrad
 Berny optimization.
 Initialization pass.
 Trust Radius=3.00D-01 FncErr=1.00D-07 GrdErr=1.00D-07 EigMax=2.50D+02 EigMin=1.00D-04
 Number of steps in this run=      2 maximum allowed number of steps=      2.
 GradGradGradGradGradGradGradGradGradGradGradGradGradGradGradGradGradGrad

                          Input orientation:                          
 ---------------------------------------------------------------------
 Center     Atomic      Atomic             Coordinates (Angstroms)
 Number     Number       Type             X           Y           Z
 ---------------------------------------------------------------------
      1          6           0       -8.941164   -0.880811    1.111718
      2          6           0       -8.946299    0.479607    1.245697
      3          6           0       -8.228709   -2.128114    0.983073
      4          6           0       -7.041436   -2.809459    0.901473
      5          6           0       -9.656584   -2.124582    0.996086
      6          6           0      -10.862983   -2.813386    0.939890
      7          6           0      -10.190408    1.187283    1.335207
      8          7           0      -11.176207    1.773746    1.419134
      9          6           0       -7.704068    1.197841    1.321664
     10          7           0       -6.688135    1.716695    1.380771
     11          6           0       -5.795004   -2.109647    0.947392
     12          7           0       -4.784993   -1.509569    0.992297
     13          6           0       -7.033698   -4.239938    0.741598
     14          7           0       -7.027776   -5.382868    0.604194
     15          6           0      -10.846139   -4.245643    0.832178
     16          7           0      -10.797560   -5.394685    0.750372
     17          6           0      -12.100932   -2.099189    0.991436
     18          7           0      -13.087799   -1.487460    1.034624
 ---------------------------------------------------------------------
                    Distance matrix (angstroms):
                    1          2          3          4          5
     1  C    0.000000
     2  C    1.367009   0.000000
     3  C    1.442187   2.717372   0.000000
     4  C    2.715299   3.816405   1.371316   0.000000
     5  C    1.439501   2.710832   1.427939   2.704997   0.000000
     6  C    2.730890   3.822434   2.722290   3.821742   1.390327
     7  C    2.426432   1.434093   3.868348   5.106671   3.371709
     8  N    3.483762   2.584060   4.909420   6.194358   4.205376
     9  C    2.428019   1.436930   3.384060   4.083392   3.867404
    10  N    3.448995   2.578360   4.161020   4.565153   4.869814
    11  C    3.381621   4.089484   2.434037   1.430188   3.861916
    12  N    4.205158   4.619253   3.498838   2.605667   4.910261
    13  C    3.880612   5.117252   2.438476   1.439407   3.379205
    14  N    4.918043   6.201683   3.489873   2.590559   4.204836
    15  C    3.876747   5.109636   3.370109   4.067332   2.437377
    16  N    4.894061   6.178982   4.162167   4.562312   3.472143
    17  C    3.388664   4.082468   3.872339   5.109899   2.444483
    18  N    4.191486   4.589764   4.901413   6.190631   3.490078
                    6          7          8          9         10
     6  C    0.000000
     7  C    4.076026   0.000000
     8  N    4.622723   1.150123   0.000000
     9  C    5.120003   2.486398   3.520926   0.000000
    10  N    6.176194   3.542354   4.488599   1.142289   0.000000
    11  C    5.116612   5.508150   6.652866   3.837197   3.953024
    12  N    6.216483   6.050546   7.197914   3.994941   3.765852
    13  C    4.091185   6.306498   7.333746   5.509566   6.000787
    14  N    4.628579   7.328267   8.312084   6.654161   7.149981
    15  C    1.436400   5.495426   6.056939   6.304262   7.289680
    16  N    2.589074   6.635734   7.209509   7.304619   8.237506
    17  C    1.430122   3.816959   4.004705   5.505621   6.634073
    18  N    2.591691   3.954678   3.799671   6.023105   7.165343
                   11         12         13         14         15
    11  C    0.000000
    12  N    1.175684   0.000000
    13  C    2.472823   3.546046   0.000000
    14  N    3.514468   4.492566   1.151175   0.000000
    15  C    5.485409   6.652009   3.813521   3.990633   0.000000
    16  N    5.987976   7.162655   3.937026   3.772635   1.152974
    17  C    6.306090   7.339660   5.506549   6.055527   2.491412
    18  N    7.319808   8.302944   6.656887   7.216880   3.560000
                   16         17         18
    16  N    0.000000
    17  C    3.552068   0.000000
    18  N    4.537885   1.161889   0.000000
 Symmetry turned off by external request.
 Stoichiometry    C12N6(1-,2)
 Framework group  C1[X(C12N6)]
 Deg. of freedom    48
 Full point group                 C1      NOp   1
 Rotational constants (GHZ):           0.4284296           0.4238585           0.2131008
 Standard basis: def2SVP (5D, 7F)
   252 basis functions,   450 primitive gaussians,   270 cartesian basis functions
    58 alpha electrons       57 beta electrons
       nuclear repulsion energy       961.8116778501 Hartrees.
 NAtoms=   18 NActive=   18 NUniq=   18 SFac= 1.00D+00 NAtFMM=   60 NAOKFM=F Big=F
 Integral buffers will be    131072 words long.
 Raffenetti 2 integral format.
 Two-electron integral symmetry is turned off.
 Nuclear repulsion after empirical dispersion term =      961.8000646551 Hartrees.
 Force PCM accuracy= 1.00D-10.
 ------------------------------------------------------------------------------
 Polarizable Continuum Model (PCM)
 =================================
 Model                : PCM (using non-symmetric T matrix).
 Atomic radii         : SMD-Coulomb.
 Polarization charges : Total charges.
 Charge compensation  : None.
 Solution method      : On-the-fly selection.
 Cavity type          : VdW (van der Waals Surface) (Alpha=1.000).
 Cavity algorithm     : GePol (No added spheres)
                        Default sphere list used, NSphG=   18.
                        Lebedev-Laikov grids with approx.  5.0 points / Ang**2.
                        Smoothing algorithm: York/Karplus (Gamma=1.0000).
                        Polarization charges: spherical gaussians, with
                                              point-specific exponents (IZeta= 3).
                        Self-potential: point-specific (ISelfS= 7).
                        Self-field    : sphere-specific E.n sum rule (ISelfD= 2).
 1st derivatives      : Analytical E(r).r(x)/FMM algorithm (CHGder, D1EAlg=3).
                        Cavity 1st derivative terms included.
 Solvent              : Acetonitrile, Eps=  35.688000 Eps(inf)=   1.806874
 ------------------------------------------------------------------------------
 Spheres list:
 ISph  on   Nord     Re0    Alpha      Xe            Ye            Ze
    1   C      1    1.8500  1.000     -8.941164     -0.880811      1.111718
    2   C      2    1.8500  1.000     -8.946299      0.479607      1.245697
    3   C      3    1.8500  1.000     -8.228709     -2.128114      0.983073
    4   C      4    1.8500  1.000     -7.041436     -2.809459      0.901473
    5   C      5    1.8500  1.000     -9.656584     -2.124582      0.996086
    6   C      6    1.8500  1.000    -10.862983     -2.813386      0.939890
    7   C      7    1.8500  1.000    -10.190408      1.187283      1.335207
    8   N      8    1.8900  1.000    -11.176207      1.773746      1.419134
    9   C      9    1.8500  1.000     -7.704068      1.197841      1.321664
   10   N     10    1.8900  1.000     -6.688135      1.716695      1.380771
   11   C     11    1.8500  1.000     -5.795004     -2.109647      0.947392
   12   N     12    1.8900  1.000     -4.784993     -1.509569      0.992297
   13   C     13    1.8500  1.000     -7.033698     -4.239938      0.741598
   14   N     14    1.8900  1.000     -7.027776     -5.382868      0.604194
   15   C     15    1.8500  1.000    -10.846139     -4.245643      0.832178
   16   N     16    1.8900  1.000    -10.797560     -5.394685      0.750372
   17   C     17    1.8500  1.000    -12.100932     -2.099189      0.991436
   18   N     18    1.8900  1.000    -13.087799     -1.487460      1.034624
 ------------------------------------------------------------------------------
 ------------------------------------------------------------------------------
 Atomic radii for non-electrostatic terms: SMD-CDS.
 ------------------------------------------------------------------------------
 Nuclear repulsion after PCM non-electrostatic terms =      961.8087796231 Hartrees.
 One-electron integrals computed using PRISM.
   1 Symmetry operations used in ECPInt.
 ECPInt:  NShTT=    5886 NPrTT=   23670 LenC2=    5398 LenP2D=   14939.
 LDataN:  DoStor=T MaxTD1= 4 Len=   56
 NBasis=   252 RedAO= T EigKep=  2.18D-04  NBF=   252
 NBsUse=   252 1.00D-06 EigRej= -1.00D+00 NBFU=   252
 Initial guess from the checkpoint file:  "b.chk"
 B after Tr=    -0.000184    0.000031   -0.002015
         Rot=    1.000000   -0.000041   -0.000067    0.000006 Ang=  -0.01 deg.
 Initial guess <Sx>= 0.0000 <Sy>= 0.0000 <Sz>= 0.5000 <S**2>= 0.7819 S= 0.5158
 Requested convergence on RMS density matrix=1.00D-08 within  64 cycles.
 Requested convergence on MAX density matrix=1.00D-06.
 Requested convergence on             energy=1.00D-06.
 No special actions if energy rises.
 Inv3:  Mode=1 IEnd=    19233072.
 Iteration    1 A*A^-1 deviation from unit magnitude is 3.55D-15 for   2381.
 Iteration    1 A*A^-1 deviation from orthogonality  is 2.15D-15 for   1007     29.
 Iteration    1 A^-1*A deviation from unit magnitude is 3.33D-15 for    436.
 Iteration    1 A^-1*A deviation from orthogonality  is 3.33D-12 for   1005    978.
 Error on total polarization charges =  0.01960
 SCF Done:  E(UwB97XD) =  -784.855978520     A.U. after   15 cycles
            NFock= 15  Conv=0.94D-08     -V/T= 2.0099
 <Sx>= 0.0000 <Sy>= 0.0000 <Sz>= 0.5000 <S**2>= 0.7847 S= 0.5172
 <L.S>=  0.00000000000    
 SMD-CDS (non-electrostatic) energy       (kcal/mol) =       5.47
 (included in total energy above)
 Annihilation of the first spin contaminant:
 S**2 before annihilation     0.7847,   after     0.7510
 QCSCF skips out because SCF is already converged.

 **********************************************************************

            Population analysis using the SCF Density.

 **********************************************************************

 Alpha  occ. eigenvalues --  -14.46295 -14.45987 -14.45777 -14.45773 -14.45717
 Alpha  occ. eigenvalues --  -14.45558 -10.38438 -10.38385 -10.38366 -10.38320
 Alpha  occ. eigenvalues --  -10.38200 -10.38135 -10.36511 -10.36220 -10.36031
 Alpha  occ. eigenvalues --  -10.36019 -10.35945 -10.35799  -1.04570  -1.02329
 Alpha  occ. eigenvalues --   -1.02014  -1.01454  -1.01310  -1.00907  -1.00531
 Alpha  occ. eigenvalues --   -0.92189  -0.91964  -0.89415  -0.72080  -0.71810
 Alpha  occ. eigenvalues --   -0.68625  -0.68457  -0.68161  -0.67349  -0.55008
 Alpha  occ. eigenvalues --   -0.50901  -0.50758  -0.49352  -0.48966  -0.47639
 Alpha  occ. eigenvalues --   -0.47550  -0.47486  -0.47022  -0.46691  -0.46510
 Alpha  occ. eigenvalues --   -0.46107  -0.45359  -0.45216  -0.44959  -0.44745
 Alpha  occ. eigenvalues --   -0.44672  -0.44537  -0.43179  -0.42882  -0.42776
 Alpha  occ. eigenvalues --   -0.35759  -0.35543  -0.27368
 Alpha virt. eigenvalues --    0.04559   0.04629   0.06600   0.06959   0.07378
 Alpha virt. eigenvalues --    0.09955   0.10243   0.10434   0.11054   0.12214
 Alpha virt. eigenvalues --    0.12681   0.14623   0.19056   0.19149   0.20810
 Alpha virt. eigenvalues --    0.23611   0.24808   0.25030   0.25888   0.25983
 Alpha virt. eigenvalues --    0.28002   0.31359   0.31442   0.31753   0.31913
 Alpha virt. eigenvalues --    0.32260   0.34759   0.46459   0.46851   0.49066
 Alpha virt. eigenvalues --    0.49316   0.52317   0.52605   0.53162   0.53268
 Alpha virt. eigenvalues --    0.54506   0.54613   0.55342   0.56920   0.59862
 Alpha virt. eigenvalues --    0.60016   0.60155   0.61044   0.61576   0.63264
 Alpha virt. eigenvalues --    0.63830   0.68933   0.69429   0.69528   0.71648
 Alpha virt. eigenvalues --    0.71729   0.72615   0.72786   0.73093   0.73332
 Alpha virt. eigenvalues --    0.73439   0.73533   0.74533   0.74871   0.75287
 Alpha virt. eigenvalues --    0.79264   0.79350   0.79551   0.80845   0.81016
 Alpha virt. eigenvalues --    0.85030   0.85443   0.86382   0.86953   0.92792
 Alpha virt. eigenvalues --    0.92978   0.93033   0.93217   0.93646   0.94118
 Alpha virt. eigenvalues --    0.95812   0.98476   0.98565   0.99023   0.99608
 Alpha virt. eigenvalues --    1.00324   1.00421   1.02145   1.02522   1.03427
 Alpha virt. eigenvalues --    1.05639   1.06610   1.07338   1.08429   1.10659
 Alpha virt. eigenvalues --    1.11708   1.15220   1.16519   1.17660   1.17980
 Alpha virt. eigenvalues --    1.20061   1.22541   1.22899   1.23505   1.32943
 Alpha virt. eigenvalues --    1.34995   1.35438   1.38219   1.38350   1.41482
 Alpha virt. eigenvalues --    1.43639   1.44211   1.44554   1.45410   1.57454
 Alpha virt. eigenvalues --    1.57757   1.66134   1.68150   1.68298   1.68387
 Alpha virt. eigenvalues --    1.68579   1.68928   1.75763   1.75973   1.76479
 Alpha virt. eigenvalues --    1.76705   1.77895   1.78799   1.78898   1.80183
 Alpha virt. eigenvalues --    1.80839   1.81110   1.84771   1.92590   1.93209
 Alpha virt. eigenvalues --    1.93809   1.97461   1.98415   1.98564   2.02219
 Alpha virt. eigenvalues --    2.02551   2.04501   2.04578   2.10389   2.10541
 Alpha virt. eigenvalues --    2.15453   2.19204   2.19709   2.19881   2.24704
 Alpha virt. eigenvalues --    2.26602   2.27106   2.27334   2.32820   2.32968
 Alpha virt. eigenvalues --    2.33420   2.33570   2.33855   2.34284   2.34722
 Alpha virt. eigenvalues --    2.34852   2.35057   2.35656   2.35726   2.36297
 Alpha virt. eigenvalues --    2.37236   2.37873   2.55685   2.58689   2.59808
 Alpha virt. eigenvalues --    2.68454   2.69220   2.91941   2.94248   2.94809
 Alpha virt. eigenvalues --    2.95368   2.98233   2.98992   2.99394   3.02102
 Alpha virt. eigenvalues --    3.03973   3.05479   3.07615   3.08223   3.10602
 Alpha virt. eigenvalues --    3.11589   3.12909   3.21923   3.22977   3.27719
 Alpha virt. eigenvalues --    3.38938   3.39473   3.41288   3.52921   3.55819
 Alpha virt. eigenvalues --    3.58011   3.61248   3.62908   3.74970
  Beta  occ. eigenvalues --  -14.46099 -14.45796 -14.45606 -14.45598 -14.45548
  Beta  occ. eigenvalues --  -14.45398 -10.38462 -10.38417 -10.38394 -10.37961
  Beta  occ. eigenvalues --  -10.37856 -10.37793 -10.36605 -10.36312 -10.36118
  Beta  occ. eigenvalues --  -10.36102 -10.36027 -10.35878  -1.04162  -1.02018
  Beta  occ. eigenvalues --   -1.01686  -1.01133  -1.01016  -1.00588  -1.00202
  Beta  occ. eigenvalues --   -0.91465  -0.91199  -0.88424  -0.71919  -0.71649
  Beta  occ. eigenvalues --   -0.68391  -0.68236  -0.67899  -0.67166  -0.54098
  Beta  occ. eigenvalues --   -0.49658  -0.49467  -0.49188  -0.48810  -0.47304
  Beta  occ. eigenvalues --   -0.47202  -0.47170  -0.46692  -0.46445  -0.46289
  Beta  occ. eigenvalues --   -0.45263  -0.44988  -0.44529  -0.44437  -0.44401
  Beta  occ. eigenvalues --   -0.44102  -0.43927  -0.43046  -0.42755  -0.42634
  Beta  occ. eigenvalues --   -0.33104  -0.32672
  Beta virt. eigenvalues --   -0.09940   0.05436   0.05536   0.06706   0.07061
  Beta virt. eigenvalues --    0.07465   0.09950   0.11210   0.11390   0.11845
  Beta virt. eigenvalues --    0.12263   0.12736   0.14868   0.19270   0.19371
  Beta virt. eigenvalues --    0.22368   0.23528   0.26046   0.26141   0.26465
  Beta virt. eigenvalues --    0.26612   0.28225   0.31655   0.31803   0.32164
  Beta virt. eigenvalues --    0.32271   0.32694   0.34855   0.46594   0.46979
  Beta virt. eigenvalues --    0.49177   0.49398   0.52423   0.52710   0.53099
  Beta virt. eigenvalues --    0.53204   0.54662   0.54776   0.55503   0.57084
  Beta virt. eigenvalues --    0.59804   0.59922   0.60048   0.61068   0.61604
  Beta virt. eigenvalues --    0.63453   0.63704   0.69242   0.69571   0.69693
  Beta virt. eigenvalues --    0.71795   0.71877   0.72745   0.72920   0.73258
  Beta virt. eigenvalues --    0.73510   0.73612   0.73650   0.74661   0.74976
  Beta virt. eigenvalues --    0.75342   0.79354   0.79569   0.80236   0.81590
  Beta virt. eigenvalues --    0.81735   0.85152   0.85572   0.86643   0.87049
  Beta virt. eigenvalues --    0.92957   0.93154   0.93600   0.93761   0.93853
  Beta virt. eigenvalues --    0.94673   0.96489   0.99046   0.99136   0.99263
  Beta virt. eigenvalues --    0.99821   1.00468   1.00557   1.02302   1.02672
  Beta virt. eigenvalues --    1.03559   1.05956   1.06794   1.07557   1.08705
  Beta virt. eigenvalues --    1.10781   1.11824   1.15418   1.16828   1.17897
  Beta virt. eigenvalues --    1.18225   1.20387   1.22774   1.23138   1.24085
  Beta virt. eigenvalues --    1.33086   1.35178   1.35626   1.38814   1.38943
  Beta virt. eigenvalues --    1.42250   1.44243   1.44733   1.44881   1.45572
  Beta virt. eigenvalues --    1.57481   1.57804   1.65981   1.67967   1.68097
  Beta virt. eigenvalues --    1.68187   1.68396   1.68709   1.75638   1.75859
  Beta virt. eigenvalues --    1.76646   1.76890   1.77805   1.78712   1.78803
  Beta virt. eigenvalues --    1.80428   1.80775   1.81062   1.84687   1.92654
  Beta virt. eigenvalues --    1.93355   1.93875   1.97644   1.98988   1.99119
  Beta virt. eigenvalues --    2.02557   2.02879   2.04695   2.05230   2.10835
  Beta virt. eigenvalues --    2.11028   2.15715   2.20159   2.20653   2.20974
  Beta virt. eigenvalues --    2.25311   2.27236   2.27740   2.27902   2.33470
  Beta virt. eigenvalues --    2.33578   2.34038   2.34170   2.34490   2.34920
  Beta virt. eigenvalues --    2.35249   2.35325   2.35522   2.36254   2.36348
  Beta virt. eigenvalues --    2.36834   2.37901   2.38495   2.56150   2.58790
  Beta virt. eigenvalues --    2.59907   2.68950   2.69706   2.92029   2.94413
  Beta virt. eigenvalues --    2.94972   2.95494   2.98379   2.99122   2.99526
  Beta virt. eigenvalues --    3.02588   3.04494   3.05959   3.07801   3.08405
  Beta virt. eigenvalues --    3.11077   3.12083   3.13363   3.22162   3.23205
  Beta virt. eigenvalues --    3.27902   3.39156   3.39675   3.41477   3.53099
  Beta virt. eigenvalues --    3.56002   3.58182   3.61442   3.63094   3.75135
          Condensed to atoms (all electrons):
               1          2          3          4          5          6
     1  C    4.894797   0.557083   0.279083  -0.101016   0.291750  -0.089893
     2  C    0.557083   5.319580  -0.101945  -0.008708  -0.101620  -0.007469
     3  C    0.279083  -0.101945   4.910396   0.547968   0.287103  -0.095061
     4  C   -0.101016  -0.008708   0.547968   5.331119  -0.105707  -0.007786
     5  C    0.291750  -0.101620   0.287103  -0.105707   4.926553   0.543416
     6  C   -0.089893  -0.007469  -0.095061  -0.007786   0.543416   5.300418
     7  C    0.008424   0.392932   0.004692  -0.000437  -0.019770   0.001957
     8  N   -0.001960  -0.027309  -0.000073  -0.000001  -0.000414   0.000093
     9  C    0.005444   0.390221  -0.019090   0.001998   0.006450  -0.000370
    10  N   -0.001887  -0.025603  -0.000468   0.000118  -0.000029  -0.000001
    11  C   -0.019029   0.001814   0.008317   0.391035   0.005595  -0.000375
    12  N   -0.000392   0.000092  -0.001585  -0.027719  -0.000046  -0.000001
    13  C    0.004906  -0.000393   0.006678   0.390356  -0.019116   0.001884
    14  N   -0.000061  -0.000001  -0.001867  -0.026812  -0.000419   0.000094
    15  C    0.005911  -0.000386  -0.020047   0.001985   0.006748   0.390895
    16  N   -0.000025  -0.000001  -0.000472   0.000121  -0.001533  -0.026729
    17  C   -0.019558   0.001991   0.005942  -0.000396   0.006777   0.391249
    18  N   -0.000423   0.000117  -0.000030  -0.000001  -0.001394  -0.027517
               7          8          9         10         11         12
     1  C    0.008424  -0.001960   0.005444  -0.001887  -0.019029  -0.000392
     2  C    0.392932  -0.027309   0.390221  -0.025603   0.001814   0.000092
     3  C    0.004692  -0.000073  -0.019090  -0.000468   0.008317  -0.001585
     4  C   -0.000437  -0.000001   0.001998   0.000118   0.391035  -0.027719
     5  C   -0.019770  -0.000414   0.006450  -0.000029   0.005595  -0.000046
     6  C    0.001957   0.000093  -0.000370  -0.000001  -0.000375  -0.000001
     7  C    4.828571   0.920482  -0.047401   0.001777   0.000087   0.000001
     8  N    0.920482   6.083603   0.001434   0.000054   0.000000   0.000000
     9  C   -0.047401   0.001434   4.826054   0.930908  -0.000170   0.000228
    10  N    0.001777   0.000054   0.930908   6.059094   0.000208  -0.000754
    11  C    0.000087   0.000000  -0.000170   0.000208   4.837083   0.894707
    12  N    0.000001   0.000000   0.000228  -0.000754   0.894707   6.133881
    13  C   -0.000010  -0.000000   0.000083   0.000002  -0.044352   0.001777
    14  N   -0.000000  -0.000000   0.000000   0.000000   0.001728   0.000057
    15  C    0.000084   0.000001  -0.000009  -0.000000   0.000090   0.000000
    16  N    0.000000   0.000000  -0.000000  -0.000000   0.000002   0.000000
    17  C   -0.000113  -0.000021   0.000089   0.000000  -0.000009  -0.000000
    18  N    0.000418  -0.000749   0.000002   0.000000  -0.000000  -0.000000
              13         14         15         16         17         18
     1  C    0.004906  -0.000061   0.005911  -0.000025  -0.019558  -0.000423
     2  C   -0.000393  -0.000001  -0.000386  -0.000001   0.001991   0.000117
     3  C    0.006678  -0.001867  -0.020047  -0.000472   0.005942  -0.000030
     4  C    0.390356  -0.026812   0.001985   0.000121  -0.000396  -0.000001
     5  C   -0.019116  -0.000419   0.006748  -0.001533   0.006777  -0.001394
     6  C    0.001884   0.000094   0.390895  -0.026729   0.391249  -0.027517
     7  C   -0.000010  -0.000000   0.000084   0.000000  -0.000113   0.000418
     8  N   -0.000000  -0.000000   0.000001   0.000000  -0.000021  -0.000749
     9  C    0.000083   0.000000  -0.000009  -0.000000   0.000089   0.000002
    10  N    0.000002   0.000000  -0.000000  -0.000000   0.000000   0.000000
    11  C   -0.044352   0.001728   0.000090   0.000002  -0.000009  -0.000000
    12  N    0.001777   0.000057   0.000000   0.000000  -0.000000  -0.000000
    13  C    4.826849   0.921546  -0.000078   0.000402   0.000084   0.000000
    14  N    0.921546   6.080877   0.000048  -0.000770   0.000001   0.000000
    15  C   -0.000078   0.000048   4.825429   0.917685  -0.043663   0.001775
    16  N    0.000402  -0.000770   0.917685   6.089874   0.001826   0.000052
    17  C    0.000084   0.000001  -0.043663   0.001826   4.828239   0.906490
    18  N    0.000000   0.000000   0.001775   0.000052   0.906490   6.108929
          Atomic-Atomic Spin Densities.
               1          2          3          4          5          6
     1  C   -0.039576  -0.067876   0.034447  -0.006161   0.035789  -0.005834
     2  C   -0.067876   0.376412  -0.006385   0.001007  -0.006468   0.001024
     3  C    0.034447  -0.006385  -0.030002  -0.071374   0.038067  -0.006357
     4  C   -0.006161   0.001007  -0.071374   0.381726  -0.006642   0.001016
     5  C    0.035789  -0.006468   0.038067  -0.006642  -0.029212  -0.072412
     6  C   -0.005834   0.001024  -0.006357   0.001016  -0.072412   0.395853
     7  C   -0.000035   0.005707  -0.000130  -0.000011   0.000358  -0.000050
     8  N    0.000477  -0.005088   0.000008  -0.000000   0.000043  -0.000025
     9  C   -0.000107   0.005106   0.000294  -0.000058  -0.000144  -0.000011
    10  N    0.000537  -0.005031   0.000043  -0.000030   0.000009  -0.000000
    11  C    0.000331  -0.000067   0.000132   0.007036  -0.000149  -0.000012
    12  N    0.000041  -0.000027   0.000538  -0.005230   0.000009  -0.000000
    13  C   -0.000118  -0.000011   0.000069   0.005410   0.000309  -0.000055
    14  N    0.000007  -0.000000   0.000493  -0.005050   0.000040  -0.000025
    15  C   -0.000110  -0.000011   0.000311  -0.000069   0.000103   0.005603
    16  N    0.000009  -0.000000   0.000044  -0.000032   0.000557  -0.005323
    17  C    0.000343  -0.000069  -0.000133  -0.000012   0.000126   0.006304
    18  N    0.000041  -0.000029   0.000009  -0.000000   0.000554  -0.005454
               7          8          9         10         11         12
     1  C   -0.000035   0.000477  -0.000107   0.000537   0.000331   0.000041
     2  C    0.005707  -0.005088   0.005106  -0.005031  -0.000067  -0.000027
     3  C   -0.000130   0.000008   0.000294   0.000043   0.000132   0.000538
     4  C   -0.000011  -0.000000  -0.000058  -0.000030   0.007036  -0.005230
     5  C    0.000358   0.000043  -0.000144   0.000009  -0.000149   0.000009
     6  C   -0.000050  -0.000025  -0.000011  -0.000000  -0.000012  -0.000000
     7  C   -0.067375  -0.001646  -0.000468   0.000083  -0.000003   0.000000
     8  N   -0.001646   0.103473   0.000129   0.000008  -0.000000   0.000000
     9  C   -0.000468   0.000129  -0.064950  -0.001408   0.000013   0.000012
    10  N    0.000083   0.000008  -0.001408   0.098569   0.000012   0.000037
    11  C   -0.000003  -0.000000   0.000013   0.000012  -0.077928  -0.002629
    12  N    0.000000   0.000000   0.000012   0.000037  -0.002629   0.120850
    13  C    0.000000  -0.000000  -0.000002   0.000000  -0.000527   0.000115
    14  N   -0.000000   0.000000  -0.000000   0.000000   0.000127   0.000009
    15  C   -0.000002   0.000000   0.000000  -0.000000  -0.000003  -0.000000
    16  N   -0.000000   0.000000  -0.000000   0.000000   0.000000   0.000000
    17  C    0.000014   0.000013  -0.000003  -0.000000   0.000000  -0.000000
    18  N    0.000011   0.000034   0.000000   0.000000  -0.000000   0.000000
              13         14         15         16         17         18
     1  C   -0.000118   0.000007  -0.000110   0.000009   0.000343   0.000041
     2  C   -0.000011  -0.000000  -0.000011  -0.000000  -0.000069  -0.000029
     3  C    0.000069   0.000493   0.000311   0.000044  -0.000133   0.000009
     4  C    0.005410  -0.005050  -0.000069  -0.000032  -0.000012  -0.000000
     5  C    0.000309   0.000040   0.000103   0.000557   0.000126   0.000554
     6  C   -0.000055  -0.000025   0.005603  -0.005323   0.006304  -0.005454
     7  C    0.000000  -0.000000  -0.000002  -0.000000   0.000014   0.000011
     8  N   -0.000000   0.000000   0.000000   0.000000   0.000013   0.000034
     9  C   -0.000002  -0.000000   0.000000  -0.000000  -0.000003   0.000000
    10  N    0.000000   0.000000  -0.000000   0.000000  -0.000000   0.000000
    11  C   -0.000527   0.000127  -0.000003   0.000000   0.000000  -0.000000
    12  N    0.000115   0.000009  -0.000000   0.000000  -0.000000   0.000000
    13  C   -0.067764  -0.001579   0.000012   0.000011  -0.000002  -0.000000
    14  N   -0.001579   0.103340   0.000013   0.000036   0.000000   0.000000
    15  C    0.000012   0.000013  -0.071272  -0.001756  -0.000656   0.000105
    16  N    0.000011   0.000036  -0.001756   0.109531   0.000103   0.000008
    17  C   -0.000002   0.000000  -0.000656   0.000103  -0.075861  -0.002198
    18  N   -0.000000   0.000000   0.000105   0.000008  -0.002198   0.117855
 Mulliken charges and spin densities:
               1          2
     1  C    0.186846  -0.047793
     2  C   -0.390397   0.298195
     3  C    0.190459  -0.039924
     4  C   -0.386115   0.301526
     5  C    0.175655  -0.039062
     6  C   -0.374804   0.314242
     7  C   -0.091694  -0.063546
     8  N    0.024858   0.097427
     9  C   -0.095872  -0.061595
    10  N    0.036581   0.092829
    11  C   -0.076731  -0.073665
    12  N   -0.000247   0.113724
    13  C   -0.090619  -0.064133
    14  N    0.025579   0.097412
    15  C   -0.086470  -0.067732
    16  N    0.019569   0.103187
    17  C   -0.078928  -0.072029
    18  N    0.012332   0.110936
 Sum of Mulliken charges =  -1.00000   1.00000
 Mulliken charges and spin densities with hydrogens summed into heavy atoms:
               1          2
     1  C    0.186846  -0.047793
     2  C   -0.390397   0.298195
     3  C    0.190459  -0.039924
     4  C   -0.386115   0.301526
     5  C    0.175655  -0.039062
     6  C   -0.374804   0.314242
     7  C   -0.091694  -0.063546
     8  N    0.024858   0.097427
     9  C   -0.095872  -0.061595
    10  N    0.036581   0.092829
    11  C   -0.076731  -0.073665
    12  N   -0.000247   0.113724
    13  C   -0.090619  -0.064133
    14  N    0.025579   0.097412
    15  C   -0.086470  -0.067732
    16  N    0.019569   0.103187
    17  C   -0.078928  -0.072029
    18  N    0.012332   0.110936
 Electronic spatial extent (au):  <R**2>=          39015.7979
 Charge=             -1.0000 electrons
 Dipole moment (field-independent basis, Debye):
    X=             42.7576    Y=              8.3001    Z=             -4.9526  Tot=             43.8365
 Quadrupole moment (field-independent basis, Debye-Ang):
   XX=           -551.8324   YY=           -184.0008   ZZ=           -104.3066
   XY=            -73.1425   XZ=             44.8365   YZ=              1.3935
 Traceless Quadrupole moment (field-independent basis, Debye-Ang):
   XX=           -271.7858   YY=             96.0458   ZZ=            175.7400
   XY=            -73.1425   XZ=             44.8365   YZ=              1.3935
 Octapole moment (field-independent basis, Debye-Ang**2):
  XXX=           7976.1320  YYY=            968.6815  ZZZ=           -311.5026  XYY=           1642.1951
  XXY=            868.1715  XXZ=           -587.3612  XZZ=            933.5408  YZZ=            164.8221
  YYZ=           -159.7029  XYZ=            -13.5378
 Hexadecapole moment (field-independent basis, Debye-Ang**3):
 XXXX=        -116476.2236 YYYY=          -7798.3291 ZZZZ=           -764.4458 XXXY=         -11655.8800
 XXXZ=           8560.6978 YYYX=          -8633.3078 YYYZ=            637.4996 ZZZX=           2802.4649
 ZZZY=            362.3716 XXYY=         -16354.5814 XXZZ=          -9093.8926 YYZZ=           -974.8531
 XXYZ=            279.7112 YYXZ=           1445.8407 ZZXY=          -1472.2268
 N-N= 9.618087796231D+02 E-N=-3.758986224371D+03  KE= 7.771686350878D+02
                          Isotropic Fermi Contact Couplings
        Atom                 a.u.       MegaHertz       Gauss      10(-4) cm-1
     1  C(13)             -0.01727     -19.41623      -6.92819      -6.47656
     2  C(13)              0.04872      54.76626      19.54196      18.26806
     3  C(13)             -0.01599     -17.98068      -6.41595      -5.99771
     4  C(13)              0.04945      55.58774      19.83509      18.54207
     5  C(13)             -0.01618     -18.19214      -6.49141      -6.06825
     6  C(13)              0.05213      58.60017      20.91000      19.54691
     7  C(13)             -0.03029     -34.05464     -12.15154     -11.35941
     8  N(14)              0.02248       7.26381       2.59191       2.42295
     9  C(13)             -0.02968     -33.36815     -11.90659     -11.13042
    10  N(14)              0.02128       6.87581       2.45346       2.29352
    11  C(13)             -0.03315     -37.26887     -13.29846     -12.43156
    12  N(14)              0.02669       8.62419       3.07733       2.87672
    13  C(13)             -0.03083     -34.66419     -12.36904     -11.56273
    14  N(14)              0.02246       7.25672       2.58938       2.42058
    15  C(13)             -0.03227     -36.27445     -12.94362     -12.09985
    16  N(14)              0.02382       7.69561       2.74598       2.56698
    17  C(13)             -0.03327     -37.39789     -13.34450     -12.47459
    18  N(14)              0.02582       8.34237       2.97677       2.78272
 --------------------------------------------------------
       Center         ----  Spin Dipole Couplings  ----
                      3XX-RR        3YY-RR        3ZZ-RR
 --------------------------------------------------------
     1   Atom       -0.001337      0.025462     -0.024125
     2   Atom       -0.155530     -0.152795      0.308325
     3   Atom        0.014532      0.001104     -0.015636
     4   Atom       -0.158869     -0.152623      0.311492
     5   Atom        0.012417     -0.000603     -0.011814
     6   Atom       -0.166509     -0.162555      0.329064
     7   Atom        0.032575      0.007598     -0.040173
     8   Atom       -0.098127     -0.080964      0.179091
     9   Atom        0.032014      0.006362     -0.038376
    10   Atom       -0.095625     -0.076220      0.171845
    11   Atom        0.035946      0.010578     -0.046525
    12   Atom       -0.113649     -0.092569      0.206217
    13   Atom       -0.002529      0.042331     -0.039802
    14   Atom       -0.076208     -0.101834      0.178042
    15   Atom       -0.002829      0.045358     -0.042529
    16   Atom       -0.080562     -0.110949      0.191510
    17   Atom        0.034491      0.011128     -0.045619
    18   Atom       -0.110967     -0.093865      0.204831
 --------------------------------------------------------
                        XY            XZ            YZ
 --------------------------------------------------------
     1   Atom        0.000238     -0.002115      0.003753
     2   Atom       -0.000223      0.002353     -0.049113
     3   Atom       -0.011104      0.000536      0.001998
     4   Atom        0.000152      0.008780     -0.049336
     5   Atom        0.010646      0.000502      0.001890
     6   Atom       -0.000674     -0.000998     -0.037862
     7   Atom       -0.019351     -0.002969      0.005333
     8   Atom        0.012381      0.007873     -0.029780
     9   Atom        0.018179      0.001941      0.004893
    10   Atom       -0.011100     -0.002225     -0.027616
    11   Atom        0.023380      0.000874      0.005565
    12   Atom       -0.017112      0.004036     -0.031312
    13   Atom        0.000746     -0.000410      0.009298
    14   Atom       -0.000245      0.003628     -0.035352
    15   Atom       -0.002224      0.000084      0.006641
    16   Atom        0.001467     -0.001492     -0.021024
    17   Atom       -0.023363     -0.001727      0.004220
    18   Atom        0.015828      0.000199     -0.021742
 --------------------------------------------------------


 ---------------------------------------------------------------------------------
              Anisotropic Spin Dipole Couplings in Principal Axis System
 ---------------------------------------------------------------------------------

       Atom             a.u.   MegaHertz   Gauss  10(-4) cm-1        Axes

              Baa    -0.0246    -3.301    -1.178    -1.101  0.0910 -0.0749  0.9930
     1 C(13)  Bbb    -0.0011    -0.153    -0.055    -0.051  0.9958  0.0039 -0.0910
              Bcc     0.0257     3.455     1.233     1.152  0.0029  0.9972  0.0749
 
              Baa    -0.1580   -21.198    -7.564    -7.071 -0.0101  0.9944  0.1048
     2 C(13)  Bbb    -0.1555   -20.872    -7.448    -6.962  0.9999  0.0106 -0.0040
              Bcc     0.3135    42.070    15.012    14.033  0.0050 -0.1047  0.9945
 
              Baa    -0.0160    -2.149    -0.767    -0.717 -0.0772 -0.1648  0.9833
     3 C(13)  Bbb    -0.0048    -0.643    -0.229    -0.214  0.4863  0.8548  0.1815
              Bcc     0.0208     2.791     0.996     0.931  0.8704 -0.4921 -0.0142
 
              Baa    -0.1596   -21.423    -7.644    -7.146  0.8646 -0.4978 -0.0682
     4 C(13)  Bbb    -0.1572   -21.093    -7.527    -7.036  0.5021  0.8610  0.0812
              Bcc     0.3168    42.517    15.171    14.182  0.0183 -0.1045  0.9944
 
              Baa    -0.0122    -1.640    -0.585    -0.547  0.0801 -0.2310  0.9696
     5 C(13)  Bbb    -0.0062    -0.835    -0.298    -0.279 -0.4863  0.8401  0.2403
              Bcc     0.0184     2.475     0.883     0.826  0.8701  0.4907  0.0451
 
              Baa    -0.1669   -22.396    -7.991    -7.471  0.8879  0.4586  0.0368
     6 C(13)  Bbb    -0.1651   -22.150    -7.904    -7.389 -0.4600  0.8854  0.0669
              Bcc     0.3320    44.546    15.895    14.859 -0.0019 -0.0763  0.9971
 
              Baa    -0.0408    -5.471    -1.952    -1.825  0.0127 -0.1046  0.9944
     7 C(13)  Bbb    -0.0027    -0.358    -0.128    -0.119  0.4851  0.8703  0.0853
              Bcc     0.0434     5.829     2.080     1.944  0.8744 -0.4813 -0.0617
 
              Baa    -0.1062    -4.097    -1.462    -1.366  0.8564 -0.5106 -0.0769
     8 N(14)  Bbb    -0.0764    -2.946    -1.051    -0.983  0.5158  0.8526  0.0835
              Bcc     0.1826     7.043     2.513     2.349  0.0230 -0.1112  0.9935
 
              Baa    -0.0389    -5.221    -1.863    -1.741  0.0004 -0.1076  0.9942
     9 C(13)  Bbb    -0.0027    -0.366    -0.131    -0.122 -0.4657  0.8798  0.0954
              Bcc     0.0416     5.587     1.994     1.864  0.8850  0.4630  0.0498
 
              Baa    -0.1014    -3.910    -1.395    -1.304  0.8909  0.4511  0.0528
    10 N(14)  Bbb    -0.0735    -2.835    -1.012    -0.946 -0.4542  0.8858  0.0956
              Bcc     0.1749     6.745     2.407     2.250 -0.0037 -0.1092  0.9940
 
              Baa    -0.0471    -6.319    -2.255    -2.108  0.0187 -0.1035  0.9944
    11 C(13)  Bbb    -0.0029    -0.390    -0.139    -0.130 -0.5147  0.8517  0.0984
              Bcc     0.0500     6.709     2.394     2.238  0.8572  0.5137  0.0374
 
              Baa    -0.1237    -4.769    -1.702    -1.591  0.8587  0.5110  0.0380
    12 N(14)  Bbb    -0.0859    -3.314    -1.182    -1.105 -0.5121  0.8532  0.0985
              Bcc     0.2096     8.083     2.884     2.696  0.0179 -0.1041  0.9944
 
              Baa    -0.0408    -5.481    -1.956    -1.828  0.0128 -0.1112  0.9937
    13 C(13)  Bbb    -0.0025    -0.340    -0.121    -0.113  0.9998 -0.0136 -0.0144
              Bcc     0.0434     5.821     2.077     1.942  0.0152  0.9937  0.1110
 
              Baa    -0.1062    -4.097    -1.462    -1.367 -0.0068  0.9923  0.1235
    14 N(14)  Bbb    -0.0763    -2.941    -1.049    -0.981  0.9999  0.0085 -0.0131
              Bcc     0.1825     7.038     2.511     2.348  0.0140 -0.1234  0.9923
 
              Baa    -0.0430    -5.774    -2.060    -1.926 -0.0062 -0.0751  0.9972
    15 C(13)  Bbb    -0.0029    -0.393    -0.140    -0.131  0.9990  0.0447  0.0096
              Bcc     0.0460     6.167     2.201     2.057 -0.0453  0.9962  0.0747
 
              Baa    -0.1125    -4.337    -1.548    -1.447 -0.0426  0.9967  0.0687
    16 N(14)  Bbb    -0.0805    -3.105    -1.108    -1.036  0.9991  0.0421  0.0087
              Bcc     0.1930     7.443     2.656     2.483 -0.0058 -0.0690  0.9976
 
              Baa    -0.0459    -6.164    -2.199    -2.056 -0.0000 -0.0738  0.9973
    17 C(13)  Bbb    -0.0031    -0.422    -0.150    -0.141  0.5285  0.8466  0.0626
              Bcc     0.0491     6.585     2.350     2.197  0.8490 -0.5270 -0.0390
 
              Baa    -0.1208    -4.659    -1.663    -1.554  0.8488 -0.5274 -0.0357
    18 N(14)  Bbb    -0.0856    -3.301    -1.178    -1.101  0.5286  0.8465  0.0630
              Bcc     0.2064     7.961     2.841     2.655 -0.0030 -0.0724  0.9974
 

 ---------------------------------------------------------------------------------

   1 Symmetry operations used in ECPInt.
 ECPInt:  NShTT=    5886 NPrTT=   23670 LenC2=    5398 LenP2D=   14939.
 LDataN:  DoStor=T MaxTD1= 5 Len=  102
 D1PCM: PCM CHGder 1st derivatives, ID1Alg=3 FixD1E=F DoIter=F DoCFld=F I1PDM=0.
 Calling FoFJK, ICntrl=      2127 FMM=F ISym2X=0 I1Cent= 0 IOpClX= 1 NMat=1 NMatS=1 NMatT=0.
 -------------------------------------------------------------------
 Center     Atomic                   Forces (Hartrees/Bohr)
 Number     Number              X              Y              Z
 -------------------------------------------------------------------
      1        6          -0.000520894   -0.053944934   -0.006006743
      2        6           0.000070749    0.012152856    0.001695215
      3        6          -0.038320605    0.025970726    0.003552422
      4        6           0.008930560   -0.010119969   -0.002045311
      5        6           0.024303520    0.018737207    0.001587545
      6        6           0.006638411   -0.000932082   -0.000114781
      7        6           0.027200716   -0.011362780   -0.001104032
      8        7          -0.020498859    0.010291750    0.001143103
      9        6          -0.044677075   -0.024695779   -0.002766738
     10        7           0.037939041    0.020712846    0.002230070
     11        6           0.026317927    0.016757923    0.001977009
     12        7          -0.031356875   -0.018887616   -0.001650782
     13        6           0.000910490    0.029563169    0.003074943
     14        7          -0.000602971   -0.019926067   -0.002061563
     15        6          -0.002075219    0.025389318    0.001674601
     16        7           0.000544864   -0.016177580   -0.001219172
     17        6           0.001067488   -0.000617462    0.000324526
     18        7           0.004128731   -0.002911527   -0.000290313
 -------------------------------------------------------------------
 Cartesian Forces:  Max     0.053944934 RMS     0.017670426

 GradGradGradGradGradGradGradGradGradGradGradGradGradGradGradGradGradGrad
 Berny optimization.
 Search for a local minimum.
 Step number   1 out of a maximum of    2
 All quantities printed in internal units (Hartrees-Bohrs-Radians)
 Second derivative matrix not updated -- first step.
 ITU=  0
     Eigenvalues ---    0.00147   0.00204   0.00226   0.00298   0.00300
     Eigenvalues ---    0.00934   0.01535   0.01691   0.01972   0.02021
     Eigenvalues ---    0.03813   0.04513   0.05286   0.05344   0.10205
     Eigenvalues ---    0.16224   0.20701   0.21202   0.24171   0.24665
     Eigenvalues ---    0.24868   0.25599   0.29292   0.30255   0.30803
     Eigenvalues ---    0.46432   0.73957   0.74159   0.77447   0.86051
     Eigenvalues ---    0.88041   1.02268   1.03398   1.09941   1.54282
     Eigenvalues ---    1.58564   1.93808   2.64096   2.79944   2.91689
     Eigenvalues ---    2.93465   2.94940   3.06195  12.20737  30.72237
     Eigenvalues ---   39.24147  53.80597  69.45175
 Angle between quadratic step and forces=  68.91 degrees.
 Linear search not attempted -- first point.
 B after Tr=    -0.000154   -0.000063   -0.000031
         Rot=    1.000000    0.000007   -0.000001    0.000003 Ang=   0.00 deg.
 Variable       Old X    -DE/DX   Delta X   Delta X   Delta X     New X
                                 (Linear)    (Quad)   (Total)
    X1      -16.89635  -0.00052   0.00000  -0.00488  -0.00504 -16.90139
    Y1       -1.66449  -0.05394   0.00000  -0.05222  -0.05217  -1.71666
    Z1        2.10084  -0.00601   0.00000  -0.00636  -0.00633   2.09451
    X2      -16.90605   0.00007   0.00000  -0.00279  -0.00294 -16.90899
    Y2        0.90633   0.01215   0.00000  -0.03881  -0.03875   0.86757
    Z2        2.35403   0.00170   0.00000  -0.00030  -0.00031   2.35371
    X3      -15.55001  -0.03832   0.00000  -0.02978  -0.02995 -15.57996
    Y3       -4.02155   0.02597   0.00000   0.01075   0.01079  -4.01076
    Z3        1.85774   0.00355   0.00000  -0.00385  -0.00379   1.85395
    X4      -13.30639   0.00893   0.00000  -0.01849  -0.01866 -13.32505
    Y4       -5.30911  -0.01012   0.00000   0.01074   0.01077  -5.29833
    Z4        1.70354  -0.00205   0.00000  -0.00438  -0.00430   1.69923
    X5      -18.24830   0.02430   0.00000   0.02406   0.02389 -18.22441
    Y5       -4.01488   0.01874   0.00000   0.00850   0.00856  -4.00632
    Z5        1.88233   0.00159   0.00000  -0.00275  -0.00268   1.87965
    X6      -20.52806   0.00664   0.00000   0.04461   0.04444 -20.48363
    Y6       -5.31653  -0.00093   0.00000   0.02069   0.02076  -5.29577
    Z6        1.77613  -0.00011   0.00000  -0.00149  -0.00141   1.77473
    X7      -19.25708   0.02720   0.00000   0.01832   0.01818 -19.23890
    Y7        2.24364  -0.01136   0.00000  -0.03353  -0.03346   2.21018
    Z7        2.52318  -0.00110   0.00000  -0.00017  -0.00020   2.52297
    X8      -21.11997  -0.02050   0.00000  -0.00548  -0.00561 -21.12558
    Y8        3.35189   0.01029   0.00000  -0.03824  -0.03816   3.31373
    Z8        2.68178   0.00114   0.00000  -0.01345  -0.01349   2.66829
    X9      -14.55858  -0.04468   0.00000  -0.02166  -0.02180 -14.58038
    Y9        2.26359  -0.02470   0.00000  -0.04398  -0.04393   2.21966
    Z9        2.49758  -0.00277   0.00000  -0.01356  -0.01359   2.48399
   X10      -12.63874   0.03794   0.00000  -0.00565  -0.00578 -12.64452
   Y10        3.24408   0.02071   0.00000  -0.00647  -0.00643   3.23766
   Z10        2.60928   0.00223   0.00000  -0.02127  -0.02133   2.58795
   X11      -10.95097   0.02632   0.00000  -0.03587  -0.03604 -10.98701
   Y11       -3.98666   0.01676   0.00000   0.01404   0.01406  -3.97260
   Z11        1.79031   0.00198   0.00000   0.00463   0.00468   1.79499
   X12       -9.04233  -0.03136   0.00000  -0.06484  -0.06501  -9.10733
   Y12       -2.85267  -0.01889   0.00000   0.00162   0.00163  -2.85104
   Z12        1.87517  -0.00165   0.00000   0.00962   0.00964   1.88482
   X13      -13.29176   0.00091   0.00000  -0.01235  -0.01254 -13.30431
   Y13       -8.01232   0.02956   0.00000   0.03269   0.03272  -7.97961
   Z13        1.40142   0.00307   0.00000   0.01938   0.01949   1.42091
   X14      -13.28057  -0.00060   0.00000  -0.02050  -0.02070 -13.30127
   Y14      -10.17215  -0.01993   0.00000   0.01491   0.01493 -10.15722
   Z14        1.14176  -0.00206   0.00000   0.04148   0.04163   1.18339
   X15      -20.49623  -0.00208   0.00000   0.02035   0.02016 -20.47607
   Y15       -8.02310   0.02539   0.00000   0.04554   0.04561  -7.97749
   Z15        1.57259   0.00167   0.00000  -0.02831  -0.02818   1.54441
   X16      -20.40443   0.00054   0.00000  -0.00108  -0.00128 -20.40572
   Y16      -10.19448  -0.01618   0.00000   0.03410   0.03416 -10.16032
   Z16        1.41800  -0.00122   0.00000  -0.05288  -0.05272   1.36528
   X17      -22.86745   0.00107   0.00000   0.05889   0.05872 -22.80873
   Y17       -3.96689  -0.00062   0.00000   0.01293   0.01302  -3.95388
   Z17        1.87354   0.00032   0.00000   0.02527   0.02534   1.89888
   X18      -24.73236   0.00413   0.00000   0.06014   0.05997 -24.67238
   Y18       -2.81089  -0.00291   0.00000   0.00580   0.00589  -2.80500
   Z18        1.95516  -0.00029   0.00000   0.04750   0.04756   2.00271
         Item               Value     Threshold  Converged?
 Maximum Force            0.053945     0.000450     NO 
 RMS     Force            0.017670     0.000300     NO 
 Maximum Displacement     0.065008     0.001800     NO 
 RMS     Displacement     0.027995     0.001200     NO 
 Predicted change in Energy=-4.806807D-03
 GradGradGradGradGradGradGradGradGradGradGradGradGradGradGradGradGradGrad

 Unable to Open any file for archive entry.
 1\1\GINC-X10P1N4\Force\UwB97XD\def2SVP\C12N6(1-,2)\MAYUMIAO\11-Oct-202
 4\0\\# wb97xd def2svp scrf=(smd,solvent=acetonitrile) g09default scf=(
 xqc,maxcycle=64) force guess=read nosymm\\Title Card\\-1,2\C,-8.941163
 69,-0.88081114,1.11171783\C,-8.94629896,0.47960695,1.24569714\C,-8.228
 70923,-2.12811354,0.9830732\C,-7.04143614,-2.80945859,0.90147331\C,-9.
 65658437,-2.12458162,0.99608586\C,-10.86298341,-2.81338589,0.93988972\
 C,-10.19040753,1.18728314,1.33520691\N,-11.17620741,1.77374608,1.41913
 443\C,-7.70406833,1.19784077,1.32166426\N,-6.68813463,1.71669534,1.380
 77105\C,-5.79500421,-2.10964712,0.94739205\N,-4.78499273,-1.50956884,0
 .99229742\C,-7.03369823,-4.23993826,0.74159842\N,-7.02777604,-5.382867
 92,0.60419368\C,-10.84613859,-4.24564297,0.83217761\N,-10.79755981,-5.
 39468516,0.75037227\C,-12.10093152,-2.09918878,0.99143567\N,-13.087799
 44,-1.48746011,1.03462407\\Version=ES64L-G16RevC.01\HF=-784.8559785\S2
 =0.784677\S2-1=0.\S2A=0.750968\RMSD=9.389e-09\RMSF=1.767e-02\Dipole=-0
 .0697121,0.0246958,-0.0031919\Quadrupole=-202.0660927,71.4077174,130.6
 583753,-54.379633,33.3348203,1.0360113\PG=C01 [X(C12N6)]\\@
 The archive entry for this job was punched.


 THE LENGTH OF A MEETING IS PROPORTIONAL TO THE
 SQUARE OF THE PARTICIPANTS.
 Job cpu time:       0 days  0 hours 12 minutes 30.9 seconds.
 Elapsed time:       0 days  0 hours  0 minutes 28.2 seconds.
 File lengths (MBytes):  RWF=    173 Int=      0 D2E=      0 Chk=      9 Scr=      1
 Normal termination of Gaussian 16 at Fri Oct 11 16:02:28 2024.
