 Entering Gaussian System, Link 0=g16
 Input=JOBS/3_A.gjf
 Output=JOBS/3_A.log
 Initial command:
 /data/app/gaussian/C01-avx2//g16/l1.exe "/tmp/Gau-2517602.inp" -scrdir="/tmp/"
 Entering Link 1 = /data/app/gaussian/C01-avx2//g16/l1.exe PID=   2517603.
  
 Copyright (c) 1988-2019, Gaussian, Inc.  All Rights Reserved.
  
 This is part of the Gaussian(R) 16 program.  It is based on
 the Gaussian(R) 09 system (copyright 2009, Gaussian, Inc.),
 the Gaussian(R) 03 system (copyright 2003, Gaussian, Inc.),
 the Gaussian(R) 98 system (copyright 1998, Gaussian, Inc.),
 the Gaussian(R) 94 system (copyright 1995, Gaussian, Inc.),
 the Gaussian 92(TM) system (copyright 1992, Gaussian, Inc.),
 the Gaussian 90(TM) system (copyright 1990, Gaussian, Inc.),
 the Gaussian 88(TM) system (copyright 1988, Gaussian, Inc.),
 the Gaussian 86(TM) system (copyright 1986, Carnegie Mellon
 University), and the Gaussian 82(TM) system (copyright 1983,
 Carnegie Mellon University). Gaussian is a federally registered
 trademark of Gaussian, Inc.
  
 This software contains proprietary and confidential information,
 including trade secrets, belonging to Gaussian, Inc.
  
 This software is provided under written license and may be
 used, copied, transmitted, or stored only in accord with that
 written license.
  
 The following legend is applicable only to US Government
 contracts under FAR:
  
                    RESTRICTED RIGHTS LEGEND
  
 Use, reproduction and disclosure by the US Government is
 subject to restrictions as set forth in subparagraphs (a)
 and (c) of the Commercial Computer Software - Restricted
 Rights clause in FAR 52.227-19.
  
 Gaussian, Inc.
 340 Quinnipiac St., Bldg. 40, Wallingford CT 06492
  
  
 ---------------------------------------------------------------
 Warning -- This program may not be used in any manner that
 competes with the business of Gaussian, Inc. or will provide
 assistance to any competitor of Gaussian, Inc.  The licensee
 of this program is prohibited from giving any competitor of
 Gaussian, Inc. access to this program.  By using this program,
 the user acknowledges that Gaussian, Inc. is engaged in the
 business of creating and licensing software in the field of
 computational chemistry and represents and warrants to the
 licensee that it is not a competitor of Gaussian, Inc. and that
 it will not use this program in any manner prohibited above.
 ---------------------------------------------------------------
  

 Cite this work as:
 Gaussian 16, Revision C.01,
 M. J. Frisch, G. W. Trucks, H. B. Schlegel, G. E. Scuseria, 
 M. A. Robb, J. R. Cheeseman, G. Scalmani, V. Barone, 
 G. A. Petersson, H. Nakatsuji, X. Li, M. Caricato, A. V. Marenich, 
 J. Bloino, B. G. Janesko, R. Gomperts, B. Mennucci, H. P. Hratchian, 
 J. V. Ortiz, A. F. Izmaylov, J. L. Sonnenberg, D. Williams-Young, 
 F. Ding, F. Lipparini, F. Egidi, J. Goings, B. Peng, A. Petrone, 
 T. Henderson, D. Ranasinghe, V. G. Zakrzewski, J. Gao, N. Rega, 
 G. Zheng, W. Liang, M. Hada, M. Ehara, K. Toyota, R. Fukuda, 
 J. Hasegawa, M. Ishida, T. Nakajima, Y. Honda, O. Kitao, H. Nakai, 
 T. Vreven, K. Throssell, J. A. Montgomery, Jr., J. E. Peralta, 
 F. Ogliaro, M. J. Bearpark, J. J. Heyd, E. N. Brothers, K. N. Kudin, 
 V. N. Staroverov, T. A. Keith, R. Kobayashi, J. Normand, 
 K. Raghavachari, A. P. Rendell, J. C. Burant, S. S. Iyengar, 
 J. Tomasi, M. Cossi, J. M. Millam, M. Klene, C. Adamo, R. Cammi, 
 J. W. Ochterski, R. L. Martin, K. Morokuma, O. Farkas, 
 J. B. Foresman, and D. J. Fox, Gaussian, Inc., Wallingford CT, 2019.
 
 ******************************************
 Gaussian 16:  ES64L-G16RevC.01  3-Jul-2019
                11-Oct-2024 
 ******************************************
 %chk=a.chk
 %nprocshared=28
 Will use up to   28 processors via shared memory.
 %mem=48gb
 ----------------------------------------------------------------------
 # wb97xd def2svp scrf=(smd,solvent=acetonitrile) g09default scf=(xqc,m
 axcycle=64) force guess=read nosymm
 ----------------------------------------------------------------------
 1/10=7,30=1,38=1,158=3,167=1/1,3;
 2/12=2,15=1,17=6,18=5,40=1/2;
 3/5=43,7=101,11=2,25=1,27=10,30=1,70=32201,71=1,72=2,74=-58,75=-4,116=-2,158=3/1,2,3;
 4/5=1,60=-1/1;
 5/5=2,7=64,8=3,13=1,38=6,53=2,87=10/2,8;
 6/7=2,8=2,9=2,10=2,28=1,87=10/1;
 7/29=1,30=1,87=10/1,2,3,16;
 1/10=7,30=1,158=3,167=1/3;
 99//99;
 Using 2006 physical constants.
 ----------
 Title Card
 ----------
 Symbolic Z-matrix:
 Charge = -2 Multiplicity = 1
 6                    -8.93931  -0.93068   1.10798 
 6                    -8.93844   0.49616   1.25186 
 6                    -8.2556   -2.10879   0.98087 
 6                    -7.01318  -2.81994   0.89787 
 6                    -9.62412  -2.10955   0.99558 
 6                    -10.86707  -2.82241   0.93687 
 6                    -10.15591   1.17876   1.33579 
 7                    -11.1787   1.72822   1.40253 
 6                    -7.72      1.17905   1.31797 
 7                    -6.69666   1.72887   1.37242 
 6                    -5.81033  -2.10904   0.95345 
 7                    -4.82097  -1.49944   1.00097 
 6                    -7.02502  -4.21046   0.75025 
 7                    -7.05647  -5.36642   0.62737 
 6                    -10.85549  -4.21587   0.81988 
 7                    -10.824   -5.37471   0.72717 
 6                    -12.06979  -2.11186   0.99929 
 7                    -13.05884  -1.50205   1.05068 
 

 GradGradGradGradGradGradGradGradGradGradGradGradGradGradGradGradGradGrad
 Berny optimization.
 Initialization pass.
 Trust Radius=3.00D-01 FncErr=1.00D-07 GrdErr=1.00D-07 EigMax=2.50D+02 EigMin=1.00D-04
 Number of steps in this run=      2 maximum allowed number of steps=      2.
 GradGradGradGradGradGradGradGradGradGradGradGradGradGradGradGradGradGrad

                          Input orientation:                          
 ---------------------------------------------------------------------
 Center     Atomic      Atomic             Coordinates (Angstroms)
 Number     Number       Type             X           Y           Z
 ---------------------------------------------------------------------
      1          6           0       -8.939313   -0.930679    1.107978
      2          6           0       -8.938442    0.496157    1.251862
      3          6           0       -8.255596   -2.108795    0.980869
      4          6           0       -7.013175   -2.819937    0.897867
      5          6           0       -9.624124   -2.109548    0.995578
      6          6           0      -10.867072   -2.822412    0.936875
      7          6           0      -10.155908    1.178757    1.335794
      8          7           0      -11.178700    1.728215    1.402535
      9          6           0       -7.720001    1.179048    1.317966
     10          7           0       -6.696660    1.728867    1.372425
     11          6           0       -5.810329   -2.109045    0.953446
     12          7           0       -4.820969   -1.499444    1.000965
     13          6           0       -7.025023   -4.210456    0.750253
     14          7           0       -7.056466   -5.366421    0.627366
     15          6           0      -10.855486   -4.215867    0.819885
     16          7           0      -10.823999   -5.374714    0.727168
     17          6           0      -12.069791   -2.111857    0.999289
     18          7           0      -13.058841   -1.502047    1.050684
 ---------------------------------------------------------------------
                    Distance matrix (angstroms):
                    1          2          3          4          5
     1  C    0.000000
     2  C    1.434073   0.000000
     3  C    1.368058   2.706565   0.000000
     4  C    2.706186   3.850772   1.433953   0.000000
     5  C    1.367967   2.706574   1.368608   2.707628   0.000000
     6  C    2.706323   3.851199   2.707581   3.854095   1.434064
     7  C    2.445756   1.398288   3.813811   5.104713   3.348356
     8  N    3.488745   2.561137   4.842002   6.188051   4.160619
     9  C    2.445765   1.398323   3.348195   4.082642   3.813723
    10  N    3.488927   2.561190   4.160678   4.584431   4.842054
    11  C    3.347083   4.081816   2.445421   1.398319   3.814028
    12  N    4.158810   4.582462   3.488320   2.561269   4.841751
    13  C    3.814369   5.105389   2.446318   1.398383   3.351018
    14  N    4.842717   6.188833   3.489270   2.561177   4.163613
    15  C    3.814076   5.105373   3.350388   4.088772   2.446160
    16  N    4.842159   6.188518   4.162606   4.591122   3.488990
    17  C    3.347669   4.082999   3.814241   5.106958   2.445671
    18  N    4.159358   4.583774   4.841920   6.189528   3.488463
                    6          7          8          9         10
     6  C    0.000000
     7  C    4.083410   0.000000
     8  N    4.584993   1.162954   0.000000
     9  C    5.104994   2.435972   3.503046   0.000000
    10  N    6.188390   3.502907   4.482141   1.162967   0.000000
    11  C    5.106840   5.462590   6.614050   3.819853   3.961148
    12  N    6.189484   5.978833   7.141413   3.959697   3.752092
    13  C    4.089356   6.260105   7.276422   5.463703   5.980843
    14  N    4.592222   7.276521   8.241818   6.615162   7.143367
    15  C    1.398406   5.464205   5.981309   6.259749   7.276056
    16  N    2.561265   6.615493   7.143776   7.275688   8.240882
    17  C    1.398326   3.821561   3.962677   5.463724   6.615204
    18  N    2.561283   3.961694   3.754108   5.980211   7.142805
                   11         12         13         14         15
    11  C    0.000000
    12  N    1.163058   0.000000
    13  C    2.435714   3.502899   0.000000
    14  N    3.502811   4.482246   1.162903   0.000000
    15  C    5.469018   6.620207   3.831100   3.974091   0.000000
    16  N    5.987711   7.150458   3.973442   3.768864   1.162976
    17  C    6.259631   7.274646   5.469535   5.988651   2.435894
    18  N    7.274533   8.238023   6.620627   7.151300   3.503264
                   16         17         18
    16  N    0.000000
    17  C    3.503181   0.000000
    18  N    4.482938   1.163069   0.000000
 Symmetry turned off by external request.
 Stoichiometry    C12N6(2-)
 Framework group  C1[X(C12N6)]
 Deg. of freedom    48
 Full point group                 C1      NOp   1
 Rotational constants (GHZ):           0.4308260           0.4303173           0.2153001
 Standard basis: def2SVP (5D, 7F)
   252 basis functions,   450 primitive gaussians,   270 cartesian basis functions
    58 alpha electrons       58 beta electrons
       nuclear repulsion energy       966.9812868325 Hartrees.
 NAtoms=   18 NActive=   18 NUniq=   18 SFac= 1.00D+00 NAtFMM=   60 NAOKFM=F Big=F
 Integral buffers will be    131072 words long.
 Raffenetti 2 integral format.
 Two-electron integral symmetry is turned off.
 Nuclear repulsion after empirical dispersion term =      966.9695943743 Hartrees.
 Force PCM accuracy= 1.00D-10.
 ------------------------------------------------------------------------------
 Polarizable Continuum Model (PCM)
 =================================
 Model                : PCM (using non-symmetric T matrix).
 Atomic radii         : SMD-Coulomb.
 Polarization charges : Total charges.
 Charge compensation  : None.
 Solution method      : On-the-fly selection.
 Cavity type          : VdW (van der Waals Surface) (Alpha=1.000).
 Cavity algorithm     : GePol (No added spheres)
                        Default sphere list used, NSphG=   18.
                        Lebedev-Laikov grids with approx.  5.0 points / Ang**2.
                        Smoothing algorithm: York/Karplus (Gamma=1.0000).
                        Polarization charges: spherical gaussians, with
                                              point-specific exponents (IZeta= 3).
                        Self-potential: point-specific (ISelfS= 7).
                        Self-field    : sphere-specific E.n sum rule (ISelfD= 2).
 1st derivatives      : Analytical E(r).r(x)/FMM algorithm (CHGder, D1EAlg=3).
                        Cavity 1st derivative terms included.
 Solvent              : Acetonitrile, Eps=  35.688000 Eps(inf)=   1.806874
 ------------------------------------------------------------------------------
 Spheres list:
 ISph  on   Nord     Re0    Alpha      Xe            Ye            Ze
    1   C      1    1.8500  1.000     -8.939313     -0.930679      1.107978
    2   C      2    1.8500  1.000     -8.938442      0.496157      1.251862
    3   C      3    1.8500  1.000     -8.255596     -2.108795      0.980869
    4   C      4    1.8500  1.000     -7.013175     -2.819937      0.897867
    5   C      5    1.8500  1.000     -9.624124     -2.109548      0.995578
    6   C      6    1.8500  1.000    -10.867072     -2.822412      0.936875
    7   C      7    1.8500  1.000    -10.155908      1.178757      1.335794
    8   N      8    1.8900  1.000    -11.178700      1.728215      1.402535
    9   C      9    1.8500  1.000     -7.720001      1.179048      1.317966
   10   N     10    1.8900  1.000     -6.696660      1.728867      1.372425
   11   C     11    1.8500  1.000     -5.810329     -2.109045      0.953446
   12   N     12    1.8900  1.000     -4.820969     -1.499444      1.000965
   13   C     13    1.8500  1.000     -7.025023     -4.210456      0.750253
   14   N     14    1.8900  1.000     -7.056466     -5.366421      0.627366
   15   C     15    1.8500  1.000    -10.855486     -4.215867      0.819885
   16   N     16    1.8900  1.000    -10.823999     -5.374714      0.727168
   17   C     17    1.8500  1.000    -12.069791     -2.111857      0.999289
   18   N     18    1.8900  1.000    -13.058841     -1.502047      1.050684
 ------------------------------------------------------------------------------
 ------------------------------------------------------------------------------
 Atomic radii for non-electrostatic terms: SMD-CDS.
 ------------------------------------------------------------------------------
 Nuclear repulsion after PCM non-electrostatic terms =      966.9781193368 Hartrees.
 One-electron integrals computed using PRISM.
   1 Symmetry operations used in ECPInt.
 ECPInt:  NShTT=    5886 NPrTT=   23670 LenC2=    5404 LenP2D=   14982.
 LDataN:  DoStor=T MaxTD1= 4 Len=   56
 NBasis=   252 RedAO= T EigKep=  1.86D-04  NBF=   252
 NBsUse=   252 1.00D-06 EigRej= -1.00D+00 NBFU=   252
 Initial guess from the checkpoint file:  "a.chk"
 B after Tr=    -0.000035   -0.000009   -0.000312
         Rot=    1.000000   -0.000006   -0.000010    0.000001 Ang=  -0.00 deg.
 Requested convergence on RMS density matrix=1.00D-08 within  64 cycles.
 Requested convergence on MAX density matrix=1.00D-06.
 Requested convergence on             energy=1.00D-06.
 No special actions if energy rises.
 Inv3:  Mode=1 IEnd=    19248267.
 Iteration    1 A*A^-1 deviation from unit magnitude is 4.22D-15 for   1068.
 Iteration    1 A*A^-1 deviation from orthogonality  is 2.71D-15 for   1482    995.
 Iteration    1 A^-1*A deviation from unit magnitude is 3.11D-15 for    752.
 Iteration    1 A^-1*A deviation from orthogonality  is 3.61D-13 for   2376   2353.
 Error on total polarization charges =  0.02152
 SCF Done:  E(RwB97XD) =  -785.030132020     A.U. after   12 cycles
            NFock= 12  Conv=0.89D-08     -V/T= 2.0096
 SMD-CDS (non-electrostatic) energy       (kcal/mol) =       5.35
 (included in total energy above)
 QCSCF skips out because SCF is already converged.

 **********************************************************************

            Population analysis using the SCF Density.

 **********************************************************************

 Alpha  occ. eigenvalues --  -14.42603 -14.42602 -14.42599 -14.42597 -14.42595
 Alpha  occ. eigenvalues --  -14.42593 -10.35557 -10.35468 -10.35459 -10.33528
 Alpha  occ. eigenvalues --  -10.33527 -10.33525 -10.33523 -10.33522 -10.33521
 Alpha  occ. eigenvalues --  -10.32657 -10.32654 -10.32647  -1.04601  -0.99058
 Alpha  occ. eigenvalues --   -0.99057  -0.98816  -0.97898  -0.97895  -0.97814
 Alpha  occ. eigenvalues --   -0.88103  -0.88098  -0.86529  -0.68850  -0.68833
 Alpha  occ. eigenvalues --   -0.65579  -0.65370  -0.65362  -0.63874  -0.52873
 Alpha  occ. eigenvalues --   -0.47836  -0.47832  -0.47251  -0.47241  -0.45081
 Alpha  occ. eigenvalues --   -0.44960  -0.44957  -0.44422  -0.44353  -0.44349
 Alpha  occ. eigenvalues --   -0.44334  -0.42623  -0.42147  -0.42144  -0.41960
 Alpha  occ. eigenvalues --   -0.41846  -0.41835  -0.40447  -0.40002  -0.39989
 Alpha  occ. eigenvalues --   -0.30946  -0.30940  -0.24281
 Alpha virt. eigenvalues --    0.07320   0.07335   0.08811   0.09245   0.09257
 Alpha virt. eigenvalues --    0.12717   0.12720   0.13127   0.13433   0.14891
 Alpha virt. eigenvalues --    0.14898   0.16188   0.21390   0.21402   0.24786
 Alpha virt. eigenvalues --    0.28424   0.28429   0.28745   0.28762   0.29083
 Alpha virt. eigenvalues --    0.29551   0.33538   0.34033   0.34043   0.36991
 Alpha virt. eigenvalues --    0.37174   0.37214   0.48695   0.48702   0.50141
 Alpha virt. eigenvalues --    0.50437   0.54905   0.54920   0.55639   0.55640
 Alpha virt. eigenvalues --    0.57910   0.57927   0.58655   0.60070   0.60814
 Alpha virt. eigenvalues --    0.61750   0.61766   0.62549   0.62574   0.64770
 Alpha virt. eigenvalues --    0.65605   0.69404   0.71798   0.71804   0.73407
 Alpha virt. eigenvalues --    0.73441   0.74238   0.74275   0.74811   0.75030
 Alpha virt. eigenvalues --    0.75049   0.75204   0.76401   0.76424   0.78175
 Alpha virt. eigenvalues --    0.82006   0.82178   0.82251   0.83566   0.83571
 Alpha virt. eigenvalues --    0.88720   0.89274   0.90276   0.90303   0.94648
 Alpha virt. eigenvalues --    0.94701   0.95240   0.95264   0.96330   0.96592
 Alpha virt. eigenvalues --    0.98064   1.00776   1.00782   1.01497   1.01551
 Alpha virt. eigenvalues --    1.02372   1.02383   1.05288   1.05469   1.05513
 Alpha virt. eigenvalues --    1.07963   1.09046   1.10909   1.10922   1.13157
 Alpha virt. eigenvalues --    1.13162   1.18652   1.19683   1.20553   1.20605
 Alpha virt. eigenvalues --    1.20742   1.24942   1.24960   1.27649   1.34988
 Alpha virt. eigenvalues --    1.39458   1.39524   1.41936   1.41944   1.44998
 Alpha virt. eigenvalues --    1.46911   1.46959   1.48211   1.48365   1.55951
 Alpha virt. eigenvalues --    1.62847   1.67857   1.70532   1.70539   1.71019
 Alpha virt. eigenvalues --    1.71193   1.71206   1.79275   1.79318   1.79601
 Alpha virt. eigenvalues --    1.79630   1.80057   1.81741   1.81745   1.82682
 Alpha virt. eigenvalues --    1.85503   1.85523   1.87835   1.94641   1.94651
 Alpha virt. eigenvalues --    1.95646   2.00243   2.04169   2.04191   2.07517
 Alpha virt. eigenvalues --    2.07540   2.10216   2.13152   2.19271   2.19306
 Alpha virt. eigenvalues --    2.22122   2.23150   2.24981   2.24987   2.28549
 Alpha virt. eigenvalues --    2.28601   2.30280   2.32307   2.36008   2.36012
 Alpha virt. eigenvalues --    2.36597   2.36603   2.37099   2.37102   2.37783
 Alpha virt. eigenvalues --    2.38548   2.39002   2.39297   2.39346   2.39362
 Alpha virt. eigenvalues --    2.41076   2.41085   2.58125   2.65762   2.65776
 Alpha virt. eigenvalues --    2.72577   2.72595   2.95904   2.98103   2.98113
 Alpha virt. eigenvalues --    2.99266   3.01860   3.01868   3.02695   3.05783
 Alpha virt. eigenvalues --    3.08059   3.08061   3.10870   3.10885   3.16763
 Alpha virt. eigenvalues --    3.16782   3.17297   3.26772   3.26808   3.32748
 Alpha virt. eigenvalues --    3.44055   3.44063   3.45751   3.59121   3.62487
 Alpha virt. eigenvalues --    3.62540   3.64751   3.64758   3.76444
          Condensed to atoms (all electrons):
               1          2          3          4          5          6
     1  C    4.952641   0.481380   0.317971  -0.098365   0.318067  -0.098403
     2  C    0.481380   5.530291  -0.098286  -0.005901  -0.098355  -0.005897
     3  C    0.317971  -0.098286   4.952272   0.481399   0.318170  -0.098469
     4  C   -0.098365  -0.005901   0.481399   5.530550  -0.098536  -0.005878
     5  C    0.318067  -0.098355   0.318170  -0.098536   4.952756   0.481299
     6  C   -0.098403  -0.005897  -0.098469  -0.005878   0.481299   5.530840
     7  C    0.013845   0.381462   0.007665  -0.000521  -0.027320   0.003234
     8  N   -0.000788  -0.048105  -0.000042  -0.000001  -0.000629   0.000196
     9  C    0.013947   0.381339  -0.027305   0.003243   0.007664  -0.000519
    10  N   -0.000785  -0.048107  -0.000628   0.000197  -0.000042  -0.000001
    11  C   -0.027386   0.003223   0.014129   0.381230   0.007689  -0.000511
    12  N   -0.000633   0.000197  -0.000774  -0.048100  -0.000041  -0.000001
    13  C    0.007717  -0.000516   0.013618   0.381629  -0.027259   0.003164
    14  N   -0.000041  -0.000001  -0.000782  -0.048121  -0.000630   0.000190
    15  C    0.007728  -0.000515  -0.027277   0.003160   0.013748   0.381562
    16  N   -0.000040  -0.000001  -0.000631   0.000190  -0.000775  -0.048147
    17  C   -0.027387   0.003213   0.007700  -0.000510   0.014018   0.381230
    18  N   -0.000634   0.000196  -0.000040  -0.000001  -0.000772  -0.048137
               7          8          9         10         11         12
     1  C    0.013845  -0.000788   0.013947  -0.000785  -0.027386  -0.000633
     2  C    0.381462  -0.048105   0.381339  -0.048107   0.003223   0.000197
     3  C    0.007665  -0.000042  -0.027305  -0.000628   0.014129  -0.000774
     4  C   -0.000521  -0.000001   0.003243   0.000197   0.381230  -0.048100
     5  C   -0.027320  -0.000629   0.007664  -0.000042   0.007689  -0.000041
     6  C    0.003234   0.000196  -0.000519  -0.000001  -0.000511  -0.000001
     7  C    4.885278   0.924061  -0.062900   0.002781   0.000165   0.000003
     8  N    0.924061   6.161894   0.002781   0.000094   0.000000   0.000000
     9  C   -0.062900   0.002781   4.885293   0.924032  -0.000766   0.000146
    10  N    0.002781   0.000094   0.924032   6.161975   0.000133  -0.000899
    11  C    0.000165   0.000000  -0.000766   0.000133   4.885078   0.923867
    12  N    0.000003   0.000000   0.000146  -0.000899   0.923867   6.162250
    13  C   -0.000020  -0.000000   0.000164   0.000003  -0.062636   0.002784
    14  N   -0.000000  -0.000000   0.000000   0.000000   0.002778   0.000094
    15  C    0.000164   0.000003  -0.000020  -0.000000   0.000162   0.000000
    16  N    0.000000   0.000000  -0.000000  -0.000000   0.000003   0.000000
    17  C   -0.000765   0.000134   0.000164   0.000000  -0.000020  -0.000000
    18  N    0.000144  -0.000895   0.000003   0.000000  -0.000000  -0.000000
              13         14         15         16         17         18
     1  C    0.007717  -0.000041   0.007728  -0.000040  -0.027387  -0.000634
     2  C   -0.000516  -0.000001  -0.000515  -0.000001   0.003213   0.000196
     3  C    0.013618  -0.000782  -0.027277  -0.000631   0.007700  -0.000040
     4  C    0.381629  -0.048121   0.003160   0.000190  -0.000510  -0.000001
     5  C   -0.027259  -0.000630   0.013748  -0.000775   0.014018  -0.000772
     6  C    0.003164   0.000190   0.381562  -0.048147   0.381230  -0.048137
     7  C   -0.000020  -0.000000   0.000164   0.000000  -0.000765   0.000144
     8  N   -0.000000  -0.000000   0.000003   0.000000   0.000134  -0.000895
     9  C    0.000164   0.000000  -0.000020  -0.000000   0.000164   0.000003
    10  N    0.000003   0.000000  -0.000000  -0.000000   0.000000   0.000000
    11  C   -0.062636   0.002778   0.000162   0.000003  -0.000020  -0.000000
    12  N    0.002784   0.000094   0.000000   0.000000  -0.000000  -0.000000
    13  C    4.884964   0.924245  -0.000750   0.000137   0.000162   0.000000
    14  N    0.924245   6.161749   0.000131  -0.000868   0.000003   0.000000
    15  C   -0.000750   0.000131   4.884921   0.924160  -0.062565   0.002782
    16  N    0.000137  -0.000868   0.924160   6.161985   0.002779   0.000094
    17  C    0.000162   0.000003  -0.062565   0.002779   4.885032   0.923869
    18  N    0.000000   0.000000   0.002782   0.000094   0.923869   6.162265
 Mulliken charges:
               1
     1  C    0.141166
     2  C   -0.475617
     3  C    0.141311
     4  C   -0.475663
     5  C    0.140947
     6  C   -0.475752
     7  C   -0.127274
     8  N   -0.038702
     9  C   -0.127267
    10  N   -0.038753
    11  C   -0.127138
    12  N   -0.038894
    13  C   -0.127406
    14  N   -0.038747
    15  C   -0.127394
    16  N   -0.038885
    17  C   -0.127056
    18  N   -0.038874
 Sum of Mulliken charges =  -2.00000
 Mulliken charges with hydrogens summed into heavy atoms:
               1
     1  C    0.141166
     2  C   -0.475617
     3  C    0.141311
     4  C   -0.475663
     5  C    0.140947
     6  C   -0.475752
     7  C   -0.127274
     8  N   -0.038702
     9  C   -0.127267
    10  N   -0.038753
    11  C   -0.127138
    12  N   -0.038894
    13  C   -0.127406
    14  N   -0.038747
    15  C   -0.127394
    16  N   -0.038885
    17  C   -0.127056
    18  N   -0.038874
 Electronic spatial extent (au):  <R**2>=          39326.2165
 Charge=             -2.0000 electrons
 Dipole moment (field-independent basis, Debye):
    X=             85.8747    Y=             16.4584    Z=             -9.9023  Tot=             87.9966
 Quadrupole moment (field-independent basis, Debye-Ang):
   XX=           -968.4501   YY=           -227.9867   ZZ=           -113.3731
   XY=           -147.2118   XZ=             89.3589   YZ=              7.2986
 Traceless Quadrupole moment (field-independent basis, Debye-Ang):
   XX=           -531.8468   YY=            208.6166   ZZ=            323.2302
   XY=           -147.2118   XZ=             89.3589   YZ=              7.2986
 Octapole moment (field-independent basis, Debye-Ang**2):
  XXX=          12247.1842  YYY=           1146.0204  ZZZ=           -329.0873  XYY=           2038.5113
  XXY=           1591.0089  XXZ=          -1018.6751  XZZ=           1015.0952  YZZ=            174.9379
  YYZ=           -196.1185  XYZ=            -67.3577
 Hexadecapole moment (field-independent basis, Debye-Ang**3):
 XXXX=        -162296.0298 YYYY=          -8702.0246 ZZZZ=           -801.9492 XXXY=         -19135.6162
 XXXZ=          12993.8699 YYYX=         -10249.8244 YYYZ=            770.2997 ZZZX=           2958.9317
 ZZZY=            379.1541 XXYY=         -20127.3853 XXZZ=          -9877.1338 YYZZ=          -1034.6538
 XXYZ=            813.7084 YYXZ=           1770.4044 ZZXY=          -1566.9437
 N-N= 9.669781193368D+02 E-N=-3.787715845057D+03  KE= 7.775983832716D+02
   1 Symmetry operations used in ECPInt.
 ECPInt:  NShTT=    5886 NPrTT=   23670 LenC2=    5404 LenP2D=   14982.
 LDataN:  DoStor=T MaxTD1= 5 Len=  102
 D1PCM: PCM CHGder 1st derivatives, ID1Alg=3 FixD1E=F DoIter=F DoCFld=F I1PDM=0.
 Calling FoFJK, ICntrl=      2127 FMM=F ISym2X=0 I1Cent= 0 IOpClX= 0 NMat=1 NMatS=1 NMatT=0.
 -------------------------------------------------------------------
 Center     Atomic                   Forces (Hartrees/Bohr)
 Number     Number              X              Y              Z
 -------------------------------------------------------------------
      1        6           0.000048578    0.039247635    0.003487430
      2        6           0.000015500   -0.031953167   -0.002990457
      3        6           0.033606540   -0.019619635   -0.001751590
      4        6          -0.027868414    0.016030332    0.001649267
      5        6          -0.033680290   -0.019682236   -0.001713193
      6        6           0.027895301    0.016034785    0.001274266
      7        6          -0.006850067    0.004666985    0.000431692
      8        7          -0.004197649    0.002122793    0.000469455
      9        6           0.006826575    0.004678855    0.000443208
     10        7           0.004198064    0.002134803    0.000274547
     11        6           0.007716541    0.003708951    0.000338015
     12        7           0.003792580    0.002431148    0.000076514
     13        6           0.000511674   -0.008133626   -0.000804413
     14        7          -0.000223566   -0.004824453   -0.000773529
     15        6          -0.000519700   -0.008294704   -0.000608506
     16        7           0.000209175   -0.004701599   -0.000297067
     17        6          -0.007694877    0.003723658    0.000409233
     18        7          -0.003785962    0.002429475    0.000085128
 -------------------------------------------------------------------
 Cartesian Forces:  Max     0.039247635 RMS     0.012360223

 GradGradGradGradGradGradGradGradGradGradGradGradGradGradGradGradGradGrad
 Berny optimization.
 Search for a local minimum.
 Step number   1 out of a maximum of    2
 All quantities printed in internal units (Hartrees-Bohrs-Radians)
 Second derivative matrix not updated -- first step.
 ITU=  0
     Eigenvalues ---    0.00071   0.00085   0.00085   0.00302   0.00303
     Eigenvalues ---    0.00704   0.01527   0.01706   0.01992   0.02000
     Eigenvalues ---    0.03648   0.03663   0.05286   0.05305   0.10204
     Eigenvalues ---    0.16173   0.21649   0.21707   0.24856   0.25440
     Eigenvalues ---    0.25620   0.26363   0.29616   0.29666   0.50016
     Eigenvalues ---    0.82836   0.83308   0.83748   0.89883   0.90115
     Eigenvalues ---    1.05775   1.05928   1.14458   1.56901   1.57103
     Eigenvalues ---    2.07278   2.79876   2.79959   2.80134   2.86808
     Eigenvalues ---    2.86886   2.86954 106.27239 111.87717 118.32120
     Eigenvalues ---  137.10841 145.51031 154.18622
 Quadratic step=3.212D-01 exceeds max=3.000D-01 adjusted using Lamda=-6.177D-05.
 Angle between NR and scaled steps=   1.54 degrees.
 Angle between quadratic step and forces=  77.79 degrees.
 Linear search not attempted -- first point.
 B after Tr=     0.000109   -0.000214    0.000681
         Rot=    1.000000    0.000024    0.000026    0.000002 Ang=   0.00 deg.
 Variable       Old X    -DE/DX   Delta X   Delta X   Delta X     New X
                                 (Linear)    (Quad)   (Total)
    X1      -16.89285   0.00005   0.00000   0.00051   0.00050 -16.89235
    Y1       -1.75873   0.03925   0.00000   0.01608   0.01605  -1.74268
    Z1        2.09377   0.00349   0.00000   0.00590   0.00580   2.09957
    X2      -16.89121   0.00002   0.00000  -0.00007  -0.00008 -16.89129
    Y2        0.93760  -0.03195   0.00000  -0.03009  -0.03011   0.90749
    Z2        2.36568  -0.00299   0.00000   0.01018   0.00995   2.37562
    X3      -15.60081   0.03361   0.00000   0.01169   0.01168 -15.58913
    Y3       -3.98505  -0.01962   0.00000  -0.00383  -0.00387  -3.98892
    Z3        1.85357  -0.00175   0.00000  -0.00338  -0.00330   1.85027
    X4      -13.25298  -0.02787   0.00000  -0.02982  -0.02982 -13.28280
    Y4       -5.32891   0.01603   0.00000   0.01731   0.01725  -5.31166
    Z4        1.69672   0.00165   0.00000  -0.01460  -0.01434   1.68238
    X5      -18.18696  -0.03368   0.00000  -0.01071  -0.01072 -18.19768
    Y5       -3.98647  -0.01968   0.00000  -0.00447  -0.00451  -3.99098
    Z5        1.88137  -0.00171   0.00000   0.00235   0.00229   1.88366
    X6      -20.53579   0.02790   0.00000   0.03052   0.03052 -20.50527
    Y6       -5.33359   0.01603   0.00000   0.01560   0.01557  -5.31802
    Z6        1.77044   0.00127   0.00000   0.00729   0.00718   1.77762
    X7      -19.19188  -0.00685   0.00000  -0.02298  -0.02299 -19.21488
    Y7        2.22753   0.00467   0.00000  -0.01493  -0.01492   2.21260
    Z7        2.52429   0.00043   0.00000   0.02583   0.02542   2.54970
    X8      -21.12468  -0.00420   0.00000  -0.02573  -0.02575 -21.15043
    Y8        3.26585   0.00212   0.00000  -0.01351  -0.01349   3.25237
    Z8        2.65041   0.00047   0.00000   0.03733   0.03677   2.68718
    X9      -14.58869   0.00683   0.00000   0.02190   0.02189 -14.56680
    Y9        2.22808   0.00468   0.00000  -0.01158  -0.01160   2.21648
    Z9        2.49060   0.00044   0.00000   0.01145   0.01128   2.50187
   X10      -12.65485   0.00420   0.00000   0.02399   0.02399 -12.63087
   Y10        3.26709   0.00213   0.00000  -0.00755  -0.00758   3.25951
   Z10        2.59351   0.00027   0.00000   0.01134   0.01122   2.60472
   X11      -10.97993   0.00772   0.00000  -0.00019  -0.00019 -10.98012
   Y11       -3.98552   0.00371   0.00000   0.02158   0.02151  -3.96401
   Z11        1.80175   0.00034   0.00000   0.00407   0.00438   1.80613
   X12       -9.11031   0.00379   0.00000   0.00659   0.00658  -9.10373
   Y12       -2.83354   0.00243   0.00000   0.01623   0.01615  -2.81739
   Z12        1.89155   0.00008   0.00000   0.01939   0.01974   1.91129
   X13      -13.27537   0.00051   0.00000  -0.03237  -0.03237 -13.30774
   Y13       -7.95661  -0.00813   0.00000  -0.00639  -0.00648  -7.96309
   Z13        1.41777  -0.00080   0.00000  -0.06039  -0.06001   1.35776
   X14      -13.33479  -0.00022   0.00000  -0.03612  -0.03611 -13.37090
   Y14      -10.14107  -0.00482   0.00000  -0.00636  -0.00646 -10.14752
   Z14        1.18555  -0.00077   0.00000  -0.09643  -0.09594   1.08961
   X15      -20.51390  -0.00052   0.00000   0.03160   0.03158 -20.48231
   Y15       -7.96683  -0.00829   0.00000  -0.01982  -0.01985  -7.98669
   Z15        1.54936  -0.00061   0.00000   0.09002   0.09004   1.63939
   X16      -20.45439   0.00021   0.00000   0.03412   0.03410 -20.42030
   Y16      -10.15674  -0.00470   0.00000  -0.02924  -0.02927 -10.18601
   Z16        1.37415  -0.00030   0.00000   0.16158   0.16170   1.53585
   X17      -22.80860  -0.00769   0.00000   0.00159   0.00159 -22.80701
   Y17       -3.99083   0.00372   0.00000   0.02941   0.02940  -3.96143
   Z17        1.88838   0.00041   0.00000  -0.07191  -0.07221   1.81618
   X18      -24.67763  -0.00379   0.00000  -0.00439  -0.00439 -24.68203
   Y18       -2.83846   0.00243   0.00000   0.03222   0.03222  -2.80624
   Z18        1.98550   0.00009   0.00000  -0.13951  -0.13995   1.84555
         Item               Value     Threshold  Converged?
 Maximum Force            0.039248     0.000450     NO 
 RMS     Force            0.012360     0.000300     NO 
 Maximum Displacement     0.161701     0.001800     NO 
 RMS     Displacement     0.040852     0.001200     NO 
 Predicted change in Energy=-2.884818D-03
 GradGradGradGradGradGradGradGradGradGradGradGradGradGradGradGradGradGrad

 Unable to Open any file for archive entry.
 1\1\GINC-X10P1N4\Force\RwB97XD\def2SVP\C12N6(2-)\MAYUMIAO\11-Oct-2024\
 0\\# wb97xd def2svp scrf=(smd,solvent=acetonitrile) g09default scf=(xq
 c,maxcycle=64) force guess=read nosymm\\Title Card\\-2,1\C,-8.93931256
 ,-0.93067927,1.10797751\C,-8.93844214,0.49615747,1.25186208\C,-8.25559
 566,-2.10879499,0.98086943\C,-7.01317549,-2.81993702,0.89786714\C,-9.6
 2412404,-2.1095483,0.9955782\C,-10.86707195,-2.82241183,0.93687497\C,-
 10.15590774,1.17875672,1.33579441\N,-11.17869975,1.72821511,1.40253492
 \C,-7.72000114,1.17904795,1.31796611\N,-6.69666037,1.72886714,1.372424
 79\C,-5.81032869,-2.10904473,0.95344588\N,-4.82096881,-1.49944394,1.00
 096524\C,-7.0250235,-4.21045634,0.75025276\N,-7.05646553,-5.36642101,0
 .6273661\C,-10.85548635,-4.21586692,0.81988476\N,-10.82399899,-5.37471
 38,0.72716813\C,-12.06979101,-2.11185723,0.99928907\N,-13.05884129,-1.
 50204703,1.05068354\\Version=ES64L-G16RevC.01\HF=-785.030132\RMSD=8.94
 6e-09\RMSF=1.236e-02\Dipole=-0.0004539,-0.0064057,-0.0052287\Quadrupol
 e=-395.4150925,155.1013342,240.3137582,-109.4483927,66.4361861,5.42631
 41\PG=C01 [X(C12N6)]\\@
 The archive entry for this job was punched.


 If your ship doesn't come in, swim out to it!
                          -- Jonathan Winters
 Job cpu time:       0 days  0 hours  9 minutes 29.1 seconds.
 Elapsed time:       0 days  0 hours  0 minutes 21.6 seconds.
 File lengths (MBytes):  RWF=    147 Int=      0 D2E=      0 Chk=      8 Scr=      1
 Normal termination of Gaussian 16 at Fri Oct 11 15:30:35 2024.
