 Entering Gaussian System, Link 0=g16
 Input=JOBS/40_B.gjf
 Output=JOBS/40_B.log
 Initial command:
 /data/app/gaussian/C01-avx2//g16/l1.exe "/tmp/Gau-2551381.inp" -scrdir="/tmp/"
 Entering Link 1 = /data/app/gaussian/C01-avx2//g16/l1.exe PID=   2551382.
  
 Copyright (c) 1988-2019, Gaussian, Inc.  All Rights Reserved.
  
 This is part of the Gaussian(R) 16 program.  It is based on
 the Gaussian(R) 09 system (copyright 2009, Gaussian, Inc.),
 the Gaussian(R) 03 system (copyright 2003, Gaussian, Inc.),
 the Gaussian(R) 98 system (copyright 1998, Gaussian, Inc.),
 the Gaussian(R) 94 system (copyright 1995, Gaussian, Inc.),
 the Gaussian 92(TM) system (copyright 1992, Gaussian, Inc.),
 the Gaussian 90(TM) system (copyright 1990, Gaussian, Inc.),
 the Gaussian 88(TM) system (copyright 1988, Gaussian, Inc.),
 the Gaussian 86(TM) system (copyright 1986, Carnegie Mellon
 University), and the Gaussian 82(TM) system (copyright 1983,
 Carnegie Mellon University). Gaussian is a federally registered
 trademark of Gaussian, Inc.
  
 This software contains proprietary and confidential information,
 including trade secrets, belonging to Gaussian, Inc.
  
 This software is provided under written license and may be
 used, copied, transmitted, or stored only in accord with that
 written license.
  
 The following legend is applicable only to US Government
 contracts under FAR:
  
                    RESTRICTED RIGHTS LEGEND
  
 Use, reproduction and disclosure by the US Government is
 subject to restrictions as set forth in subparagraphs (a)
 and (c) of the Commercial Computer Software - Restricted
 Rights clause in FAR 52.227-19.
  
 Gaussian, Inc.
 340 Quinnipiac St., Bldg. 40, Wallingford CT 06492
  
  
 ---------------------------------------------------------------
 Warning -- This program may not be used in any manner that
 competes with the business of Gaussian, Inc. or will provide
 assistance to any competitor of Gaussian, Inc.  The licensee
 of this program is prohibited from giving any competitor of
 Gaussian, Inc. access to this program.  By using this program,
 the user acknowledges that Gaussian, Inc. is engaged in the
 business of creating and licensing software in the field of
 computational chemistry and represents and warrants to the
 licensee that it is not a competitor of Gaussian, Inc. and that
 it will not use this program in any manner prohibited above.
 ---------------------------------------------------------------
  

 Cite this work as:
 Gaussian 16, Revision C.01,
 M. J. Frisch, G. W. Trucks, H. B. Schlegel, G. E. Scuseria, 
 M. A. Robb, J. R. Cheeseman, G. Scalmani, V. Barone, 
 G. A. Petersson, H. Nakatsuji, X. Li, M. Caricato, A. V. Marenich, 
 J. Bloino, B. G. Janesko, R. Gomperts, B. Mennucci, H. P. Hratchian, 
 J. V. Ortiz, A. F. Izmaylov, J. L. Sonnenberg, D. Williams-Young, 
 F. Ding, F. Lipparini, F. Egidi, J. Goings, B. Peng, A. Petrone, 
 T. Henderson, D. Ranasinghe, V. G. Zakrzewski, J. Gao, N. Rega, 
 G. Zheng, W. Liang, M. Hada, M. Ehara, K. Toyota, R. Fukuda, 
 J. Hasegawa, M. Ishida, T. Nakajima, Y. Honda, O. Kitao, H. Nakai, 
 T. Vreven, K. Throssell, J. A. Montgomery, Jr., J. E. Peralta, 
 F. Ogliaro, M. J. Bearpark, J. J. Heyd, E. N. Brothers, K. N. Kudin, 
 V. N. Staroverov, T. A. Keith, R. Kobayashi, J. Normand, 
 K. Raghavachari, A. P. Rendell, J. C. Burant, S. S. Iyengar, 
 J. Tomasi, M. Cossi, J. M. Millam, M. Klene, C. Adamo, R. Cammi, 
 J. W. Ochterski, R. L. Martin, K. Morokuma, O. Farkas, 
 J. B. Foresman, and D. J. Fox, Gaussian, Inc., Wallingford CT, 2019.
 
 ******************************************
 Gaussian 16:  ES64L-G16RevC.01  3-Jul-2019
                11-Oct-2024 
 ******************************************
 %chk=b.chk
 %nprocshared=28
 Will use up to   28 processors via shared memory.
 %mem=48gb
 ----------------------------------------------------------------------
 # wb97xd def2svp scrf=(smd,solvent=acetonitrile) g09default scf=(xqc,m
 axcycle=64) force guess=read nosymm
 ----------------------------------------------------------------------
 1/10=7,30=1,38=1,158=3,167=1/1,3;
 2/12=2,15=1,17=6,18=5,40=1/2;
 3/5=43,7=101,11=2,25=1,27=10,30=1,70=32201,71=1,72=2,74=-58,75=-4,116=-2,158=3/1,2,3;
 4/5=1,60=-1/1;
 5/5=2,7=64,8=3,13=1,38=6,53=2,87=10/2,8;
 6/7=2,8=2,9=2,10=2,28=1,87=10/1;
 7/29=1,30=1,87=10/1,2,3,16;
 1/10=7,30=1,158=3,167=1/3;
 99//99;
 Using 2006 physical constants.
 ----------
 Title Card
 ----------
 Symbolic Z-matrix:
 Charge = -1 Multiplicity = 2
 6                    -8.94219  -0.9094    1.10817 
 6                    -8.94973   0.47005   1.24444 
 6                    -8.25209  -2.11165   0.98414 
 6                    -7.03751  -2.81134   0.90054 
 6                    -9.64526  -2.11258   0.99732 
 6                    -10.85251  -2.80999   0.94055 
 6                    -10.17439   1.18171   1.33579 
 7                    -11.16979   1.77439   1.41902 
 6                    -7.72322   1.18371   1.31969 
 7                    -6.69006   1.71619   1.38133 
 6                    -5.79994  -2.11263   0.94796 
 7                    -4.80715  -1.52118   0.99119 
 6                    -7.0363   -4.21967   0.74338 
 7                    -7.02484  -5.37679   0.60548 
 6                    -10.84132  -4.22462   0.83487 
 7                    -10.79967  -5.38652   0.75128 
 6                    -12.08881  -2.10524   0.99015 
 7                    -13.07511  -1.49461   1.03352 
 

 GradGradGradGradGradGradGradGradGradGradGradGradGradGradGradGradGradGrad
 Berny optimization.
 Initialization pass.
 Trust Radius=3.00D-01 FncErr=1.00D-07 GrdErr=1.00D-07 EigMax=2.50D+02 EigMin=1.00D-04
 Number of steps in this run=      2 maximum allowed number of steps=      2.
 GradGradGradGradGradGradGradGradGradGradGradGradGradGradGradGradGradGrad

                          Input orientation:                          
 ---------------------------------------------------------------------
 Center     Atomic      Atomic             Coordinates (Angstroms)
 Number     Number       Type             X           Y           Z
 ---------------------------------------------------------------------
      1          6           0       -8.942193   -0.909400    1.108172
      2          6           0       -8.949729    0.470050    1.244439
      3          6           0       -8.252090   -2.111645    0.984143
      4          6           0       -7.037511   -2.811337    0.900536
      5          6           0       -9.645260   -2.112578    0.997325
      6          6           0      -10.852512   -2.809993    0.940550
      7          6           0      -10.174388    1.181713    1.335785
      8          7           0      -11.169791    1.774392    1.419018
      9          6           0       -7.723224    1.183711    1.319694
     10          7           0       -6.690064    1.716186    1.381333
     11          6           0       -5.799945   -2.112635    0.947956
     12          7           0       -4.807146   -1.521185    0.991185
     13          6           0       -7.036296   -4.219667    0.743376
     14          7           0       -7.024839   -5.376792    0.605477
     15          6           0      -10.841317   -4.224622    0.834869
     16          7           0      -10.799670   -5.386524    0.751281
     17          6           0      -12.088807   -2.105238    0.990149
     18          7           0      -13.075109   -1.494613    1.033516
 ---------------------------------------------------------------------
                    Distance matrix (angstroms):
                    1          2          3          4          5
     1  C    0.000000
     2  C    1.386184   0.000000
     3  C    1.391768   2.686932   0.000000
     4  C    2.699684   3.813443   1.404194   0.000000
     5  C    1.397937   2.686037   1.393232   2.701478   0.000000
     6  C    2.699939   3.804158   2.692914   3.815211   1.395374
     7  C    2.437799   1.419365   3.829502   5.096458   3.353638
     8  N    3.501650   2.580786   4.878870   6.194632   4.196493
     9  C    2.431407   1.421017   3.354350   4.075084   3.829316
    10  N    3.469928   2.584121   4.153309   4.566218   4.851811
    11  C    3.368556   4.084030   2.452413   1.421972   3.845632
    12  N    4.181696   4.603276   3.495187   2.578224   4.874129
    13  C    3.837107   5.089768   2.445380   1.417072   3.363184
    14  N    4.887387   6.188622   3.508664   2.582398   4.204194
    15  C    3.830413   5.077972   3.345303   4.058402   2.432627
    16  N    4.860271   6.161570   4.155625   4.561547   3.480219
    17  C    3.368254   4.068240   3.836726   5.101195   2.443568
    18  N    4.174810   4.574183   4.862579   6.180941   3.485263
                    6          7          8          9         10
     6  C    0.000000
     7  C    4.068142   0.000000
     8  N    4.620193   1.161474   0.000000
     9  C    5.087815   2.451218   3.498227   0.000000
    10  N    6.164946   3.525372   4.480263   1.163936   0.000000
    11  C    5.100471   5.489890   6.645759   3.834460   3.954743
    12  N    6.181427   6.019277   7.178239   3.990976   3.765391
    13  C    4.073029   6.274829   7.312388   5.477272   5.980068
    14  N    4.620802   7.312113   8.305535   6.636117   7.143134
    15  C    1.418615   5.470299   6.036331   6.261600   7.268062
    16  N    2.584014   6.623772   7.201498   7.277060   8.230086
    17  C    1.423926   3.819490   4.009993   5.475773   6.625913
    18  N    2.584338   3.958316   3.803319   5.991493   7.155348
                   11         12         13         14         15
    11  C    0.000000
    12  N    1.156430   0.000000
    13  C    2.451531   3.508893   0.000000
    14  N    3.503196   4.464599   1.165369   0.000000
    15  C    5.467058   6.613942   3.806124   3.993197   0.000000
    16  N    5.979489   7.135037   3.940127   3.777659   1.165649
    17  C    6.289008   7.305046   5.482661   6.041094   2.464170
    18  N    7.301869   8.268114   6.631543   7.201410   3.533021
                   16         17         18
    16  N    0.000000
    17  C    3.533521   0.000000
    18  N    4.517107   1.160834   0.000000
 Symmetry turned off by external request.
 Stoichiometry    C12N6(1-,2)
 Framework group  C1[X(C12N6)]
 Deg. of freedom    48
 Full point group                 C1      NOp   1
 Rotational constants (GHZ):           0.4313747           0.4262150           0.2144252
 Standard basis: def2SVP (5D, 7F)
   252 basis functions,   450 primitive gaussians,   270 cartesian basis functions
    58 alpha electrons       57 beta electrons
       nuclear repulsion energy       964.8450711205 Hartrees.
 NAtoms=   18 NActive=   18 NUniq=   18 SFac= 1.00D+00 NAtFMM=   60 NAOKFM=F Big=F
 Integral buffers will be    131072 words long.
 Raffenetti 2 integral format.
 Two-electron integral symmetry is turned off.
 Nuclear repulsion after empirical dispersion term =      964.8334057976 Hartrees.
 Force PCM accuracy= 1.00D-10.
 ------------------------------------------------------------------------------
 Polarizable Continuum Model (PCM)
 =================================
 Model                : PCM (using non-symmetric T matrix).
 Atomic radii         : SMD-Coulomb.
 Polarization charges : Total charges.
 Charge compensation  : None.
 Solution method      : On-the-fly selection.
 Cavity type          : VdW (van der Waals Surface) (Alpha=1.000).
 Cavity algorithm     : GePol (No added spheres)
                        Default sphere list used, NSphG=   18.
                        Lebedev-Laikov grids with approx.  5.0 points / Ang**2.
                        Smoothing algorithm: York/Karplus (Gamma=1.0000).
                        Polarization charges: spherical gaussians, with
                                              point-specific exponents (IZeta= 3).
                        Self-potential: point-specific (ISelfS= 7).
                        Self-field    : sphere-specific E.n sum rule (ISelfD= 2).
 1st derivatives      : Analytical E(r).r(x)/FMM algorithm (CHGder, D1EAlg=3).
                        Cavity 1st derivative terms included.
 Solvent              : Acetonitrile, Eps=  35.688000 Eps(inf)=   1.806874
 ------------------------------------------------------------------------------
 Spheres list:
 ISph  on   Nord     Re0    Alpha      Xe            Ye            Ze
    1   C      1    1.8500  1.000     -8.942193     -0.909400      1.108172
    2   C      2    1.8500  1.000     -8.949729      0.470050      1.244439
    3   C      3    1.8500  1.000     -8.252090     -2.111645      0.984143
    4   C      4    1.8500  1.000     -7.037511     -2.811337      0.900536
    5   C      5    1.8500  1.000     -9.645260     -2.112578      0.997325
    6   C      6    1.8500  1.000    -10.852512     -2.809993      0.940550
    7   C      7    1.8500  1.000    -10.174388      1.181713      1.335785
    8   N      8    1.8900  1.000    -11.169791      1.774392      1.419018
    9   C      9    1.8500  1.000     -7.723224      1.183711      1.319694
   10   N     10    1.8900  1.000     -6.690064      1.716186      1.381333
   11   C     11    1.8500  1.000     -5.799945     -2.112635      0.947956
   12   N     12    1.8900  1.000     -4.807146     -1.521185      0.991185
   13   C     13    1.8500  1.000     -7.036296     -4.219667      0.743376
   14   N     14    1.8900  1.000     -7.024839     -5.376792      0.605477
   15   C     15    1.8500  1.000    -10.841317     -4.224622      0.834869
   16   N     16    1.8900  1.000    -10.799670     -5.386524      0.751281
   17   C     17    1.8500  1.000    -12.088807     -2.105238      0.990149
   18   N     18    1.8900  1.000    -13.075109     -1.494613      1.033516
 ------------------------------------------------------------------------------
 ------------------------------------------------------------------------------
 Atomic radii for non-electrostatic terms: SMD-CDS.
 ------------------------------------------------------------------------------
 Nuclear repulsion after PCM non-electrostatic terms =      964.8420999256 Hartrees.
 One-electron integrals computed using PRISM.
   1 Symmetry operations used in ECPInt.
 ECPInt:  NShTT=    5886 NPrTT=   23670 LenC2=    5404 LenP2D=   14963.
 LDataN:  DoStor=T MaxTD1= 4 Len=   56
 NBasis=   252 RedAO= T EigKep=  2.00D-04  NBF=   252
 NBsUse=   252 1.00D-06 EigRej= -1.00D+00 NBFU=   252
 Initial guess from the checkpoint file:  "b.chk"
 B after Tr=    -0.000145   -0.000315   -0.001542
         Rot=    1.000000   -0.000032   -0.000051    0.000009 Ang=  -0.01 deg.
 Initial guess <Sx>= 0.0000 <Sy>= 0.0000 <Sz>= 0.5000 <S**2>= 0.7876 S= 0.5186
 Requested convergence on RMS density matrix=1.00D-08 within  64 cycles.
 Requested convergence on MAX density matrix=1.00D-06.
 Requested convergence on             energy=1.00D-06.
 No special actions if energy rises.
 Inv3:  Mode=1 IEnd=    19293888.
 Iteration    1 A*A^-1 deviation from unit magnitude is 3.33D-15 for    214.
 Iteration    1 A*A^-1 deviation from orthogonality  is 3.48D-15 for   1484    996.
 Iteration    1 A^-1*A deviation from unit magnitude is 3.22D-15 for    379.
 Iteration    1 A^-1*A deviation from orthogonality  is 2.03D-09 for   1864   1693.
 Iteration    2 A*A^-1 deviation from unit magnitude is 4.33D-15 for     64.
 Iteration    2 A*A^-1 deviation from orthogonality  is 4.80D-15 for   1926    410.
 Iteration    2 A^-1*A deviation from unit magnitude is 1.33D-15 for     82.
 Iteration    2 A^-1*A deviation from orthogonality  is 6.67D-16 for   2220   1278.
 Error on total polarization charges =  0.01954
 SCF Done:  E(UwB97XD) =  -784.860247265     A.U. after   18 cycles
            NFock= 18  Conv=0.56D-08     -V/T= 2.0098
 <Sx>= 0.0000 <Sy>= 0.0000 <Sz>= 0.5000 <S**2>= 0.7873 S= 0.5185
 <L.S>=  0.00000000000    
 SMD-CDS (non-electrostatic) energy       (kcal/mol) =       5.46
 (included in total energy above)
 Annihilation of the first spin contaminant:
 S**2 before annihilation     0.7873,   after     0.7511
 QCSCF skips out because SCF is already converged.

 **********************************************************************

            Population analysis using the SCF Density.

 **********************************************************************

 Alpha  occ. eigenvalues --  -14.45991 -14.45985 -14.45968 -14.45928 -14.45912
 Alpha  occ. eigenvalues --  -14.45828 -10.38324 -10.38264 -10.38218 -10.38159
 Alpha  occ. eigenvalues --  -10.38106 -10.37978 -10.36165 -10.36144 -10.36138
 Alpha  occ. eigenvalues --  -10.36126 -10.36080 -10.36010  -1.06523  -1.01994
 Alpha  occ. eigenvalues --   -1.01926  -1.01561  -1.00764  -1.00706  -1.00652
 Alpha  occ. eigenvalues --   -0.92097  -0.91959  -0.90052  -0.72230  -0.72135
 Alpha  occ. eigenvalues --   -0.68714  -0.68612  -0.68476  -0.67671  -0.55649
 Alpha  occ. eigenvalues --   -0.50893  -0.50857  -0.49789  -0.49613  -0.47627
 Alpha  occ. eigenvalues --   -0.47521  -0.47514  -0.47022  -0.46786  -0.46751
 Alpha  occ. eigenvalues --   -0.46598  -0.45188  -0.44881  -0.44834  -0.44685
 Alpha  occ. eigenvalues --   -0.44396  -0.44353  -0.42958  -0.42843  -0.42649
 Alpha  occ. eigenvalues --   -0.35308  -0.35226  -0.27999
 Alpha virt. eigenvalues --    0.04722   0.04819   0.06480   0.06859   0.06933
 Alpha virt. eigenvalues --    0.10180   0.10251   0.10426   0.10618   0.12316
 Alpha virt. eigenvalues --    0.12465   0.14527   0.19324   0.19383   0.20928
 Alpha virt. eigenvalues --    0.24793   0.24975   0.25072   0.26246   0.26288
 Alpha virt. eigenvalues --    0.27787   0.31522   0.31542   0.31640   0.33636
 Alpha virt. eigenvalues --    0.33799   0.35175   0.46392   0.46624   0.48631
 Alpha virt. eigenvalues --    0.49009   0.53077   0.53239   0.53280   0.53300
 Alpha virt. eigenvalues --    0.54938   0.55037   0.55963   0.57211   0.59481
 Alpha virt. eigenvalues --    0.60152   0.60219   0.60802   0.61196   0.62764
 Alpha virt. eigenvalues --    0.64037   0.68331   0.69637   0.69688   0.71643
 Alpha virt. eigenvalues --    0.71678   0.72668   0.72802   0.73126   0.73306
 Alpha virt. eigenvalues --    0.73397   0.73533   0.74472   0.74857   0.75680
 Alpha virt. eigenvalues --    0.79494   0.79634   0.79902   0.80977   0.81157
 Alpha virt. eigenvalues --    0.86298   0.86580   0.86910   0.87035   0.92725
 Alpha virt. eigenvalues --    0.92879   0.93036   0.93149   0.93827   0.94082
 Alpha virt. eigenvalues --    0.95799   0.98474   0.98490   0.98984   0.99418
 Alpha virt. eigenvalues --    1.00109   1.00384   1.02701   1.03095   1.03302
 Alpha virt. eigenvalues --    1.05762   1.06504   1.07291   1.07809   1.10463
 Alpha virt. eigenvalues --    1.10616   1.14905   1.16448   1.17883   1.18081
 Alpha virt. eigenvalues --    1.19096   1.22813   1.22845   1.23598   1.33157
 Alpha virt. eigenvalues --    1.36126   1.36147   1.38095   1.38166   1.41302
 Alpha virt. eigenvalues --    1.43518   1.43648   1.45353   1.45855   1.55698
 Alpha virt. eigenvalues --    1.59728   1.65888   1.68290   1.68386   1.68579
 Alpha virt. eigenvalues --    1.68777   1.68866   1.76399   1.76521   1.76646
 Alpha virt. eigenvalues --    1.76955   1.77833   1.79025   1.79173   1.79803
 Alpha virt. eigenvalues --    1.81882   1.82237   1.85162   1.92359   1.92632
 Alpha virt. eigenvalues --    1.93261   1.97619   1.99476   1.99706   2.03120
 Alpha virt. eigenvalues --    2.03367   2.06054   2.07026   2.12458   2.12534
 Alpha virt. eigenvalues --    2.17230   2.19404   2.19843   2.19874   2.25969
 Alpha virt. eigenvalues --    2.26520   2.27090   2.28491   2.32982   2.33025
 Alpha virt. eigenvalues --    2.33228   2.33639   2.33908   2.33987   2.34475
 Alpha virt. eigenvalues --    2.35366   2.35378   2.35660   2.35951   2.36057
 Alpha virt. eigenvalues --    2.37191   2.37380   2.56049   2.61405   2.61932
 Alpha virt. eigenvalues --    2.69891   2.70593   2.92421   2.94218   2.94972
 Alpha virt. eigenvalues --    2.95624   2.97974   2.98624   2.99029   3.02213
 Alpha virt. eigenvalues --    3.04627   3.04836   3.08101   3.08474   3.11404
 Alpha virt. eigenvalues --    3.11676   3.12160   3.22620   3.23064   3.28478
 Alpha virt. eigenvalues --    3.40302   3.40687   3.42069   3.53372   3.56376
 Alpha virt. eigenvalues --    3.56941   3.61427   3.61677   3.74947
  Beta  occ. eigenvalues --  -14.45797 -14.45782 -14.45779 -14.45741 -14.45723
  Beta  occ. eigenvalues --  -14.45637 -10.38360 -10.38301 -10.38257 -10.37796
  Beta  occ. eigenvalues --  -10.37757 -10.37633 -10.36258 -10.36241 -10.36229
  Beta  occ. eigenvalues --  -10.36216 -10.36170 -10.36102  -1.06131  -1.01639
  Beta  occ. eigenvalues --   -1.01581  -1.01211  -1.00423  -1.00381  -1.00324
  Beta  occ. eigenvalues --   -0.91348  -0.91177  -0.89073  -0.72097  -0.72002
  Beta  occ. eigenvalues --   -0.68498  -0.68398  -0.68213  -0.67512  -0.54875
  Beta  occ. eigenvalues --   -0.49679  -0.49603  -0.49574  -0.49467  -0.47268
  Beta  occ. eigenvalues --   -0.47165  -0.47152  -0.46664  -0.46503  -0.46474
  Beta  occ. eigenvalues --   -0.45444  -0.45085  -0.44251  -0.44208  -0.43928
  Beta  occ. eigenvalues --   -0.43913  -0.43889  -0.42813  -0.42705  -0.42507
  Beta  occ. eigenvalues --   -0.32378  -0.32156
  Beta virt. eigenvalues --   -0.10703   0.05419   0.05515   0.06591   0.06958
  Beta virt. eigenvalues --    0.07028   0.10422   0.11205   0.11281   0.11408
  Beta virt. eigenvalues --    0.12363   0.12515   0.14777   0.19524   0.19579
  Beta virt. eigenvalues --    0.22497   0.24709   0.26390   0.26442   0.26582
  Beta virt. eigenvalues --    0.26662   0.27998   0.32005   0.32105   0.32234
  Beta virt. eigenvalues --    0.33732   0.33903   0.35256   0.46515   0.46744
  Beta virt. eigenvalues --    0.48772   0.49077   0.53142   0.53156   0.53241
  Beta virt. eigenvalues --    0.53400   0.55103   0.55188   0.56114   0.57375
  Beta virt. eigenvalues --    0.59409   0.60037   0.60105   0.60816   0.61217
  Beta virt. eigenvalues --    0.62898   0.63905   0.68657   0.69802   0.69839
  Beta virt. eigenvalues --    0.71774   0.71804   0.72805   0.72947   0.73304
  Beta virt. eigenvalues --    0.73501   0.73586   0.73657   0.74604   0.74983
  Beta virt. eigenvalues --    0.75711   0.79630   0.79911   0.80468   0.81718
  Beta virt. eigenvalues --    0.81898   0.86496   0.86720   0.87058   0.87142
  Beta virt. eigenvalues --    0.92910   0.93052   0.93649   0.93742   0.94055
  Beta virt. eigenvalues --    0.94688   0.96510   0.99066   0.99103   0.99237
  Beta virt. eigenvalues --    0.99647   1.00254   1.00522   1.02834   1.03239
  Beta virt. eigenvalues --    1.03442   1.06067   1.06603   1.07605   1.08103
  Beta virt. eigenvalues --    1.10586   1.10748   1.15121   1.16779   1.18134
  Beta virt. eigenvalues --    1.18327   1.19371   1.23029   1.23089   1.24134
  Beta virt. eigenvalues --    1.33309   1.36309   1.36335   1.38661   1.38732
  Beta virt. eigenvalues --    1.42069   1.44217   1.44365   1.45444   1.45930
  Beta virt. eigenvalues --    1.55754   1.59765   1.65724   1.68075   1.68170
  Beta virt. eigenvalues --    1.68354   1.68564   1.68648   1.76467   1.76564
  Beta virt. eigenvalues --    1.76713   1.76819   1.77724   1.78917   1.79064
  Beta virt. eigenvalues --    1.80050   1.81814   1.82168   1.85070   1.92445
  Beta virt. eigenvalues --    1.92662   1.93348   1.97792   2.00060   2.00301
  Beta virt. eigenvalues --    2.03464   2.03717   2.06845   2.07174   2.12958
  Beta virt. eigenvalues --    2.13060   2.17508   2.20499   2.20807   2.20844
  Beta virt. eigenvalues --    2.26514   2.27106   2.27680   2.28987   2.33654
  Beta virt. eigenvalues --    2.33716   2.33875   2.34318   2.34593   2.34669
  Beta virt. eigenvalues --    2.35131   2.35798   2.36058   2.36086   2.36473
  Beta virt. eigenvalues --    2.36573   2.37933   2.38116   2.56512   2.61480
  Beta virt. eigenvalues --    2.62007   2.70320   2.71015   2.92515   2.94381
  Beta virt. eigenvalues --    2.95094   2.95801   2.98137   2.98779   2.99158
  Beta virt. eigenvalues --    3.02714   3.05149   3.05360   3.08265   3.08631
  Beta virt. eigenvalues --    3.11899   3.12176   3.12668   3.22861   3.23311
  Beta virt. eigenvalues --    3.28669   3.40507   3.40888   3.42260   3.53552
  Beta virt. eigenvalues --    3.56555   3.57127   3.61619   3.61873   3.75102
          Condensed to atoms (all electrons):
               1          2          3          4          5          6
     1  C    4.904001   0.545295   0.294791  -0.099994   0.294612  -0.101242
     2  C    0.545295   5.335510  -0.108411  -0.008270  -0.106448  -0.008142
     3  C    0.294791  -0.108411   4.923350   0.537968   0.303182  -0.101522
     4  C   -0.099994  -0.008270   0.537968   5.318413  -0.097973  -0.007769
     5  C    0.294612  -0.106448   0.303182  -0.097973   4.905607   0.541499
     6  C   -0.101242  -0.008142  -0.101522  -0.007769   0.541499   5.321120
     7  C    0.008680   0.391264   0.004944  -0.000475  -0.022728   0.002291
     8  N   -0.001752  -0.029651  -0.000076  -0.000001  -0.000473   0.000108
     9  C    0.006036   0.391958  -0.022442   0.002522   0.006558  -0.000436
    10  N   -0.001771  -0.028413  -0.000542   0.000160  -0.000041  -0.000001
    11  C   -0.021443   0.002326   0.005355   0.392927   0.005815  -0.000475
    12  N   -0.000484   0.000123  -0.001697  -0.028350  -0.000054  -0.000001
    13  C    0.005202  -0.000471   0.008302   0.394604  -0.021379   0.002513
    14  N   -0.000071  -0.000001  -0.001667  -0.029900  -0.000418   0.000115
    15  C    0.005905  -0.000484  -0.023009   0.002522   0.008670   0.392332
    16  N   -0.000046  -0.000001  -0.000516   0.000154  -0.001619  -0.028936
    17  C   -0.022320   0.002577   0.006225  -0.000437   0.006011   0.389279
    18  N   -0.000523   0.000152  -0.000038  -0.000001  -0.001533  -0.028343
               7          8          9         10         11         12
     1  C    0.008680  -0.001752   0.006036  -0.001771  -0.021443  -0.000484
     2  C    0.391264  -0.029651   0.391958  -0.028413   0.002326   0.000123
     3  C    0.004944  -0.000076  -0.022442  -0.000542   0.005355  -0.001697
     4  C   -0.000475  -0.000001   0.002522   0.000160   0.392927  -0.028350
     5  C   -0.022728  -0.000473   0.006558  -0.000041   0.005815  -0.000054
     6  C    0.002291   0.000108  -0.000436  -0.000001  -0.000475  -0.000001
     7  C    4.841631   0.907246  -0.050993   0.002174   0.000107   0.000002
     8  N    0.907246   6.107227   0.001856   0.000067   0.000000   0.000000
     9  C   -0.050993   0.001856   4.844777   0.906558  -0.000394   0.000062
    10  N    0.002174   0.000067   0.906558   6.108868   0.000334  -0.000767
    11  C    0.000107   0.000000  -0.000394   0.000334   4.839470   0.914199
    12  N    0.000002   0.000000   0.000062  -0.000767   0.914199   6.089994
    13  C   -0.000013  -0.000000   0.000112   0.000002  -0.052382   0.001941
    14  N   -0.000000  -0.000000   0.000000   0.000000   0.001826   0.000066
    15  C    0.000109   0.000002  -0.000012  -0.000000   0.000115   0.000000
    16  N    0.000000   0.000000  -0.000000  -0.000000   0.000002   0.000000
    17  C   -0.000363   0.000005   0.000112   0.000000  -0.000012  -0.000000
    18  N    0.000334  -0.000736   0.000002   0.000000  -0.000000  -0.000000
              13         14         15         16         17         18
     1  C    0.005202  -0.000071   0.005905  -0.000046  -0.022320  -0.000523
     2  C   -0.000471  -0.000001  -0.000484  -0.000001   0.002577   0.000152
     3  C    0.008302  -0.001667  -0.023009  -0.000516   0.006225  -0.000038
     4  C    0.394604  -0.029900   0.002522   0.000154  -0.000437  -0.000001
     5  C   -0.021379  -0.000418   0.008670  -0.001619   0.006011  -0.001533
     6  C    0.002513   0.000115   0.392332  -0.028936   0.389279  -0.028343
     7  C   -0.000013  -0.000000   0.000109   0.000000  -0.000363   0.000334
     8  N   -0.000000  -0.000000   0.000002   0.000000   0.000005  -0.000736
     9  C    0.000112   0.000000  -0.000012  -0.000000   0.000112   0.000002
    10  N    0.000002   0.000000  -0.000000  -0.000000   0.000000   0.000000
    11  C   -0.052382   0.001826   0.000115   0.000002  -0.000012  -0.000000
    12  N    0.001941   0.000066   0.000000   0.000000  -0.000000  -0.000000
    13  C    4.840433   0.903298  -0.000339   0.000349   0.000109   0.000000
    14  N    0.903298   6.116388   0.000008  -0.000754   0.000002   0.000000
    15  C   -0.000339   0.000008   4.840311   0.902252  -0.048955   0.002053
    16  N    0.000349  -0.000754   0.902252   6.118376   0.002050   0.000061
    17  C    0.000109   0.000002  -0.048955   0.002050   4.840038   0.908569
    18  N    0.000000   0.000000   0.002053   0.000061   0.908569   6.103590
          Atomic-Atomic Spin Densities.
               1          2          3          4          5          6
     1  C   -0.047466  -0.065854   0.036175  -0.005878   0.035222  -0.005717
     2  C   -0.065854   0.376477  -0.006038   0.000970  -0.005978   0.000972
     3  C    0.036175  -0.006038  -0.047214  -0.067542   0.036577  -0.005852
     4  C   -0.005878   0.000970  -0.067542   0.393875  -0.005842   0.000983
     5  C    0.035222  -0.005978   0.036577  -0.005842  -0.047199  -0.066061
     6  C   -0.005717   0.000972  -0.005852   0.000983  -0.066061   0.380220
     7  C    0.000363   0.005085  -0.000145  -0.000014   0.000409  -0.000066
     8  N    0.000481  -0.005345   0.000009  -0.000000   0.000036  -0.000025
     9  C    0.000497   0.004920   0.000344  -0.000065  -0.000154  -0.000014
    10  N    0.000558  -0.005275   0.000035  -0.000030   0.000010  -0.000000
    11  C    0.000350  -0.000073   0.000363   0.004491  -0.000145  -0.000014
    12  N    0.000032  -0.000027   0.000521  -0.005495   0.000009  -0.000000
    13  C   -0.000144  -0.000014   0.000532   0.005164   0.000375  -0.000070
    14  N    0.000009  -0.000000   0.000514  -0.005595   0.000034  -0.000026
    15  C   -0.000135  -0.000015   0.000379  -0.000068   0.000449   0.005098
    16  N    0.000010  -0.000000   0.000037  -0.000031   0.000543  -0.005405
    17  C    0.000354  -0.000070  -0.000138  -0.000014   0.000437   0.004832
    18  N    0.000034  -0.000029   0.000009  -0.000000   0.000523  -0.005305
               7          8          9         10         11         12
     1  C    0.000363   0.000481   0.000497   0.000558   0.000350   0.000032
     2  C    0.005085  -0.005345   0.004920  -0.005275  -0.000073  -0.000027
     3  C   -0.000145   0.000009   0.000344   0.000035   0.000363   0.000521
     4  C   -0.000014  -0.000000  -0.000065  -0.000030   0.004491  -0.005495
     5  C    0.000409   0.000036  -0.000154   0.000010  -0.000145   0.000009
     6  C   -0.000066  -0.000025  -0.000014  -0.000000  -0.000014  -0.000000
     7  C   -0.074376  -0.001608  -0.000335   0.000114  -0.000003   0.000000
     8  N   -0.001608   0.115408   0.000163   0.000009  -0.000000   0.000000
     9  C   -0.000335   0.000163  -0.074976  -0.001625   0.000014   0.000015
    10  N    0.000114   0.000009  -0.001625   0.115652   0.000014   0.000041
    11  C   -0.000003  -0.000000   0.000014   0.000014  -0.075941  -0.001430
    12  N    0.000000   0.000000   0.000015   0.000041  -0.001430   0.117311
    13  C    0.000000  -0.000000  -0.000003   0.000000  -0.000368   0.000139
    14  N   -0.000000   0.000000  -0.000000   0.000000   0.000164   0.000010
    15  C   -0.000003   0.000000   0.000000  -0.000000  -0.000003  -0.000000
    16  N   -0.000000   0.000000  -0.000000   0.000000   0.000000   0.000000
    17  C    0.000016   0.000015  -0.000003  -0.000000   0.000000  -0.000000
    18  N    0.000014   0.000035   0.000000   0.000000  -0.000000   0.000000
              13         14         15         16         17         18
     1  C   -0.000144   0.000009  -0.000135   0.000010   0.000354   0.000034
     2  C   -0.000014  -0.000000  -0.000015  -0.000000  -0.000070  -0.000029
     3  C    0.000532   0.000514   0.000379   0.000037  -0.000138   0.000009
     4  C    0.005164  -0.005595  -0.000068  -0.000031  -0.000014  -0.000000
     5  C    0.000375   0.000034   0.000449   0.000543   0.000437   0.000523
     6  C   -0.000070  -0.000026   0.005098  -0.005405   0.004832  -0.005305
     7  C    0.000000  -0.000000  -0.000003  -0.000000   0.000016   0.000014
     8  N   -0.000000   0.000000   0.000000   0.000000   0.000015   0.000035
     9  C   -0.000003  -0.000000   0.000000  -0.000000  -0.000003   0.000000
    10  N    0.000000   0.000000  -0.000000   0.000000  -0.000000   0.000000
    11  C   -0.000368   0.000164  -0.000003   0.000000   0.000000  -0.000000
    12  N    0.000139   0.000010  -0.000000   0.000000  -0.000000   0.000000
    13  C   -0.079647  -0.001766   0.000016   0.000015  -0.000003  -0.000000
    14  N   -0.001766   0.124619   0.000016   0.000040   0.000000   0.000000
    15  C    0.000016   0.000016  -0.076572  -0.001713  -0.000435   0.000124
    16  N    0.000015   0.000040  -0.001713   0.119038   0.000125   0.000008
    17  C   -0.000003   0.000000  -0.000435   0.000125  -0.074263  -0.001557
    18  N   -0.000000   0.000000   0.000124   0.000008  -0.001557   0.114469
 Mulliken charges and spin densities:
               1          2
     1  C    0.185123  -0.051108
     2  C   -0.378911   0.299708
     3  C    0.175805  -0.051435
     4  C   -0.376098   0.314909
     5  C    0.180713  -0.050755
     6  C   -0.372391   0.303550
     7  C   -0.084211  -0.070548
     8  N    0.016177   0.109177
     9  C   -0.086276  -0.071223
    10  N    0.013372   0.109503
    11  C   -0.087770  -0.072579
    12  N    0.024966   0.111126
    13  C   -0.082279  -0.075772
    14  N    0.011109   0.118021
    15  C   -0.081480  -0.072863
    16  N    0.008629   0.112667
    17  C   -0.082889  -0.070703
    18  N    0.016413   0.108326
 Sum of Mulliken charges =  -1.00000   1.00000
 Mulliken charges and spin densities with hydrogens summed into heavy atoms:
               1          2
     1  C    0.185123  -0.051108
     2  C   -0.378911   0.299708
     3  C    0.175805  -0.051435
     4  C   -0.376098   0.314909
     5  C    0.180713  -0.050755
     6  C   -0.372391   0.303550
     7  C   -0.084211  -0.070548
     8  N    0.016177   0.109177
     9  C   -0.086276  -0.071223
    10  N    0.013372   0.109503
    11  C   -0.087770  -0.072579
    12  N    0.024966   0.111126
    13  C   -0.082279  -0.075772
    14  N    0.011109   0.118021
    15  C   -0.081480  -0.072863
    16  N    0.008629   0.112667
    17  C   -0.082889  -0.070703
    18  N    0.016413   0.108326
 Electronic spatial extent (au):  <R**2>=          38990.9513
 Charge=             -1.0000 electrons
 Dipole moment (field-independent basis, Debye):
    X=             42.7733    Y=              8.2774    Z=             -4.9570  Tot=             43.8480
 Quadrupole moment (field-independent basis, Debye-Ang):
   XX=           -552.0512   YY=           -185.2185   ZZ=           -104.1905
   XY=            -73.0199   XZ=             44.8832   YZ=              1.2375
 Traceless Quadrupole moment (field-independent basis, Debye-Ang):
   XX=           -271.5645   YY=             95.2683   ZZ=            176.2962
   XY=            -73.0199   XZ=             44.8832   YZ=              1.2375
 Octapole moment (field-independent basis, Debye-Ang**2):
  XXX=           7979.9336  YYY=            972.8647  ZZZ=           -311.1795  XYY=           1652.9595
  XXY=            868.9425  XXZ=           -587.6842  XZZ=            932.5706  YZZ=            164.1869
  YYZ=           -160.7313  XYZ=            -12.2857
 Hexadecapole moment (field-independent basis, Debye-Ang**3):
 XXXX=        -116516.5778 YYYY=          -7807.0902 ZZZZ=           -763.5621 XXXY=         -11693.0230
 XXXZ=           8562.7330 YYYX=          -8669.0003 YYYZ=            641.5099 ZZZX=           2799.7349
 ZZZY=            361.0620 XXYY=         -16451.7443 XXZZ=          -9081.8508 YYZZ=           -974.4405
 XXYZ=            270.6578 YYXZ=           1455.0482 ZZXY=          -1466.7069
 N-N= 9.648420999256D+02 E-N=-3.764965676075D+03  KE= 7.772263604303D+02
                          Isotropic Fermi Contact Couplings
        Atom                 a.u.       MegaHertz       Gauss      10(-4) cm-1
     1  C(13)             -0.01751     -19.69005      -7.02590      -6.56789
     2  C(13)              0.04901      55.09595      19.65960      18.37803
     3  C(13)             -0.01807     -20.31045      -7.24728      -6.77484
     4  C(13)              0.05217      58.65431      20.92932      19.56497
     5  C(13)             -0.01761     -19.79786      -7.06437      -6.60385
     6  C(13)              0.05006      56.27599      20.08067      18.77165
     7  C(13)             -0.03181     -35.76291     -12.76109     -11.92922
     8  N(14)              0.02536       8.19470       2.92407       2.73346
     9  C(13)             -0.03197     -35.94134     -12.82476     -11.98874
    10  N(14)              0.02544       8.22115       2.93351       2.74228
    11  C(13)             -0.03298     -37.07833     -13.23047     -12.36800
    12  N(14)              0.02568       8.29823       2.96101       2.76799
    13  C(13)             -0.03388     -38.08354     -13.58915     -12.70330
    14  N(14)              0.02746       8.87118       3.16546       2.95911
    15  C(13)             -0.03257     -36.60952     -13.06319     -12.21162
    16  N(14)              0.02622       8.47120       3.02273       2.82569
    17  C(13)             -0.03211     -36.09341     -12.87903     -12.03947
    18  N(14)              0.02513       8.11829       2.89681       2.70797
 --------------------------------------------------------
       Center         ----  Spin Dipole Couplings  ----
                      3XX-RR        3YY-RR        3ZZ-RR
 --------------------------------------------------------
     1   Atom        0.001431      0.024490     -0.025920
     2   Atom       -0.156250     -0.153642      0.309891
     3   Atom        0.017415      0.005664     -0.023079
     4   Atom       -0.166784     -0.160259      0.327043
     5   Atom        0.018103      0.006084     -0.024187
     6   Atom       -0.160381     -0.156539      0.316920
     7   Atom        0.036119      0.008984     -0.045104
     8   Atom       -0.109406     -0.089912      0.199319
     9   Atom        0.037383      0.007937     -0.045320
    10   Atom       -0.111686     -0.087936      0.199622
    11   Atom        0.035355      0.010722     -0.046078
    12   Atom       -0.111885     -0.092128      0.204013
    13   Atom       -0.002951      0.050947     -0.047996
    14   Atom       -0.090550     -0.123124      0.213674
    15   Atom       -0.002665      0.049268     -0.046603
    16   Atom       -0.086320     -0.120884      0.207204
    17   Atom        0.034068      0.011153     -0.045221
    18   Atom       -0.108427     -0.091507      0.199934
 --------------------------------------------------------
                        XY            XZ            YZ
 --------------------------------------------------------
     1   Atom        0.000044     -0.002030      0.003915
     2   Atom       -0.000323      0.002972     -0.049671
     3   Atom       -0.009864      0.000436      0.003278
     4   Atom        0.000075      0.008667     -0.052010
     5   Atom        0.009872      0.000279      0.003788
     6   Atom       -0.000931     -0.001304     -0.036008
     7   Atom       -0.021639     -0.003374      0.006090
     8   Atom        0.014436      0.008252     -0.032887
     9   Atom        0.021040      0.002256      0.005883
    10   Atom       -0.014143     -0.002871     -0.032481
    11   Atom        0.023281      0.000849      0.005557
    12   Atom       -0.015733      0.004462     -0.031014
    13   Atom        0.001006     -0.000467      0.011228
    14   Atom        0.000021      0.004175     -0.041970
    15   Atom       -0.002199      0.000115      0.007191
    16   Atom        0.001343     -0.001675     -0.023173
    17   Atom       -0.022757     -0.001632      0.004151
    18   Atom        0.015408      0.000360     -0.021206
 --------------------------------------------------------


 ---------------------------------------------------------------------------------
              Anisotropic Spin Dipole Couplings in Principal Axis System
 ---------------------------------------------------------------------------------

       Atom             a.u.   MegaHertz   Gauss  10(-4) cm-1        Axes

              Baa    -0.0264    -3.539    -1.263    -1.180  0.0727 -0.0766  0.9944
     1 C(13)  Bbb     0.0016     0.212     0.076     0.071  0.9973  0.0104 -0.0722
              Bcc     0.0248     3.327     1.187     1.110 -0.0048  0.9970  0.0772
 
              Baa    -0.1589   -21.323    -7.609    -7.113  0.0032  0.9944  0.1053
     2 C(13)  Bbb    -0.1563   -20.970    -7.483    -6.995  1.0000 -0.0025 -0.0066
              Bcc     0.3152    42.293    15.091    14.107  0.0063 -0.1054  0.9944
 
              Baa    -0.0235    -3.155    -1.126    -1.052 -0.0407 -0.1252  0.9913
     3 C(13)  Bbb     0.0005     0.061     0.022     0.020  0.4961  0.8586  0.1288
              Bcc     0.0231     3.094     1.104     1.032  0.8673 -0.4971 -0.0271
 
              Baa    -0.1675   -22.475    -8.020    -7.497  0.8703 -0.4881 -0.0666
     4 C(13)  Bbb    -0.1652   -22.167    -7.910    -7.394  0.4923  0.8665  0.0829
              Bcc     0.3327    44.643    15.930    14.891  0.0172 -0.1049  0.9943
 
              Baa    -0.0247    -3.311    -1.182    -1.104  0.0234 -0.1296  0.9913
     5 C(13)  Bbb     0.0009     0.125     0.045     0.042 -0.4961  0.8594  0.1241
              Bcc     0.0237     3.186     1.137     1.063  0.8680  0.4947  0.0442
 
              Baa    -0.1610   -21.604    -7.709    -7.206  0.8601  0.5085  0.0407
     6 C(13)  Bbb    -0.1587   -21.290    -7.597    -7.101 -0.5101  0.8578  0.0635
              Bcc     0.3196    42.893    15.305    14.308 -0.0026 -0.0754  0.9972
 
              Baa    -0.0458    -6.145    -2.193    -2.050  0.0131 -0.1054  0.9943
     7 C(13)  Bbb    -0.0027    -0.359    -0.128    -0.120  0.4910  0.8669  0.0854
              Bcc     0.0485     6.504     2.321     2.169  0.8710 -0.4871 -0.0631
 
              Baa    -0.1188    -4.582    -1.635    -1.528  0.8551 -0.5130 -0.0752
     8 N(14)  Bbb    -0.0844    -3.253    -1.161    -1.085  0.5181  0.8512  0.0836
              Bcc     0.2032     7.835     2.796     2.613  0.0211 -0.1105  0.9937
 
              Baa    -0.0460    -6.168    -2.201    -2.057  0.0005 -0.1087  0.9941
     9 C(13)  Bbb    -0.0026    -0.351    -0.125    -0.117 -0.4676  0.8787  0.0963
              Bcc     0.0486     6.519     2.326     2.174  0.8839  0.4649  0.0504
 
              Baa    -0.1192    -4.596    -1.640    -1.533  0.8870  0.4585  0.0547
    10 N(14)  Bbb    -0.0841    -3.243    -1.157    -1.082 -0.4617  0.8818  0.0963
              Bcc     0.2033     7.839     2.797     2.615 -0.0041 -0.1107  0.9938
 
              Baa    -0.0466    -6.259    -2.233    -2.088  0.0193 -0.1042  0.9944
    11 C(13)  Bbb    -0.0029    -0.385    -0.137    -0.128 -0.5192  0.8489  0.0990
              Bcc     0.0495     6.644     2.371     2.216  0.8544  0.5182  0.0377
 
              Baa    -0.1210    -4.666    -1.665    -1.557  0.8603  0.5084  0.0367
    12 N(14)  Bbb    -0.0864    -3.330    -1.188    -1.111 -0.5094  0.8548  0.0991
              Bcc     0.2073     7.997     2.853     2.667  0.0190 -0.1040  0.9944
 
              Baa    -0.0493    -6.610    -2.359    -2.205  0.0124 -0.1115  0.9937
    13 C(13)  Bbb    -0.0030    -0.397    -0.142    -0.132  0.9998 -0.0157 -0.0143
              Bcc     0.0522     7.008     2.500     2.337  0.0172  0.9936  0.1112
 
              Baa    -0.1283    -4.948    -1.765    -1.650 -0.0140  0.9924  0.1220
    14 N(14)  Bbb    -0.0906    -3.494    -1.247    -1.166  0.9998  0.0156 -0.0116
              Bcc     0.2189     8.442     3.012     2.816  0.0134 -0.1218  0.9925
 
              Baa    -0.0471    -6.326    -2.257    -2.110 -0.0063 -0.0745  0.9972
    15 C(13)  Bbb    -0.0028    -0.370    -0.132    -0.123  0.9991  0.0409  0.0093
              Bcc     0.0499     6.696     2.389     2.233 -0.0415  0.9964  0.0742
 
              Baa    -0.1226    -4.727    -1.687    -1.577 -0.0337  0.9970  0.0699
    16 N(14)  Bbb    -0.0863    -3.328    -1.188    -1.110  0.9994  0.0332  0.0083
              Bcc     0.2088     8.055     2.874     2.687 -0.0060 -0.0701  0.9975
 
              Baa    -0.0455    -6.109    -2.180    -2.038 -0.0005 -0.0732  0.9973
    17 C(13)  Bbb    -0.0027    -0.362    -0.129    -0.121  0.5273  0.8474  0.0625
              Bcc     0.0482     6.471     2.309     2.159  0.8497 -0.5259 -0.0382
 
              Baa    -0.1179    -4.549    -1.623    -1.517  0.8506 -0.5246 -0.0360
    18 N(14)  Bbb    -0.0835    -3.221    -1.149    -1.075  0.5258  0.8483  0.0628
              Bcc     0.2015     7.770     2.773     2.592 -0.0024 -0.0723  0.9974
 

 ---------------------------------------------------------------------------------

   1 Symmetry operations used in ECPInt.
 ECPInt:  NShTT=    5886 NPrTT=   23670 LenC2=    5404 LenP2D=   14963.
 LDataN:  DoStor=T MaxTD1= 5 Len=  102
 D1PCM: PCM CHGder 1st derivatives, ID1Alg=3 FixD1E=F DoIter=F DoCFld=F I1PDM=0.
 Calling FoFJK, ICntrl=      2127 FMM=F ISym2X=0 I1Cent= 0 IOpClX= 1 NMat=1 NMatS=1 NMatT=0.
 -------------------------------------------------------------------
 Center     Atomic                   Forces (Hartrees/Bohr)
 Number     Number              X              Y              Z
 -------------------------------------------------------------------
      1        6          -0.003197438    0.010429413    0.000417152
      2        6           0.000988672   -0.007103225   -0.000273094
      3        6           0.022388867   -0.013253664   -0.000896218
      4        6          -0.017901453    0.012072135    0.000773578
      5        6          -0.014285295   -0.007478036   -0.000719815
      6        6           0.011086449    0.009255780    0.000677698
      7        6          -0.005748266    0.004330645    0.000906598
      8        7           0.002709293   -0.002799826   -0.000614937
      9        6           0.011870298    0.002927340    0.000433511
     10        7          -0.009013148   -0.003210488   -0.000554741
     11        6          -0.007646026   -0.002691319    0.000313593
     12        7           0.007593028    0.004162212    0.000145182
     13        6           0.001329580   -0.015906211   -0.002188248
     14        7          -0.001118584    0.011995634    0.001716345
     15        6           0.000616971   -0.016173506   -0.001475192
     16        7          -0.000685587    0.013089812    0.000944988
     17        6          -0.000629382    0.002110687    0.000669999
     18        7           0.001642024   -0.001757382   -0.000276397
 -------------------------------------------------------------------
 Cartesian Forces:  Max     0.022388867 RMS     0.007565639

 GradGradGradGradGradGradGradGradGradGradGradGradGradGradGradGradGradGrad
 Berny optimization.
 Search for a local minimum.
 Step number   1 out of a maximum of    2
 All quantities printed in internal units (Hartrees-Bohrs-Radians)
 Second derivative matrix not updated -- first step.
 ITU=  0
     Eigenvalues ---    0.00095   0.00150   0.00192   0.00300   0.00301
     Eigenvalues ---    0.00768   0.01541   0.01720   0.01982   0.02039
     Eigenvalues ---    0.03561   0.04110   0.05333   0.05379   0.10314
     Eigenvalues ---    0.15812   0.21130   0.21595   0.24555   0.24870
     Eigenvalues ---    0.25145   0.26063   0.29291   0.30160   0.30533
     Eigenvalues ---    0.48171   0.77532   0.79224   0.80976   0.93765
     Eigenvalues ---    0.95186   1.03603   1.04290   1.11559   1.57412
     Eigenvalues ---    1.60102   2.04120   2.76198   2.77268   2.77502
     Eigenvalues ---    2.83710   2.83843   2.89025  14.20600  26.81563
     Eigenvalues ---   49.44269  66.71247 228.20355
 Angle between quadratic step and forces=  77.12 degrees.
 Linear search not attempted -- first point.
 B after Tr=    -0.000260    0.000221   -0.000139
         Rot=    1.000000    0.000008   -0.000003   -0.000005 Ang=   0.00 deg.
 Variable       Old X    -DE/DX   Delta X   Delta X   Delta X     New X
                                 (Linear)    (Quad)   (Total)
    X1      -16.89830  -0.00320   0.00000   0.00620   0.00598 -16.89232
    Y1       -1.71852   0.01043   0.00000  -0.00469  -0.00461  -1.72313
    Z1        2.09414   0.00042   0.00000   0.00049   0.00049   2.09463
    X2      -16.91254   0.00099   0.00000   0.00876   0.00851 -16.90403
    Y2        0.88827  -0.00710   0.00000  -0.01720  -0.01713   0.87114
    Z2        2.35165  -0.00027   0.00000   0.00350   0.00346   2.35511
    X3      -15.59419   0.02239   0.00000   0.01264   0.01244 -15.58175
    Y3       -3.99043  -0.01325   0.00000  -0.01035  -0.01027  -4.00070
    Z3        1.85976  -0.00090   0.00000  -0.00425  -0.00423   1.85553
    X4      -13.29897  -0.01790   0.00000  -0.02684  -0.02703 -13.32600
    Y4       -5.31266   0.01207   0.00000   0.01103   0.01113  -5.30152
    Z4        1.70177   0.00077   0.00000  -0.00204  -0.00201   1.69975
    X5      -18.22690  -0.01429   0.00000   0.00784   0.00763 -18.21927
    Y5       -3.99219  -0.00748   0.00000  -0.00822  -0.00817  -4.00036
    Z5        1.88467  -0.00072   0.00000  -0.00348  -0.00344   1.88123
    X6      -20.50828   0.01109   0.00000   0.03190   0.03171 -20.47657
    Y6       -5.31012   0.00926   0.00000   0.00917   0.00920  -5.30092
    Z6        1.77738   0.00068   0.00000  -0.00348  -0.00341   1.77397
    X7      -19.22681  -0.00575   0.00000  -0.00372  -0.00398 -19.23079
    Y7        2.23311   0.00433   0.00000  -0.02262  -0.02257   2.21055
    Z7        2.52427   0.00091   0.00000   0.00279   0.00275   2.52702
    X8      -21.10785   0.00271   0.00000  -0.01507  -0.01534 -21.12319
    Y8        3.35311  -0.00280   0.00000  -0.04575  -0.04571   3.30740
    Z8        2.68156  -0.00061   0.00000  -0.01001  -0.01006   2.67150
    X9      -14.59478   0.01187   0.00000   0.01619   0.01592 -14.57885
    Y9        2.23689   0.00293   0.00000  -0.01718  -0.01707   2.21982
    Z9        2.49386   0.00043   0.00000  -0.01433  -0.01441   2.47945
   X10      -12.64239  -0.00901   0.00000   0.00023  -0.00004 -12.64243
   Y10        3.24312  -0.00321   0.00000  -0.00101  -0.00089   3.24223
   Z10        2.61034  -0.00055   0.00000  -0.02967  -0.02977   2.58057
   X11      -10.96031  -0.00765   0.00000  -0.03181  -0.03201 -10.99232
   Y11       -3.99230  -0.00269   0.00000   0.02253   0.02266  -3.96964
   Z11        1.79138   0.00031   0.00000   0.00722   0.00722   1.79859
   X12       -9.08419   0.00759   0.00000  -0.02825  -0.02847  -9.11266
   Y12       -2.87462   0.00416   0.00000   0.02909   0.02924  -2.84538
   Z12        1.87307   0.00015   0.00000   0.01362   0.01359   1.88666
   X13      -13.29667   0.00133   0.00000  -0.02942  -0.02958 -13.32626
   Y13       -7.97402  -0.01591   0.00000  -0.00042  -0.00031  -7.97433
   Z13        1.40478  -0.00219   0.00000   0.01766   0.01773   1.42251
   X14      -13.27502  -0.00112   0.00000  -0.05077  -0.05091 -13.32593
   Y14      -10.16066   0.01200   0.00000   0.00626   0.00636 -10.15430
   Z14        1.14419   0.00172   0.00000   0.04224   0.04234   1.18653
   X15      -20.48712   0.00062   0.00000   0.02068   0.02052 -20.46661
   Y15       -7.98338  -0.01617   0.00000   0.00410   0.00413  -7.97925
   Z15        1.57767  -0.00148   0.00000  -0.03468  -0.03456   1.54311
   X16      -20.40842  -0.00069   0.00000   0.00693   0.00679 -20.40163
   Y16      -10.17906   0.01309   0.00000   0.01604   0.01606 -10.16299
   Z16        1.41972   0.00094   0.00000  -0.05988  -0.05973   1.35999
   X17      -22.84453  -0.00063   0.00000   0.03911   0.03891 -22.80563
   Y17       -3.97832   0.00211   0.00000   0.01647   0.01647  -3.96185
   Z17        1.87111   0.00067   0.00000   0.02538   0.02545   1.89656
   X18      -24.70838   0.00164   0.00000   0.03920   0.03898 -24.66939
   Y18       -2.82441  -0.00176   0.00000   0.01148   0.01147  -2.81294
   Z18        1.95306  -0.00028   0.00000   0.04853   0.04860   2.00166
         Item               Value     Threshold  Converged?
 Maximum Force            0.022389     0.000450     NO 
 RMS     Force            0.007566     0.000300     NO 
 Maximum Displacement     0.059729     0.001800     NO 
 RMS     Displacement     0.022939     0.001200     NO 
 Predicted change in Energy=-1.044549D-03
 GradGradGradGradGradGradGradGradGradGradGradGradGradGradGradGradGradGrad

 Unable to Open any file for archive entry.
 1\1\GINC-X10P1N4\Force\UwB97XD\def2SVP\C12N6(1-,2)\MAYUMIAO\11-Oct-202
 4\0\\# wb97xd def2svp scrf=(smd,solvent=acetonitrile) g09default scf=(
 xqc,maxcycle=64) force guess=read nosymm\\Title Card\\-1,2\C,-8.942193
 5,-0.90939964,1.10817211\C,-8.94972926,0.47005013,1.24443893\C,-8.2520
 9048,-2.11164514,0.98414335\C,-7.03751125,-2.81133733,0.90053624\C,-9.
 64525992,-2.11257799,0.99732478\C,-10.85251225,-2.80999305,0.94054972\
 C,-10.1743883,1.18171288,1.33578509\N,-11.1697908,1.77439158,1.4190183
 1\C,-7.72322418,1.18371102,1.31969416\N,-6.69006431,1.71618567,1.38133
 328\C,-5.7999449,-2.11263451,0.94795591\N,-4.80714595,-1.52118497,0.99
 11852\C,-7.03629631,-4.21966733,0.74337578\N,-7.02483893,-5.3767923,0.
 60547685\C,-10.84131746,-4.22462225,0.83486919\N,-10.79967049,-5.38652
 421,0.75128139\C,-12.08880676,-2.10523756,0.99014857\N,-13.07510909,-1
 .49461259,1.03351609\\Version=ES64L-G16RevC.01\HF=-784.8602473\S2=0.78
 7319\S2-1=0.\S2A=0.751142\RMSD=5.581e-09\RMSF=7.566e-03\Dipole=-0.0636
 095,0.0157253,-0.0048857\Quadrupole=-201.9015667,70.8296292,131.071937
 5,-54.2884857,33.3695573,0.9200596\PG=C01 [X(C12N6)]\\@
 The archive entry for this job was punched.


 ALTHOUGH J.J. COULD DIAGNOSE THE FAULTS OF AN
 APPARATUS WITH UNCANNY ACCURACY, IT WAS JUST AS
 WELL NOT TO LET HIM HANDLE IT.
   -- GEORGE THOMPSON, ABOUT HIS FATHER
 Job cpu time:       0 days  0 hours 13 minutes 40.6 seconds.
 Elapsed time:       0 days  0 hours  0 minutes 30.8 seconds.
 File lengths (MBytes):  RWF=    173 Int=      0 D2E=      0 Chk=      9 Scr=      1
 Normal termination of Gaussian 16 at Fri Oct 11 16:04:17 2024.
