 Entering Gaussian System, Link 0=g16
 Input=JOBS/41_B.gjf
 Output=JOBS/41_B.log
 Initial command:
 /data/app/gaussian/C01-avx2//g16/l1.exe "/tmp/Gau-2552306.inp" -scrdir="/tmp/"
 Entering Link 1 = /data/app/gaussian/C01-avx2//g16/l1.exe PID=   2552307.
  
 Copyright (c) 1988-2019, Gaussian, Inc.  All Rights Reserved.
  
 This is part of the Gaussian(R) 16 program.  It is based on
 the Gaussian(R) 09 system (copyright 2009, Gaussian, Inc.),
 the Gaussian(R) 03 system (copyright 2003, Gaussian, Inc.),
 the Gaussian(R) 98 system (copyright 1998, Gaussian, Inc.),
 the Gaussian(R) 94 system (copyright 1995, Gaussian, Inc.),
 the Gaussian 92(TM) system (copyright 1992, Gaussian, Inc.),
 the Gaussian 90(TM) system (copyright 1990, Gaussian, Inc.),
 the Gaussian 88(TM) system (copyright 1988, Gaussian, Inc.),
 the Gaussian 86(TM) system (copyright 1986, Carnegie Mellon
 University), and the Gaussian 82(TM) system (copyright 1983,
 Carnegie Mellon University). Gaussian is a federally registered
 trademark of Gaussian, Inc.
  
 This software contains proprietary and confidential information,
 including trade secrets, belonging to Gaussian, Inc.
  
 This software is provided under written license and may be
 used, copied, transmitted, or stored only in accord with that
 written license.
  
 The following legend is applicable only to US Government
 contracts under FAR:
  
                    RESTRICTED RIGHTS LEGEND
  
 Use, reproduction and disclosure by the US Government is
 subject to restrictions as set forth in subparagraphs (a)
 and (c) of the Commercial Computer Software - Restricted
 Rights clause in FAR 52.227-19.
  
 Gaussian, Inc.
 340 Quinnipiac St., Bldg. 40, Wallingford CT 06492
  
  
 ---------------------------------------------------------------
 Warning -- This program may not be used in any manner that
 competes with the business of Gaussian, Inc. or will provide
 assistance to any competitor of Gaussian, Inc.  The licensee
 of this program is prohibited from giving any competitor of
 Gaussian, Inc. access to this program.  By using this program,
 the user acknowledges that Gaussian, Inc. is engaged in the
 business of creating and licensing software in the field of
 computational chemistry and represents and warrants to the
 licensee that it is not a competitor of Gaussian, Inc. and that
 it will not use this program in any manner prohibited above.
 ---------------------------------------------------------------
  

 Cite this work as:
 Gaussian 16, Revision C.01,
 M. J. Frisch, G. W. Trucks, H. B. Schlegel, G. E. Scuseria, 
 M. A. Robb, J. R. Cheeseman, G. Scalmani, V. Barone, 
 G. A. Petersson, H. Nakatsuji, X. Li, M. Caricato, A. V. Marenich, 
 J. Bloino, B. G. Janesko, R. Gomperts, B. Mennucci, H. P. Hratchian, 
 J. V. Ortiz, A. F. Izmaylov, J. L. Sonnenberg, D. Williams-Young, 
 F. Ding, F. Lipparini, F. Egidi, J. Goings, B. Peng, A. Petrone, 
 T. Henderson, D. Ranasinghe, V. G. Zakrzewski, J. Gao, N. Rega, 
 G. Zheng, W. Liang, M. Hada, M. Ehara, K. Toyota, R. Fukuda, 
 J. Hasegawa, M. Ishida, T. Nakajima, Y. Honda, O. Kitao, H. Nakai, 
 T. Vreven, K. Throssell, J. A. Montgomery, Jr., J. E. Peralta, 
 F. Ogliaro, M. J. Bearpark, J. J. Heyd, E. N. Brothers, K. N. Kudin, 
 V. N. Staroverov, T. A. Keith, R. Kobayashi, J. Normand, 
 K. Raghavachari, A. P. Rendell, J. C. Burant, S. S. Iyengar, 
 J. Tomasi, M. Cossi, J. M. Millam, M. Klene, C. Adamo, R. Cammi, 
 J. W. Ochterski, R. L. Martin, K. Morokuma, O. Farkas, 
 J. B. Foresman, and D. J. Fox, Gaussian, Inc., Wallingford CT, 2019.
 
 ******************************************
 Gaussian 16:  ES64L-G16RevC.01  3-Jul-2019
                11-Oct-2024 
 ******************************************
 %chk=b.chk
 %nprocshared=28
 Will use up to   28 processors via shared memory.
 %mem=48gb
 ----------------------------------------------------------------------
 # wb97xd def2svp scrf=(smd,solvent=acetonitrile) g09default scf=(xqc,m
 axcycle=64) force guess=read nosymm
 ----------------------------------------------------------------------
 1/10=7,30=1,38=1,158=3,167=1/1,3;
 2/12=2,15=1,17=6,18=5,40=1/2;
 3/5=43,7=101,11=2,25=1,27=10,30=1,70=32201,71=1,72=2,74=-58,75=-4,116=-2,158=3/1,2,3;
 4/5=1,60=-1/1;
 5/5=2,7=64,8=3,13=1,38=6,53=2,87=10/2,8;
 6/7=2,8=2,9=2,10=2,28=1,87=10/1;
 7/29=1,30=1,87=10/1,2,3,16;
 1/10=7,30=1,158=3,167=1/3;
 99//99;
 Using 2006 physical constants.
 ----------
 Title Card
 ----------
 Symbolic Z-matrix:
 Charge = -1 Multiplicity = 2
 6                    -8.94272  -0.9118    1.10817 
 6                    -8.94987   0.47325   1.24478 
 6                    -8.25291  -2.11119   0.98409 
 6                    -7.0357   -2.81266   0.90046 
 6                    -9.64268  -2.11086   0.99755 
 6                    -10.85573  -2.81185   0.94046 
 6                    -10.17323   1.18486   1.33631 
 7                    -11.17029   1.77401   1.41909 
 6                    -7.72362   1.18628   1.32007 
 7                    -6.69031   1.71537   1.38136 
 6                    -5.79977  -2.11559   0.94773 
 7                    -4.80609  -1.51984   0.99097 
 6                    -7.03399  -4.21914   0.74297 
 7                    -7.02454  -5.3779    0.6049 
 6                    -10.84346  -4.22423   0.83523 
 7                    -10.79999  -5.38695   0.75171 
 6                    -12.08939  -2.10745   0.98975 
 7                    -13.07561  -1.49452   1.0332 
 

 GradGradGradGradGradGradGradGradGradGradGradGradGradGradGradGradGradGrad
 Berny optimization.
 Initialization pass.
 Trust Radius=3.00D-01 FncErr=1.00D-07 GrdErr=1.00D-07 EigMax=2.50D+02 EigMin=1.00D-04
 Number of steps in this run=      2 maximum allowed number of steps=      2.
 GradGradGradGradGradGradGradGradGradGradGradGradGradGradGradGradGradGrad

                          Input orientation:                          
 ---------------------------------------------------------------------
 Center     Atomic      Atomic             Coordinates (Angstroms)
 Number     Number       Type             X           Y           Z
 ---------------------------------------------------------------------
      1          6           0       -8.942722   -0.911797    1.108168
      2          6           0       -8.949866    0.473255    1.244784
      3          6           0       -8.252910   -2.111185    0.984093
      4          6           0       -7.035704   -2.812657    0.900462
      5          6           0       -9.642678   -2.110861    0.997546
      6          6           0      -10.855727   -2.811849    0.940460
      7          6           0      -10.173233    1.184858    1.336314
      8          7           0      -11.170290    1.774006    1.419087
      9          6           0       -7.723618    1.186284    1.320072
     10          7           0       -6.690310    1.715370    1.381359
     11          6           0       -5.799774   -2.115591    0.947734
     12          7           0       -4.806086   -1.519836    0.990967
     13          6           0       -7.033992   -4.219139    0.742970
     14          7           0       -7.024535   -5.377897    0.604900
     15          6           0      -10.843458   -4.224230    0.835235
     16          7           0      -10.799990   -5.386946    0.751707
     17          6           0      -12.089389   -2.107447    0.989751
     18          7           0      -13.075614   -1.494516    1.033196
 ---------------------------------------------------------------------
                    Distance matrix (angstroms):
                    1          2          3          4          5
     1  C    0.000000
     2  C    1.391792   0.000000
     3  C    1.389160   2.689430   0.000000
     4  C    2.700579   3.818349   1.407355   0.000000
     5  C    1.392814   2.686777   1.389832   2.701528   0.000000
     6  C    2.701464   3.810095   2.695827   3.820232   1.402188
     7  C    2.441756   1.418233   3.830874   5.100409   3.355297
     8  N    3.503180   2.579267   4.878015   6.196874   4.195651
     9  C    2.435788   1.420480   3.356536   4.079317   3.828574
    10  N    3.471311   2.582072   4.152357   4.566573   4.848075
    11  C    3.369418   4.088207   2.453410   1.419739   3.843230
    12  N    4.182726   4.605186   3.497190   2.578909   4.872573
    13  C    3.836030   5.093226   2.446911   1.415274   3.363761
    14  N    4.886590   6.192925   3.510569   2.582235   4.205040
    15  C    3.828773   5.081318   3.346350   4.061500   2.436093
    16  N    4.858340   6.165065   4.155987   4.562777   3.483179
    17  C    3.368251   4.072059   3.836485   5.103433   2.446726
    18  N    4.174444   4.575881   4.862218   6.183496   3.488008
                    6          7          8          9         10
     6  C    0.000000
     7  C    4.073838   0.000000
     8  N    4.621482   1.161064   0.000000
     9  C    5.093062   2.449670   3.497824   0.000000
    10  N    6.167722   3.523382   4.480522   1.162503   0.000000
    11  C    5.103674   5.492823   6.647825   3.839556   3.956937
    12  N    6.186275   6.020041   7.178842   3.992916   3.764208
    13  C    4.077392   6.277744   7.313267   5.479711   5.978634
    14  N    4.623336   7.315669   8.306617   6.639929   7.143461
    15  C    1.416349   5.473437   6.035440   6.264354   7.268132
    16  N    2.582607   6.627457   7.201510   7.279729   8.229752
    17  C    1.421455   3.825053   4.011826   5.478844   6.627016
    18  N    2.582995   3.961659   3.802947   5.992733   7.155186
                   11         12         13         14         15
    11  C    0.000000
    12  N    1.159400   0.000000
    13  C    2.447476   3.508747   0.000000
    14  N    3.501459   4.467124   1.166993   0.000000
    15  C    5.467885   6.617240   3.810586   3.996019   0.000000
    16  N    5.978491   7.137133   3.942916   3.778319   1.166522
    17  C    6.289761   7.306968   5.484267   6.041250   2.461096
    18  N    7.302800   8.269674   6.633927   7.202752   3.531720
                   16         17         18
    16  N    0.000000
    17  C    3.531902   0.000000
    18  N    4.517600   1.161985   0.000000
 Symmetry turned off by external request.
 Stoichiometry    C12N6(1-,2)
 Framework group  C1[X(C12N6)]
 Deg. of freedom    48
 Full point group                 C1      NOp   1
 Rotational constants (GHZ):           0.4311450           0.4259865           0.2143111
 Standard basis: def2SVP (5D, 7F)
   252 basis functions,   450 primitive gaussians,   270 cartesian basis functions
    58 alpha electrons       57 beta electrons
       nuclear repulsion energy       964.6273951690 Hartrees.
 NAtoms=   18 NActive=   18 NUniq=   18 SFac= 1.00D+00 NAtFMM=   60 NAOKFM=F Big=F
 Integral buffers will be    131072 words long.
 Raffenetti 2 integral format.
 Two-electron integral symmetry is turned off.
 Nuclear repulsion after empirical dispersion term =      964.6157411860 Hartrees.
 Force PCM accuracy= 1.00D-10.
 ------------------------------------------------------------------------------
 Polarizable Continuum Model (PCM)
 =================================
 Model                : PCM (using non-symmetric T matrix).
 Atomic radii         : SMD-Coulomb.
 Polarization charges : Total charges.
 Charge compensation  : None.
 Solution method      : On-the-fly selection.
 Cavity type          : VdW (van der Waals Surface) (Alpha=1.000).
 Cavity algorithm     : GePol (No added spheres)
                        Default sphere list used, NSphG=   18.
                        Lebedev-Laikov grids with approx.  5.0 points / Ang**2.
                        Smoothing algorithm: York/Karplus (Gamma=1.0000).
                        Polarization charges: spherical gaussians, with
                                              point-specific exponents (IZeta= 3).
                        Self-potential: point-specific (ISelfS= 7).
                        Self-field    : sphere-specific E.n sum rule (ISelfD= 2).
 1st derivatives      : Analytical E(r).r(x)/FMM algorithm (CHGder, D1EAlg=3).
                        Cavity 1st derivative terms included.
 Solvent              : Acetonitrile, Eps=  35.688000 Eps(inf)=   1.806874
 ------------------------------------------------------------------------------
 Spheres list:
 ISph  on   Nord     Re0    Alpha      Xe            Ye            Ze
    1   C      1    1.8500  1.000     -8.942722     -0.911797      1.108168
    2   C      2    1.8500  1.000     -8.949866      0.473255      1.244784
    3   C      3    1.8500  1.000     -8.252910     -2.111185      0.984093
    4   C      4    1.8500  1.000     -7.035704     -2.812657      0.900462
    5   C      5    1.8500  1.000     -9.642678     -2.110861      0.997546
    6   C      6    1.8500  1.000    -10.855727     -2.811849      0.940460
    7   C      7    1.8500  1.000    -10.173233      1.184858      1.336314
    8   N      8    1.8900  1.000    -11.170290      1.774006      1.419087
    9   C      9    1.8500  1.000     -7.723618      1.186284      1.320072
   10   N     10    1.8900  1.000     -6.690310      1.715370      1.381359
   11   C     11    1.8500  1.000     -5.799774     -2.115591      0.947734
   12   N     12    1.8900  1.000     -4.806086     -1.519836      0.990967
   13   C     13    1.8500  1.000     -7.033992     -4.219139      0.742970
   14   N     14    1.8900  1.000     -7.024535     -5.377897      0.604900
   15   C     15    1.8500  1.000    -10.843458     -4.224230      0.835235
   16   N     16    1.8900  1.000    -10.799990     -5.386946      0.751707
   17   C     17    1.8500  1.000    -12.089389     -2.107447      0.989751
   18   N     18    1.8900  1.000    -13.075614     -1.494516      1.033196
 ------------------------------------------------------------------------------
 ------------------------------------------------------------------------------
 Atomic radii for non-electrostatic terms: SMD-CDS.
 ------------------------------------------------------------------------------
 Nuclear repulsion after PCM non-electrostatic terms =      964.6244265470 Hartrees.
 One-electron integrals computed using PRISM.
   1 Symmetry operations used in ECPInt.
 ECPInt:  NShTT=    5886 NPrTT=   23670 LenC2=    5404 LenP2D=   14958.
 LDataN:  DoStor=T MaxTD1= 4 Len=   56
 NBasis=   252 RedAO= T EigKep=  2.00D-04  NBF=   252
 NBsUse=   252 1.00D-06 EigRej= -1.00D+00 NBFU=   252
 Initial guess from the checkpoint file:  "b.chk"
 B after Tr=    -0.000084    0.000161   -0.000401
         Rot=    1.000000   -0.000010   -0.000014   -0.000004 Ang=  -0.00 deg.
 Initial guess <Sx>= 0.0000 <Sy>= 0.0000 <Sz>= 0.5000 <S**2>= 0.7874 S= 0.5185
 Requested convergence on RMS density matrix=1.00D-08 within  64 cycles.
 Requested convergence on MAX density matrix=1.00D-06.
 Requested convergence on             energy=1.00D-06.
 No special actions if energy rises.
 Inv3:  Mode=1 IEnd=    19248267.
 Iteration    1 A*A^-1 deviation from unit magnitude is 4.11D-15 for    727.
 Iteration    1 A*A^-1 deviation from orthogonality  is 3.61D-15 for   1642    927.
 Iteration    1 A^-1*A deviation from unit magnitude is 3.00D-15 for     19.
 Iteration    1 A^-1*A deviation from orthogonality  is 4.51D-12 for   1007    980.
 Error on total polarization charges =  0.01955
 SCF Done:  E(UwB97XD) =  -784.859680834     A.U. after   16 cycles
            NFock= 16  Conv=0.95D-08     -V/T= 2.0098
 <Sx>= 0.0000 <Sy>= 0.0000 <Sz>= 0.5000 <S**2>= 0.7879 S= 0.5188
 <L.S>=  0.00000000000    
 SMD-CDS (non-electrostatic) energy       (kcal/mol) =       5.45
 (included in total energy above)
 Annihilation of the first spin contaminant:
 S**2 before annihilation     0.7879,   after     0.7512
 QCSCF skips out because SCF is already converged.

 **********************************************************************

            Population analysis using the SCF Density.

 **********************************************************************

 Alpha  occ. eigenvalues --  -14.46015 -14.46003 -14.45946 -14.45932 -14.45897
 Alpha  occ. eigenvalues --  -14.45887 -10.38380 -10.38317 -10.38271 -10.38159
 Alpha  occ. eigenvalues --  -10.38129 -10.38013 -10.36170 -10.36169 -10.36136
 Alpha  occ. eigenvalues --  -10.36101 -10.36063 -10.36061  -1.06724  -1.01957
 Alpha  occ. eigenvalues --   -1.01916  -1.01563  -1.00735  -1.00688  -1.00617
 Alpha  occ. eigenvalues --   -0.92046  -0.91933  -0.90096  -0.72222  -0.72135
 Alpha  occ. eigenvalues --   -0.68733  -0.68610  -0.68502  -0.67653  -0.55683
 Alpha  occ. eigenvalues --   -0.50891  -0.50858  -0.49831  -0.49714  -0.47628
 Alpha  occ. eigenvalues --   -0.47523  -0.47512  -0.47022  -0.46805  -0.46782
 Alpha  occ. eigenvalues --   -0.46659  -0.45165  -0.44846  -0.44828  -0.44669
 Alpha  occ. eigenvalues --   -0.44365  -0.44328  -0.42943  -0.42814  -0.42640
 Alpha  occ. eigenvalues --   -0.35245  -0.35159  -0.28099
 Alpha virt. eigenvalues --    0.04715   0.04791   0.06441   0.06842   0.06891
 Alpha virt. eigenvalues --    0.10134   0.10241   0.10443   0.10592   0.12297
 Alpha virt. eigenvalues --    0.12412   0.14494   0.19347   0.19405   0.20935
 Alpha virt. eigenvalues --    0.24904   0.24967   0.25070   0.26288   0.26329
 Alpha virt. eigenvalues --    0.27723   0.31473   0.31558   0.31622   0.33678
 Alpha virt. eigenvalues --    0.33855   0.35144   0.46292   0.46532   0.48590
 Alpha virt. eigenvalues --    0.48982   0.53141   0.53243   0.53298   0.53344
 Alpha virt. eigenvalues --    0.54986   0.55060   0.55985   0.57186   0.59431
 Alpha virt. eigenvalues --    0.60171   0.60228   0.60728   0.61126   0.62697
 Alpha virt. eigenvalues --    0.64042   0.68139   0.69626   0.69682   0.71549
 Alpha virt. eigenvalues --    0.71609   0.72633   0.72762   0.73120   0.73275
 Alpha virt. eigenvalues --    0.73380   0.73517   0.74430   0.74822   0.75647
 Alpha virt. eigenvalues --    0.79469   0.79581   0.79862   0.80978   0.81162
 Alpha virt. eigenvalues --    0.86326   0.86626   0.86941   0.87047   0.92671
 Alpha virt. eigenvalues --    0.92823   0.93021   0.93140   0.93887   0.94084
 Alpha virt. eigenvalues --    0.95755   0.98449   0.98462   0.98941   0.99383
 Alpha virt. eigenvalues --    1.00098   1.00361   1.02679   1.03070   1.03231
 Alpha virt. eigenvalues --    1.05736   1.06353   1.07220   1.07751   1.10416
 Alpha virt. eigenvalues --    1.10497   1.14928   1.16462   1.17869   1.18056
 Alpha virt. eigenvalues --    1.18996   1.22743   1.22752   1.23636   1.33101
 Alpha virt. eigenvalues --    1.36121   1.36172   1.38102   1.38161   1.41283
 Alpha virt. eigenvalues --    1.43460   1.43573   1.45421   1.45897   1.55293
 Alpha virt. eigenvalues --    1.59874   1.65834   1.68272   1.68362   1.68613
 Alpha virt. eigenvalues --    1.68774   1.68874   1.76329   1.76482   1.76676
 Alpha virt. eigenvalues --    1.77006   1.77789   1.79061   1.79140   1.79711
 Alpha virt. eigenvalues --    1.81952   1.82314   1.85137   1.92237   1.92457
 Alpha virt. eigenvalues --    1.93064   1.97595   1.99582   1.99791   2.03211
 Alpha virt. eigenvalues --    2.03432   2.06136   2.07348   2.12752   2.12832
 Alpha virt. eigenvalues --    2.17319   2.19233   2.19860   2.19891   2.26024
 Alpha virt. eigenvalues --    2.26298   2.26844   2.28480   2.32943   2.32998
 Alpha virt. eigenvalues --    2.33172   2.33580   2.33884   2.33992   2.34496
 Alpha virt. eigenvalues --    2.35293   2.35383   2.35655   2.35949   2.36018
 Alpha virt. eigenvalues --    2.37107   2.37319   2.55760   2.61410   2.61954
 Alpha virt. eigenvalues --    2.69678   2.70387   2.92408   2.94187   2.94896
 Alpha virt. eigenvalues --    2.95578   2.97851   2.98533   2.98953   3.02176
 Alpha virt. eigenvalues --    3.04519   3.04881   3.07905   3.08334   3.11480
 Alpha virt. eigenvalues --    3.11635   3.12086   3.22489   3.22881   3.28564
 Alpha virt. eigenvalues --    3.40261   3.40739   3.41941   3.53351   3.56455
 Alpha virt. eigenvalues --    3.56698   3.61242   3.61596   3.74618
  Beta  occ. eigenvalues --  -14.45811 -14.45805 -14.45755 -14.45743 -14.45707
  Beta  occ. eigenvalues --  -14.45693 -10.38418 -10.38355 -10.38312 -10.37798
  Beta  occ. eigenvalues --  -10.37776 -10.37665 -10.36266 -10.36264 -10.36227
  Beta  occ. eigenvalues --  -10.36192 -10.36155 -10.36153  -1.06340  -1.01605
  Beta  occ. eigenvalues --   -1.01562  -1.01209  -1.00408  -1.00347  -1.00280
  Beta  occ. eigenvalues --   -0.91287  -0.91151  -0.89117  -0.72093  -0.72008
  Beta  occ. eigenvalues --   -0.68518  -0.68393  -0.68244  -0.67499  -0.54930
  Beta  occ. eigenvalues --   -0.49723  -0.49631  -0.49597  -0.49520  -0.47264
  Beta  occ. eigenvalues --   -0.47160  -0.47150  -0.46661  -0.46518  -0.46498
  Beta  occ. eigenvalues --   -0.45503  -0.45062  -0.44220  -0.44182  -0.43921
  Beta  occ. eigenvalues --   -0.43873  -0.43847  -0.42797  -0.42674  -0.42496
  Beta  occ. eigenvalues --   -0.32259  -0.32067
  Beta virt. eigenvalues --   -0.10824   0.05382   0.05457   0.06552   0.06942
  Beta virt. eigenvalues --    0.06987   0.10442   0.11175   0.11275   0.11376
  Beta virt. eigenvalues --    0.12343   0.12462   0.14747   0.19545   0.19601
  Beta virt. eigenvalues --    0.22505   0.24868   0.26424   0.26479   0.26557
  Beta virt. eigenvalues --    0.26629   0.27935   0.32041   0.32118   0.32151
  Beta virt. eigenvalues --    0.33763   0.33950   0.35225   0.46415   0.46651
  Beta virt. eigenvalues --    0.48735   0.49046   0.53157   0.53169   0.53294
  Beta virt. eigenvalues --    0.53448   0.55149   0.55209   0.56135   0.57350
  Beta virt. eigenvalues --    0.59355   0.60053   0.60111   0.60741   0.61146
  Beta virt. eigenvalues --    0.62818   0.63909   0.68471   0.69791   0.69833
  Beta virt. eigenvalues --    0.71676   0.71731   0.72773   0.72909   0.73300
  Beta virt. eigenvalues --    0.73473   0.73572   0.73638   0.74562   0.74948
  Beta virt. eigenvalues --    0.75680   0.79576   0.79868   0.80446   0.81725
  Beta virt. eigenvalues --    0.81903   0.86550   0.86747   0.87082   0.87155
  Beta virt. eigenvalues --    0.92858   0.92998   0.93642   0.93742   0.94120
  Beta virt. eigenvalues --    0.94694   0.96471   0.99039   0.99082   0.99201
  Beta virt. eigenvalues --    0.99613   1.00245   1.00502   1.02806   1.03206
  Beta virt. eigenvalues --    1.03374   1.06041   1.06438   1.07549   1.08047
  Beta virt. eigenvalues --    1.10550   1.10622   1.15147   1.16794   1.18118
  Beta virt. eigenvalues --    1.18303   1.19266   1.22968   1.22987   1.24168
  Beta virt. eigenvalues --    1.33254   1.36305   1.36362   1.38664   1.38724
  Beta virt. eigenvalues --    1.42050   1.44164   1.44290   1.45502   1.45969
  Beta virt. eigenvalues --    1.55354   1.59911   1.65670   1.68054   1.68143
  Beta virt. eigenvalues --    1.68384   1.68560   1.68652   1.76491   1.76499
  Beta virt. eigenvalues --    1.76672   1.76866   1.77675   1.78951   1.79028
  Beta virt. eigenvalues --    1.79955   1.81879   1.82242   1.85042   1.92314
  Beta virt. eigenvalues --    1.92483   1.93153   1.97765   2.00171   2.00384
  Beta virt. eigenvalues --    2.03561   2.03787   2.06922   2.07496   2.13278
  Beta virt. eigenvalues --    2.13342   2.17602   2.20335   2.20839   2.20846
  Beta virt. eigenvalues --    2.26571   2.26873   2.27424   2.28970   2.33633
  Beta virt. eigenvalues --    2.33686   2.33828   2.34263   2.34583   2.34677
  Beta virt. eigenvalues --    2.35155   2.35807   2.36001   2.36076   2.36476
  Beta virt. eigenvalues --    2.36534   2.37857   2.38061   2.56218   2.61481
  Beta virt. eigenvalues --    2.62026   2.70097   2.70799   2.92500   2.94352
  Beta virt. eigenvalues --    2.95020   2.95755   2.98015   2.98689   2.99080
  Beta virt. eigenvalues --    3.02682   3.05047   3.05402   3.08066   3.08490
  Beta virt. eigenvalues --    3.11981   3.12144   3.12589   3.22732   3.23129
  Beta virt. eigenvalues --    3.28755   3.40465   3.40939   3.42133   3.53532
  Beta virt. eigenvalues --    3.56636   3.56883   3.61438   3.61790   3.74772
          Condensed to atoms (all electrons):
               1          2          3          4          5          6
     1  C    4.901910   0.542926   0.296616  -0.099300   0.297555  -0.099148
     2  C    0.542926   5.332615  -0.106283  -0.008100  -0.105068  -0.007840
     3  C    0.296616  -0.106283   4.916043   0.536397   0.305336  -0.098961
     4  C   -0.099300  -0.008100   0.536397   5.318839  -0.097469  -0.007562
     5  C    0.297555  -0.105068   0.305336  -0.097469   4.905156   0.538482
     6  C   -0.099148  -0.007840  -0.098961  -0.007562   0.538482   5.317047
     7  C    0.008214   0.391521   0.004980  -0.000467  -0.022681   0.002283
     8  N   -0.001679  -0.029947  -0.000072  -0.000001  -0.000473   0.000112
     9  C    0.005739   0.392395  -0.022230   0.002485   0.006607  -0.000423
    10  N   -0.001704  -0.028694  -0.000540   0.000161  -0.000038  -0.000001
    11  C   -0.021490   0.002330   0.005105   0.392914   0.005860  -0.000466
    12  N   -0.000483   0.000126  -0.001663  -0.028810  -0.000051  -0.000001
    13  C    0.005206  -0.000464   0.008007   0.394136  -0.021439   0.002509
    14  N   -0.000069  -0.000001  -0.001641  -0.030300  -0.000416   0.000117
    15  C    0.005987  -0.000476  -0.022940   0.002524   0.008468   0.392570
    16  N   -0.000043  -0.000001  -0.000507   0.000155  -0.001565  -0.029349
    17  C   -0.022395   0.002577   0.006252  -0.000436   0.005643   0.389726
    18  N   -0.000519   0.000154  -0.000036  -0.000001  -0.001495  -0.028796
               7          8          9         10         11         12
     1  C    0.008214  -0.001679   0.005739  -0.001704  -0.021490  -0.000483
     2  C    0.391521  -0.029947   0.392395  -0.028694   0.002330   0.000126
     3  C    0.004980  -0.000072  -0.022230  -0.000540   0.005105  -0.001663
     4  C   -0.000467  -0.000001   0.002485   0.000161   0.392914  -0.028810
     5  C   -0.022681  -0.000473   0.006607  -0.000038   0.005860  -0.000051
     6  C    0.002283   0.000112  -0.000423  -0.000001  -0.000466  -0.000001
     7  C    4.840006   0.907612  -0.050349   0.002167   0.000107   0.000002
     8  N    0.907612   6.107277   0.001843   0.000066   0.000000   0.000000
     9  C   -0.050349   0.001843   4.842058   0.908005  -0.000388   0.000080
    10  N    0.002167   0.000066   0.908005   6.106841   0.000316  -0.000762
    11  C    0.000107   0.000000  -0.000388   0.000316   4.839839   0.910992
    12  N    0.000002   0.000000   0.000080  -0.000762   0.910992   6.097397
    13  C   -0.000013  -0.000000   0.000111   0.000002  -0.051934   0.001998
    14  N   -0.000000  -0.000000   0.000000   0.000000   0.001877   0.000067
    15  C    0.000109   0.000002  -0.000012  -0.000000   0.000116   0.000000
    16  N    0.000000   0.000000  -0.000000  -0.000000   0.000002   0.000000
    17  C   -0.000358   0.000006   0.000111   0.000000  -0.000012  -0.000000
    18  N    0.000332  -0.000733   0.000002   0.000000  -0.000000  -0.000000
              13         14         15         16         17         18
     1  C    0.005206  -0.000069   0.005987  -0.000043  -0.022395  -0.000519
     2  C   -0.000464  -0.000001  -0.000476  -0.000001   0.002577   0.000154
     3  C    0.008007  -0.001641  -0.022940  -0.000507   0.006252  -0.000036
     4  C    0.394136  -0.030300   0.002524   0.000155  -0.000436  -0.000001
     5  C   -0.021439  -0.000416   0.008468  -0.001565   0.005643  -0.001495
     6  C    0.002509   0.000117   0.392570  -0.029349   0.389726  -0.028796
     7  C   -0.000013  -0.000000   0.000109   0.000000  -0.000358   0.000332
     8  N   -0.000000  -0.000000   0.000002   0.000000   0.000006  -0.000733
     9  C    0.000111   0.000000  -0.000012  -0.000000   0.000111   0.000002
    10  N    0.000002   0.000000  -0.000000  -0.000000   0.000000   0.000000
    11  C   -0.051934   0.001877   0.000116   0.000002  -0.000012  -0.000000
    12  N    0.001998   0.000067   0.000000   0.000000  -0.000000  -0.000000
    13  C    4.840295   0.901612  -0.000340   0.000343   0.000109   0.000000
    14  N    0.901612   6.120581   0.000011  -0.000749   0.000002   0.000000
    15  C   -0.000340   0.000011   4.839510   0.901074  -0.049090   0.002071
    16  N    0.000343  -0.000749   0.901074   6.121197   0.002074   0.000061
    17  C    0.000109   0.000002  -0.049090   0.002074   4.839784   0.907061
    18  N    0.000000   0.000000   0.002071   0.000061   0.907061   6.107117
          Atomic-Atomic Spin Densities.
               1          2          3          4          5          6
     1  C   -0.050283  -0.065081   0.035792  -0.005724   0.035237  -0.005571
     2  C   -0.065081   0.377920  -0.005907   0.000949  -0.005871   0.000956
     3  C    0.035792  -0.005907  -0.048963  -0.066612   0.036394  -0.005718
     4  C   -0.005724   0.000949  -0.066612   0.390372  -0.005731   0.000961
     5  C    0.035237  -0.005871   0.036394  -0.005731  -0.048943  -0.065596
     6  C   -0.005571   0.000956  -0.005718   0.000961  -0.065596   0.381690
     7  C    0.000421   0.004858  -0.000143  -0.000014   0.000407  -0.000064
     8  N    0.000480  -0.005375   0.000009  -0.000000   0.000034  -0.000025
     9  C    0.000538   0.004628   0.000342  -0.000064  -0.000155  -0.000014
    10  N    0.000554  -0.005301   0.000033  -0.000030   0.000010  -0.000000
    11  C    0.000344  -0.000071   0.000470   0.004394  -0.000144  -0.000014
    12  N    0.000030  -0.000027   0.000521  -0.005485   0.000009  -0.000000
    13  C   -0.000142  -0.000014   0.000629   0.004974   0.000369  -0.000067
    14  N    0.000009  -0.000000   0.000510  -0.005578   0.000032  -0.000025
    15  C   -0.000137  -0.000015   0.000377  -0.000069   0.000544   0.004882
    16  N    0.000010  -0.000000   0.000035  -0.000031   0.000544  -0.005468
    17  C    0.000353  -0.000069  -0.000137  -0.000014   0.000530   0.004641
    18  N    0.000032  -0.000029   0.000009  -0.000000   0.000526  -0.005368
               7          8          9         10         11         12
     1  C    0.000421   0.000480   0.000538   0.000554   0.000344   0.000030
     2  C    0.004858  -0.005375   0.004628  -0.005301  -0.000071  -0.000027
     3  C   -0.000143   0.000009   0.000342   0.000033   0.000470   0.000521
     4  C   -0.000014  -0.000000  -0.000064  -0.000030   0.004394  -0.005485
     5  C    0.000407   0.000034  -0.000155   0.000010  -0.000144   0.000009
     6  C   -0.000064  -0.000025  -0.000014  -0.000000  -0.000014  -0.000000
     7  C   -0.074915  -0.001524  -0.000377   0.000114  -0.000003   0.000000
     8  N   -0.001524   0.116337   0.000162   0.000010  -0.000000   0.000000
     9  C   -0.000377   0.000162  -0.075021  -0.001507   0.000014   0.000015
    10  N    0.000114   0.000010  -0.001507   0.115750   0.000015   0.000041
    11  C   -0.000003  -0.000000   0.000014   0.000015  -0.076777  -0.001446
    12  N    0.000000   0.000000   0.000015   0.000041  -0.001446   0.118877
    13  C    0.000000  -0.000000  -0.000003   0.000000  -0.000362   0.000142
    14  N   -0.000000   0.000000  -0.000000   0.000000   0.000168   0.000010
    15  C   -0.000003   0.000000   0.000000  -0.000000  -0.000003  -0.000000
    16  N   -0.000000   0.000000  -0.000000   0.000000   0.000000   0.000000
    17  C    0.000015   0.000015  -0.000003  -0.000000   0.000000  -0.000000
    18  N    0.000014   0.000035   0.000000   0.000000  -0.000000   0.000000
              13         14         15         16         17         18
     1  C   -0.000142   0.000009  -0.000137   0.000010   0.000353   0.000032
     2  C   -0.000014  -0.000000  -0.000015  -0.000000  -0.000069  -0.000029
     3  C    0.000629   0.000510   0.000377   0.000035  -0.000137   0.000009
     4  C    0.004974  -0.005578  -0.000069  -0.000031  -0.000014  -0.000000
     5  C    0.000369   0.000032   0.000544   0.000544   0.000530   0.000526
     6  C   -0.000067  -0.000025   0.004882  -0.005468   0.004641  -0.005368
     7  C    0.000000  -0.000000  -0.000003  -0.000000   0.000015   0.000014
     8  N   -0.000000   0.000000   0.000000   0.000000   0.000015   0.000035
     9  C   -0.000003  -0.000000   0.000000  -0.000000  -0.000003   0.000000
    10  N    0.000000   0.000000  -0.000000   0.000000  -0.000000   0.000000
    11  C   -0.000362   0.000168  -0.000003   0.000000   0.000000  -0.000000
    12  N    0.000142   0.000010  -0.000000   0.000000  -0.000000   0.000000
    13  C   -0.079961  -0.001727   0.000015   0.000015  -0.000003  -0.000000
    14  N   -0.001727   0.125254   0.000017   0.000040   0.000000   0.000000
    15  C    0.000015   0.000017  -0.077704  -0.001673  -0.000438   0.000128
    16  N    0.000015   0.000040  -0.001673   0.121122   0.000129   0.000009
    17  C   -0.000003   0.000000  -0.000438   0.000129  -0.075504  -0.001524
    18  N   -0.000000   0.000000   0.000128   0.000009  -0.001524   0.116723
 Mulliken charges and spin densities:
               1          2
     1  C    0.182676  -0.053137
     2  C   -0.377770   0.301551
     3  C    0.176137  -0.052358
     4  C   -0.375166   0.312299
     5  C    0.177589  -0.051803
     6  C   -0.370298   0.305202
     7  C   -0.083466  -0.071212
     8  N    0.015987   0.110157
     9  C   -0.086034  -0.071445
    10  N    0.014181   0.109688
    11  C   -0.085169  -0.073414
    12  N    0.021109   0.112688
    13  C   -0.080139  -0.076134
    14  N    0.008911   0.118712
    15  C   -0.079584  -0.074078
    16  N    0.007308   0.114734
    17  C   -0.081053  -0.072007
    18  N    0.014781   0.110556
 Sum of Mulliken charges =  -1.00000   1.00000
 Mulliken charges and spin densities with hydrogens summed into heavy atoms:
               1          2
     1  C    0.182676  -0.053137
     2  C   -0.377770   0.301551
     3  C    0.176137  -0.052358
     4  C   -0.375166   0.312299
     5  C    0.177589  -0.051803
     6  C   -0.370298   0.305202
     7  C   -0.083466  -0.071212
     8  N    0.015987   0.110157
     9  C   -0.086034  -0.071445
    10  N    0.014181   0.109688
    11  C   -0.085169  -0.073414
    12  N    0.021109   0.112688
    13  C   -0.080139  -0.076134
    14  N    0.008911   0.118712
    15  C   -0.079584  -0.074078
    16  N    0.007308   0.114734
    17  C   -0.081053  -0.072007
    18  N    0.014781   0.110556
 Electronic spatial extent (au):  <R**2>=          38993.3589
 Charge=             -1.0000 electrons
 Dipole moment (field-independent basis, Debye):
    X=             42.7703    Y=              8.2956    Z=             -4.9539  Tot=             43.8481
 Quadrupole moment (field-independent basis, Debye-Ang):
   XX=           -552.1366   YY=           -185.3170   ZZ=           -104.1930
   XY=            -73.1667   XZ=             44.8577   YZ=              1.2492
 Traceless Quadrupole moment (field-independent basis, Debye-Ang):
   XX=           -271.5877   YY=             95.2319   ZZ=            176.3559
   XY=            -73.1667   XZ=             44.8577   YZ=              1.2492
 Octapole moment (field-independent basis, Debye-Ang**2):
  XXX=           7982.8034  YYY=            973.7608  ZZZ=           -311.1814  XYY=           1653.7998
  XXY=            870.3383  XXZ=           -587.5943  XZZ=            932.5834  YZZ=            164.2527
  YYZ=           -160.7731  XYZ=            -12.3912
 Hexadecapole moment (field-independent basis, Debye-Ang**3):
 XXXX=        -116573.8407 YYYY=          -7813.5802 ZZZZ=           -763.6002 XXXY=         -11707.8703
 XXXZ=           8564.1964 YYYX=          -8676.5699 YYYZ=            642.0636 ZZZX=           2799.7886
 ZZZY=            361.0840 XXYY=         -16460.2719 XXZZ=          -9082.5121 YYZZ=           -974.9635
 XXYZ=            271.7475 YYXZ=           1455.5243 ZZXY=          -1467.2377
 N-N= 9.646244265470D+02 E-N=-3.764499532764D+03  KE= 7.772092105309D+02
                          Isotropic Fermi Contact Couplings
        Atom                 a.u.       MegaHertz       Gauss      10(-4) cm-1
     1  C(13)             -0.01792     -20.14316      -7.18758      -6.71904
     2  C(13)              0.04952      55.67451      19.86605      18.57102
     3  C(13)             -0.01819     -20.45399      -7.29849      -6.82272
     4  C(13)              0.05186      58.29778      20.80210      19.44604
     5  C(13)             -0.01788     -20.09628      -7.17085      -6.70340
     6  C(13)              0.05053      56.80969      20.27111      18.94967
     7  C(13)             -0.03199     -35.96116     -12.83183     -11.99535
     8  N(14)              0.02557       8.26166       2.94797       2.75579
     9  C(13)             -0.03205     -36.03137     -12.85689     -12.01877
    10  N(14)              0.02545       8.22236       2.93394       2.74268
    11  C(13)             -0.03305     -37.15998     -13.25960     -12.39524
    12  N(14)              0.02609       8.42928       3.00778       2.81171
    13  C(13)             -0.03382     -38.02305     -13.56757     -12.68312
    14  N(14)              0.02764       8.92917       3.18615       2.97845
    15  C(13)             -0.03291     -36.99384     -13.20032     -12.33982
    16  N(14)              0.02670       8.62825       3.07877       2.87807
    17  C(13)             -0.03247     -36.50123     -13.02455     -12.17550
    18  N(14)              0.02565       8.28861       2.95758       2.76478
 --------------------------------------------------------
       Center         ----  Spin Dipole Couplings  ----
                      3XX-RR        3YY-RR        3ZZ-RR
 --------------------------------------------------------
     1   Atom        0.002547      0.025149     -0.027697
     2   Atom       -0.157323     -0.154705      0.312029
     3   Atom        0.017973      0.006478     -0.024450
     4   Atom       -0.165451     -0.158933      0.324384
     5   Atom        0.018273      0.006622     -0.024895
     6   Atom       -0.161454     -0.157625      0.319079
     7   Atom        0.036527      0.009018     -0.045546
     8   Atom       -0.110473     -0.090623      0.201097
     9   Atom        0.037567      0.007889     -0.045456
    10   Atom       -0.111960     -0.088116      0.200076
    11   Atom        0.035785      0.010956     -0.046741
    12   Atom       -0.113216     -0.093185      0.206401
    13   Atom       -0.002895      0.051216     -0.048321
    14   Atom       -0.090811     -0.123822      0.214633
    15   Atom       -0.002705      0.050163     -0.047458
    16   Atom       -0.087766     -0.123068      0.210834
    17   Atom        0.034692      0.011460     -0.046152
    18   Atom       -0.110543     -0.093294      0.203838
 --------------------------------------------------------
                        XY            XZ            YZ
 --------------------------------------------------------
     1   Atom        0.000073     -0.002017      0.004140
     2   Atom       -0.000312      0.003025     -0.050014
     3   Atom       -0.009617      0.000441      0.003456
     4   Atom        0.000096      0.008543     -0.051741
     5   Atom        0.009587      0.000269      0.003890
     6   Atom       -0.000888     -0.001367     -0.036148
     7   Atom       -0.021807     -0.003411      0.006150
     8   Atom        0.014516      0.008297     -0.033143
     9   Atom        0.021066      0.002259      0.005895
    10   Atom       -0.014070     -0.002889     -0.032557
    11   Atom        0.023565      0.000843      0.005648
    12   Atom       -0.016175      0.004650     -0.031333
    13   Atom        0.001037     -0.000464      0.011322
    14   Atom       -0.000026      0.004140     -0.042163
    15   Atom       -0.002313      0.000121      0.007307
    16   Atom        0.001407     -0.001761     -0.023556
    17   Atom       -0.023236     -0.001660      0.004227
    18   Atom        0.015808      0.000386     -0.021559
 --------------------------------------------------------


 ---------------------------------------------------------------------------------
              Anisotropic Spin Dipole Couplings in Principal Axis System
 ---------------------------------------------------------------------------------

       Atom             a.u.   MegaHertz   Gauss  10(-4) cm-1        Axes

              Baa    -0.0282    -3.778    -1.348    -1.260  0.0656 -0.0774  0.9948
     1 C(13)  Bbb     0.0027     0.360     0.128     0.120  0.9978  0.0087 -0.0651
              Bcc     0.0255     3.418     1.220     1.140 -0.0037  0.9970  0.0778
 
              Baa    -0.1600   -21.471    -7.661    -7.162 -0.0032  0.9944  0.1054
     2 C(13)  Bbb    -0.1573   -21.114    -7.534    -7.043  1.0000  0.0038 -0.0060
              Bcc     0.3173    42.585    15.195    14.205  0.0064 -0.1054  0.9944
 
              Baa    -0.0249    -3.340    -1.192    -1.114 -0.0373 -0.1207  0.9920
     3 C(13)  Bbb     0.0014     0.191     0.068     0.064  0.4961  0.8595  0.1233
              Bcc     0.0235     3.149     1.124     1.050  0.8675 -0.4967 -0.0278
 
              Baa    -0.1662   -22.297    -7.956    -7.438  0.8695 -0.4894 -0.0668
     4 C(13)  Bbb    -0.1638   -21.986    -7.845    -7.334  0.4936  0.8657  0.0831
              Bcc     0.3300    44.284    15.802    14.771  0.0171 -0.1052  0.9943
 
              Baa    -0.0254    -3.407    -1.216    -1.136  0.0218 -0.1270  0.9917
     5 C(13)  Bbb     0.0016     0.218     0.078     0.073 -0.4969  0.8593  0.1210
              Bcc     0.0238     3.188     1.138     1.064  0.8675  0.4954  0.0444
 
              Baa    -0.1620   -21.744    -7.759    -7.253  0.8626  0.5042  0.0403
     6 C(13)  Bbb    -0.1598   -21.440    -7.650    -7.152 -0.5058  0.8603  0.0635
              Bcc     0.3218    43.184    15.409    14.404 -0.0027 -0.0752  0.9972
 
              Baa    -0.0462    -6.205    -2.214    -2.070  0.0132 -0.1054  0.9943
     7 C(13)  Bbb    -0.0027    -0.361    -0.129    -0.120  0.4899  0.8676  0.0855
              Bcc     0.0489     6.566     2.343     2.190  0.8717 -0.4860 -0.0631
 
              Baa    -0.1198    -4.622    -1.649    -1.542  0.8567 -0.5104 -0.0749
     8 N(14)  Bbb    -0.0851    -3.282    -1.171    -1.095  0.5154  0.8528  0.0838
              Bcc     0.2050     7.905     2.821     2.637  0.0211 -0.1104  0.9937
 
              Baa    -0.0461    -6.186    -2.207    -2.063  0.0005 -0.1087  0.9941
     9 C(13)  Bbb    -0.0026    -0.353    -0.126    -0.118 -0.4662  0.8794  0.0965
              Bcc     0.0487     6.539     2.333     2.181  0.8847  0.4635  0.0502
 
              Baa    -0.1194    -4.604    -1.643    -1.536  0.8880  0.4566  0.0546
    10 N(14)  Bbb    -0.0843    -3.253    -1.161    -1.085 -0.4598  0.8828  0.0964
              Bcc     0.2037     7.857     2.803     2.621 -0.0042 -0.1107  0.9938
 
              Baa    -0.0473    -6.349    -2.266    -2.118  0.0195 -0.1042  0.9944
    11 C(13)  Bbb    -0.0028    -0.379    -0.135    -0.127 -0.5200  0.8484  0.0991
              Bcc     0.0501     6.729     2.401     2.244  0.8540  0.5190  0.0377
 
              Baa    -0.1226    -4.730    -1.688    -1.578  0.8590  0.5106  0.0365
    12 N(14)  Bbb    -0.0871    -3.360    -1.199    -1.121 -0.5116  0.8535  0.0992
              Bcc     0.2098     8.090     2.887     2.699  0.0195 -0.1039  0.9944
 
              Baa    -0.0496    -6.656    -2.375    -2.220  0.0124 -0.1117  0.9937
    13 C(13)  Bbb    -0.0029    -0.390    -0.139    -0.130  0.9998 -0.0162 -0.0143
              Bcc     0.0525     7.046     2.514     2.350  0.0177  0.9936  0.1115
 
              Baa    -0.1290    -4.975    -1.775    -1.660 -0.0125  0.9925  0.1219
    14 N(14)  Bbb    -0.0909    -3.504    -1.250    -1.169  0.9998  0.0141 -0.0116
              Bcc     0.2199     8.480     3.026     2.828  0.0132 -0.1218  0.9925
 
              Baa    -0.0480    -6.442    -2.299    -2.149 -0.0065 -0.0744  0.9972
    15 C(13)  Bbb    -0.0028    -0.376    -0.134    -0.125  0.9991  0.0423  0.0096
              Bcc     0.0508     6.818     2.433     2.274 -0.0429  0.9963  0.0740
 
              Baa    -0.1248    -4.812    -1.717    -1.605 -0.0346  0.9970  0.0698
    16 N(14)  Bbb    -0.0877    -3.384    -1.207    -1.129  0.9994  0.0341  0.0086
              Bcc     0.2125     8.196     2.924     2.734 -0.0062 -0.0701  0.9975
 
              Baa    -0.0465    -6.235    -2.225    -2.080 -0.0005 -0.0730  0.9973
    17 C(13)  Bbb    -0.0027    -0.367    -0.131    -0.122  0.5285  0.8467  0.0622
              Bcc     0.0492     6.601     2.355     2.202  0.8490 -0.5271 -0.0381
 
              Baa    -0.1203    -4.641    -1.656    -1.548  0.8500 -0.5256 -0.0360
    18 N(14)  Bbb    -0.0851    -3.281    -1.171    -1.094  0.5268  0.8477  0.0626
              Bcc     0.2054     7.922     2.827     2.642 -0.0024 -0.0721  0.9974
 

 ---------------------------------------------------------------------------------

   1 Symmetry operations used in ECPInt.
 ECPInt:  NShTT=    5886 NPrTT=   23670 LenC2=    5404 LenP2D=   14958.
 LDataN:  DoStor=T MaxTD1= 5 Len=  102
 D1PCM: PCM CHGder 1st derivatives, ID1Alg=3 FixD1E=F DoIter=F DoCFld=F I1PDM=0.
 Calling FoFJK, ICntrl=      2127 FMM=F ISym2X=0 I1Cent= 0 IOpClX= 1 NMat=1 NMatS=1 NMatT=0.
 -------------------------------------------------------------------
 Center     Atomic                   Forces (Hartrees/Bohr)
 Number     Number              X              Y              Z
 -------------------------------------------------------------------
      1        6          -0.002398845    0.019717498    0.001285846
      2        6           0.001328641   -0.011643986   -0.000692730
      3        6           0.027546375   -0.016087795   -0.001177724
      4        6          -0.020696458    0.013529286    0.000927313
      5        6          -0.022615500   -0.012928946   -0.001174933
      6        6           0.016461648    0.012291720    0.000924650
      7        6          -0.005537969    0.003554694    0.000785842
      8        7           0.001792319   -0.002053528   -0.000505528
      9        6           0.009195270    0.001020243    0.000206404
     10        7          -0.005955081   -0.001474836   -0.000354319
     11        6          -0.000543026    0.002084853    0.000654194
     12        7           0.001624594    0.000438475   -0.000113524
     13        6           0.000870214   -0.020794544   -0.002707210
     14        7          -0.001018680    0.015583967    0.002123087
     15        6           0.000945655   -0.019284822   -0.001716854
     16        7          -0.000813343    0.014812450    0.001071453
     17        6          -0.003870739    0.004326271    0.000840576
     18        7           0.003684925   -0.003091003   -0.000376543
 -------------------------------------------------------------------
 Cartesian Forces:  Max     0.027546375 RMS     0.009422849

 GradGradGradGradGradGradGradGradGradGradGradGradGradGradGradGradGradGrad
 Berny optimization.
 Search for a local minimum.
 Step number   1 out of a maximum of    2
 All quantities printed in internal units (Hartrees-Bohrs-Radians)
 Second derivative matrix not updated -- first step.
 ITU=  0
     Eigenvalues ---    0.00092   0.00107   0.00181   0.00300   0.00300
     Eigenvalues ---    0.00681   0.01527   0.01712   0.01977   0.02003
     Eigenvalues ---    0.02980   0.03912   0.05280   0.05332   0.10244
     Eigenvalues ---    0.14909   0.21044   0.21532   0.24435   0.24845
     Eigenvalues ---    0.24925   0.25788   0.28768   0.29961   0.30133
     Eigenvalues ---    0.37487   0.48335   0.79587   0.79904   0.82127
     Eigenvalues ---    0.92191   0.94758   1.04195   1.04576   1.11834
     Eigenvalues ---    1.57615   1.59951   2.04686   2.75313   2.75438
     Eigenvalues ---    2.79176   2.82739   2.84831   2.85676  13.22816
     Eigenvalues ---   25.82963  47.67644  52.58809
 Angle between quadratic step and forces=  76.51 degrees.
 Linear search not attempted -- first point.
 B after Tr=    -0.000258    0.000217   -0.000183
         Rot=    1.000000    0.000006   -0.000005   -0.000005 Ang=   0.00 deg.
 Variable       Old X    -DE/DX   Delta X   Delta X   Delta X     New X
                                 (Linear)    (Quad)   (Total)
    X1      -16.89929  -0.00240   0.00000   0.00551   0.00529 -16.89400
    Y1       -1.72305   0.01972   0.00000  -0.00054  -0.00047  -1.72352
    Z1        2.09413   0.00129   0.00000   0.00202   0.00201   2.09615
    X2      -16.91279   0.00133   0.00000   0.00877   0.00852 -16.90427
    Y2        0.89432  -0.01164   0.00000  -0.02336  -0.02329   0.87103
    Z2        2.35230  -0.00069   0.00000   0.00375   0.00372   2.35602
    X3      -15.59574   0.02755   0.00000   0.01296   0.01276 -15.58298
    Y3       -3.98956  -0.01609   0.00000  -0.01041  -0.01033  -3.99989
    Z3        1.85967  -0.00118   0.00000  -0.00335  -0.00333   1.85633
    X4      -13.29555  -0.02070   0.00000  -0.03154  -0.03172 -13.32728
    Y4       -5.31515   0.01353   0.00000   0.01395   0.01405  -5.30110
    Z4        1.70163   0.00093   0.00000  -0.00110  -0.00110   1.70053
    X5      -18.22202  -0.02262   0.00000   0.00337   0.00317 -18.21885
    Y5       -3.98895  -0.01293   0.00000  -0.00962  -0.00956  -3.99851
    Z5        1.88509  -0.00117   0.00000  -0.00287  -0.00283   1.88226
    X6      -20.51435   0.01646   0.00000   0.03816   0.03797 -20.47638
    Y6       -5.31362   0.01229   0.00000   0.01307   0.01310  -5.30052
    Z6        1.77721   0.00092   0.00000  -0.00302  -0.00295   1.77426
    X7      -19.22462  -0.00554   0.00000  -0.00585  -0.00611 -19.23073
    Y7        2.23906   0.00355   0.00000  -0.02919  -0.02915   2.20991
    Z7        2.52527   0.00079   0.00000  -0.00127  -0.00129   2.52397
    X8      -21.10879   0.00179   0.00000  -0.01793  -0.01819 -21.12698
    Y8        3.35239  -0.00205   0.00000  -0.05239  -0.05236   3.30002
    Z8        2.68168  -0.00051   0.00000  -0.01053  -0.01055   2.67113
    X9      -14.59552   0.00920   0.00000   0.01811   0.01786 -14.57767
    Y9        2.24175   0.00102   0.00000  -0.02531  -0.02522   2.21654
    Z9        2.49457   0.00021   0.00000  -0.01590  -0.01597   2.47861
   X10      -12.64285  -0.00596   0.00000   0.00469   0.00443 -12.63843
   Y10        3.24158  -0.00147   0.00000  -0.00761  -0.00750   3.23408
   Z10        2.61039  -0.00035   0.00000  -0.03233  -0.03243   2.57796
   X11      -10.95998  -0.00054   0.00000  -0.03439  -0.03459 -10.99457
   Y11       -3.99789   0.00208   0.00000   0.02887   0.02900  -3.96889
   Z11        1.79096   0.00065   0.00000   0.00849   0.00845   1.79941
   X12       -9.08219   0.00162   0.00000  -0.03487  -0.03508  -9.11726
   Y12       -2.87207   0.00044   0.00000   0.03168   0.03182  -2.84025
   Z12        1.87266  -0.00011   0.00000   0.01458   0.01451   1.88717
   X13      -13.29232   0.00087   0.00000  -0.03702  -0.03718 -13.32950
   Y13       -7.97302  -0.02079   0.00000  -0.00051  -0.00041  -7.97343
   Z13        1.40401  -0.00271   0.00000   0.01879   0.01882   1.42283
   X14      -13.27445  -0.00102   0.00000  -0.05876  -0.05891 -13.33335
   Y14      -10.16275   0.01558   0.00000   0.00918   0.00927 -10.15348
   Z14        1.14310   0.00212   0.00000   0.04380   0.04387   1.18696
   X15      -20.49117   0.00095   0.00000   0.02950   0.02934 -20.46183
   Y15       -7.98264  -0.01928   0.00000   0.00502   0.00505  -7.97759
   Z15        1.57836  -0.00172   0.00000  -0.03699  -0.03689   1.54148
   X16      -20.40902  -0.00081   0.00000   0.01691   0.01677 -20.39226
   Y16      -10.17985   0.01481   0.00000   0.01859   0.01861 -10.16124
   Z16        1.42052   0.00107   0.00000  -0.06432  -0.06419   1.35633
   X17      -22.84563  -0.00387   0.00000   0.04240   0.04220 -22.80344
   Y17       -3.98250   0.00433   0.00000   0.02212   0.02213  -3.96037
   Z17        1.87036   0.00084   0.00000   0.02772   0.02780   1.89816
   X18      -24.70933   0.00368   0.00000   0.04367   0.04346 -24.66587
   Y18       -2.82423  -0.00309   0.00000   0.01528   0.01526  -2.80896
   Z18        1.95246  -0.00038   0.00000   0.05225   0.05234   2.00480
         Item               Value     Threshold  Converged?
 Maximum Force            0.027546     0.000450     NO 
 RMS     Force            0.009423     0.000300     NO 
 Maximum Displacement     0.064192     0.001800     NO 
 RMS     Displacement     0.026164     0.001200     NO 
 Predicted change in Energy=-1.553119D-03
 GradGradGradGradGradGradGradGradGradGradGradGradGradGradGradGradGradGrad

 Unable to Open any file for archive entry.
 1\1\GINC-X10P1N4\Force\UwB97XD\def2SVP\C12N6(1-,2)\MAYUMIAO\11-Oct-202
 4\0\\# wb97xd def2svp scrf=(smd,solvent=acetonitrile) g09default scf=(
 xqc,maxcycle=64) force guess=read nosymm\\Title Card\\-1,2\C,-8.942721
 67,-0.91179716,1.10816811\C,-8.94986559,0.47325466,1.24478438\C,-8.252
 9103,-2.11118511,0.98409263\C,-7.03570409,-2.81265677,0.90046155\C,-9.
 64267763,-2.11086121,0.99754553\C,-10.8557266,-2.81184853,0.94045977\C
 ,-10.17323292,1.18485769,1.33631402\N,-11.17028993,1.77400584,1.419086
 58\C,-7.72361752,1.18628396,1.32007185\N,-6.69031006,1.71537017,1.3813
 5922\C,-5.79977372,-2.11559077,0.94773429\N,-4.8060862,-1.51983554,0.9
 9096723\C,-7.03399217,-4.21913924,0.74297009\N,-7.02453524,-5.37789688
 ,0.60490012\C,-10.84345797,-4.22423031,0.83523478\N,-10.79998973,-5.38
 694567,0.75170708\C,-12.08938905,-2.10744651,0.98975143\N,-13.07561377
 ,-1.49451621,1.03319626\\Version=ES64L-G16RevC.01\HF=-784.8596808\S2=0
 .787936\S2-1=0.\S2A=0.751182\RMSD=9.528e-09\RMSF=9.423e-03\Dipole=-0.0
 64796,0.0228622,-0.0036848\Quadrupole=-201.918839,70.802564,131.116275
 ,-54.397624,33.350592,0.9287193\PG=C01 [X(C12N6)]\\@
 The archive entry for this job was punched.


 WE MIGHT AS WELL ATTEMPT TO INTRODUCE A NEW PLANET 
 INTO THE SOLAR SYSTEM, OR TO ANNIHILATE ONE ALREADYIN EXISTENCE, 
 AS TO CREATE OR DESTROY A PARTICLE OF HYDROGEN.
 ALL THE CHANGES WE CAN PRODUCE CONSIST IN SEPARATING PARTICLES
 THAT ARE IN A STATE OF ... COMBINATION, AND JOINING 
 THOSE THAT WERE PREVIOUSLY AT A DISTANCE.

                                    -- JOHN DALTON, 1810
 Job cpu time:       0 days  0 hours 12 minutes 33.1 seconds.
 Elapsed time:       0 days  0 hours  0 minutes 28.3 seconds.
 File lengths (MBytes):  RWF=    173 Int=      0 D2E=      0 Chk=      9 Scr=      1
 Normal termination of Gaussian 16 at Fri Oct 11 16:05:07 2024.
