 Entering Gaussian System, Link 0=g16
 Input=JOBS/43_A.gjf
 Output=JOBS/43_A.log
 Initial command:
 /data/app/gaussian/C01-avx2//g16/l1.exe "/tmp/Gau-2554617.inp" -scrdir="/tmp/"
 Entering Link 1 = /data/app/gaussian/C01-avx2//g16/l1.exe PID=   2554618.
  
 Copyright (c) 1988-2019, Gaussian, Inc.  All Rights Reserved.
  
 This is part of the Gaussian(R) 16 program.  It is based on
 the Gaussian(R) 09 system (copyright 2009, Gaussian, Inc.),
 the Gaussian(R) 03 system (copyright 2003, Gaussian, Inc.),
 the Gaussian(R) 98 system (copyright 1998, Gaussian, Inc.),
 the Gaussian(R) 94 system (copyright 1995, Gaussian, Inc.),
 the Gaussian 92(TM) system (copyright 1992, Gaussian, Inc.),
 the Gaussian 90(TM) system (copyright 1990, Gaussian, Inc.),
 the Gaussian 88(TM) system (copyright 1988, Gaussian, Inc.),
 the Gaussian 86(TM) system (copyright 1986, Carnegie Mellon
 University), and the Gaussian 82(TM) system (copyright 1983,
 Carnegie Mellon University). Gaussian is a federally registered
 trademark of Gaussian, Inc.
  
 This software contains proprietary and confidential information,
 including trade secrets, belonging to Gaussian, Inc.
  
 This software is provided under written license and may be
 used, copied, transmitted, or stored only in accord with that
 written license.
  
 The following legend is applicable only to US Government
 contracts under FAR:
  
                    RESTRICTED RIGHTS LEGEND
  
 Use, reproduction and disclosure by the US Government is
 subject to restrictions as set forth in subparagraphs (a)
 and (c) of the Commercial Computer Software - Restricted
 Rights clause in FAR 52.227-19.
  
 Gaussian, Inc.
 340 Quinnipiac St., Bldg. 40, Wallingford CT 06492
  
  
 ---------------------------------------------------------------
 Warning -- This program may not be used in any manner that
 competes with the business of Gaussian, Inc. or will provide
 assistance to any competitor of Gaussian, Inc.  The licensee
 of this program is prohibited from giving any competitor of
 Gaussian, Inc. access to this program.  By using this program,
 the user acknowledges that Gaussian, Inc. is engaged in the
 business of creating and licensing software in the field of
 computational chemistry and represents and warrants to the
 licensee that it is not a competitor of Gaussian, Inc. and that
 it will not use this program in any manner prohibited above.
 ---------------------------------------------------------------
  

 Cite this work as:
 Gaussian 16, Revision C.01,
 M. J. Frisch, G. W. Trucks, H. B. Schlegel, G. E. Scuseria, 
 M. A. Robb, J. R. Cheeseman, G. Scalmani, V. Barone, 
 G. A. Petersson, H. Nakatsuji, X. Li, M. Caricato, A. V. Marenich, 
 J. Bloino, B. G. Janesko, R. Gomperts, B. Mennucci, H. P. Hratchian, 
 J. V. Ortiz, A. F. Izmaylov, J. L. Sonnenberg, D. Williams-Young, 
 F. Ding, F. Lipparini, F. Egidi, J. Goings, B. Peng, A. Petrone, 
 T. Henderson, D. Ranasinghe, V. G. Zakrzewski, J. Gao, N. Rega, 
 G. Zheng, W. Liang, M. Hada, M. Ehara, K. Toyota, R. Fukuda, 
 J. Hasegawa, M. Ishida, T. Nakajima, Y. Honda, O. Kitao, H. Nakai, 
 T. Vreven, K. Throssell, J. A. Montgomery, Jr., J. E. Peralta, 
 F. Ogliaro, M. J. Bearpark, J. J. Heyd, E. N. Brothers, K. N. Kudin, 
 V. N. Staroverov, T. A. Keith, R. Kobayashi, J. Normand, 
 K. Raghavachari, A. P. Rendell, J. C. Burant, S. S. Iyengar, 
 J. Tomasi, M. Cossi, J. M. Millam, M. Klene, C. Adamo, R. Cammi, 
 J. W. Ochterski, R. L. Martin, K. Morokuma, O. Farkas, 
 J. B. Foresman, and D. J. Fox, Gaussian, Inc., Wallingford CT, 2019.
 
 ******************************************
 Gaussian 16:  ES64L-G16RevC.01  3-Jul-2019
                11-Oct-2024 
 ******************************************
 %chk=a.chk
 %nprocshared=28
 Will use up to   28 processors via shared memory.
 %mem=48gb
 ----------------------------------------------------------------------
 # wb97xd def2svp scrf=(smd,solvent=acetonitrile) g09default scf=(xqc,m
 axcycle=64) force guess=read nosymm
 ----------------------------------------------------------------------
 1/10=7,30=1,38=1,158=3,167=1/1,3;
 2/12=2,15=1,17=6,18=5,40=1/2;
 3/5=43,7=101,11=2,25=1,27=10,30=1,70=32201,71=1,72=2,74=-58,75=-4,116=-2,158=3/1,2,3;
 4/5=1,60=-1/1;
 5/5=2,7=64,8=3,13=1,38=6,53=2,87=10/2,8;
 6/7=2,8=2,9=2,10=2,28=1,87=10/1;
 7/29=1,30=1,87=10/1,2,3,16;
 1/10=7,30=1,158=3,167=1/3;
 99//99;
 Using 2006 physical constants.
 ----------
 Title Card
 ----------
 Symbolic Z-matrix:
 Charge = -2 Multiplicity = 1
 6                    -8.94433  -0.90815   1.10875 
 6                    -8.94868   0.4757    1.24519 
 6                    -8.24898  -2.11512   0.98373 
 6                    -7.03771  -2.8121    0.90057 
 6                    -9.64351  -2.11249   0.99739 
 6                    -10.85677  -2.81165   0.94049 
 6                    -10.17101   1.18914   1.33698 
 7                    -11.17424   1.77479   1.4193 
 6                    -7.72464   1.18925   1.32058 
 7                    -6.6882    1.71605   1.38149 
 6                    -5.79444  -2.11675   0.94772 
 7                    -4.80579  -1.51833   0.99065 
 6                    -7.0296   -4.22112   0.74205 
 7                    -7.02539  -5.38072   0.60411 
 6                    -10.84706  -4.22798   0.8352 
 7                    -10.80012  -5.38772   0.75211 
 6                    -12.09418  -2.10807   0.98969 
 7                    -13.07523  -1.49491   1.03279 
 

 GradGradGradGradGradGradGradGradGradGradGradGradGradGradGradGradGradGrad
 Berny optimization.
 Initialization pass.
 Trust Radius=3.00D-01 FncErr=1.00D-07 GrdErr=1.00D-07 EigMax=2.50D+02 EigMin=1.00D-04
 Number of steps in this run=      2 maximum allowed number of steps=      2.
 GradGradGradGradGradGradGradGradGradGradGradGradGradGradGradGradGradGrad

                          Input orientation:                          
 ---------------------------------------------------------------------
 Center     Atomic      Atomic             Coordinates (Angstroms)
 Number     Number       Type             X           Y           Z
 ---------------------------------------------------------------------
      1          6           0       -8.944331   -0.908151    1.108748
      2          6           0       -8.948677    0.475696    1.245194
      3          6           0       -8.248979   -2.115123    0.983735
      4          6           0       -7.037715   -2.812098    0.900570
      5          6           0       -9.643514   -2.112485    0.997393
      6          6           0      -10.856769   -2.811651    0.940489
      7          6           0      -10.171013    1.189138    1.336983
      8          7           0      -11.174240    1.774785    1.419301
      9          6           0       -7.724642    1.189254    1.320579
     10          7           0       -6.688198    1.716049    1.381493
     11          6           0       -5.794437   -2.116746    0.947722
     12          7           0       -4.805794   -1.518326    0.990651
     13          6           0       -7.029596   -4.221123    0.742048
     14          7           0       -7.025392   -5.380719    0.604110
     15          6           0      -10.847064   -4.227977    0.835201
     16          7           0      -10.800124   -5.387720    0.752114
     17          6           0      -12.094179   -2.108068    0.989687
     18          7           0      -13.075230   -1.494913    1.032787
 ---------------------------------------------------------------------
                    Distance matrix (angstroms):
                    1          2          3          4          5
     1  C    0.000000
     2  C    1.390564   0.000000
     3  C    1.398545   2.696346   0.000000
     4  C    2.702507   3.818394   1.399947   0.000000
     5  C    1.397025   2.691261   1.394605   2.699819   0.000000
     6  C    2.703524   3.813176   2.699554   3.819263   1.401449
     7  C    2.440381   1.418284   3.838899   5.100775   3.360698
     8  N    3.502439   2.582842   4.886538   6.198340   4.199047
     9  C    2.435491   1.418841   3.362633   4.081555   3.832492
    10  N    3.471448   2.582018   4.155975   4.567008   4.851711
    11  C    3.377642   4.093712   2.454806   1.425298   3.849400
    12  N    4.184944   4.604823   3.494530   2.581362   4.874075
    13  C    3.844017   5.098641   2.445515   1.417937   3.368104
    14  N    4.892940   6.197388   3.507905   2.585702   4.206019
    15  C    3.836204   5.088860   3.352053   4.064496   2.439291
    16  N    4.861861   6.168519   4.155945   4.561972   3.482107
    17  C    3.372761   4.078640   3.845212   5.106020   2.450681
    18  N    4.173054   4.577865   4.866186   6.180942   3.487022
                    6          7          8          9         10
     6  C    0.000000
     7  C    4.078454   0.000000
     8  N    4.622277   1.164570   0.000000
     9  C    5.095285   2.446425   3.500331   0.000000
    10  N    6.170214   3.522728   4.486585   1.164234   0.000000
    11  C    5.109809   5.498619   6.656477   3.846342   3.959456
    12  N    6.187852   6.019624   7.182299   3.994936   3.762630
    13  C    4.083289   6.284376   7.320359   5.485432   5.981259
    14  N    4.625226   7.320865   8.311361   6.645813   7.147178
    15  C    1.420266   5.482150   6.039981   6.271482   7.275028
    16  N    2.583568   6.632715   7.203234   7.282741   8.232107
    17  C    1.424301   3.832852   4.013403   5.484038   6.633401
    18  N    2.581450   3.966251   3.801853   5.993026   7.157237
                   11         12         13         14         15
    11  C    0.000000
    12  N    1.156445   0.000000
    13  C    2.448738   3.508876   0.000000
    14  N    3.505259   4.471478   1.167779   0.000000
    15  C    5.477133   6.622938   3.818611   3.998424   0.000000
    16  N    5.982844   7.138704   3.946889   3.777639   1.163663
    17  C    6.299888   7.312206   5.493299   6.045786   2.464382
    18  N    7.307794   8.269576   6.638256   7.203041   3.531770
                   16         17         18
    16  N    0.000000
    17  C    3.533715   0.000000
    18  N    4.517613   1.157703   0.000000
 Symmetry turned off by external request.
 Stoichiometry    C12N6(2-)
 Framework group  C1[X(C12N6)]
 Deg. of freedom    48
 Full point group                 C1      NOp   1
 Rotational constants (GHZ):           0.4305679           0.4254568           0.2140350
 Standard basis: def2SVP (5D, 7F)
   252 basis functions,   450 primitive gaussians,   270 cartesian basis functions
    58 alpha electrons       58 beta electrons
       nuclear repulsion energy       964.0202603126 Hartrees.
 NAtoms=   18 NActive=   18 NUniq=   18 SFac= 1.00D+00 NAtFMM=   60 NAOKFM=F Big=F
 Integral buffers will be    131072 words long.
 Raffenetti 2 integral format.
 Two-electron integral symmetry is turned off.
 Nuclear repulsion after empirical dispersion term =      964.0086242776 Hartrees.
 Force PCM accuracy= 1.00D-10.
 ------------------------------------------------------------------------------
 Polarizable Continuum Model (PCM)
 =================================
 Model                : PCM (using non-symmetric T matrix).
 Atomic radii         : SMD-Coulomb.
 Polarization charges : Total charges.
 Charge compensation  : None.
 Solution method      : On-the-fly selection.
 Cavity type          : VdW (van der Waals Surface) (Alpha=1.000).
 Cavity algorithm     : GePol (No added spheres)
                        Default sphere list used, NSphG=   18.
                        Lebedev-Laikov grids with approx.  5.0 points / Ang**2.
                        Smoothing algorithm: York/Karplus (Gamma=1.0000).
                        Polarization charges: spherical gaussians, with
                                              point-specific exponents (IZeta= 3).
                        Self-potential: point-specific (ISelfS= 7).
                        Self-field    : sphere-specific E.n sum rule (ISelfD= 2).
 1st derivatives      : Analytical E(r).r(x)/FMM algorithm (CHGder, D1EAlg=3).
                        Cavity 1st derivative terms included.
 Solvent              : Acetonitrile, Eps=  35.688000 Eps(inf)=   1.806874
 ------------------------------------------------------------------------------
 Spheres list:
 ISph  on   Nord     Re0    Alpha      Xe            Ye            Ze
    1   C      1    1.8500  1.000     -8.944331     -0.908151      1.108748
    2   C      2    1.8500  1.000     -8.948677      0.475696      1.245194
    3   C      3    1.8500  1.000     -8.248979     -2.115123      0.983735
    4   C      4    1.8500  1.000     -7.037715     -2.812098      0.900570
    5   C      5    1.8500  1.000     -9.643514     -2.112485      0.997393
    6   C      6    1.8500  1.000    -10.856769     -2.811651      0.940489
    7   C      7    1.8500  1.000    -10.171013      1.189138      1.336983
    8   N      8    1.8900  1.000    -11.174240      1.774785      1.419301
    9   C      9    1.8500  1.000     -7.724642      1.189254      1.320579
   10   N     10    1.8900  1.000     -6.688198      1.716049      1.381493
   11   C     11    1.8500  1.000     -5.794437     -2.116746      0.947722
   12   N     12    1.8900  1.000     -4.805794     -1.518326      0.990651
   13   C     13    1.8500  1.000     -7.029596     -4.221123      0.742048
   14   N     14    1.8900  1.000     -7.025392     -5.380719      0.604110
   15   C     15    1.8500  1.000    -10.847064     -4.227977      0.835201
   16   N     16    1.8900  1.000    -10.800124     -5.387720      0.752114
   17   C     17    1.8500  1.000    -12.094179     -2.108068      0.989687
   18   N     18    1.8900  1.000    -13.075230     -1.494913      1.032787
 ------------------------------------------------------------------------------
 ------------------------------------------------------------------------------
 Atomic radii for non-electrostatic terms: SMD-CDS.
 ------------------------------------------------------------------------------
 Nuclear repulsion after PCM non-electrostatic terms =      964.0173057173 Hartrees.
 One-electron integrals computed using PRISM.
   1 Symmetry operations used in ECPInt.
 ECPInt:  NShTT=    5886 NPrTT=   23670 LenC2=    5404 LenP2D=   14953.
 LDataN:  DoStor=T MaxTD1= 4 Len=   56
 NBasis=   252 RedAO= T EigKep=  2.06D-04  NBF=   252
 NBsUse=   252 1.00D-06 EigRej= -1.00D+00 NBFU=   252
 Initial guess from the checkpoint file:  "a.chk"
 B after Tr=     0.000262   -0.001032   -0.000284
         Rot=    1.000000    0.000015   -0.000006    0.000033 Ang=   0.00 deg.
 Requested convergence on RMS density matrix=1.00D-08 within  64 cycles.
 Requested convergence on MAX density matrix=1.00D-06.
 Requested convergence on             energy=1.00D-06.
 No special actions if energy rises.
 Inv3:  Mode=1 IEnd=    19278675.
 Iteration    1 A*A^-1 deviation from unit magnitude is 2.89D-15 for    628.
 Iteration    1 A*A^-1 deviation from orthogonality  is 3.21D-15 for   1188     28.
 Iteration    1 A^-1*A deviation from unit magnitude is 3.00D-15 for    801.
 Iteration    1 A^-1*A deviation from orthogonality  is 1.62D-11 for   1590   1576.
 Error on total polarization charges =  0.02160
 SCF Done:  E(RwB97XD) =  -785.032086522     A.U. after   12 cycles
            NFock= 12  Conv=0.66D-08     -V/T= 2.0098
 SMD-CDS (non-electrostatic) energy       (kcal/mol) =       5.45
 (included in total energy above)
 QCSCF skips out because SCF is already converged.

 **********************************************************************

            Population analysis using the SCF Density.

 **********************************************************************

 Alpha  occ. eigenvalues --  -14.42850 -14.42844 -14.42814 -14.42758 -14.42718
 Alpha  occ. eigenvalues --  -14.42708 -10.35155 -10.35088 -10.35070 -10.33770
 Alpha  occ. eigenvalues --  -10.33768 -10.33763 -10.33711 -10.33663 -10.33641
 Alpha  occ. eigenvalues --  -10.32837 -10.32831 -10.32777  -1.02782  -0.99145
 Alpha  occ. eigenvalues --   -0.99090  -0.98725  -0.98065  -0.97965  -0.97917
 Alpha  occ. eigenvalues --   -0.88227  -0.88024  -0.85998  -0.68780  -0.68649
 Alpha  occ. eigenvalues --   -0.65120  -0.65028  -0.64813  -0.64064  -0.52313
 Alpha  occ. eigenvalues --   -0.47696  -0.47640  -0.46777  -0.46696  -0.45198
 Alpha  occ. eigenvalues --   -0.45084  -0.45070  -0.44543  -0.44219  -0.44193
 Alpha  occ. eigenvalues --   -0.43810  -0.42846  -0.42265  -0.42209  -0.42050
 Alpha  occ. eigenvalues --   -0.41958  -0.41887  -0.40541  -0.40313  -0.40070
 Alpha  occ. eigenvalues --   -0.31524  -0.31425  -0.23635
 Alpha virt. eigenvalues --    0.07331   0.07411   0.08897   0.09236   0.09407
 Alpha virt. eigenvalues --    0.12677   0.12740   0.12924   0.13153   0.14689
 Alpha virt. eigenvalues --    0.14841   0.16322   0.21058   0.21131   0.24108
 Alpha virt. eigenvalues --    0.27487   0.28093   0.28141   0.28490   0.28516
 Alpha virt. eigenvalues --    0.29915   0.33619   0.33718   0.33829   0.36389
 Alpha virt. eigenvalues --    0.36508   0.36998   0.48821   0.48981   0.50614
 Alpha virt. eigenvalues --    0.50811   0.54723   0.54905   0.54959   0.55020
 Alpha virt. eigenvalues --    0.57390   0.57513   0.58062   0.59830   0.61120
 Alpha virt. eigenvalues --    0.61690   0.61797   0.62625   0.62981   0.64906
 Alpha virt. eigenvalues --    0.65468   0.70736   0.71648   0.71713   0.73571
 Alpha virt. eigenvalues --    0.73629   0.74237   0.74491   0.74769   0.75047
 Alpha virt. eigenvalues --    0.75131   0.75171   0.76510   0.76794   0.77535
 Alpha virt. eigenvalues --    0.81599   0.81854   0.82128   0.83449   0.83617
 Alpha virt. eigenvalues --    0.88611   0.88751   0.89189   0.89230   0.94518
 Alpha virt. eigenvalues --    0.94724   0.95076   0.95177   0.96060   0.96151
 Alpha virt. eigenvalues --    0.97944   1.00498   1.00538   1.01198   1.01617
 Alpha virt. eigenvalues --    1.02465   1.02644   1.04942   1.05130   1.05395
 Alpha virt. eigenvalues --    1.08268   1.08517   1.10034   1.10159   1.12552
 Alpha virt. eigenvalues --    1.12969   1.17630   1.18981   1.20118   1.20357
 Alpha virt. eigenvalues --    1.21220   1.24844   1.24880   1.27255   1.34911
 Alpha virt. eigenvalues --    1.38513   1.38608   1.41798   1.41835   1.45071
 Alpha virt. eigenvalues --    1.47100   1.47287   1.47656   1.48002   1.58636
 Alpha virt. eigenvalues --    1.62186   1.68379   1.70644   1.70780   1.70962
 Alpha virt. eigenvalues --    1.71163   1.71260   1.78999   1.79298   1.79399
 Alpha virt. eigenvalues --    1.79538   1.80281   1.81307   1.81481   1.82726
 Alpha virt. eigenvalues --    1.84530   1.84882   1.87511   1.95025   1.95105
 Alpha virt. eigenvalues --    1.95683   2.00202   2.02976   2.03120   2.06038
 Alpha virt. eigenvalues --    2.06345   2.09775   2.10171   2.16033   2.16083
 Alpha virt. eigenvalues --    2.20453   2.23404   2.23535   2.23597   2.29405
 Alpha virt. eigenvalues --    2.30052   2.30379   2.31607   2.35788   2.35916
 Alpha virt. eigenvalues --    2.36167   2.36436   2.36834   2.37013   2.37588
 Alpha virt. eigenvalues --    2.38288   2.38436   2.38635   2.38833   2.38926
 Alpha virt. eigenvalues --    2.40365   2.40508   2.59196   2.64086   2.64665
 Alpha virt. eigenvalues --    2.73284   2.73626   2.94947   2.96972   2.97719
 Alpha virt. eigenvalues --    2.98108   3.00683   3.01117   3.01615   3.05361
 Alpha virt. eigenvalues --    3.07936   3.08010   3.10979   3.11293   3.14324
 Alpha virt. eigenvalues --    3.14637   3.15032   3.25211   3.25412   3.31694
 Alpha virt. eigenvalues --    3.43579   3.43847   3.44648   3.55880   3.58856
 Alpha virt. eigenvalues --    3.59280   3.64490   3.64739   3.78065
          Condensed to atoms (all electrons):
               1          2          3          4          5          6
     1  C    4.948343   0.493621   0.315225  -0.113662   0.319243  -0.110687
     2  C    0.493621   5.552309  -0.117135  -0.007396  -0.117609  -0.006874
     3  C    0.315225  -0.117135   4.957303   0.491286   0.321227  -0.110643
     4  C   -0.113662  -0.007396   0.491286   5.547229  -0.113292  -0.006803
     5  C    0.319243  -0.117609   0.321227  -0.113292   4.958052   0.490014
     6  C   -0.110687  -0.006874  -0.110643  -0.006803   0.490014   5.536911
     7  C    0.012844   0.384622   0.005645  -0.000500  -0.025008   0.002628
     8  N   -0.000950  -0.045031  -0.000066  -0.000001  -0.000579   0.000135
     9  C    0.010931   0.386643  -0.024427   0.002697   0.007414  -0.000458
    10  N   -0.000908  -0.043941  -0.000651   0.000168  -0.000028  -0.000001
    11  C   -0.023046   0.002533   0.009833   0.386182   0.006552  -0.000475
    12  N   -0.000593   0.000143  -0.000915  -0.043562  -0.000045  -0.000001
    13  C    0.005687  -0.000488   0.013118   0.388544  -0.023669   0.002760
    14  N   -0.000066  -0.000001  -0.000897  -0.045223  -0.000533   0.000138
    15  C    0.006891  -0.000484  -0.024928   0.002762   0.013833   0.387460
    16  N   -0.000032  -0.000001  -0.000620   0.000164  -0.000696  -0.044193
    17  C   -0.024423   0.002758   0.007048  -0.000466   0.010691   0.385103
    18  N   -0.000630   0.000165  -0.000028  -0.000001  -0.000673  -0.043762
               7          8          9         10         11         12
     1  C    0.012844  -0.000950   0.010931  -0.000908  -0.023046  -0.000593
     2  C    0.384622  -0.045031   0.386643  -0.043941   0.002533   0.000143
     3  C    0.005645  -0.000066  -0.024427  -0.000651   0.009833  -0.000915
     4  C   -0.000500  -0.000001   0.002697   0.000168   0.386182  -0.043562
     5  C   -0.025008  -0.000579   0.007414  -0.000028   0.006552  -0.000045
     6  C    0.002628   0.000135  -0.000458  -0.000001  -0.000475  -0.000001
     7  C    4.872447   0.922432  -0.050046   0.002798   0.000118   0.000002
     8  N    0.922432   6.163849   0.002512   0.000088   0.000000   0.000000
     9  C   -0.050046   0.002512   4.872782   0.923909  -0.000417   0.000036
    10  N    0.002798   0.000088   0.923909   6.160154   0.000333  -0.000870
    11  C    0.000118   0.000000  -0.000417   0.000333   4.867273   0.933561
    12  N    0.000002   0.000000   0.000036  -0.000870   0.933561   6.138563
    13  C   -0.000015  -0.000000   0.000123   0.000003  -0.049477   0.002597
    14  N   -0.000000  -0.000000   0.000000   0.000000   0.002477   0.000088
    15  C    0.000122   0.000002  -0.000014  -0.000000   0.000125   0.000000
    16  N    0.000000   0.000000  -0.000000  -0.000000   0.000002   0.000000
    17  C   -0.000406  -0.000004   0.000124   0.000000  -0.000014  -0.000000
    18  N    0.000279  -0.000836   0.000003   0.000000  -0.000000  -0.000000
              13         14         15         16         17         18
     1  C    0.005687  -0.000066   0.006891  -0.000032  -0.024423  -0.000630
     2  C   -0.000488  -0.000001  -0.000484  -0.000001   0.002758   0.000165
     3  C    0.013118  -0.000897  -0.024928  -0.000620   0.007048  -0.000028
     4  C    0.388544  -0.045223   0.002762   0.000164  -0.000466  -0.000001
     5  C   -0.023669  -0.000533   0.013833  -0.000696   0.010691  -0.000673
     6  C    0.002760   0.000138   0.387460  -0.044193   0.385103  -0.043762
     7  C   -0.000015  -0.000000   0.000122   0.000000  -0.000406   0.000279
     8  N   -0.000000  -0.000000   0.000002   0.000000  -0.000004  -0.000836
     9  C    0.000123   0.000000  -0.000014  -0.000000   0.000124   0.000003
    10  N    0.000003   0.000000  -0.000000  -0.000000   0.000000   0.000000
    11  C   -0.049477   0.002477   0.000125   0.000002  -0.000014  -0.000000
    12  N    0.002597   0.000088   0.000000   0.000000  -0.000000  -0.000000
    13  C    4.869891   0.919711  -0.000372   0.000308   0.000121   0.000000
    14  N    0.919711   6.173315  -0.000008  -0.000857   0.000002   0.000000
    15  C   -0.000372  -0.000008   4.867966   0.922851  -0.049018   0.002507
    16  N    0.000308  -0.000857   0.922851   6.165044   0.002522   0.000078
    17  C    0.000121   0.000002  -0.049018   0.002522   4.867808   0.930011
    18  N    0.000000   0.000000   0.002507   0.000078   0.930011   6.146563
 Mulliken charges:
               1
     1  C    0.162211
     2  C   -0.483832
     3  C    0.159624
     4  C   -0.488125
     5  C    0.155104
     6  C   -0.481253
     7  C   -0.127963
     8  N   -0.041551
     9  C   -0.131812
    10  N   -0.041054
    11  C   -0.135559
    12  N   -0.029004
    13  C   -0.128841
    14  N   -0.048145
    15  C   -0.129695
    16  N   -0.044571
    17  C   -0.131859
    18  N   -0.033677
 Sum of Mulliken charges =  -2.00000
 Mulliken charges with hydrogens summed into heavy atoms:
               1
     1  C    0.162211
     2  C   -0.483832
     3  C    0.159624
     4  C   -0.488125
     5  C    0.155104
     6  C   -0.481253
     7  C   -0.127963
     8  N   -0.041551
     9  C   -0.131812
    10  N   -0.041054
    11  C   -0.135559
    12  N   -0.029004
    13  C   -0.128841
    14  N   -0.048145
    15  C   -0.129695
    16  N   -0.044571
    17  C   -0.131859
    18  N   -0.033677
 Electronic spatial extent (au):  <R**2>=          39344.4841
 Charge=             -2.0000 electrons
 Dipole moment (field-independent basis, Debye):
    X=             85.7141    Y=             16.6360    Z=             -9.8877  Tot=             87.8717
 Quadrupole moment (field-independent basis, Debye-Ang):
   XX=           -964.4976   YY=           -228.3046   ZZ=           -113.6128
   XY=           -147.5194   XZ=             89.2332   YZ=              7.3876
 Traceless Quadrupole moment (field-independent basis, Debye-Ang):
   XX=           -529.0259   YY=            207.1671   ZZ=            321.8589
   XY=           -147.5194   XZ=             89.2332   YZ=              7.3876
 Octapole moment (field-independent basis, Debye-Ang**2):
  XXX=          12177.5926  YYY=           1146.7316  ZZZ=           -329.8190  XYY=           2037.2862
  XXY=           1582.1443  XXZ=          -1015.5923  XZZ=           1017.2727  YZZ=            175.5179
  YYZ=           -196.8782  XYZ=            -67.8323
 Hexadecapole moment (field-independent basis, Debye-Ang**3):
 XXXX=        -161253.7328 YYYY=          -8736.0645 ZZZZ=           -804.6493 XXXY=         -18928.2941
 XXXZ=          12930.7151 YYYX=         -10216.5296 YYYZ=            769.5194 ZZZX=           2967.7945
 ZZZY=            379.2253 XXYY=         -20088.4412 XXZZ=          -9895.9189 YYZZ=          -1041.2234
 XXYZ=            812.0810 YYXZ=           1781.6815 ZZXY=          -1568.6325
 N-N= 9.640173057173D+02 E-N=-3.781748479239D+03  KE= 7.773960202690D+02
   1 Symmetry operations used in ECPInt.
 ECPInt:  NShTT=    5886 NPrTT=   23670 LenC2=    5404 LenP2D=   14953.
 LDataN:  DoStor=T MaxTD1= 5 Len=  102
 D1PCM: PCM CHGder 1st derivatives, ID1Alg=3 FixD1E=F DoIter=F DoCFld=F I1PDM=0.
 Calling FoFJK, ICntrl=      2127 FMM=F ISym2X=0 I1Cent= 0 IOpClX= 0 NMat=1 NMatS=1 NMatT=0.
 -------------------------------------------------------------------
 Center     Atomic                   Forces (Hartrees/Bohr)
 Number     Number              X              Y              Z
 -------------------------------------------------------------------
      1        6          -0.000191385   -0.031282592   -0.003453344
      2        6          -0.000277950    0.016756174    0.001906067
      3        6          -0.018333935    0.012935323    0.001740535
      4        6           0.011197585   -0.003549112   -0.000837428
      5        6           0.017534847    0.011017795    0.000859819
      6        6          -0.009656808   -0.004068813   -0.000384831
      7        6           0.000862298    0.000029053    0.000482279
      8        7           0.000325685   -0.001139921   -0.000382253
      9        6           0.000180013   -0.004082714   -0.000309687
     10        7          -0.000680740    0.001434920   -0.000002788
     11        6          -0.023147219   -0.010563842   -0.000309526
     12        7           0.016144820    0.008889561    0.000454149
     13        6           0.000434911   -0.005231648   -0.001070986
     14        7          -0.000738593    0.007422476    0.001136537
     15        6           0.000137951    0.005876117    0.000224950
     16        7          -0.000289635   -0.001852542   -0.000087808
     17        6           0.020138551   -0.010162905   -0.000303667
     18        7          -0.013640397    0.007572670    0.000337982
 -------------------------------------------------------------------
 Cartesian Forces:  Max     0.031282592 RMS     0.008970327

 GradGradGradGradGradGradGradGradGradGradGradGradGradGradGradGradGradGrad
 Berny optimization.
 Search for a local minimum.
 Step number   1 out of a maximum of    2
 All quantities printed in internal units (Hartrees-Bohrs-Radians)
 Second derivative matrix not updated -- first step.
 ITU=  0
     Eigenvalues ---    0.00096   0.00109   0.00181   0.00299   0.00300
     Eigenvalues ---    0.00674   0.01526   0.01708   0.01976   0.02001
     Eigenvalues ---    0.02970   0.03906   0.05275   0.05325   0.10251
     Eigenvalues ---    0.14899   0.20946   0.21466   0.24466   0.24807
     Eigenvalues ---    0.24936   0.25604   0.28658   0.30035   0.30128
     Eigenvalues ---    0.37295   0.48022   0.78847   0.79349   0.81811
     Eigenvalues ---    0.90314   0.93066   1.04119   1.04159   1.11440
     Eigenvalues ---    1.57287   1.59321   2.02831   2.74437   2.76209
     Eigenvalues ---    2.78624   2.81577   2.87363   2.88451  11.55299
     Eigenvalues ---   20.30212  30.43151  34.04195
 Angle between quadratic step and forces=  68.40 degrees.
 Linear search not attempted -- first point.
 B after Tr=    -0.000245    0.000201   -0.000183
         Rot=    1.000000    0.000009   -0.000004   -0.000005 Ang=   0.00 deg.
 Variable       Old X    -DE/DX   Delta X   Delta X   Delta X     New X
                                 (Linear)    (Quad)   (Total)
    X1      -16.90234  -0.00019   0.00000   0.00540   0.00519 -16.89715
    Y1       -1.71616  -0.03128   0.00000  -0.01977  -0.01970  -1.73586
    Z1        2.09523  -0.00345   0.00000   0.00049   0.00046   2.09569
    X2      -16.91055  -0.00028   0.00000   0.00712   0.00688 -16.90367
    Y2        0.89893   0.01676   0.00000   0.00744   0.00751   0.90645
    Z2        2.35308   0.00191   0.00000   0.00735   0.00727   2.36034
    X3      -15.58831  -0.01833   0.00000  -0.00466  -0.00485 -15.59316
    Y3       -3.99700   0.01294   0.00000   0.00194   0.00202  -3.99499
    Z3        1.85899   0.00174   0.00000  -0.00048  -0.00048   1.85851
    X4      -13.29935   0.01120   0.00000   0.00407   0.00389 -13.29546
    Y4       -5.31410  -0.00355   0.00000  -0.00436  -0.00426  -5.31835
    Z4        1.70183  -0.00084   0.00000  -0.00186  -0.00185   1.69998
    X5      -18.22360   0.01753   0.00000   0.01544   0.01525 -18.20835
    Y5       -3.99202   0.01102   0.00000  -0.00019  -0.00014  -3.99216
    Z5        1.88480   0.00086   0.00000  -0.00111  -0.00109   1.88370
    X6      -20.51632  -0.00966   0.00000   0.00689   0.00671 -20.50961
    Y6       -5.31325  -0.00407   0.00000  -0.00363  -0.00361  -5.31686
    Z6        1.77727  -0.00038   0.00000  -0.00377  -0.00372   1.77355
    X7      -19.22043   0.00086   0.00000   0.00502   0.00477 -19.21565
    Y7        2.24715   0.00003   0.00000  -0.00444  -0.00439   2.24276
    Z7        2.52653   0.00048   0.00000   0.01474   0.01465   2.54119
    X8      -21.11625   0.00033   0.00000  -0.00672  -0.00698 -21.12324
    Y8        3.35386  -0.00114   0.00000  -0.02618  -0.02614   3.32771
    Z8        2.68209  -0.00038   0.00000   0.01624   0.01615   2.69824
    X9      -14.59746   0.00018   0.00000   0.00676   0.00651 -14.59094
    Y9        2.24736  -0.00408   0.00000   0.00192   0.00202   2.24939
    Z9        2.49553  -0.00031   0.00000  -0.01328  -0.01340   2.48213
   X10      -12.63886  -0.00068   0.00000  -0.00468  -0.00494 -12.64380
   Y10        3.24286   0.00143   0.00000   0.02644   0.02656   3.26943
   Z10        2.61064  -0.00000   0.00000  -0.02991  -0.03006   2.58058
   X11      -10.94990  -0.02315   0.00000  -0.01836  -0.01855 -10.96845
   Y11       -4.00007  -0.01056   0.00000   0.00122   0.00135  -3.99872
   Z11        1.79093  -0.00031   0.00000   0.00533   0.00529   1.79623
   X12       -9.08163   0.01614   0.00000  -0.00542  -0.00562  -9.08726
   Y12       -2.86922   0.00889   0.00000   0.00684   0.00698  -2.86224
   Z12        1.87206   0.00045   0.00000   0.01027   0.01020   1.88226
   X13      -13.28401   0.00043   0.00000  -0.00084  -0.00099 -13.28500
   Y13       -7.97677  -0.00523   0.00000  -0.00008   0.00001  -7.97676
   Z13        1.40227  -0.00107   0.00000   0.00561   0.00566   1.40793
   X14      -13.27607  -0.00074   0.00000  -0.01855  -0.01868 -13.29475
   Y14      -10.16809   0.00742   0.00000   0.00455   0.00464 -10.16345
   Z14        1.14160   0.00114   0.00000   0.01786   0.01795   1.15955
   X15      -20.49798   0.00014   0.00000  -0.00548  -0.00564 -20.50362
   Y15       -7.98972   0.00588   0.00000   0.00634   0.00636  -7.98336
   Z15        1.57830   0.00022   0.00000  -0.01103  -0.01093   1.56737
   X16      -20.40928  -0.00029   0.00000  -0.02240  -0.02253 -20.43181
   Y16      -10.18131  -0.00185   0.00000   0.00470   0.00472 -10.17660
   Z16        1.42129  -0.00009   0.00000  -0.01825  -0.01811   1.40318
   X17      -22.85469   0.02014   0.00000   0.02684   0.02665 -22.82804
   Y17       -3.98367  -0.01016   0.00000  -0.00229  -0.00228  -3.98595
   Z17        1.87024  -0.00030   0.00000  -0.00043  -0.00038   1.86986
   X18      -24.70860  -0.01364   0.00000   0.01314   0.01294 -24.69566
   Y18       -2.82498   0.00757   0.00000  -0.00164  -0.00166  -2.82663
   Z18        1.95168   0.00034   0.00000   0.00234   0.00239   1.95407
         Item               Value     Threshold  Converged?
 Maximum Force            0.031283     0.000450     NO 
 RMS     Force            0.008970     0.000300     NO 
 Maximum Displacement     0.030064     0.001800     NO 
 RMS     Displacement     0.011609     0.001200     NO 
 Predicted change in Energy=-1.035014D-03
 GradGradGradGradGradGradGradGradGradGradGradGradGradGradGradGradGradGrad

 Unable to Open any file for archive entry.
 1\1\GINC-X10P1N4\Force\RwB97XD\def2SVP\C12N6(2-)\MAYUMIAO\11-Oct-2024\
 0\\# wb97xd def2svp scrf=(smd,solvent=acetonitrile) g09default scf=(xq
 c,maxcycle=64) force guess=read nosymm\\Title Card\\-2,1\C,-8.94433148
 ,-0.90815054,1.10874753\C,-8.9486774,0.4756959,1.24519392\C,-8.2489788
 5,-2.11512333,0.98373491\C,-7.03771451,-2.81209801,0.90057028\C,-9.643
 51414,-2.11248505,0.99739289\C,-10.85676931,-2.81165129,0.94048871\C,-
 10.17101265,1.18913837,1.33698348\N,-11.17423987,1.77478521,1.41930071
 \C,-7.72464245,1.18925351,1.32057897\N,-6.68819838,1.71604927,1.381493
 22\C,-5.79443724,-2.11674647,0.94772167\N,-4.80579401,-1.51832557,0.99
 065129\C,-7.02959562,-4.22112296,0.74204832\N,-7.02539165,-5.38071947,
 0.60410982\C,-10.84706383,-4.22797652,0.83520102\N,-10.80012363,-5.387
 71967,0.75211402\C,-12.09417943,-2.1080676,0.989687\N,-13.07522975,-1.
 49491341,1.03278714\\Version=ES64L-G16RevC.01\HF=-785.0320865\RMSD=6.6
 23e-09\RMSF=8.970e-03\Dipole=-0.061396,0.0632807,0.0004955\Quadrupole=
 -393.3178396,154.0236488,239.2941909,-109.6770316,66.3427287,5.4925331
 \PG=C01 [X(C12N6)]\\@
 The archive entry for this job was punched.


 IN THE LONG RUN, DIGGING FOR TRUTH HAS ALWAYS PROVED NOT ONLY 
 MORE INTERESTING BUT MORE PROFITABLE THAN DIGGING FOR GOLD.

                             -- GEORGE R. HARRISON
 Job cpu time:       0 days  0 hours  9 minutes  9.8 seconds.
 Elapsed time:       0 days  0 hours  0 minutes 20.9 seconds.
 File lengths (MBytes):  RWF=    147 Int=      0 D2E=      0 Chk=      8 Scr=      1
 Normal termination of Gaussian 16 at Fri Oct 11 16:07:10 2024.
