 Entering Gaussian System, Link 0=g16
 Input=JOBS/43_B.gjf
 Output=JOBS/43_B.log
 Initial command:
 /data/app/gaussian/C01-avx2//g16/l1.exe "/tmp/Gau-2554154.inp" -scrdir="/tmp/"
 Entering Link 1 = /data/app/gaussian/C01-avx2//g16/l1.exe PID=   2554155.
  
 Copyright (c) 1988-2019, Gaussian, Inc.  All Rights Reserved.
  
 This is part of the Gaussian(R) 16 program.  It is based on
 the Gaussian(R) 09 system (copyright 2009, Gaussian, Inc.),
 the Gaussian(R) 03 system (copyright 2003, Gaussian, Inc.),
 the Gaussian(R) 98 system (copyright 1998, Gaussian, Inc.),
 the Gaussian(R) 94 system (copyright 1995, Gaussian, Inc.),
 the Gaussian 92(TM) system (copyright 1992, Gaussian, Inc.),
 the Gaussian 90(TM) system (copyright 1990, Gaussian, Inc.),
 the Gaussian 88(TM) system (copyright 1988, Gaussian, Inc.),
 the Gaussian 86(TM) system (copyright 1986, Carnegie Mellon
 University), and the Gaussian 82(TM) system (copyright 1983,
 Carnegie Mellon University). Gaussian is a federally registered
 trademark of Gaussian, Inc.
  
 This software contains proprietary and confidential information,
 including trade secrets, belonging to Gaussian, Inc.
  
 This software is provided under written license and may be
 used, copied, transmitted, or stored only in accord with that
 written license.
  
 The following legend is applicable only to US Government
 contracts under FAR:
  
                    RESTRICTED RIGHTS LEGEND
  
 Use, reproduction and disclosure by the US Government is
 subject to restrictions as set forth in subparagraphs (a)
 and (c) of the Commercial Computer Software - Restricted
 Rights clause in FAR 52.227-19.
  
 Gaussian, Inc.
 340 Quinnipiac St., Bldg. 40, Wallingford CT 06492
  
  
 ---------------------------------------------------------------
 Warning -- This program may not be used in any manner that
 competes with the business of Gaussian, Inc. or will provide
 assistance to any competitor of Gaussian, Inc.  The licensee
 of this program is prohibited from giving any competitor of
 Gaussian, Inc. access to this program.  By using this program,
 the user acknowledges that Gaussian, Inc. is engaged in the
 business of creating and licensing software in the field of
 computational chemistry and represents and warrants to the
 licensee that it is not a competitor of Gaussian, Inc. and that
 it will not use this program in any manner prohibited above.
 ---------------------------------------------------------------
  

 Cite this work as:
 Gaussian 16, Revision C.01,
 M. J. Frisch, G. W. Trucks, H. B. Schlegel, G. E. Scuseria, 
 M. A. Robb, J. R. Cheeseman, G. Scalmani, V. Barone, 
 G. A. Petersson, H. Nakatsuji, X. Li, M. Caricato, A. V. Marenich, 
 J. Bloino, B. G. Janesko, R. Gomperts, B. Mennucci, H. P. Hratchian, 
 J. V. Ortiz, A. F. Izmaylov, J. L. Sonnenberg, D. Williams-Young, 
 F. Ding, F. Lipparini, F. Egidi, J. Goings, B. Peng, A. Petrone, 
 T. Henderson, D. Ranasinghe, V. G. Zakrzewski, J. Gao, N. Rega, 
 G. Zheng, W. Liang, M. Hada, M. Ehara, K. Toyota, R. Fukuda, 
 J. Hasegawa, M. Ishida, T. Nakajima, Y. Honda, O. Kitao, H. Nakai, 
 T. Vreven, K. Throssell, J. A. Montgomery, Jr., J. E. Peralta, 
 F. Ogliaro, M. J. Bearpark, J. J. Heyd, E. N. Brothers, K. N. Kudin, 
 V. N. Staroverov, T. A. Keith, R. Kobayashi, J. Normand, 
 K. Raghavachari, A. P. Rendell, J. C. Burant, S. S. Iyengar, 
 J. Tomasi, M. Cossi, J. M. Millam, M. Klene, C. Adamo, R. Cammi, 
 J. W. Ochterski, R. L. Martin, K. Morokuma, O. Farkas, 
 J. B. Foresman, and D. J. Fox, Gaussian, Inc., Wallingford CT, 2019.
 
 ******************************************
 Gaussian 16:  ES64L-G16RevC.01  3-Jul-2019
                11-Oct-2024 
 ******************************************
 %chk=b.chk
 %nprocshared=28
 Will use up to   28 processors via shared memory.
 %mem=48gb
 ----------------------------------------------------------------------
 # wb97xd def2svp scrf=(smd,solvent=acetonitrile) g09default scf=(xqc,m
 axcycle=64) force guess=read nosymm
 ----------------------------------------------------------------------
 1/10=7,30=1,38=1,158=3,167=1/1,3;
 2/12=2,15=1,17=6,18=5,40=1/2;
 3/5=43,7=101,11=2,25=1,27=10,30=1,70=32201,71=1,72=2,74=-58,75=-4,116=-2,158=3/1,2,3;
 4/5=1,60=-1/1;
 5/5=2,7=64,8=3,13=1,38=6,53=2,87=10/2,8;
 6/7=2,8=2,9=2,10=2,28=1,87=10/1;
 7/29=1,30=1,87=10/1,2,3,16;
 1/10=7,30=1,158=3,167=1/3;
 99//99;
 Using 2006 physical constants.
 ----------
 Title Card
 ----------
 Symbolic Z-matrix:
 Charge = -1 Multiplicity = 2
 6                    -8.94433  -0.90815   1.10875 
 6                    -8.94868   0.4757    1.24519 
 6                    -8.24898  -2.11512   0.98373 
 6                    -7.03771  -2.8121    0.90057 
 6                    -9.64351  -2.11249   0.99739 
 6                    -10.85677  -2.81165   0.94049 
 6                    -10.17101   1.18914   1.33698 
 7                    -11.17424   1.77479   1.4193 
 6                    -7.72464   1.18925   1.32058 
 7                    -6.6882    1.71605   1.38149 
 6                    -5.79444  -2.11675   0.94772 
 7                    -4.80579  -1.51833   0.99065 
 6                    -7.0296   -4.22112   0.74205 
 7                    -7.02539  -5.38072   0.60411 
 6                    -10.84706  -4.22798   0.8352 
 7                    -10.80012  -5.38772   0.75211 
 6                    -12.09418  -2.10807   0.98969 
 7                    -13.07523  -1.49491   1.03279 
 

 GradGradGradGradGradGradGradGradGradGradGradGradGradGradGradGradGradGrad
 Berny optimization.
 Initialization pass.
 Trust Radius=3.00D-01 FncErr=1.00D-07 GrdErr=1.00D-07 EigMax=2.50D+02 EigMin=1.00D-04
 Number of steps in this run=      2 maximum allowed number of steps=      2.
 GradGradGradGradGradGradGradGradGradGradGradGradGradGradGradGradGradGrad

                          Input orientation:                          
 ---------------------------------------------------------------------
 Center     Atomic      Atomic             Coordinates (Angstroms)
 Number     Number       Type             X           Y           Z
 ---------------------------------------------------------------------
      1          6           0       -8.944331   -0.908151    1.108748
      2          6           0       -8.948677    0.475696    1.245194
      3          6           0       -8.248979   -2.115123    0.983735
      4          6           0       -7.037715   -2.812098    0.900570
      5          6           0       -9.643514   -2.112485    0.997393
      6          6           0      -10.856769   -2.811651    0.940489
      7          6           0      -10.171013    1.189138    1.336983
      8          7           0      -11.174240    1.774785    1.419301
      9          6           0       -7.724642    1.189254    1.320579
     10          7           0       -6.688198    1.716049    1.381493
     11          6           0       -5.794437   -2.116746    0.947722
     12          7           0       -4.805794   -1.518326    0.990651
     13          6           0       -7.029596   -4.221123    0.742048
     14          7           0       -7.025392   -5.380719    0.604110
     15          6           0      -10.847064   -4.227977    0.835201
     16          7           0      -10.800124   -5.387720    0.752114
     17          6           0      -12.094179   -2.108068    0.989687
     18          7           0      -13.075230   -1.494913    1.032787
 ---------------------------------------------------------------------
                    Distance matrix (angstroms):
                    1          2          3          4          5
     1  C    0.000000
     2  C    1.390564   0.000000
     3  C    1.398545   2.696346   0.000000
     4  C    2.702507   3.818394   1.399947   0.000000
     5  C    1.397025   2.691261   1.394605   2.699819   0.000000
     6  C    2.703524   3.813176   2.699554   3.819263   1.401449
     7  C    2.440381   1.418284   3.838899   5.100775   3.360698
     8  N    3.502439   2.582842   4.886538   6.198340   4.199047
     9  C    2.435491   1.418841   3.362633   4.081555   3.832492
    10  N    3.471448   2.582018   4.155975   4.567008   4.851711
    11  C    3.377642   4.093712   2.454806   1.425298   3.849400
    12  N    4.184944   4.604823   3.494530   2.581362   4.874075
    13  C    3.844017   5.098641   2.445515   1.417937   3.368104
    14  N    4.892940   6.197388   3.507905   2.585702   4.206019
    15  C    3.836204   5.088860   3.352053   4.064496   2.439291
    16  N    4.861861   6.168519   4.155945   4.561972   3.482107
    17  C    3.372761   4.078640   3.845212   5.106020   2.450681
    18  N    4.173054   4.577865   4.866186   6.180942   3.487022
                    6          7          8          9         10
     6  C    0.000000
     7  C    4.078454   0.000000
     8  N    4.622277   1.164570   0.000000
     9  C    5.095285   2.446425   3.500331   0.000000
    10  N    6.170214   3.522728   4.486585   1.164234   0.000000
    11  C    5.109809   5.498619   6.656477   3.846342   3.959456
    12  N    6.187852   6.019624   7.182299   3.994936   3.762630
    13  C    4.083289   6.284376   7.320359   5.485432   5.981259
    14  N    4.625226   7.320865   8.311361   6.645813   7.147178
    15  C    1.420266   5.482150   6.039981   6.271482   7.275028
    16  N    2.583568   6.632715   7.203234   7.282741   8.232107
    17  C    1.424301   3.832852   4.013403   5.484038   6.633401
    18  N    2.581450   3.966251   3.801853   5.993026   7.157237
                   11         12         13         14         15
    11  C    0.000000
    12  N    1.156445   0.000000
    13  C    2.448738   3.508876   0.000000
    14  N    3.505259   4.471478   1.167779   0.000000
    15  C    5.477133   6.622938   3.818611   3.998424   0.000000
    16  N    5.982844   7.138704   3.946889   3.777639   1.163663
    17  C    6.299888   7.312206   5.493299   6.045786   2.464382
    18  N    7.307794   8.269576   6.638256   7.203041   3.531770
                   16         17         18
    16  N    0.000000
    17  C    3.533715   0.000000
    18  N    4.517613   1.157703   0.000000
 Symmetry turned off by external request.
 Stoichiometry    C12N6(1-,2)
 Framework group  C1[X(C12N6)]
 Deg. of freedom    48
 Full point group                 C1      NOp   1
 Rotational constants (GHZ):           0.4305679           0.4254568           0.2140350
 Standard basis: def2SVP (5D, 7F)
   252 basis functions,   450 primitive gaussians,   270 cartesian basis functions
    58 alpha electrons       57 beta electrons
       nuclear repulsion energy       964.0202603126 Hartrees.
 NAtoms=   18 NActive=   18 NUniq=   18 SFac= 1.00D+00 NAtFMM=   60 NAOKFM=F Big=F
 Integral buffers will be    131072 words long.
 Raffenetti 2 integral format.
 Two-electron integral symmetry is turned off.
 Nuclear repulsion after empirical dispersion term =      964.0086242776 Hartrees.
 Force PCM accuracy= 1.00D-10.
 ------------------------------------------------------------------------------
 Polarizable Continuum Model (PCM)
 =================================
 Model                : PCM (using non-symmetric T matrix).
 Atomic radii         : SMD-Coulomb.
 Polarization charges : Total charges.
 Charge compensation  : None.
 Solution method      : On-the-fly selection.
 Cavity type          : VdW (van der Waals Surface) (Alpha=1.000).
 Cavity algorithm     : GePol (No added spheres)
                        Default sphere list used, NSphG=   18.
                        Lebedev-Laikov grids with approx.  5.0 points / Ang**2.
                        Smoothing algorithm: York/Karplus (Gamma=1.0000).
                        Polarization charges: spherical gaussians, with
                                              point-specific exponents (IZeta= 3).
                        Self-potential: point-specific (ISelfS= 7).
                        Self-field    : sphere-specific E.n sum rule (ISelfD= 2).
 1st derivatives      : Analytical E(r).r(x)/FMM algorithm (CHGder, D1EAlg=3).
                        Cavity 1st derivative terms included.
 Solvent              : Acetonitrile, Eps=  35.688000 Eps(inf)=   1.806874
 ------------------------------------------------------------------------------
 Spheres list:
 ISph  on   Nord     Re0    Alpha      Xe            Ye            Ze
    1   C      1    1.8500  1.000     -8.944331     -0.908151      1.108748
    2   C      2    1.8500  1.000     -8.948677      0.475696      1.245194
    3   C      3    1.8500  1.000     -8.248979     -2.115123      0.983735
    4   C      4    1.8500  1.000     -7.037715     -2.812098      0.900570
    5   C      5    1.8500  1.000     -9.643514     -2.112485      0.997393
    6   C      6    1.8500  1.000    -10.856769     -2.811651      0.940489
    7   C      7    1.8500  1.000    -10.171013      1.189138      1.336983
    8   N      8    1.8900  1.000    -11.174240      1.774785      1.419301
    9   C      9    1.8500  1.000     -7.724642      1.189254      1.320579
   10   N     10    1.8900  1.000     -6.688198      1.716049      1.381493
   11   C     11    1.8500  1.000     -5.794437     -2.116746      0.947722
   12   N     12    1.8900  1.000     -4.805794     -1.518326      0.990651
   13   C     13    1.8500  1.000     -7.029596     -4.221123      0.742048
   14   N     14    1.8900  1.000     -7.025392     -5.380719      0.604110
   15   C     15    1.8500  1.000    -10.847064     -4.227977      0.835201
   16   N     16    1.8900  1.000    -10.800124     -5.387720      0.752114
   17   C     17    1.8500  1.000    -12.094179     -2.108068      0.989687
   18   N     18    1.8900  1.000    -13.075230     -1.494913      1.032787
 ------------------------------------------------------------------------------
 ------------------------------------------------------------------------------
 Atomic radii for non-electrostatic terms: SMD-CDS.
 ------------------------------------------------------------------------------
 Nuclear repulsion after PCM non-electrostatic terms =      964.0173057173 Hartrees.
 One-electron integrals computed using PRISM.
   1 Symmetry operations used in ECPInt.
 ECPInt:  NShTT=    5886 NPrTT=   23670 LenC2=    5404 LenP2D=   14953.
 LDataN:  DoStor=T MaxTD1= 4 Len=   56
 NBasis=   252 RedAO= T EigKep=  2.06D-04  NBF=   252
 NBsUse=   252 1.00D-06 EigRej= -1.00D+00 NBFU=   252
 Initial guess from the checkpoint file:  "b.chk"
 B after Tr=     0.000262   -0.001032   -0.000284
         Rot=    1.000000    0.000015   -0.000006    0.000033 Ang=   0.00 deg.
 Initial guess <Sx>= 0.0000 <Sy>= 0.0000 <Sz>= 0.5000 <S**2>= 0.7881 S= 0.5189
 Requested convergence on RMS density matrix=1.00D-08 within  64 cycles.
 Requested convergence on MAX density matrix=1.00D-06.
 Requested convergence on             energy=1.00D-06.
 No special actions if energy rises.
 Inv3:  Mode=1 IEnd=    19278675.
 Iteration    1 A*A^-1 deviation from unit magnitude is 2.89D-15 for    628.
 Iteration    1 A*A^-1 deviation from orthogonality  is 3.21D-15 for   1188     28.
 Iteration    1 A^-1*A deviation from unit magnitude is 3.00D-15 for    801.
 Iteration    1 A^-1*A deviation from orthogonality  is 2.17D-11 for   1624   1576.
 Error on total polarization charges =  0.01958
 SCF Done:  E(UwB97XD) =  -784.860035946     A.U. after   17 cycles
            NFock= 17  Conv=0.52D-08     -V/T= 2.0099
 <Sx>= 0.0000 <Sy>= 0.0000 <Sz>= 0.5000 <S**2>= 0.7877 S= 0.5187
 <L.S>=  0.00000000000    
 SMD-CDS (non-electrostatic) energy       (kcal/mol) =       5.45
 (included in total energy above)
 Annihilation of the first spin contaminant:
 S**2 before annihilation     0.7877,   after     0.7512
 QCSCF skips out because SCF is already converged.

 **********************************************************************

            Population analysis using the SCF Density.

 **********************************************************************

 Alpha  occ. eigenvalues --  -14.46039 -14.45976 -14.45970 -14.45957 -14.45869
 Alpha  occ. eigenvalues --  -14.45840 -10.38407 -10.38342 -10.38318 -10.38193
 Alpha  occ. eigenvalues --  -10.38179 -10.38014 -10.36200 -10.36139 -10.36134
 Alpha  occ. eigenvalues --  -10.36131 -10.36064 -10.36033  -1.06403  -1.01992
 Alpha  occ. eigenvalues --   -1.01928  -1.01559  -1.00794  -1.00690  -1.00619
 Alpha  occ. eigenvalues --   -0.92063  -0.91925  -0.90019  -0.72231  -0.72111
 Alpha  occ. eigenvalues --   -0.68681  -0.68580  -0.68406  -0.67667  -0.55581
 Alpha  occ. eigenvalues --   -0.50877  -0.50854  -0.49743  -0.49646  -0.47627
 Alpha  occ. eigenvalues --   -0.47520  -0.47516  -0.47023  -0.46780  -0.46774
 Alpha  occ. eigenvalues --   -0.46585  -0.45199  -0.44894  -0.44823  -0.44672
 Alpha  occ. eigenvalues --   -0.44395  -0.44327  -0.42941  -0.42868  -0.42655
 Alpha  occ. eigenvalues --   -0.35279  -0.35243  -0.28012
 Alpha virt. eigenvalues --    0.04667   0.04733   0.06507   0.06818   0.06977
 Alpha virt. eigenvalues --    0.10212   0.10244   0.10344   0.10630   0.12273
 Alpha virt. eigenvalues --    0.12415   0.14482   0.19293   0.19370   0.20882
 Alpha virt. eigenvalues --    0.24776   0.24922   0.25003   0.26252   0.26314
 Alpha virt. eigenvalues --    0.27719   0.31472   0.31515   0.31645   0.33434
 Alpha virt. eigenvalues --    0.33527   0.35061   0.46322   0.46506   0.48669
 Alpha virt. eigenvalues --    0.49074   0.52987   0.53237   0.53277   0.53295
 Alpha virt. eigenvalues --    0.54956   0.55080   0.55851   0.57172   0.59467
 Alpha virt. eigenvalues --    0.60152   0.60255   0.60751   0.61139   0.62755
 Alpha virt. eigenvalues --    0.64007   0.68246   0.69558   0.69634   0.71497
 Alpha virt. eigenvalues --    0.71597   0.72604   0.72740   0.73118   0.73292
 Alpha virt. eigenvalues --    0.73383   0.73501   0.74463   0.74797   0.75479
 Alpha virt. eigenvalues --    0.79439   0.79472   0.79692   0.80987   0.81160
 Alpha virt. eigenvalues --    0.86277   0.86413   0.86728   0.86967   0.92606
 Alpha virt. eigenvalues --    0.92808   0.93026   0.93133   0.93891   0.94099
 Alpha virt. eigenvalues --    0.95698   0.98411   0.98418   0.98973   0.99458
 Alpha virt. eigenvalues --    1.00177   1.00406   1.02489   1.02895   1.03203
 Alpha virt. eigenvalues --    1.05693   1.06236   1.07327   1.07478   1.10301
 Alpha virt. eigenvalues --    1.10650   1.15032   1.16507   1.17780   1.18003
 Alpha virt. eigenvalues --    1.19005   1.22625   1.22700   1.23596   1.32966
 Alpha virt. eigenvalues --    1.35926   1.36006   1.38127   1.38154   1.41318
 Alpha virt. eigenvalues --    1.43553   1.43573   1.45407   1.45885   1.55483
 Alpha virt. eigenvalues --    1.59788   1.65866   1.68240   1.68362   1.68573
 Alpha virt. eigenvalues --    1.68803   1.68863   1.76334   1.76476   1.76604
 Alpha virt. eigenvalues --    1.76897   1.77812   1.78917   1.79116   1.79722
 Alpha virt. eigenvalues --    1.81830   1.82186   1.85099   1.92233   1.92384
 Alpha virt. eigenvalues --    1.92935   1.97622   1.99476   1.99639   2.02946
 Alpha virt. eigenvalues --    2.03265   2.05999   2.06930   2.12428   2.12490
 Alpha virt. eigenvalues --    2.16895   2.19363   2.19672   2.19787   2.25950
 Alpha virt. eigenvalues --    2.26476   2.26815   2.28226   2.32911   2.33023
 Alpha virt. eigenvalues --    2.33120   2.33469   2.33927   2.34092   2.34572
 Alpha virt. eigenvalues --    2.35251   2.35373   2.35656   2.35910   2.35934
 Alpha virt. eigenvalues --    2.37149   2.37271   2.55600   2.60916   2.61506
 Alpha virt. eigenvalues --    2.69587   2.69960   2.92260   2.94200   2.94997
 Alpha virt. eigenvalues --    2.95339   2.97915   2.98372   2.98838   3.02317
 Alpha virt. eigenvalues --    3.04789   3.04838   3.07893   3.08204   3.11204
 Alpha virt. eigenvalues --    3.11490   3.11887   3.22269   3.22468   3.28753
 Alpha virt. eigenvalues --    3.40407   3.40660   3.41733   3.52995   3.55905
 Alpha virt. eigenvalues --    3.56314   3.61478   3.61709   3.74775
  Beta  occ. eigenvalues --  -14.45837 -14.45785 -14.45780 -14.45761 -14.45680
  Beta  occ. eigenvalues --  -14.45654 -10.38444 -10.38380 -10.38357 -10.37835
  Beta  occ. eigenvalues --  -10.37822 -10.37668 -10.36296 -10.36231 -10.36228
  Beta  occ. eigenvalues --  -10.36222 -10.36155 -10.36122  -1.06015  -1.01643
  Beta  occ. eigenvalues --   -1.01578  -1.01209  -1.00462  -1.00352  -1.00291
  Beta  occ. eigenvalues --   -0.91307  -0.91144  -0.89038  -0.72104  -0.71980
  Beta  occ. eigenvalues --   -0.68463  -0.68364  -0.68143  -0.67510  -0.54808
  Beta  occ. eigenvalues --   -0.49660  -0.49590  -0.49533  -0.49509  -0.47266
  Beta  occ. eigenvalues --   -0.47159  -0.47155  -0.46665  -0.46506  -0.46490
  Beta  occ. eigenvalues --   -0.45436  -0.45098  -0.44249  -0.44183  -0.43966
  Beta  occ. eigenvalues --   -0.43898  -0.43849  -0.42796  -0.42732  -0.42511
  Beta  occ. eigenvalues --   -0.32318  -0.32199
  Beta virt. eigenvalues --   -0.10718   0.05365   0.05422   0.06617   0.06918
  Beta virt. eigenvalues --    0.07073   0.10335   0.11232   0.11285   0.11416
  Beta virt. eigenvalues --    0.12321   0.12462   0.14735   0.19495   0.19569
  Beta virt. eigenvalues --    0.22452   0.24692   0.26395   0.26467   0.26549
  Beta virt. eigenvalues --    0.26571   0.27932   0.32002   0.32094   0.32179
  Beta virt. eigenvalues --    0.33515   0.33643   0.35146   0.46447   0.46628
  Beta virt. eigenvalues --    0.48810   0.49140   0.53079   0.53155   0.53219
  Beta virt. eigenvalues --    0.53388   0.55115   0.55236   0.56002   0.57337
  Beta virt. eigenvalues --    0.59393   0.60034   0.60138   0.60764   0.61159
  Beta virt. eigenvalues --    0.62881   0.63875   0.68577   0.69721   0.69788
  Beta virt. eigenvalues --    0.71625   0.71722   0.72742   0.72886   0.73298
  Beta virt. eigenvalues --    0.73487   0.73565   0.73625   0.74596   0.74921
  Beta virt. eigenvalues --    0.75518   0.79454   0.79696   0.80429   0.81735
  Beta virt. eigenvalues --    0.81897   0.86470   0.86545   0.86897   0.87072
  Beta virt. eigenvalues --    0.92788   0.92982   0.93639   0.93735   0.94121
  Beta virt. eigenvalues --    0.94703   0.96409   0.99005   0.99041   0.99215
  Beta virt. eigenvalues --    0.99683   1.00327   1.00550   1.02615   1.03030
  Beta virt. eigenvalues --    1.03346   1.05988   1.06329   1.07649   1.07783
  Beta virt. eigenvalues --    1.10421   1.10786   1.15249   1.16837   1.18024
  Beta virt. eigenvalues --    1.18251   1.19283   1.22863   1.22924   1.24134
  Beta virt. eigenvalues --    1.33119   1.36112   1.36197   1.38689   1.38721
  Beta virt. eigenvalues --    1.42086   1.44264   1.44290   1.45484   1.45956
  Beta virt. eigenvalues --    1.55540   1.59827   1.65704   1.68025   1.68147
  Beta virt. eigenvalues --    1.68350   1.68586   1.68644   1.76435   1.76489
  Beta virt. eigenvalues --    1.76664   1.76767   1.77700   1.78807   1.79007
  Beta virt. eigenvalues --    1.79965   1.81756   1.82112   1.85002   1.92348
  Beta virt. eigenvalues --    1.92402   1.92999   1.97787   2.00067   2.00222
  Beta virt. eigenvalues --    2.03306   2.03623   2.06774   2.07074   2.12942
  Beta virt. eigenvalues --    2.12992   2.17174   2.20455   2.20656   2.20747
  Beta virt. eigenvalues --    2.26503   2.27057   2.27397   2.28725   2.33599
  Beta virt. eigenvalues --    2.33701   2.33763   2.34144   2.34613   2.34773
  Beta virt. eigenvalues --    2.35231   2.35768   2.35951   2.36039   2.36460
  Beta virt. eigenvalues --    2.36513   2.37890   2.38012   2.56057   2.60990
  Beta virt. eigenvalues --    2.61579   2.70014   2.70380   2.92350   2.94372
  Beta virt. eigenvalues --    2.95122   2.95509   2.98079   2.98529   2.98962
  Beta virt. eigenvalues --    3.02819   3.05310   3.05363   3.08055   3.08365
  Beta virt. eigenvalues --    3.11702   3.11993   3.12388   3.22513   3.22714
  Beta virt. eigenvalues --    3.28942   3.40610   3.40862   3.41925   3.53177
  Beta virt. eigenvalues --    3.56087   3.56499   3.61671   3.61905   3.74930
          Condensed to atoms (all electrons):
               1          2          3          4          5          6
     1  C    4.897929   0.543680   0.296121  -0.101210   0.298755  -0.098466
     2  C    0.543680   5.332357  -0.104742  -0.008235  -0.105145  -0.007726
     3  C    0.296121  -0.104742   4.908478   0.539188   0.302043  -0.098539
     4  C   -0.101210  -0.008235   0.539188   5.325518  -0.100877  -0.007659
     5  C    0.298755  -0.105145   0.302043  -0.100877   4.911882   0.538373
     6  C   -0.098466  -0.007726  -0.098539  -0.007659   0.538373   5.315228
     7  C    0.007546   0.391005   0.004948  -0.000459  -0.022370   0.002236
     8  N   -0.001658  -0.030021  -0.000065  -0.000001  -0.000468   0.000113
     9  C    0.005737   0.392493  -0.021805   0.002345   0.006550  -0.000417
    10  N   -0.001644  -0.029025  -0.000528   0.000153  -0.000033  -0.000001
    11  C   -0.020535   0.002177   0.004861   0.391723   0.005777  -0.000434
    12  N   -0.000479   0.000124  -0.001608  -0.028433  -0.000047  -0.000001
    13  C    0.005021  -0.000447   0.007733   0.394633  -0.021092   0.002354
    14  N   -0.000064  -0.000001  -0.001598  -0.030093  -0.000427   0.000116
    15  C    0.005973  -0.000444  -0.022128   0.002374   0.008091   0.393137
    16  N   -0.000037  -0.000001  -0.000498   0.000146  -0.001475  -0.028950
    17  C   -0.021695   0.002366   0.006111  -0.000427   0.005412   0.390484
    18  N   -0.000511   0.000146  -0.000034  -0.000001  -0.001430  -0.028522
               7          8          9         10         11         12
     1  C    0.007546  -0.001658   0.005737  -0.001644  -0.020535  -0.000479
     2  C    0.391005  -0.030021   0.392493  -0.029025   0.002177   0.000124
     3  C    0.004948  -0.000065  -0.021805  -0.000528   0.004861  -0.001608
     4  C   -0.000459  -0.000001   0.002345   0.000153   0.391723  -0.028433
     5  C   -0.022370  -0.000468   0.006550  -0.000033   0.005777  -0.000047
     6  C    0.002236   0.000113  -0.000417  -0.000001  -0.000434  -0.000001
     7  C    4.839329   0.904449  -0.048290   0.002220   0.000100   0.000002
     8  N    0.904449   6.115310   0.001910   0.000066   0.000000   0.000000
     9  C   -0.048290   0.001910   4.839134   0.905858  -0.000338   0.000074
    10  N    0.002220   0.000066   0.905858   6.111885   0.000338  -0.000758
    11  C    0.000100   0.000000  -0.000338   0.000338   4.833761   0.915162
    12  N    0.000002   0.000000   0.000074  -0.000758   0.915162   6.091137
    13  C   -0.000012  -0.000000   0.000105   0.000002  -0.048109   0.001981
    14  N   -0.000000  -0.000000   0.000000   0.000000   0.001847   0.000064
    15  C    0.000102   0.000002  -0.000011  -0.000000   0.000106   0.000000
    16  N    0.000000   0.000000  -0.000000  -0.000000   0.000002   0.000000
    17  C   -0.000303   0.000047   0.000105   0.000000  -0.000011  -0.000000
    18  N    0.000299  -0.000726   0.000002   0.000000  -0.000000  -0.000000
              13         14         15         16         17         18
     1  C    0.005021  -0.000064   0.005973  -0.000037  -0.021695  -0.000511
     2  C   -0.000447  -0.000001  -0.000444  -0.000001   0.002366   0.000146
     3  C    0.007733  -0.001598  -0.022128  -0.000498   0.006111  -0.000034
     4  C    0.394633  -0.030093   0.002374   0.000146  -0.000427  -0.000001
     5  C   -0.021092  -0.000427   0.008091  -0.001475   0.005412  -0.001430
     6  C    0.002354   0.000116   0.393137  -0.028950   0.390484  -0.028522
     7  C   -0.000012  -0.000000   0.000102   0.000000  -0.000303   0.000299
     8  N   -0.000000  -0.000000   0.000002   0.000000   0.000047  -0.000726
     9  C    0.000105   0.000000  -0.000011  -0.000000   0.000105   0.000002
    10  N    0.000002   0.000000  -0.000000  -0.000000   0.000000   0.000000
    11  C   -0.048109   0.001847   0.000106   0.000002  -0.000011  -0.000000
    12  N    0.001981   0.000064   0.000000   0.000000  -0.000000  -0.000000
    13  C    4.836809   0.901243  -0.000273   0.000327   0.000101   0.000000
    14  N    0.901243   6.123097   0.000040  -0.000742   0.000002   0.000000
    15  C   -0.000273   0.000040   4.834362   0.904592  -0.046658   0.001986
    16  N    0.000327  -0.000742   0.904592   6.115289   0.001998   0.000059
    17  C    0.000101   0.000002  -0.046658   0.001998   4.833720   0.911691
    18  N    0.000000   0.000000   0.001986   0.000059   0.911691   6.098406
          Atomic-Atomic Spin Densities.
               1          2          3          4          5          6
     1  C   -0.046639  -0.066014   0.035515  -0.005859   0.035680  -0.005737
     2  C   -0.066014   0.375913  -0.005893   0.000937  -0.005883   0.000957
     3  C    0.035515  -0.005893  -0.047849  -0.066731   0.036273  -0.005779
     4  C   -0.005859   0.000937  -0.066731   0.386991  -0.005824   0.000966
     5  C    0.035680  -0.005883   0.036273  -0.005824  -0.048161  -0.066568
     6  C   -0.005737   0.000957  -0.005779   0.000966  -0.066568   0.388505
     7  C    0.000516   0.005144  -0.000131  -0.000014   0.000381  -0.000061
     8  N    0.000491  -0.005361   0.000009  -0.000000   0.000034  -0.000025
     9  C    0.000574   0.004885   0.000329  -0.000065  -0.000151  -0.000014
    10  N    0.000562  -0.005329   0.000034  -0.000030   0.000010  -0.000000
    11  C    0.000328  -0.000066   0.000391   0.004446  -0.000142  -0.000013
    12  N    0.000032  -0.000026   0.000510  -0.005342   0.000009  -0.000000
    13  C   -0.000134  -0.000014   0.000562   0.005314   0.000357  -0.000063
    14  N    0.000009  -0.000000   0.000509  -0.005476   0.000033  -0.000025
    15  C   -0.000136  -0.000014   0.000367  -0.000069   0.000458   0.004977
    16  N    0.000010  -0.000000   0.000036  -0.000031   0.000546  -0.005491
    17  C    0.000351  -0.000068  -0.000135  -0.000014   0.000425   0.004647
    18  N    0.000033  -0.000029   0.000009  -0.000000   0.000526  -0.005414
               7          8          9         10         11         12
     1  C    0.000516   0.000491   0.000574   0.000562   0.000328   0.000032
     2  C    0.005144  -0.005361   0.004885  -0.005329  -0.000066  -0.000026
     3  C   -0.000131   0.000009   0.000329   0.000034   0.000391   0.000510
     4  C   -0.000014  -0.000000  -0.000065  -0.000030   0.004446  -0.005342
     5  C    0.000381   0.000034  -0.000151   0.000010  -0.000142   0.000009
     6  C   -0.000061  -0.000025  -0.000014  -0.000000  -0.000013  -0.000000
     7  C   -0.075481  -0.001692  -0.000438   0.000114  -0.000003   0.000000
     8  N   -0.001692   0.117547   0.000161   0.000009  -0.000000   0.000000
     9  C   -0.000438   0.000161  -0.075302  -0.001648   0.000012   0.000015
    10  N    0.000114   0.000009  -0.001648   0.116741   0.000013   0.000040
    11  C   -0.000003  -0.000000   0.000012   0.000013  -0.074058  -0.001394
    12  N    0.000000   0.000000   0.000015   0.000040  -0.001394   0.113937
    13  C    0.000000  -0.000000  -0.000003   0.000000  -0.000493   0.000130
    14  N   -0.000000   0.000000  -0.000000   0.000000   0.000155   0.000010
    15  C   -0.000003   0.000000   0.000000  -0.000000  -0.000003  -0.000000
    16  N   -0.000000   0.000000  -0.000000   0.000000   0.000000   0.000000
    17  C    0.000013   0.000015  -0.000003  -0.000000   0.000000  -0.000000
    18  N    0.000014   0.000036   0.000000   0.000000  -0.000000   0.000000
              13         14         15         16         17         18
     1  C   -0.000134   0.000009  -0.000136   0.000010   0.000351   0.000033
     2  C   -0.000014  -0.000000  -0.000014  -0.000000  -0.000068  -0.000029
     3  C    0.000562   0.000509   0.000367   0.000036  -0.000135   0.000009
     4  C    0.005314  -0.005476  -0.000069  -0.000031  -0.000014  -0.000000
     5  C    0.000357   0.000033   0.000458   0.000546   0.000425   0.000526
     6  C   -0.000063  -0.000025   0.004977  -0.005491   0.004647  -0.005414
     7  C    0.000000  -0.000000  -0.000003  -0.000000   0.000013   0.000014
     8  N   -0.000000   0.000000   0.000000   0.000000   0.000015   0.000036
     9  C   -0.000003  -0.000000   0.000000  -0.000000  -0.000003   0.000000
    10  N    0.000000   0.000000  -0.000000   0.000000  -0.000000   0.000000
    11  C   -0.000493   0.000155  -0.000003   0.000000   0.000000  -0.000000
    12  N    0.000130   0.000010  -0.000000   0.000000  -0.000000   0.000000
    13  C   -0.079064  -0.001831   0.000013   0.000015  -0.000003  -0.000000
    14  N   -0.001831   0.123598   0.000016   0.000040   0.000000   0.000000
    15  C    0.000013   0.000016  -0.077358  -0.001663  -0.000560   0.000120
    16  N    0.000015   0.000040  -0.001663   0.120272   0.000121   0.000009
    17  C   -0.000003   0.000000  -0.000560   0.000121  -0.074915  -0.001465
    18  N   -0.000000   0.000000   0.000120   0.000009  -0.001465   0.115565
 Mulliken charges and spin densities:
               1          2
     1  C    0.185538  -0.050419
     2  C   -0.378559   0.299140
     3  C    0.182063  -0.051975
     4  C   -0.378684   0.309201
     5  C    0.176480  -0.051998
     6  C   -0.371323   0.310859
     7  C   -0.080800  -0.071641
     8  N    0.011042   0.111223
     9  C   -0.083453  -0.071649
    10  N    0.011469   0.110518
    11  C   -0.086425  -0.070826
    12  N    0.022783   0.107921
    13  C   -0.080375  -0.075212
    14  N    0.006516   0.117036
    15  C   -0.081250  -0.073854
    16  N    0.009289   0.113862
    17  C   -0.082943  -0.071590
    18  N    0.018634   0.109404
 Sum of Mulliken charges =  -1.00000   1.00000
 Mulliken charges and spin densities with hydrogens summed into heavy atoms:
               1          2
     1  C    0.185538  -0.050419
     2  C   -0.378559   0.299140
     3  C    0.182063  -0.051975
     4  C   -0.378684   0.309201
     5  C    0.176480  -0.051998
     6  C   -0.371323   0.310859
     7  C   -0.080800  -0.071641
     8  N    0.011042   0.111223
     9  C   -0.083453  -0.071649
    10  N    0.011469   0.110518
    11  C   -0.086425  -0.070826
    12  N    0.022783   0.107921
    13  C   -0.080375  -0.075212
    14  N    0.006516   0.117036
    15  C   -0.081250  -0.073854
    16  N    0.009289   0.113862
    17  C   -0.082943  -0.071590
    18  N    0.018634   0.109404
 Electronic spatial extent (au):  <R**2>=          38998.6423
 Charge=             -1.0000 electrons
 Dipole moment (field-independent basis, Debye):
    X=             42.7649    Y=              8.2608    Z=             -4.9559  Tot=             43.8365
 Quadrupole moment (field-independent basis, Debye-Ang):
   XX=           -551.8296   YY=           -185.1920   ZZ=           -104.2243
   XY=            -72.8033   XZ=             44.8748   YZ=              1.2202
 Traceless Quadrupole moment (field-independent basis, Debye-Ang):
   XX=           -271.4143   YY=             95.2233   ZZ=            176.1910
   XY=            -72.8033   XZ=             44.8748   YZ=              1.2202
 Octapole moment (field-independent basis, Debye-Ang**2):
  XXX=           7975.7370  YYY=            973.2449  ZZZ=           -311.2942  XYY=           1652.4127
  XXY=            865.7189  XXZ=           -587.5539  XZZ=            932.8439  YZZ=            164.2034
  YYZ=           -160.6627  XYZ=            -12.0994
 Hexadecapole moment (field-independent basis, Debye-Ang**3):
 XXXX=        -116452.5724 YYYY=          -7817.1506 ZZZZ=           -764.0155 XXXY=         -11645.6416
 XXXZ=           8560.3978 YYYX=          -8670.2371 YYYZ=            641.1871 ZZZX=           2800.8367
 ZZZY=            360.7167 XXYY=         -16444.4308 XXZZ=          -9084.8051 YYZZ=           -975.5351
 XXYZ=            267.8293 YYXZ=           1454.4462 ZZXY=          -1466.6345
 N-N= 9.640173057173D+02 E-N=-3.763290321973D+03  KE= 7.771880846280D+02
                          Isotropic Fermi Contact Couplings
        Atom                 a.u.       MegaHertz       Gauss      10(-4) cm-1
     1  C(13)             -0.01750     -19.67314      -7.01986      -6.56225
     2  C(13)              0.04911      55.20502      19.69852      18.41441
     3  C(13)             -0.01804     -20.27710      -7.23537      -6.76371
     4  C(13)              0.05127      57.64055      20.56758      19.22682
     5  C(13)             -0.01805     -20.29594      -7.24209      -6.77000
     6  C(13)              0.05156      57.96196      20.68227      19.33403
     7  C(13)             -0.03211     -36.09649     -12.88013     -12.04049
     8  N(14)              0.02588       8.36190       2.98373       2.78923
     9  C(13)             -0.03206     -36.04429     -12.86150     -12.02308
    10  N(14)              0.02569       8.30069       2.96189       2.76881
    11  C(13)             -0.03233     -36.34564     -12.96903     -12.12360
    12  N(14)              0.02493       8.05399       2.87386       2.68652
    13  C(13)             -0.03346     -37.61890     -13.42336     -12.54831
    14  N(14)              0.02726       8.80833       3.14303       2.93814
    15  C(13)             -0.03313     -37.24607     -13.29032     -12.42395
    16  N(14)              0.02644       8.54418       3.04878       2.85003
    17  C(13)             -0.03259     -36.63883     -13.07364     -12.22140
    18  N(14)              0.02531       8.17792       2.91808       2.72786
 --------------------------------------------------------
       Center         ----  Spin Dipole Couplings  ----
                      3XX-RR        3YY-RR        3ZZ-RR
 --------------------------------------------------------
     1   Atom        0.001419      0.024051     -0.025470
     2   Atom       -0.156176     -0.153585      0.309761
     3   Atom        0.018480      0.006572     -0.025052
     4   Atom       -0.163568     -0.156942      0.320510
     5   Atom        0.018211      0.006308     -0.024519
     6   Atom       -0.164500     -0.160513      0.325013
     7   Atom        0.036833      0.009094     -0.045927
     8   Atom       -0.111578     -0.091000      0.202579
     9   Atom        0.037759      0.007908     -0.045667
    10   Atom       -0.112846     -0.088582      0.201427
    11   Atom        0.034396      0.010474     -0.044871
    12   Atom       -0.108386     -0.089616      0.198002
    13   Atom       -0.002827      0.050463     -0.047637
    14   Atom       -0.089389     -0.122083      0.211472
    15   Atom       -0.002758      0.049873     -0.047115
    16   Atom       -0.087456     -0.122162      0.209618
    17   Atom        0.034390      0.011268     -0.045657
    18   Atom       -0.109480     -0.092816      0.202296
 --------------------------------------------------------
                        XY            XZ            YZ
 --------------------------------------------------------
     1   Atom        0.000169     -0.002072      0.003783
     2   Atom       -0.000314      0.003015     -0.049665
     3   Atom       -0.009908      0.000423      0.003526
     4   Atom        0.000249      0.008388     -0.051399
     5   Atom        0.009812      0.000339      0.003779
     6   Atom       -0.000922     -0.001349     -0.036752
     7   Atom       -0.021925     -0.003427      0.006189
     8   Atom        0.014732      0.008345     -0.033294
     9   Atom        0.021201      0.002272      0.005920
    10   Atom       -0.014157     -0.002860     -0.032742
    11   Atom        0.022595      0.000788      0.005422
    12   Atom       -0.015499      0.004709     -0.030037
    13   Atom        0.000934     -0.000456      0.011173
    14   Atom       -0.000222      0.003984     -0.041485
    15   Atom       -0.002298      0.000120      0.007253
    16   Atom        0.001511     -0.001749     -0.023323
    17   Atom       -0.023074     -0.001646      0.004167
    18   Atom        0.015487      0.000288     -0.021291
 --------------------------------------------------------


 ---------------------------------------------------------------------------------
              Anisotropic Spin Dipole Couplings in Principal Axis System
 ---------------------------------------------------------------------------------

       Atom             a.u.   MegaHertz   Gauss  10(-4) cm-1        Axes

              Baa    -0.0259    -3.478    -1.241    -1.160  0.0758 -0.0755  0.9943
     1 C(13)  Bbb     0.0016     0.212     0.076     0.071  0.9971  0.0052 -0.0756
              Bcc     0.0243     3.266     1.165     1.089  0.0005  0.9971  0.0757
 
              Baa    -0.1588   -21.316    -7.606    -7.110 -0.0022  0.9944  0.1054
     2 C(13)  Bbb    -0.1562   -20.960    -7.479    -6.991  1.0000  0.0029 -0.0062
              Bcc     0.3150    42.276    15.085    14.102  0.0064 -0.1054  0.9944
 
              Baa    -0.0255    -3.421    -1.221    -1.141 -0.0367 -0.1204  0.9920
     3 C(13)  Bbb     0.0014     0.184     0.066     0.061  0.4951  0.8601  0.1227
              Bcc     0.0241     3.237     1.155     1.080  0.8681 -0.4957 -0.0281
 
              Baa    -0.1644   -22.057    -7.870    -7.357  0.8647 -0.4977 -0.0677
     4 C(13)  Bbb    -0.1618   -21.706    -7.745    -7.240  0.5020  0.8609  0.0830
              Bcc     0.3261    43.762    15.615    14.598  0.0170 -0.1058  0.9942
 
              Baa    -0.0250    -3.354    -1.197    -1.119  0.0209 -0.1263  0.9918
     5 C(13)  Bbb     0.0012     0.156     0.056     0.052 -0.4970  0.8594  0.1199
              Bcc     0.0238     3.198     1.141     1.067  0.8675  0.4954  0.0448
 
              Baa    -0.1651   -22.152    -7.905    -7.389  0.8700  0.4914  0.0392
     6 C(13)  Bbb    -0.1627   -21.833    -7.791    -7.283 -0.4930  0.8677  0.0640
              Bcc     0.3278    43.985    15.695    14.672 -0.0026 -0.0750  0.9972
 
              Baa    -0.0466    -6.257    -2.233    -2.087  0.0132 -0.1053  0.9944
     7 C(13)  Bbb    -0.0027    -0.357    -0.127    -0.119  0.4893  0.8679  0.0854
              Bcc     0.0493     6.613     2.360     2.206  0.8720 -0.4854 -0.0629
 
              Baa    -0.1210    -4.665    -1.665    -1.556  0.8598 -0.5053 -0.0742
     8 N(14)  Bbb    -0.0855    -3.297    -1.177    -1.100  0.5103  0.8559  0.0841
              Bcc     0.2064     7.962     2.841     2.656  0.0210 -0.1102  0.9937
 
              Baa    -0.0463    -6.215    -2.218    -2.073  0.0006 -0.1088  0.9941
     9 C(13)  Bbb    -0.0027    -0.361    -0.129    -0.120 -0.4664  0.8793  0.0965
              Bcc     0.0490     6.575     2.346     2.193  0.8846  0.4636  0.0502
 
              Baa    -0.1202    -4.637    -1.655    -1.547  0.8895  0.4537  0.0541
    10 N(14)  Bbb    -0.0848    -3.272    -1.168    -1.091 -0.4569  0.8843  0.0966
              Bcc     0.2051     7.910     2.822     2.638 -0.0040 -0.1106  0.9939
 
              Baa    -0.0454    -6.096    -2.175    -2.033  0.0197 -0.1044  0.9943
    11 C(13)  Bbb    -0.0027    -0.363    -0.130    -0.121 -0.5191  0.8489  0.0995
              Bcc     0.0481     6.459     2.305     2.154  0.8545  0.5181  0.0375
 
              Baa    -0.1175    -4.532    -1.617    -1.512  0.8564  0.5150  0.0362
    12 N(14)  Bbb    -0.0837    -3.229    -1.152    -1.077 -0.5158  0.8509  0.0993
              Bcc     0.2012     7.761     2.769     2.589  0.0203 -0.1038  0.9944
 
              Baa    -0.0489    -6.562    -2.341    -2.189  0.0121 -0.1118  0.9937
    13 C(13)  Bbb    -0.0028    -0.380    -0.136    -0.127  0.9998 -0.0146 -0.0138
              Bcc     0.0517     6.942     2.477     2.316  0.0161  0.9936  0.1116
 
              Baa    -0.1272    -4.905    -1.750    -1.636 -0.0070  0.9925  0.1217
    14 N(14)  Bbb    -0.0894    -3.449    -1.231    -1.151  0.9999  0.0085 -0.0121
              Bcc     0.2166     8.354     2.981     2.787  0.0130 -0.1216  0.9925
 
              Baa    -0.0477    -6.395    -2.282    -2.133 -0.0065 -0.0743  0.9972
    15 C(13)  Bbb    -0.0029    -0.383    -0.137    -0.128  0.9991  0.0422  0.0096
              Bcc     0.0505     6.778     2.419     2.261 -0.0428  0.9963  0.0740
 
              Baa    -0.1238    -4.776    -1.704    -1.593 -0.0381  0.9969  0.0695
    16 N(14)  Bbb    -0.0874    -3.371    -1.203    -1.125  0.9993  0.0375  0.0088
              Bcc     0.2113     8.148     2.907     2.718 -0.0062 -0.0698  0.9975
 
              Baa    -0.0460    -6.168    -2.201    -2.057 -0.0005 -0.0728  0.9973
    17 C(13)  Bbb    -0.0028    -0.377    -0.135    -0.126  0.5280  0.8469  0.0621
              Bcc     0.0488     6.545     2.335     2.183  0.8492 -0.5267 -0.0380
 
              Baa    -0.1191    -4.595    -1.640    -1.533  0.8484 -0.5282 -0.0357
    18 N(14)  Bbb    -0.0847    -3.266    -1.166    -1.090  0.5294  0.8461  0.0622
              Bcc     0.2038     7.861     2.805     2.622 -0.0026 -0.0717  0.9974
 

 ---------------------------------------------------------------------------------

   1 Symmetry operations used in ECPInt.
 ECPInt:  NShTT=    5886 NPrTT=   23670 LenC2=    5404 LenP2D=   14953.
 LDataN:  DoStor=T MaxTD1= 5 Len=  102
 D1PCM: PCM CHGder 1st derivatives, ID1Alg=3 FixD1E=F DoIter=F DoCFld=F I1PDM=0.
 Calling FoFJK, ICntrl=      2127 FMM=F ISym2X=0 I1Cent= 0 IOpClX= 1 NMat=1 NMatS=1 NMatT=0.
 -------------------------------------------------------------------
 Center     Atomic                   Forces (Hartrees/Bohr)
 Number     Number              X              Y              Z
 -------------------------------------------------------------------
      1        6          -0.000219659    0.009924737    0.000289334
      2        6          -0.000112192   -0.010904156   -0.000578269
      3        6           0.017171385   -0.007733856   -0.000240122
      4        6          -0.012597461    0.010419484    0.000457698
      5        6          -0.018060437   -0.009477418   -0.000869798
      6        6           0.014191338    0.009736006    0.000730890
      7        6          -0.013183949    0.007157234    0.001277672
      8        7           0.009101515   -0.005987403   -0.001052916
      9        6           0.014336478    0.002868315    0.000396608
     10        7          -0.009637669   -0.003109582   -0.000537870
     11        6          -0.009878905   -0.001985622    0.000355967
     12        7           0.007517910    0.003570730    0.000134308
     13        6          -0.000392431   -0.021190118   -0.002670577
     14        7          -0.000563032    0.017657861    0.002328359
     15        6           0.001300625   -0.009993630   -0.001047437
     16        7          -0.000808389    0.008377411    0.000604489
     17        6           0.006884234   -0.001430428    0.000416904
     18        7          -0.005049360    0.002100434    0.000004759
 -------------------------------------------------------------------
 Cartesian Forces:  Max     0.021190118 RMS     0.007952361

 GradGradGradGradGradGradGradGradGradGradGradGradGradGradGradGradGradGrad
 Berny optimization.
 Search for a local minimum.
 Step number   1 out of a maximum of    2
 All quantities printed in internal units (Hartrees-Bohrs-Radians)
 Second derivative matrix not updated -- first step.
 ITU=  0
     Eigenvalues ---    0.00096   0.00109   0.00181   0.00299   0.00300
     Eigenvalues ---    0.00674   0.01526   0.01708   0.01976   0.02001
     Eigenvalues ---    0.02970   0.03906   0.05275   0.05325   0.10251
     Eigenvalues ---    0.14899   0.20946   0.21466   0.24466   0.24807
     Eigenvalues ---    0.24936   0.25604   0.28658   0.30035   0.30128
     Eigenvalues ---    0.37295   0.48022   0.78847   0.79349   0.81811
     Eigenvalues ---    0.90314   0.93066   1.04119   1.04159   1.11440
     Eigenvalues ---    1.57287   1.59321   2.02831   2.74437   2.76209
     Eigenvalues ---    2.78624   2.81577   2.87363   2.88451  11.55299
     Eigenvalues ---   20.30212  30.43151  34.04195
 Angle between quadratic step and forces=  77.35 degrees.
 Linear search not attempted -- first point.
 B after Tr=    -0.000227    0.000217   -0.000193
         Rot=    1.000000    0.000005   -0.000005   -0.000005 Ang=   0.00 deg.
 Variable       Old X    -DE/DX   Delta X   Delta X   Delta X     New X
                                 (Linear)    (Quad)   (Total)
    X1      -16.90234  -0.00022   0.00000   0.00422   0.00403 -16.89830
    Y1       -1.71616   0.00992   0.00000  -0.00721  -0.00713  -1.72329
    Z1        2.09523   0.00029   0.00000   0.00148   0.00147   2.09670
    X2      -16.91055  -0.00011   0.00000   0.00724   0.00703 -16.90352
    Y2        0.89893  -0.01090   0.00000  -0.02860  -0.02853   0.87041
    Z2        2.35308  -0.00058   0.00000   0.00325   0.00322   2.35630
    X3      -15.58831   0.01717   0.00000   0.00529   0.00512 -15.58319
    Y3       -3.99700  -0.00773   0.00000  -0.00524  -0.00516  -4.00216
    Z3        1.85899  -0.00024   0.00000  -0.00281  -0.00280   1.85619
    X4      -13.29935  -0.01260   0.00000  -0.02893  -0.02909 -13.32844
    Y4       -5.31410   0.01042   0.00000   0.01440   0.01451  -5.29959
    Z4        1.70183   0.00046   0.00000  -0.00104  -0.00104   1.70079
    X5      -18.22360  -0.01806   0.00000   0.00281   0.00264 -18.22096
    Y5       -3.99202  -0.00948   0.00000  -0.00737  -0.00731  -3.99933
    Z5        1.88480  -0.00087   0.00000  -0.00254  -0.00251   1.88229
    X6      -20.51632   0.01419   0.00000   0.03818   0.03803 -20.47829
    Y6       -5.31325   0.00974   0.00000   0.01393   0.01397  -5.29929
    Z6        1.77727   0.00073   0.00000  -0.00283  -0.00276   1.77450
    X7      -19.22043  -0.01318   0.00000  -0.00817  -0.00839 -19.22882
    Y7        2.24715   0.00716   0.00000  -0.03512  -0.03507   2.21208
    Z7        2.52653   0.00128   0.00000  -0.00230  -0.00233   2.52421
    X8      -21.11625   0.00910   0.00000  -0.01221  -0.01244 -21.12869
    Y8        3.35386  -0.00599   0.00000  -0.05804  -0.05801   3.29585
    Z8        2.68209  -0.00105   0.00000  -0.01225  -0.01226   2.66983
    X9      -14.59746   0.01434   0.00000   0.02185   0.02163 -14.57583
    Y9        2.24736   0.00287   0.00000  -0.03320  -0.03310   2.21426
    Z9        2.49553   0.00040   0.00000  -0.01717  -0.01724   2.47830
   X10      -12.63886  -0.00964   0.00000   0.00571   0.00548 -12.63338
   Y10        3.24286  -0.00311   0.00000  -0.01717  -0.01705   3.22582
   Z10        2.61064  -0.00054   0.00000  -0.03428  -0.03438   2.57626
   X11      -10.94990  -0.00988   0.00000  -0.04252  -0.04269 -10.99259
   Y11       -4.00007  -0.00199   0.00000   0.03175   0.03188  -3.96819
   Z11        1.79093   0.00036   0.00000   0.00919   0.00915   1.80009
   X12       -9.08163   0.00752   0.00000  -0.03805  -0.03823  -9.11987
   Y12       -2.86922   0.00357   0.00000   0.03620   0.03635  -2.83287
   Z12        1.87206   0.00013   0.00000   0.01553   0.01546   1.88752
   X13      -13.28401  -0.00039   0.00000  -0.03733  -0.03746 -13.32148
   Y13       -7.97677  -0.02119   0.00000   0.00361   0.00371  -7.97306
   Z13        1.40227  -0.00267   0.00000   0.02036   0.02038   1.42265
   X14      -13.27607  -0.00056   0.00000  -0.05396  -0.05408 -13.33014
   Y14      -10.16809   0.01766   0.00000   0.01513   0.01523 -10.15286
   Z14        1.14160   0.00233   0.00000   0.04572   0.04578   1.18738
   X15      -20.49798   0.00130   0.00000   0.03179   0.03166 -20.46632
   Y15       -7.98972  -0.00999   0.00000   0.01262   0.01265  -7.97707
   Z15        1.57830  -0.00105   0.00000  -0.03810  -0.03800   1.54030
   X16      -20.40928  -0.00081   0.00000   0.01730   0.01719 -20.39208
   Y16      -10.18131   0.00838   0.00000   0.02088   0.02091 -10.16041
   Z16        1.42129   0.00060   0.00000  -0.06748  -0.06736   1.35393
   X17      -22.85469   0.00688   0.00000   0.04811   0.04794 -22.80674
   Y17       -3.98367  -0.00143   0.00000   0.02310   0.02312  -3.96055
   Z17        1.87024   0.00042   0.00000   0.02949   0.02957   1.89981
   X18      -24.70860  -0.00505   0.00000   0.04180   0.04162 -24.66698
   Y18       -2.82498   0.00210   0.00000   0.01905   0.01904  -2.80593
   Z18        1.95168   0.00000   0.00000   0.05555   0.05564   2.00732
         Item               Value     Threshold  Converged?
 Maximum Force            0.021190     0.000450     NO 
 RMS     Force            0.007952     0.000300     NO 
 Maximum Displacement     0.067356     0.001800     NO 
 RMS     Displacement     0.027862     0.001200     NO 
 Predicted change in Energy=-1.309600D-03
 GradGradGradGradGradGradGradGradGradGradGradGradGradGradGradGradGradGrad

 Unable to Open any file for archive entry.
 1\1\GINC-X10P1N4\Force\UwB97XD\def2SVP\C12N6(1-,2)\MAYUMIAO\11-Oct-202
 4\0\\# wb97xd def2svp scrf=(smd,solvent=acetonitrile) g09default scf=(
 xqc,maxcycle=64) force guess=read nosymm\\Title Card\\-1,2\C,-8.944331
 48,-0.90815054,1.10874753\C,-8.9486774,0.4756959,1.24519392\C,-8.24897
 885,-2.11512333,0.98373491\C,-7.03771451,-2.81209801,0.90057028\C,-9.6
 4351414,-2.11248505,0.99739289\C,-10.85676931,-2.81165129,0.94048871\C
 ,-10.17101265,1.18913837,1.33698348\N,-11.17423987,1.77478521,1.419300
 71\C,-7.72464245,1.18925351,1.32057897\N,-6.68819838,1.71604927,1.3814
 9322\C,-5.79443724,-2.11674647,0.94772167\N,-4.80579401,-1.51832557,0.
 99065129\C,-7.02959562,-4.22112296,0.74204832\N,-7.02539165,-5.3807194
 7,0.60410982\C,-10.84706383,-4.22797652,0.83520102\N,-10.80012363,-5.3
 8771967,0.75211402\C,-12.09417943,-2.1080676,0.989687\N,-13.07522975,-
 1.49491341,1.03278714\\Version=ES64L-G16RevC.01\HF=-784.8600359\S2=0.7
 87713\S2-1=0.\S2A=0.751165\RMSD=5.151e-09\RMSF=7.952e-03\Dipole=-0.066
 9628,0.0091525,-0.0044733\Quadrupole=-201.789885,70.796189,130.993696,
 -54.1274753,33.363319,0.9071651\PG=C01 [X(C12N6)]\\@
 The archive entry for this job was punched.


 DEFINE YOUR TERMS, YOU WILL PERMIT ME AGAIN TO SAY, 
 OR WE SHALL NEVER UNDERSTAND ONE ANOTHER.

                                    -- VOLTAIRE
 Job cpu time:       0 days  0 hours 13 minutes 33.4 seconds.
 Elapsed time:       0 days  0 hours  0 minutes 30.5 seconds.
 File lengths (MBytes):  RWF=    173 Int=      0 D2E=      0 Chk=      9 Scr=      1
 Normal termination of Gaussian 16 at Fri Oct 11 16:06:49 2024.
