 Entering Gaussian System, Link 0=g16
 Input=JOBS/44_A.gjf
 Output=JOBS/44_A.log
 Initial command:
 /data/app/gaussian/C01-avx2//g16/l1.exe "/tmp/Gau-2555541.inp" -scrdir="/tmp/"
 Entering Link 1 = /data/app/gaussian/C01-avx2//g16/l1.exe PID=   2555542.
  
 Copyright (c) 1988-2019, Gaussian, Inc.  All Rights Reserved.
  
 This is part of the Gaussian(R) 16 program.  It is based on
 the Gaussian(R) 09 system (copyright 2009, Gaussian, Inc.),
 the Gaussian(R) 03 system (copyright 2003, Gaussian, Inc.),
 the Gaussian(R) 98 system (copyright 1998, Gaussian, Inc.),
 the Gaussian(R) 94 system (copyright 1995, Gaussian, Inc.),
 the Gaussian 92(TM) system (copyright 1992, Gaussian, Inc.),
 the Gaussian 90(TM) system (copyright 1990, Gaussian, Inc.),
 the Gaussian 88(TM) system (copyright 1988, Gaussian, Inc.),
 the Gaussian 86(TM) system (copyright 1986, Carnegie Mellon
 University), and the Gaussian 82(TM) system (copyright 1983,
 Carnegie Mellon University). Gaussian is a federally registered
 trademark of Gaussian, Inc.
  
 This software contains proprietary and confidential information,
 including trade secrets, belonging to Gaussian, Inc.
  
 This software is provided under written license and may be
 used, copied, transmitted, or stored only in accord with that
 written license.
  
 The following legend is applicable only to US Government
 contracts under FAR:
  
                    RESTRICTED RIGHTS LEGEND
  
 Use, reproduction and disclosure by the US Government is
 subject to restrictions as set forth in subparagraphs (a)
 and (c) of the Commercial Computer Software - Restricted
 Rights clause in FAR 52.227-19.
  
 Gaussian, Inc.
 340 Quinnipiac St., Bldg. 40, Wallingford CT 06492
  
  
 ---------------------------------------------------------------
 Warning -- This program may not be used in any manner that
 competes with the business of Gaussian, Inc. or will provide
 assistance to any competitor of Gaussian, Inc.  The licensee
 of this program is prohibited from giving any competitor of
 Gaussian, Inc. access to this program.  By using this program,
 the user acknowledges that Gaussian, Inc. is engaged in the
 business of creating and licensing software in the field of
 computational chemistry and represents and warrants to the
 licensee that it is not a competitor of Gaussian, Inc. and that
 it will not use this program in any manner prohibited above.
 ---------------------------------------------------------------
  

 Cite this work as:
 Gaussian 16, Revision C.01,
 M. J. Frisch, G. W. Trucks, H. B. Schlegel, G. E. Scuseria, 
 M. A. Robb, J. R. Cheeseman, G. Scalmani, V. Barone, 
 G. A. Petersson, H. Nakatsuji, X. Li, M. Caricato, A. V. Marenich, 
 J. Bloino, B. G. Janesko, R. Gomperts, B. Mennucci, H. P. Hratchian, 
 J. V. Ortiz, A. F. Izmaylov, J. L. Sonnenberg, D. Williams-Young, 
 F. Ding, F. Lipparini, F. Egidi, J. Goings, B. Peng, A. Petrone, 
 T. Henderson, D. Ranasinghe, V. G. Zakrzewski, J. Gao, N. Rega, 
 G. Zheng, W. Liang, M. Hada, M. Ehara, K. Toyota, R. Fukuda, 
 J. Hasegawa, M. Ishida, T. Nakajima, Y. Honda, O. Kitao, H. Nakai, 
 T. Vreven, K. Throssell, J. A. Montgomery, Jr., J. E. Peralta, 
 F. Ogliaro, M. J. Bearpark, J. J. Heyd, E. N. Brothers, K. N. Kudin, 
 V. N. Staroverov, T. A. Keith, R. Kobayashi, J. Normand, 
 K. Raghavachari, A. P. Rendell, J. C. Burant, S. S. Iyengar, 
 J. Tomasi, M. Cossi, J. M. Millam, M. Klene, C. Adamo, R. Cammi, 
 J. W. Ochterski, R. L. Martin, K. Morokuma, O. Farkas, 
 J. B. Foresman, and D. J. Fox, Gaussian, Inc., Wallingford CT, 2019.
 
 ******************************************
 Gaussian 16:  ES64L-G16RevC.01  3-Jul-2019
                11-Oct-2024 
 ******************************************
 %chk=a.chk
 %nprocshared=28
 Will use up to   28 processors via shared memory.
 %mem=48gb
 ----------------------------------------------------------------------
 # wb97xd def2svp scrf=(smd,solvent=acetonitrile) g09default scf=(xqc,m
 axcycle=64) force guess=read nosymm
 ----------------------------------------------------------------------
 1/10=7,30=1,38=1,158=3,167=1/1,3;
 2/12=2,15=1,17=6,18=5,40=1/2;
 3/5=43,7=101,11=2,25=1,27=10,30=1,70=32201,71=1,72=2,74=-58,75=-4,116=-2,158=3/1,2,3;
 4/5=1,60=-1/1;
 5/5=2,7=64,8=3,13=1,38=6,53=2,87=10/2,8;
 6/7=2,8=2,9=2,10=2,28=1,87=10/1;
 7/29=1,30=1,87=10/1,2,3,16;
 1/10=7,30=1,158=3,167=1/3;
 99//99;
 Using 2006 physical constants.
 ----------
 Title Card
 ----------
 Symbolic Z-matrix:
 Charge = -2 Multiplicity = 1
 6                    -8.94642  -0.91643   1.10641 
 6                    -8.95036   0.46942   1.24438 
 6                    -8.25175  -2.11394   0.98501 
 6                    -7.0446   -2.80823   0.90005 
 6                    -9.64404  -2.11232   0.99717 
 6                    -10.85016  -2.80726   0.94105 
 6                    -10.17419   1.18021   1.33622 
 7                    -11.1676   1.77874   1.42023 
 6                    -7.72066   1.17299   1.31972 
 7                    -6.69462   1.71681   1.38199 
 6                    -5.81017  -2.11011   0.94843 
 7                    -4.80568  -1.52536   0.98971 
 6                    -7.03841  -4.21849   0.7417 
 7                    -7.02398  -5.37247   0.60464 
 6                    -10.83525  -4.223     0.83609 
 7                    -10.79677  -5.38181   0.75437 
 6                    -12.08136  -2.10231   0.99057 
 7                    -13.07387  -1.49662   1.03106 
 

 GradGradGradGradGradGradGradGradGradGradGradGradGradGradGradGradGradGrad
 Berny optimization.
 Initialization pass.
 Trust Radius=3.00D-01 FncErr=1.00D-07 GrdErr=1.00D-07 EigMax=2.50D+02 EigMin=1.00D-04
 Number of steps in this run=      2 maximum allowed number of steps=      2.
 GradGradGradGradGradGradGradGradGradGradGradGradGradGradGradGradGradGrad

                          Input orientation:                          
 ---------------------------------------------------------------------
 Center     Atomic      Atomic             Coordinates (Angstroms)
 Number     Number       Type             X           Y           Z
 ---------------------------------------------------------------------
      1          6           0       -8.946423   -0.916426    1.106406
      2          6           0       -8.950362    0.469420    1.244383
      3          6           0       -8.251748   -2.113942    0.985007
      4          6           0       -7.044596   -2.808226    0.900053
      5          6           0       -9.644035   -2.112321    0.997168
      6          6           0      -10.850163   -2.807262    0.941051
      7          6           0      -10.174185    1.180207    1.336218
      8          7           0      -11.167605    1.778737    1.420233
      9          6           0       -7.720663    1.172988    1.319716
     10          7           0       -6.694619    1.716807    1.381988
     11          6           0       -5.810167   -2.110111    0.948427
     12          7           0       -4.805675   -1.525356    0.989711
     13          6           0       -7.038409   -4.218492    0.741702
     14          7           0       -7.023985   -5.372473    0.604644
     15          6           0      -10.835248   -4.222998    0.836093
     16          7           0      -10.796774   -5.381805    0.754368
     17          6           0      -12.081363   -2.102306    0.990573
     18          7           0      -13.073873   -1.496616    1.031064
 ---------------------------------------------------------------------
                    Distance matrix (angstroms):
                    1          2          3          4          5
     1  C    0.000000
     2  C    1.392703   0.000000
     3  C    1.389732   2.688697   0.000000
     4  C    2.690434   3.807029   1.395157   0.000000
     5  C    1.388799   2.684713   1.392341   2.692730   0.000000
     6  C    2.688277   3.799724   2.689681   3.805788   1.393139
     7  C    2.440508   1.418236   3.830212   5.088434   3.352126
     8  N    3.506570   2.580968   4.883091   6.189508   4.200069
     9  C    2.431797   1.418747   3.346339   4.059956   3.820556
    10  N    3.475698   2.581335   4.154140   4.564062   4.848645
    11  C    3.359456   4.074604   2.441858   1.418985   3.834178
    12  N    4.186909   4.606780   3.495980   2.581968   4.873839
    13  C    3.831080   5.087708   2.441418   1.419142   3.360135
    14  N    4.878924   6.184490   3.502872   2.581290   4.200873
    15  C    3.817611   5.073291   3.338378   4.046568   2.428970
    16  N    4.846374   6.155176   4.148407   4.552293   3.475239
    17  C    3.353741   4.059724   3.829636   5.086800   2.437357
    18  N    4.168710   4.573198   4.861697   6.171683   3.484829
                    6          7          8          9         10
     6  C    0.000000
     7  C    4.063620   0.000000
     8  N    4.621879   1.162832   0.000000
     9  C    5.077356   2.453588   3.501206   0.000000
    10  N    6.158748   3.520997   4.473578   1.162920   0.000000
    11  C    5.087989   5.479163   6.636857   3.816620   3.951649
    12  N    6.179117   6.021714   7.181680   3.985864   3.772745
    13  C    4.069494   6.271562   7.312825   5.465128   5.979626
    14  N    4.618779   7.307296   8.305093   6.621159   7.139372
    15  C    1.419700   5.466421   6.039247   6.249096   7.261136
    16  N    2.581854   6.617112   7.200989   7.262740   8.222644
    17  C    1.419602   3.812045   4.010243   5.463661   6.614820
    18  N    2.582786   3.958117   3.809625   5.988903   7.151512
                   11         12         13         14         15
    11  C    0.000000
    12  N    1.163034   0.000000
    13  C    2.448792   3.507077   0.000000
    14  N    3.497791   4.457520   1.162181   0.000000
    15  C    5.452371   6.607316   3.798015   3.987555   0.000000
    16  N    5.967235   7.128874   3.934306   3.775771   1.162322
    17  C    6.271342   7.298527   5.474629   6.034899   2.464549
    18  N    7.290037   8.268351   6.627154   7.197587   3.533075
                   16         17         18
    16  N    0.000000
    17  C    3.530025   0.000000
    18  N    4.511811   1.163433   0.000000
 Symmetry turned off by external request.
 Stoichiometry    C12N6(2-)
 Framework group  C1[X(C12N6)]
 Deg. of freedom    48
 Full point group                 C1      NOp   1
 Rotational constants (GHZ):           0.4324689           0.4267337           0.2148292
 Standard basis: def2SVP (5D, 7F)
   252 basis functions,   450 primitive gaussians,   270 cartesian basis functions
    58 alpha electrons       58 beta electrons
       nuclear repulsion energy       965.7289593740 Hartrees.
 NAtoms=   18 NActive=   18 NUniq=   18 SFac= 1.00D+00 NAtFMM=   60 NAOKFM=F Big=F
 Integral buffers will be    131072 words long.
 Raffenetti 2 integral format.
 Two-electron integral symmetry is turned off.
 Nuclear repulsion after empirical dispersion term =      965.7172677913 Hartrees.
 Force PCM accuracy= 1.00D-10.
 ------------------------------------------------------------------------------
 Polarizable Continuum Model (PCM)
 =================================
 Model                : PCM (using non-symmetric T matrix).
 Atomic radii         : SMD-Coulomb.
 Polarization charges : Total charges.
 Charge compensation  : None.
 Solution method      : On-the-fly selection.
 Cavity type          : VdW (van der Waals Surface) (Alpha=1.000).
 Cavity algorithm     : GePol (No added spheres)
                        Default sphere list used, NSphG=   18.
                        Lebedev-Laikov grids with approx.  5.0 points / Ang**2.
                        Smoothing algorithm: York/Karplus (Gamma=1.0000).
                        Polarization charges: spherical gaussians, with
                                              point-specific exponents (IZeta= 3).
                        Self-potential: point-specific (ISelfS= 7).
                        Self-field    : sphere-specific E.n sum rule (ISelfD= 2).
 1st derivatives      : Analytical E(r).r(x)/FMM algorithm (CHGder, D1EAlg=3).
                        Cavity 1st derivative terms included.
 Solvent              : Acetonitrile, Eps=  35.688000 Eps(inf)=   1.806874
 ------------------------------------------------------------------------------
 Spheres list:
 ISph  on   Nord     Re0    Alpha      Xe            Ye            Ze
    1   C      1    1.8500  1.000     -8.946423     -0.916426      1.106406
    2   C      2    1.8500  1.000     -8.950362      0.469420      1.244383
    3   C      3    1.8500  1.000     -8.251748     -2.113942      0.985007
    4   C      4    1.8500  1.000     -7.044596     -2.808226      0.900053
    5   C      5    1.8500  1.000     -9.644035     -2.112321      0.997168
    6   C      6    1.8500  1.000    -10.850163     -2.807262      0.941051
    7   C      7    1.8500  1.000    -10.174185      1.180207      1.336218
    8   N      8    1.8900  1.000    -11.167605      1.778737      1.420233
    9   C      9    1.8500  1.000     -7.720663      1.172988      1.319716
   10   N     10    1.8900  1.000     -6.694619      1.716807      1.381988
   11   C     11    1.8500  1.000     -5.810167     -2.110111      0.948427
   12   N     12    1.8900  1.000     -4.805675     -1.525356      0.989711
   13   C     13    1.8500  1.000     -7.038409     -4.218492      0.741702
   14   N     14    1.8900  1.000     -7.023985     -5.372473      0.604644
   15   C     15    1.8500  1.000    -10.835248     -4.222998      0.836093
   16   N     16    1.8900  1.000    -10.796774     -5.381805      0.754368
   17   C     17    1.8500  1.000    -12.081363     -2.102306      0.990573
   18   N     18    1.8900  1.000    -13.073873     -1.496616      1.031064
 ------------------------------------------------------------------------------
 ------------------------------------------------------------------------------
 Atomic radii for non-electrostatic terms: SMD-CDS.
 ------------------------------------------------------------------------------
 Nuclear repulsion after PCM non-electrostatic terms =      965.7259821616 Hartrees.
 One-electron integrals computed using PRISM.
   1 Symmetry operations used in ECPInt.
 ECPInt:  NShTT=    5886 NPrTT=   23670 LenC2=    5404 LenP2D=   14972.
 LDataN:  DoStor=T MaxTD1= 4 Len=   56
 NBasis=   252 RedAO= T EigKep=  1.92D-04  NBF=   252
 NBsUse=   252 1.00D-06 EigRej= -1.00D+00 NBFU=   252
 Initial guess from the checkpoint file:  "a.chk"
 B after Tr=     0.000230   -0.000925   -0.000727
         Rot=    1.000000    0.000006   -0.000021    0.000032 Ang=   0.00 deg.
 Requested convergence on RMS density matrix=1.00D-08 within  64 cycles.
 Requested convergence on MAX density matrix=1.00D-06.
 Requested convergence on             energy=1.00D-06.
 No special actions if energy rises.
 Inv3:  Mode=1 IEnd=    19324332.
 Iteration    1 A*A^-1 deviation from unit magnitude is 3.00D-15 for   1171.
 Iteration    1 A*A^-1 deviation from orthogonality  is 3.21D-15 for   1407   1138.
 Iteration    1 A^-1*A deviation from unit magnitude is 3.77D-15 for   1575.
 Iteration    1 A^-1*A deviation from orthogonality  is 5.07D-11 for   2016   2012.
 Error on total polarization charges =  0.02150
 SCF Done:  E(RwB97XD) =  -785.032565977     A.U. after   12 cycles
            NFock= 12  Conv=0.67D-08     -V/T= 2.0097
 SMD-CDS (non-electrostatic) energy       (kcal/mol) =       5.47
 (included in total energy above)
 QCSCF skips out because SCF is already converged.

 **********************************************************************

            Population analysis using the SCF Density.

 **********************************************************************

 Alpha  occ. eigenvalues --  -14.42816 -14.42774 -14.42771 -14.42769 -14.42762
 Alpha  occ. eigenvalues --  -14.42748 -10.34972 -10.34899 -10.34867 -10.33759
 Alpha  occ. eigenvalues --  -10.33712 -10.33706 -10.33704 -10.33697 -10.33683
 Alpha  occ. eigenvalues --  -10.32735 -10.32724 -10.32670  -1.03087  -0.99083
 Alpha  occ. eigenvalues --   -0.99081  -0.98705  -0.98017  -0.97997  -0.97925
 Alpha  occ. eigenvalues --   -0.88210  -0.88183  -0.86096  -0.68781  -0.68725
 Alpha  occ. eigenvalues --   -0.65212  -0.65070  -0.64951  -0.64111  -0.52468
 Alpha  occ. eigenvalues --   -0.47684  -0.47680  -0.46794  -0.46720  -0.45192
 Alpha  occ. eigenvalues --   -0.45082  -0.45069  -0.44540  -0.44200  -0.44167
 Alpha  occ. eigenvalues --   -0.43839  -0.42803  -0.42234  -0.42211  -0.42037
 Alpha  occ. eigenvalues --   -0.41959  -0.41924  -0.40531  -0.40160  -0.40139
 Alpha  occ. eigenvalues --   -0.31477  -0.31463  -0.23631
 Alpha virt. eigenvalues --    0.07478   0.07559   0.08822   0.09267   0.09347
 Alpha virt. eigenvalues --    0.12646   0.12694   0.13108   0.13125   0.14801
 Alpha virt. eigenvalues --    0.14929   0.16374   0.21109   0.21152   0.24196
 Alpha virt. eigenvalues --    0.27541   0.28105   0.28111   0.28624   0.28655
 Alpha virt. eigenvalues --    0.30025   0.33643   0.33748   0.33961   0.36862
 Alpha virt. eigenvalues --    0.37089   0.37264   0.48977   0.49162   0.50521
 Alpha virt. eigenvalues --    0.50684   0.54916   0.54921   0.54990   0.55121
 Alpha virt. eigenvalues --    0.57401   0.57463   0.58307   0.59957   0.61136
 Alpha virt. eigenvalues --    0.61700   0.61748   0.62798   0.63086   0.64877
 Alpha virt. eigenvalues --    0.65543   0.70929   0.71777   0.71865   0.73689
 Alpha virt. eigenvalues --    0.73719   0.74455   0.74664   0.74772   0.75103
 Alpha virt. eigenvalues --    0.75168   0.75231   0.76550   0.76905   0.77928
 Alpha virt. eigenvalues --    0.82042   0.82209   0.82243   0.83422   0.83641
 Alpha virt. eigenvalues --    0.88786   0.88912   0.89415   0.89658   0.94735
 Alpha virt. eigenvalues --    0.94842   0.95095   0.95198   0.95946   0.96111
 Alpha virt. eigenvalues --    0.98135   1.00623   1.00666   1.01257   1.01584
 Alpha virt. eigenvalues --    1.02306   1.02500   1.05288   1.05494   1.05899
 Alpha virt. eigenvalues --    1.08472   1.09082   1.10058   1.10484   1.12729
 Alpha virt. eigenvalues --    1.12851   1.17366   1.18855   1.20384   1.20520
 Alpha virt. eigenvalues --    1.21280   1.25180   1.25240   1.27253   1.35332
 Alpha virt. eigenvalues --    1.38822   1.38982   1.41756   1.41877   1.45028
 Alpha virt. eigenvalues --    1.47082   1.47329   1.47811   1.47935   1.59008
 Alpha virt. eigenvalues --    1.62254   1.68412   1.70743   1.70827   1.70971
 Alpha virt. eigenvalues --    1.71184   1.71262   1.79112   1.79447   1.79568
 Alpha virt. eigenvalues --    1.79681   1.80356   1.81558   1.81599   1.82875
 Alpha virt. eigenvalues --    1.84640   1.85054   1.87637   1.95431   1.95598
 Alpha virt. eigenvalues --    1.96086   2.00316   2.03074   2.03272   2.06398
 Alpha virt. eigenvalues --    2.06653   2.09961   2.10461   2.16205   2.16252
 Alpha virt. eigenvalues --    2.21137   2.23540   2.23760   2.23846   2.29479
 Alpha virt. eigenvalues --    2.30361   2.30665   2.32182   2.35882   2.35925
 Alpha virt. eigenvalues --    2.36421   2.36633   2.36717   2.36821   2.37406
 Alpha virt. eigenvalues --    2.38449   2.38526   2.38695   2.38949   2.39185
 Alpha virt. eigenvalues --    2.40560   2.40625   2.60086   2.65190   2.65638
 Alpha virt. eigenvalues --    2.74284   2.74622   2.95261   2.97184   2.97675
 Alpha virt. eigenvalues --    2.98304   3.01040   3.01499   3.01930   3.05156
 Alpha virt. eigenvalues --    3.07753   3.07891   3.11388   3.11810   3.14867
 Alpha virt. eigenvalues --    3.14898   3.15412   3.26078   3.26421   3.31209
 Alpha virt. eigenvalues --    3.43663   3.43781   3.45340   3.56653   3.60011
 Alpha virt. eigenvalues --    3.60130   3.64435   3.64520   3.78433
          Condensed to atoms (all electrons):
               1          2          3          4          5          6
     1  C    4.969308   0.494596   0.312502  -0.117280   0.316106  -0.116294
     2  C    0.494596   5.548677  -0.116784  -0.007604  -0.117348  -0.007215
     3  C    0.312502  -0.116784   4.964363   0.493676   0.316893  -0.114999
     4  C   -0.117280  -0.007604   0.493676   5.551158  -0.115859  -0.007459
     5  C    0.316106  -0.117348   0.316893  -0.115859   4.961793   0.493477
     6  C   -0.116294  -0.007215  -0.114999  -0.007459   0.493477   5.544420
     7  C    0.013654   0.384211   0.005781  -0.000559  -0.025972   0.002975
     8  N   -0.001130  -0.044774  -0.000083  -0.000001  -0.000571   0.000136
     9  C    0.013171   0.387181  -0.025493   0.003086   0.007364  -0.000521
    10  N   -0.001103  -0.043062  -0.000629   0.000169  -0.000052  -0.000002
    11  C   -0.024935   0.002966   0.012155   0.386631   0.006386  -0.000547
    12  N   -0.000590   0.000148  -0.001143  -0.043615  -0.000068  -0.000002
    13  C    0.005913  -0.000540   0.013317   0.386835  -0.024742   0.003058
    14  N   -0.000082  -0.000001  -0.001150  -0.044276  -0.000561   0.000143
    15  C    0.007170  -0.000532  -0.026454   0.003105   0.015146   0.385367
    16  N   -0.000048  -0.000001  -0.000660   0.000176  -0.000951  -0.043496
    17  C   -0.026660   0.003161   0.007063  -0.000533   0.012348   0.383621
    18  N   -0.000659   0.000177  -0.000046  -0.000001  -0.000924  -0.043597
               7          8          9         10         11         12
     1  C    0.013654  -0.001130   0.013171  -0.001103  -0.024935  -0.000590
     2  C    0.384211  -0.044774   0.387181  -0.043062   0.002966   0.000148
     3  C    0.005781  -0.000083  -0.025493  -0.000629   0.012155  -0.001143
     4  C   -0.000559  -0.000001   0.003086   0.000169   0.386631  -0.043615
     5  C   -0.025972  -0.000571   0.007364  -0.000052   0.006386  -0.000068
     6  C    0.002975   0.000136  -0.000521  -0.000002  -0.000547  -0.000002
     7  C    4.882871   0.924330  -0.057379   0.002747   0.000139   0.000002
     8  N    0.924330   6.156648   0.002460   0.000092   0.000000   0.000000
     9  C   -0.057379   0.002460   4.882464   0.925334  -0.000560   0.000034
    10  N    0.002747   0.000092   0.925334   6.153745   0.000262  -0.000883
    11  C    0.000139   0.000000  -0.000560   0.000262   4.881482   0.925692
    12  N    0.000002   0.000000   0.000034  -0.000883   0.925692   6.152747
    13  C   -0.000018  -0.000000   0.000142   0.000003  -0.056527   0.002584
    14  N   -0.000000  -0.000000   0.000000   0.000000   0.002528   0.000093
    15  C    0.000140   0.000002  -0.000017  -0.000000   0.000147   0.000000
    16  N    0.000000   0.000000  -0.000000  -0.000000   0.000003   0.000000
    17  C   -0.000582  -0.000074   0.000144   0.000000  -0.000017  -0.000000
    18  N    0.000299  -0.000851   0.000003   0.000000  -0.000000  -0.000000
              13         14         15         16         17         18
     1  C    0.005913  -0.000082   0.007170  -0.000048  -0.026660  -0.000659
     2  C   -0.000540  -0.000001  -0.000532  -0.000001   0.003161   0.000177
     3  C    0.013317  -0.001150  -0.026454  -0.000660   0.007063  -0.000046
     4  C    0.386835  -0.044276   0.003105   0.000176  -0.000533  -0.000001
     5  C   -0.024742  -0.000561   0.015146  -0.000951   0.012348  -0.000924
     6  C    0.003058   0.000143   0.385367  -0.043496   0.383621  -0.043597
     7  C   -0.000018  -0.000000   0.000140   0.000000  -0.000582   0.000299
     8  N   -0.000000  -0.000000   0.000002   0.000000  -0.000074  -0.000851
     9  C    0.000142   0.000000  -0.000017  -0.000000   0.000144   0.000003
    10  N    0.000003   0.000000  -0.000000  -0.000000   0.000000   0.000000
    11  C   -0.056527   0.002528   0.000147   0.000003  -0.000017  -0.000000
    12  N    0.002584   0.000093   0.000000   0.000000  -0.000000  -0.000000
    13  C    4.878816   0.926042  -0.000549   0.000327   0.000140   0.000000
    14  N    0.926042   6.154016  -0.000045  -0.000889   0.000002   0.000000
    15  C   -0.000549  -0.000045   4.878620   0.924089  -0.055220   0.002598
    16  N    0.000327  -0.000889   0.924089   6.157194   0.002669   0.000085
    17  C    0.000140   0.000002  -0.055220   0.002669   4.882820   0.923132
    18  N    0.000000   0.000000   0.002598   0.000085   0.923132   6.157042
 Mulliken charges:
               1
     1  C    0.156360
     2  C   -0.483254
     3  C    0.161692
     4  C   -0.487649
     5  C    0.157535
     6  C   -0.479067
     7  C   -0.132639
     8  N   -0.036183
     9  C   -0.137411
    10  N   -0.036622
    11  C   -0.135804
    12  N   -0.035000
    13  C   -0.134801
    14  N   -0.035820
    15  C   -0.133567
    16  N   -0.038498
    17  C   -0.132016
    18  N   -0.037256
 Sum of Mulliken charges =  -2.00000
 Mulliken charges with hydrogens summed into heavy atoms:
               1
     1  C    0.156360
     2  C   -0.483254
     3  C    0.161692
     4  C   -0.487649
     5  C    0.157535
     6  C   -0.479067
     7  C   -0.132639
     8  N   -0.036183
     9  C   -0.137411
    10  N   -0.036622
    11  C   -0.135804
    12  N   -0.035000
    13  C   -0.134801
    14  N   -0.035820
    15  C   -0.133567
    16  N   -0.038498
    17  C   -0.132016
    18  N   -0.037256
 Electronic spatial extent (au):  <R**2>=          39327.1746
 Charge=             -2.0000 electrons
 Dipole moment (field-independent basis, Debye):
    X=             85.6570    Y=             16.4336    Z=             -9.9053  Tot=             87.7798
 Quadrupole moment (field-independent basis, Debye-Ang):
   XX=           -963.7654   YY=           -227.4472   ZZ=           -113.5705
   XY=           -145.5847   XZ=             89.3322   YZ=              7.2229
 Traceless Quadrupole moment (field-independent basis, Debye-Ang):
   XX=           -528.8377   YY=            207.4805   ZZ=            321.3572
   XY=           -145.5847   XZ=             89.3322   YZ=              7.2229
 Octapole moment (field-independent basis, Debye-Ang**2):
  XXX=          12170.6758  YYY=           1140.1662  ZZZ=           -329.6986  XYY=           2029.4463
  XXY=           1564.5069  XXZ=          -1016.1493  XZZ=           1016.8018  YZZ=            174.9804
  YYZ=           -196.5083  XYZ=            -66.2389
 Hexadecapole moment (field-independent basis, Debye-Ang**3):
 XXXX=        -161190.0428 YYYY=          -8686.0568 ZZZZ=           -804.2209 XXXY=         -18771.1258
 XXXZ=          12933.4501 YYYX=         -10156.8424 YYYZ=            766.1078 ZZZX=           2966.6114
 ZZZY=            378.6593 XXYY=         -20012.6991 XXZZ=          -9889.3107 YYZZ=          -1037.8438
 XXYZ=            797.7896 YYXZ=           1778.3267 ZZXY=          -1563.4003
 N-N= 9.657259821616D+02 E-N=-3.785222640993D+03  KE= 7.774695370742D+02
   1 Symmetry operations used in ECPInt.
 ECPInt:  NShTT=    5886 NPrTT=   23670 LenC2=    5404 LenP2D=   14972.
 LDataN:  DoStor=T MaxTD1= 5 Len=  102
 D1PCM: PCM CHGder 1st derivatives, ID1Alg=3 FixD1E=F DoIter=F DoCFld=F I1PDM=0.
 Calling FoFJK, ICntrl=      2127 FMM=F ISym2X=0 I1Cent= 0 IOpClX= 0 NMat=1 NMatS=1 NMatT=0.
 -------------------------------------------------------------------
 Center     Atomic                   Forces (Hartrees/Bohr)
 Number     Number              X              Y              Z
 -------------------------------------------------------------------
      1        6          -0.000469163   -0.019613299   -0.001922220
      2        6           0.000275388    0.013616233    0.001498533
      3        6          -0.017431295    0.009189379    0.000909431
      4        6           0.010005474   -0.006260767   -0.000823135
      5        6           0.018904937    0.009360262    0.000739656
      6        6          -0.011492426   -0.007315784   -0.000620099
      7        6           0.006369753   -0.000423075    0.000371538
      8        7          -0.003823253    0.000454069   -0.000150010
      9        6          -0.004843611   -0.002732711   -0.000283690
     10        7           0.002781940    0.001898873    0.000130406
     11        6          -0.004758856   -0.003072277    0.000023394
     12        7           0.002463833    0.001795209    0.000002377
     13        6           0.001909052    0.007499510    0.000422397
     14        7          -0.001120835   -0.005067507   -0.000349350
     15        6          -0.001901030    0.007531006    0.000432719
     16        7           0.000342823   -0.004595981   -0.000335946
     17        6           0.004537812   -0.003212177   -0.000027299
     18        7          -0.001750543    0.000949037   -0.000018704
 -------------------------------------------------------------------
 Cartesian Forces:  Max     0.019613299 RMS     0.006206809

 GradGradGradGradGradGradGradGradGradGradGradGradGradGradGradGradGradGrad
 Berny optimization.
 Search for a local minimum.
 Step number   1 out of a maximum of    2
 All quantities printed in internal units (Hartrees-Bohrs-Radians)
 Second derivative matrix not updated -- first step.
 ITU=  0
     Eigenvalues ---    0.00101   0.00144   0.00194   0.00300   0.00301
     Eigenvalues ---    0.00745   0.01539   0.01724   0.01986   0.02024
     Eigenvalues ---    0.03130   0.04132   0.05340   0.05357   0.10303
     Eigenvalues ---    0.16054   0.21279   0.21686   0.24397   0.24880
     Eigenvalues ---    0.25068   0.25670   0.26161   0.30044   0.30204
     Eigenvalues ---    0.40679   0.48413   0.78921   0.79650   0.81471
     Eigenvalues ---    0.95514   0.99575   1.04383   1.04951   1.12158
     Eigenvalues ---    1.59810   1.60555   2.06396   2.77742   2.78026
     Eigenvalues ---    2.78435   2.83395   2.83460   2.83699  35.76038
     Eigenvalues ---   46.39775  74.15564 122.38226
 Angle between quadratic step and forces=  73.18 degrees.
 Linear search not attempted -- first point.
 B after Tr=    -0.000257    0.000066   -0.000179
         Rot=    1.000000    0.000010   -0.000002   -0.000004 Ang=   0.00 deg.
 Variable       Old X    -DE/DX   Delta X   Delta X   Delta X     New X
                                 (Linear)    (Quad)   (Total)
    X1      -16.90629  -0.00047   0.00000   0.00741   0.00718 -16.89911
    Y1       -1.73179  -0.01961   0.00000  -0.00482  -0.00484  -1.73664
    Z1        2.09081  -0.00192   0.00000   0.00336   0.00328   2.09409
    X2      -16.91373   0.00028   0.00000   0.00995   0.00969 -16.90404
    Y2        0.88708   0.01362   0.00000   0.02227   0.02226   0.90933
    Z2        2.35154   0.00150   0.00000   0.00930   0.00917   2.36071
    X3      -15.59354  -0.01743   0.00000   0.00041   0.00019 -15.59335
    Y3       -3.99477   0.00919   0.00000   0.00269   0.00267  -3.99210
    Z3        1.86139   0.00091   0.00000   0.00037   0.00034   1.86173
    X4      -13.31236   0.01001   0.00000   0.01805   0.01784 -13.29452
    Y4       -5.30678  -0.00626   0.00000  -0.00938  -0.00938  -5.31616
    Z4        1.70085  -0.00082   0.00000  -0.00190  -0.00192   1.69894
    X5      -18.22459   0.01890   0.00000   0.01387   0.01365 -18.21093
    Y5       -3.99171   0.00936   0.00000   0.00089   0.00085  -3.99086
    Z5        1.88437   0.00074   0.00000   0.00032   0.00029   1.88467
    X6      -20.50384  -0.01149   0.00000  -0.00827  -0.00848 -20.51231
    Y6       -5.30496  -0.00732   0.00000  -0.01277  -0.01283  -5.31778
    Z6        1.77833  -0.00062   0.00000  -0.00339  -0.00338   1.77495
    X7      -19.22642   0.00637   0.00000   0.01304   0.01277 -19.21365
    Y7        2.23027  -0.00042   0.00000   0.01665   0.01662   2.24688
    Z7        2.52509   0.00037   0.00000   0.01562   0.01547   2.54055
    X8      -21.10371  -0.00382   0.00000  -0.00585  -0.00612 -21.10983
    Y8        3.36132   0.00045   0.00000  -0.00824  -0.00828   3.35305
    Z8        2.68385  -0.00015   0.00000   0.00792   0.00776   2.69161
    X9      -14.58994  -0.00484   0.00000   0.00118   0.00091 -14.58903
    Y9        2.21663  -0.00273   0.00000   0.02894   0.02894   2.24557
    Z9        2.49390  -0.00028   0.00000  -0.00729  -0.00746   2.48645
   X10      -12.65100   0.00278   0.00000  -0.00315  -0.00342 -12.65442
   Y10        3.24429   0.00190   0.00000   0.04433   0.04436   3.28865
   Z10        2.61158   0.00013   0.00000  -0.02075  -0.02095   2.59063
   X11      -10.97962  -0.00476   0.00000   0.01189   0.01167 -10.96795
   Y11       -3.98753  -0.00307   0.00000  -0.01131  -0.01129  -3.99882
   Z11        1.79227   0.00002   0.00000   0.00246   0.00241   1.79468
   X12       -9.08141   0.00246   0.00000   0.01033   0.01010  -9.07131
   Y12       -2.88251   0.00180   0.00000  -0.00401  -0.00397  -2.88648
   Z12        1.87028   0.00000   0.00000   0.00493   0.00485   1.87513
   X13      -13.30067   0.00191   0.00000   0.01566   0.01547 -13.28520
   Y13       -7.97180   0.00750   0.00000  -0.00430  -0.00431  -7.97611
   Z13        1.40161   0.00042   0.00000   0.00378   0.00381   1.40543
   X14      -13.27341  -0.00112   0.00000  -0.00874  -0.00891 -13.28232
   Y14      -10.15250  -0.00507   0.00000  -0.00976  -0.00977 -10.16227
   Z14        1.14261  -0.00035   0.00000   0.01317   0.01325   1.15586
   X15      -20.47565  -0.00190   0.00000  -0.02742  -0.02761 -20.50326
   Y15       -7.98031   0.00753   0.00000  -0.00542  -0.00548  -7.98579
   Z15        1.57999   0.00043   0.00000  -0.01135  -0.01129   1.56870
   X16      -20.40295   0.00034   0.00000  -0.03929  -0.03947 -20.44241
   Y16      -10.17014  -0.00460   0.00000  -0.00901  -0.00907 -10.17921
   Z16        1.42555  -0.00034   0.00000  -0.01800  -0.01789   1.40766
   X17      -22.83047   0.00454   0.00000  -0.00126  -0.00148 -22.83194
   Y17       -3.97278  -0.00321   0.00000  -0.01751  -0.01758  -3.99037
   Z17        1.87191  -0.00003   0.00000  -0.00033  -0.00034   1.87157
   X18      -24.70604  -0.00175   0.00000  -0.00378  -0.00401 -24.71005
   Y18       -2.82819   0.00095   0.00000  -0.01881  -0.01889  -2.84709
   Z18        1.94843  -0.00002   0.00000   0.00261   0.00258   1.95101
         Item               Value     Threshold  Converged?
 Maximum Force            0.019613     0.000450     NO 
 RMS     Force            0.006207     0.000300     NO 
 Maximum Displacement     0.044356     0.001800     NO 
 RMS     Displacement     0.013859     0.001200     NO 
 Predicted change in Energy=-6.718987D-04
 GradGradGradGradGradGradGradGradGradGradGradGradGradGradGradGradGradGrad

 Unable to Open any file for archive entry.
 1\1\GINC-X10P1N4\Force\RwB97XD\def2SVP\C12N6(2-)\MAYUMIAO\11-Oct-2024\
 0\\# wb97xd def2svp scrf=(smd,solvent=acetonitrile) g09default scf=(xq
 c,maxcycle=64) force guess=read nosymm\\Title Card\\-2,1\C,-8.9464229,
 -0.91642562,1.10640636\C,-8.95036236,0.46942003,1.2443828\C,-8.2517484
 6,-2.11394158,0.98500731\C,-7.04459634,-2.8082259,0.90005277\C,-9.6440
 3515,-2.112321,0.99716787\C,-10.85016294,-2.80726229,0.94105136\C,-10.
 1741851,1.18020655,1.33621754\N,-11.16760451,1.7787365,1.42023267\C,-7
 .72066295,1.17298756,1.31971567\N,-6.69461872,1.71680662,1.38198797\C,
 -5.81016712,-2.11011135,0.94842738\N,-4.80567526,-1.52535608,0.9897105
 6\C,-7.03840904,-4.21849241,0.74170198\N,-7.02398468,-5.37247327,0.604
 64423\C,-10.83524824,-4.22299848,0.83609334\N,-10.79677397,-5.38180527
 ,0.75436826\C,-12.08136289,-2.10230594,0.99057308\N,-13.07387338,-1.49
 661556,1.03106379\\Version=ES64L-G16RevC.01\HF=-785.032566\RMSD=6.736e
 -09\RMSF=6.207e-03\Dipole=-0.0836738,-0.015992,-0.0063693\Quadrupole=-
 393.1778779,154.2566752,238.9212027,-108.238676,66.4162812,5.3700463\P
 G=C01 [X(C12N6)]\\@
 The archive entry for this job was punched.


 WHAT THE SLIME CONTAINS, THE GLOWING REVEALS
 BY THE FLAME'S BRIGHT HUE WHEN YOU IGNITE IT.
   --  LEONARD THURNEYSSER, 1531-1596
 DESCRIBING HIS FLAME PHOTOLYSIS ANALYTIC METHOD
 Job cpu time:       0 days  0 hours  9 minutes 19.9 seconds.
 Elapsed time:       0 days  0 hours  0 minutes 21.3 seconds.
 File lengths (MBytes):  RWF=    148 Int=      0 D2E=      0 Chk=      8 Scr=      1
 Normal termination of Gaussian 16 at Fri Oct 11 16:08:01 2024.
