 Entering Gaussian System, Link 0=g16
 Input=JOBS/44_B.gjf
 Output=JOBS/44_B.log
 Initial command:
 /data/app/gaussian/C01-avx2//g16/l1.exe "/tmp/Gau-2555079.inp" -scrdir="/tmp/"
 Entering Link 1 = /data/app/gaussian/C01-avx2//g16/l1.exe PID=   2555080.
  
 Copyright (c) 1988-2019, Gaussian, Inc.  All Rights Reserved.
  
 This is part of the Gaussian(R) 16 program.  It is based on
 the Gaussian(R) 09 system (copyright 2009, Gaussian, Inc.),
 the Gaussian(R) 03 system (copyright 2003, Gaussian, Inc.),
 the Gaussian(R) 98 system (copyright 1998, Gaussian, Inc.),
 the Gaussian(R) 94 system (copyright 1995, Gaussian, Inc.),
 the Gaussian 92(TM) system (copyright 1992, Gaussian, Inc.),
 the Gaussian 90(TM) system (copyright 1990, Gaussian, Inc.),
 the Gaussian 88(TM) system (copyright 1988, Gaussian, Inc.),
 the Gaussian 86(TM) system (copyright 1986, Carnegie Mellon
 University), and the Gaussian 82(TM) system (copyright 1983,
 Carnegie Mellon University). Gaussian is a federally registered
 trademark of Gaussian, Inc.
  
 This software contains proprietary and confidential information,
 including trade secrets, belonging to Gaussian, Inc.
  
 This software is provided under written license and may be
 used, copied, transmitted, or stored only in accord with that
 written license.
  
 The following legend is applicable only to US Government
 contracts under FAR:
  
                    RESTRICTED RIGHTS LEGEND
  
 Use, reproduction and disclosure by the US Government is
 subject to restrictions as set forth in subparagraphs (a)
 and (c) of the Commercial Computer Software - Restricted
 Rights clause in FAR 52.227-19.
  
 Gaussian, Inc.
 340 Quinnipiac St., Bldg. 40, Wallingford CT 06492
  
  
 ---------------------------------------------------------------
 Warning -- This program may not be used in any manner that
 competes with the business of Gaussian, Inc. or will provide
 assistance to any competitor of Gaussian, Inc.  The licensee
 of this program is prohibited from giving any competitor of
 Gaussian, Inc. access to this program.  By using this program,
 the user acknowledges that Gaussian, Inc. is engaged in the
 business of creating and licensing software in the field of
 computational chemistry and represents and warrants to the
 licensee that it is not a competitor of Gaussian, Inc. and that
 it will not use this program in any manner prohibited above.
 ---------------------------------------------------------------
  

 Cite this work as:
 Gaussian 16, Revision C.01,
 M. J. Frisch, G. W. Trucks, H. B. Schlegel, G. E. Scuseria, 
 M. A. Robb, J. R. Cheeseman, G. Scalmani, V. Barone, 
 G. A. Petersson, H. Nakatsuji, X. Li, M. Caricato, A. V. Marenich, 
 J. Bloino, B. G. Janesko, R. Gomperts, B. Mennucci, H. P. Hratchian, 
 J. V. Ortiz, A. F. Izmaylov, J. L. Sonnenberg, D. Williams-Young, 
 F. Ding, F. Lipparini, F. Egidi, J. Goings, B. Peng, A. Petrone, 
 T. Henderson, D. Ranasinghe, V. G. Zakrzewski, J. Gao, N. Rega, 
 G. Zheng, W. Liang, M. Hada, M. Ehara, K. Toyota, R. Fukuda, 
 J. Hasegawa, M. Ishida, T. Nakajima, Y. Honda, O. Kitao, H. Nakai, 
 T. Vreven, K. Throssell, J. A. Montgomery, Jr., J. E. Peralta, 
 F. Ogliaro, M. J. Bearpark, J. J. Heyd, E. N. Brothers, K. N. Kudin, 
 V. N. Staroverov, T. A. Keith, R. Kobayashi, J. Normand, 
 K. Raghavachari, A. P. Rendell, J. C. Burant, S. S. Iyengar, 
 J. Tomasi, M. Cossi, J. M. Millam, M. Klene, C. Adamo, R. Cammi, 
 J. W. Ochterski, R. L. Martin, K. Morokuma, O. Farkas, 
 J. B. Foresman, and D. J. Fox, Gaussian, Inc., Wallingford CT, 2019.
 
 ******************************************
 Gaussian 16:  ES64L-G16RevC.01  3-Jul-2019
                11-Oct-2024 
 ******************************************
 %chk=b.chk
 %nprocshared=28
 Will use up to   28 processors via shared memory.
 %mem=48gb
 ----------------------------------------------------------------------
 # wb97xd def2svp scrf=(smd,solvent=acetonitrile) g09default scf=(xqc,m
 axcycle=64) force guess=read nosymm
 ----------------------------------------------------------------------
 1/10=7,30=1,38=1,158=3,167=1/1,3;
 2/12=2,15=1,17=6,18=5,40=1/2;
 3/5=43,7=101,11=2,25=1,27=10,30=1,70=32201,71=1,72=2,74=-58,75=-4,116=-2,158=3/1,2,3;
 4/5=1,60=-1/1;
 5/5=2,7=64,8=3,13=1,38=6,53=2,87=10/2,8;
 6/7=2,8=2,9=2,10=2,28=1,87=10/1;
 7/29=1,30=1,87=10/1,2,3,16;
 1/10=7,30=1,158=3,167=1/3;
 99//99;
 Using 2006 physical constants.
 ----------
 Title Card
 ----------
 Symbolic Z-matrix:
 Charge = -1 Multiplicity = 2
 6                    -8.94642  -0.91643   1.10641 
 6                    -8.95036   0.46942   1.24438 
 6                    -8.25175  -2.11394   0.98501 
 6                    -7.0446   -2.80823   0.90005 
 6                    -9.64404  -2.11232   0.99717 
 6                    -10.85016  -2.80726   0.94105 
 6                    -10.17419   1.18021   1.33622 
 7                    -11.1676   1.77874   1.42023 
 6                    -7.72066   1.17299   1.31972 
 7                    -6.69462   1.71681   1.38199 
 6                    -5.81017  -2.11011   0.94843 
 7                    -4.80568  -1.52536   0.98971 
 6                    -7.03841  -4.21849   0.7417 
 7                    -7.02398  -5.37247   0.60464 
 6                    -10.83525  -4.223     0.83609 
 7                    -10.79677  -5.38181   0.75437 
 6                    -12.08136  -2.10231   0.99057 
 7                    -13.07387  -1.49662   1.03106 
 

 GradGradGradGradGradGradGradGradGradGradGradGradGradGradGradGradGradGrad
 Berny optimization.
 Initialization pass.
 Trust Radius=3.00D-01 FncErr=1.00D-07 GrdErr=1.00D-07 EigMax=2.50D+02 EigMin=1.00D-04
 Number of steps in this run=      2 maximum allowed number of steps=      2.
 GradGradGradGradGradGradGradGradGradGradGradGradGradGradGradGradGradGrad

                          Input orientation:                          
 ---------------------------------------------------------------------
 Center     Atomic      Atomic             Coordinates (Angstroms)
 Number     Number       Type             X           Y           Z
 ---------------------------------------------------------------------
      1          6           0       -8.946423   -0.916426    1.106406
      2          6           0       -8.950362    0.469420    1.244383
      3          6           0       -8.251748   -2.113942    0.985007
      4          6           0       -7.044596   -2.808226    0.900053
      5          6           0       -9.644035   -2.112321    0.997168
      6          6           0      -10.850163   -2.807262    0.941051
      7          6           0      -10.174185    1.180207    1.336218
      8          7           0      -11.167605    1.778737    1.420233
      9          6           0       -7.720663    1.172988    1.319716
     10          7           0       -6.694619    1.716807    1.381988
     11          6           0       -5.810167   -2.110111    0.948427
     12          7           0       -4.805675   -1.525356    0.989711
     13          6           0       -7.038409   -4.218492    0.741702
     14          7           0       -7.023985   -5.372473    0.604644
     15          6           0      -10.835248   -4.222998    0.836093
     16          7           0      -10.796774   -5.381805    0.754368
     17          6           0      -12.081363   -2.102306    0.990573
     18          7           0      -13.073873   -1.496616    1.031064
 ---------------------------------------------------------------------
                    Distance matrix (angstroms):
                    1          2          3          4          5
     1  C    0.000000
     2  C    1.392703   0.000000
     3  C    1.389732   2.688697   0.000000
     4  C    2.690434   3.807029   1.395157   0.000000
     5  C    1.388799   2.684713   1.392341   2.692730   0.000000
     6  C    2.688277   3.799724   2.689681   3.805788   1.393139
     7  C    2.440508   1.418236   3.830212   5.088434   3.352126
     8  N    3.506570   2.580968   4.883091   6.189508   4.200069
     9  C    2.431797   1.418747   3.346339   4.059956   3.820556
    10  N    3.475698   2.581335   4.154140   4.564062   4.848645
    11  C    3.359456   4.074604   2.441858   1.418985   3.834178
    12  N    4.186909   4.606780   3.495980   2.581968   4.873839
    13  C    3.831080   5.087708   2.441418   1.419142   3.360135
    14  N    4.878924   6.184490   3.502872   2.581290   4.200873
    15  C    3.817611   5.073291   3.338378   4.046568   2.428970
    16  N    4.846374   6.155176   4.148407   4.552293   3.475239
    17  C    3.353741   4.059724   3.829636   5.086800   2.437357
    18  N    4.168710   4.573198   4.861697   6.171683   3.484829
                    6          7          8          9         10
     6  C    0.000000
     7  C    4.063620   0.000000
     8  N    4.621879   1.162832   0.000000
     9  C    5.077356   2.453588   3.501206   0.000000
    10  N    6.158748   3.520997   4.473578   1.162920   0.000000
    11  C    5.087989   5.479163   6.636857   3.816620   3.951649
    12  N    6.179117   6.021714   7.181680   3.985864   3.772745
    13  C    4.069494   6.271562   7.312825   5.465128   5.979626
    14  N    4.618779   7.307296   8.305093   6.621159   7.139372
    15  C    1.419700   5.466421   6.039247   6.249096   7.261136
    16  N    2.581854   6.617112   7.200989   7.262740   8.222644
    17  C    1.419602   3.812045   4.010243   5.463661   6.614820
    18  N    2.582786   3.958117   3.809625   5.988903   7.151512
                   11         12         13         14         15
    11  C    0.000000
    12  N    1.163034   0.000000
    13  C    2.448792   3.507077   0.000000
    14  N    3.497791   4.457520   1.162181   0.000000
    15  C    5.452371   6.607316   3.798015   3.987555   0.000000
    16  N    5.967235   7.128874   3.934306   3.775771   1.162322
    17  C    6.271342   7.298527   5.474629   6.034899   2.464549
    18  N    7.290037   8.268351   6.627154   7.197587   3.533075
                   16         17         18
    16  N    0.000000
    17  C    3.530025   0.000000
    18  N    4.511811   1.163433   0.000000
 Symmetry turned off by external request.
 Stoichiometry    C12N6(1-,2)
 Framework group  C1[X(C12N6)]
 Deg. of freedom    48
 Full point group                 C1      NOp   1
 Rotational constants (GHZ):           0.4324689           0.4267337           0.2148292
 Standard basis: def2SVP (5D, 7F)
   252 basis functions,   450 primitive gaussians,   270 cartesian basis functions
    58 alpha electrons       57 beta electrons
       nuclear repulsion energy       965.7289593740 Hartrees.
 NAtoms=   18 NActive=   18 NUniq=   18 SFac= 1.00D+00 NAtFMM=   60 NAOKFM=F Big=F
 Integral buffers will be    131072 words long.
 Raffenetti 2 integral format.
 Two-electron integral symmetry is turned off.
 Nuclear repulsion after empirical dispersion term =      965.7172677913 Hartrees.
 Force PCM accuracy= 1.00D-10.
 ------------------------------------------------------------------------------
 Polarizable Continuum Model (PCM)
 =================================
 Model                : PCM (using non-symmetric T matrix).
 Atomic radii         : SMD-Coulomb.
 Polarization charges : Total charges.
 Charge compensation  : None.
 Solution method      : On-the-fly selection.
 Cavity type          : VdW (van der Waals Surface) (Alpha=1.000).
 Cavity algorithm     : GePol (No added spheres)
                        Default sphere list used, NSphG=   18.
                        Lebedev-Laikov grids with approx.  5.0 points / Ang**2.
                        Smoothing algorithm: York/Karplus (Gamma=1.0000).
                        Polarization charges: spherical gaussians, with
                                              point-specific exponents (IZeta= 3).
                        Self-potential: point-specific (ISelfS= 7).
                        Self-field    : sphere-specific E.n sum rule (ISelfD= 2).
 1st derivatives      : Analytical E(r).r(x)/FMM algorithm (CHGder, D1EAlg=3).
                        Cavity 1st derivative terms included.
 Solvent              : Acetonitrile, Eps=  35.688000 Eps(inf)=   1.806874
 ------------------------------------------------------------------------------
 Spheres list:
 ISph  on   Nord     Re0    Alpha      Xe            Ye            Ze
    1   C      1    1.8500  1.000     -8.946423     -0.916426      1.106406
    2   C      2    1.8500  1.000     -8.950362      0.469420      1.244383
    3   C      3    1.8500  1.000     -8.251748     -2.113942      0.985007
    4   C      4    1.8500  1.000     -7.044596     -2.808226      0.900053
    5   C      5    1.8500  1.000     -9.644035     -2.112321      0.997168
    6   C      6    1.8500  1.000    -10.850163     -2.807262      0.941051
    7   C      7    1.8500  1.000    -10.174185      1.180207      1.336218
    8   N      8    1.8900  1.000    -11.167605      1.778737      1.420233
    9   C      9    1.8500  1.000     -7.720663      1.172988      1.319716
   10   N     10    1.8900  1.000     -6.694619      1.716807      1.381988
   11   C     11    1.8500  1.000     -5.810167     -2.110111      0.948427
   12   N     12    1.8900  1.000     -4.805675     -1.525356      0.989711
   13   C     13    1.8500  1.000     -7.038409     -4.218492      0.741702
   14   N     14    1.8900  1.000     -7.023985     -5.372473      0.604644
   15   C     15    1.8500  1.000    -10.835248     -4.222998      0.836093
   16   N     16    1.8900  1.000    -10.796774     -5.381805      0.754368
   17   C     17    1.8500  1.000    -12.081363     -2.102306      0.990573
   18   N     18    1.8900  1.000    -13.073873     -1.496616      1.031064
 ------------------------------------------------------------------------------
 ------------------------------------------------------------------------------
 Atomic radii for non-electrostatic terms: SMD-CDS.
 ------------------------------------------------------------------------------
 Nuclear repulsion after PCM non-electrostatic terms =      965.7259821616 Hartrees.
 One-electron integrals computed using PRISM.
   1 Symmetry operations used in ECPInt.
 ECPInt:  NShTT=    5886 NPrTT=   23670 LenC2=    5404 LenP2D=   14972.
 LDataN:  DoStor=T MaxTD1= 4 Len=   56
 NBasis=   252 RedAO= T EigKep=  1.92D-04  NBF=   252
 NBsUse=   252 1.00D-06 EigRej= -1.00D+00 NBFU=   252
 Initial guess from the checkpoint file:  "b.chk"
 B after Tr=     0.000230   -0.000925   -0.000727
         Rot=    1.000000    0.000006   -0.000021    0.000032 Ang=   0.00 deg.
 Initial guess <Sx>= 0.0000 <Sy>= 0.0000 <Sz>= 0.5000 <S**2>= 0.7876 S= 0.5186
 Requested convergence on RMS density matrix=1.00D-08 within  64 cycles.
 Requested convergence on MAX density matrix=1.00D-06.
 Requested convergence on             energy=1.00D-06.
 No special actions if energy rises.
 Inv3:  Mode=1 IEnd=    19324332.
 Iteration    1 A*A^-1 deviation from unit magnitude is 3.11D-15 for    759.
 Iteration    1 A*A^-1 deviation from orthogonality  is 3.21D-15 for   1407   1138.
 Iteration    1 A^-1*A deviation from unit magnitude is 3.33D-15 for   1575.
 Iteration    1 A^-1*A deviation from orthogonality  is 3.78D-11 for   2048   2012.
 Error on total polarization charges =  0.01949
 SCF Done:  E(UwB97XD) =  -784.860513673     A.U. after   17 cycles
            NFock= 17  Conv=0.77D-08     -V/T= 2.0098
 <Sx>= 0.0000 <Sy>= 0.0000 <Sz>= 0.5000 <S**2>= 0.7871 S= 0.5184
 <L.S>=  0.00000000000    
 SMD-CDS (non-electrostatic) energy       (kcal/mol) =       5.47
 (included in total energy above)
 Annihilation of the first spin contaminant:
 S**2 before annihilation     0.7871,   after     0.7511
 QCSCF skips out because SCF is already converged.

 **********************************************************************

            Population analysis using the SCF Density.

 **********************************************************************

 Alpha  occ. eigenvalues --  -14.45972 -14.45949 -14.45947 -14.45935 -14.45922
 Alpha  occ. eigenvalues --  -14.45918 -10.38241 -10.38170 -10.38139 -10.38052
 Alpha  occ. eigenvalues --  -10.38030 -10.37998 -10.36152 -10.36118 -10.36113
 Alpha  occ. eigenvalues --  -10.36103 -10.36097 -10.36090  -1.06735  -1.01947
 Alpha  occ. eigenvalues --   -1.01932  -1.01557  -1.00723  -1.00717  -1.00644
 Alpha  occ. eigenvalues --   -0.92080  -0.92055  -0.90117  -0.72251  -0.72192
 Alpha  occ. eigenvalues --   -0.68778  -0.68640  -0.68543  -0.67721  -0.55750
 Alpha  occ. eigenvalues --   -0.50895  -0.50879  -0.49778  -0.49690  -0.47629
 Alpha  occ. eigenvalues --   -0.47521  -0.47517  -0.47023  -0.46776  -0.46754
 Alpha  occ. eigenvalues --   -0.46628  -0.45164  -0.44848  -0.44839  -0.44674
 Alpha  occ. eigenvalues --   -0.44389  -0.44358  -0.42940  -0.42735  -0.42721
 Alpha  occ. eigenvalues --   -0.35262  -0.35256  -0.28008
 Alpha virt. eigenvalues --    0.04795   0.04877   0.06423   0.06828   0.06923
 Alpha virt. eigenvalues --    0.10165   0.10204   0.10534   0.10587   0.12374
 Alpha virt. eigenvalues --    0.12511   0.14541   0.19358   0.19400   0.20963
 Alpha virt. eigenvalues --    0.24830   0.25064   0.25106   0.26250   0.26280
 Alpha virt. eigenvalues --    0.27838   0.31553   0.31615   0.31641   0.33916
 Alpha virt. eigenvalues --    0.34116   0.35294   0.46490   0.46694   0.48574
 Alpha virt. eigenvalues --    0.48943   0.53192   0.53243   0.53291   0.53365
 Alpha virt. eigenvalues --    0.54979   0.55013   0.56104   0.57284   0.59478
 Alpha virt. eigenvalues --    0.60155   0.60198   0.60897   0.61226   0.62716
 Alpha virt. eigenvalues --    0.64078   0.68422   0.69684   0.69780   0.71708
 Alpha virt. eigenvalues --    0.71776   0.72771   0.72868   0.73125   0.73324
 Alpha virt. eigenvalues --    0.73403   0.73551   0.74511   0.74898   0.75866
 Alpha virt. eigenvalues --    0.79552   0.79870   0.80045   0.80960   0.81182
 Alpha virt. eigenvalues --    0.86442   0.86734   0.86946   0.87248   0.92813
 Alpha virt. eigenvalues --    0.92921   0.93038   0.93156   0.93798   0.94064
 Alpha virt. eigenvalues --    0.95886   0.98515   0.98559   0.99027   0.99347
 Alpha virt. eigenvalues --    1.00090   1.00302   1.02929   1.03339   1.03396
 Alpha virt. eigenvalues --    1.05839   1.06837   1.07344   1.07835   1.10428
 Alpha virt. eigenvalues --    1.10560   1.14767   1.16355   1.18021   1.18152
 Alpha virt. eigenvalues --    1.19062   1.22946   1.23078   1.23576   1.33377
 Alpha virt. eigenvalues --    1.36239   1.36381   1.38071   1.38185   1.41272
 Alpha virt. eigenvalues --    1.43562   1.43597   1.45527   1.45814   1.55846
 Alpha virt. eigenvalues --    1.59864   1.65899   1.68332   1.68419   1.68594
 Alpha virt. eigenvalues --    1.68792   1.68870   1.76422   1.76604   1.76725
 Alpha virt. eigenvalues --    1.77136   1.77877   1.79169   1.79216   1.79861
 Alpha virt. eigenvalues --    1.81935   1.82349   1.85205   1.92666   1.92846
 Alpha virt. eigenvalues --    1.93301   1.97721   1.99575   1.99762   2.03315
 Alpha virt. eigenvalues --    2.03578   2.06152   2.07203   2.12585   2.12639
 Alpha virt. eigenvalues --    2.17575   2.19480   2.19926   2.20018   2.26026
 Alpha virt. eigenvalues --    2.26812   2.27102   2.28803   2.33007   2.33036
 Alpha virt. eigenvalues --    2.33412   2.33679   2.33798   2.33901   2.34380
 Alpha virt. eigenvalues --    2.35395   2.35462   2.35682   2.35984   2.36074
 Alpha virt. eigenvalues --    2.37344   2.37438   2.56476   2.62022   2.62458
 Alpha virt. eigenvalues --    2.70594   2.70931   2.92589   2.94440   2.94975
 Alpha virt. eigenvalues --    2.95504   2.98279   2.98730   2.99113   3.02111
 Alpha virt. eigenvalues --    3.04593   3.04715   3.08293   3.08717   3.11717
 Alpha virt. eigenvalues --    3.11750   3.12263   3.23133   3.23473   3.28267
 Alpha virt. eigenvalues --    3.40460   3.40574   3.42465   3.53751   3.57035
 Alpha virt. eigenvalues --    3.57148   3.61406   3.61485   3.75124
  Beta  occ. eigenvalues --  -14.45780 -14.45756 -14.45753 -14.45742 -14.45730
  Beta  occ. eigenvalues --  -14.45727 -10.38277 -10.38206 -10.38175 -10.37700
  Beta  occ. eigenvalues --  -10.37681 -10.37646 -10.36244 -10.36211 -10.36205
  Beta  occ. eigenvalues --  -10.36195 -10.36189 -10.36182  -1.06340  -1.01593
  Beta  occ. eigenvalues --   -1.01581  -1.01202  -1.00393  -1.00384  -1.00314
  Beta  occ. eigenvalues --   -0.91317  -0.91292  -0.89142  -0.72116  -0.72054
  Beta  occ. eigenvalues --   -0.68565  -0.68427  -0.68281  -0.67562  -0.54980
  Beta  occ. eigenvalues --   -0.49670  -0.49618  -0.49598  -0.49528  -0.47269
  Beta  occ. eigenvalues --   -0.47161  -0.47157  -0.46664  -0.46492  -0.46472
  Beta  occ. eigenvalues --   -0.45465  -0.45061  -0.44244  -0.44214  -0.43918
  Beta  occ. eigenvalues --   -0.43897  -0.43870  -0.42795  -0.42594  -0.42582
  Beta  occ. eigenvalues --   -0.32265  -0.32241
  Beta virt. eigenvalues --   -0.10722   0.05488   0.05566   0.06535   0.06929
  Beta virt. eigenvalues --    0.07019   0.10534   0.11200   0.11243   0.11364
  Beta virt. eigenvalues --    0.12420   0.12558   0.14791   0.19551   0.19596
  Beta virt. eigenvalues --    0.22533   0.24745   0.26402   0.26424   0.26673
  Beta virt. eigenvalues --    0.26695   0.28047   0.32027   0.32127   0.32294
  Beta virt. eigenvalues --    0.34006   0.34223   0.35372   0.46610   0.46812
  Beta virt. eigenvalues --    0.48715   0.49012   0.53157   0.53172   0.53331
  Beta virt. eigenvalues --    0.53471   0.55143   0.55168   0.56254   0.57447
  Beta virt. eigenvalues --    0.59407   0.60041   0.60085   0.60910   0.61245
  Beta virt. eigenvalues --    0.62857   0.63947   0.68744   0.69846   0.69934
  Beta virt. eigenvalues --    0.71839   0.71906   0.72905   0.73012   0.73302
  Beta virt. eigenvalues --    0.73519   0.73596   0.73679   0.74644   0.75026
  Beta virt. eigenvalues --    0.75889   0.79868   0.80059   0.80523   0.81705
  Beta virt. eigenvalues --    0.81915   0.86674   0.86839   0.87089   0.87357
  Beta virt. eigenvalues --    0.93001   0.93093   0.93654   0.93749   0.94024
  Beta virt. eigenvalues --    0.94672   0.96599   0.99112   0.99156   0.99289
  Beta virt. eigenvalues --    0.99582   1.00229   1.00438   1.03070   1.03486
  Beta virt. eigenvalues --    1.03535   1.06153   1.06923   1.07667   1.08122
  Beta virt. eigenvalues --    1.10553   1.10689   1.14981   1.16688   1.18267
  Beta virt. eigenvalues --    1.18404   1.19340   1.23186   1.23288   1.24116
  Beta virt. eigenvalues --    1.33528   1.36419   1.36569   1.38633   1.38752
  Beta virt. eigenvalues --    1.42037   1.44254   1.44317   1.45620   1.45892
  Beta virt. eigenvalues --    1.55903   1.59899   1.65732   1.68112   1.68198
  Beta virt. eigenvalues --    1.68370   1.68576   1.68655   1.76556   1.76586
  Beta virt. eigenvalues --    1.76784   1.76996   1.77769   1.79064   1.79107
  Beta virt. eigenvalues --    1.80109   1.81870   1.82284   1.85116   1.92727
  Beta virt. eigenvalues --    1.92882   1.93404   1.97898   2.00166   2.00356
  Beta virt. eigenvalues --    2.03656   2.03921   2.06956   2.07357   2.13104
  Beta virt. eigenvalues --    2.13155   2.17852   2.20579   2.20889   2.20980
  Beta virt. eigenvalues --    2.26558   2.27406   2.27694   2.29293   2.33684
  Beta virt. eigenvalues --    2.33718   2.34069   2.34360   2.34488   2.34587
  Beta virt. eigenvalues --    2.35040   2.35860   2.36135   2.36172   2.36442
  Beta virt. eigenvalues --    2.36559   2.38084   2.38167   2.56941   2.62096
  Beta virt. eigenvalues --    2.62536   2.71019   2.71357   2.92684   2.94588
  Beta virt. eigenvalues --    2.95096   2.95696   2.98443   2.98895   2.99232
  Beta virt. eigenvalues --    3.02613   3.05115   3.05241   3.08453   3.08876
  Beta virt. eigenvalues --    3.12221   3.12252   3.12764   3.23375   3.23718
  Beta virt. eigenvalues --    3.28459   3.40662   3.40778   3.42657   3.53931
  Beta virt. eigenvalues --    3.57216   3.57330   3.61600   3.61680   3.75278
          Condensed to atoms (all electrons):
               1          2          3          4          5          6
     1  C    4.919239   0.543366   0.294598  -0.104811   0.296498  -0.104002
     2  C    0.543366   5.326506  -0.104348  -0.008480  -0.104765  -0.008098
     3  C    0.294598  -0.104348   4.914387   0.541911   0.297679  -0.102781
     4  C   -0.104811  -0.008480   0.541911   5.329428  -0.103351  -0.008295
     5  C    0.296498  -0.104765   0.297679  -0.103351   4.913768   0.542860
     6  C   -0.104002  -0.008098  -0.102781  -0.008295   0.542860   5.323109
     7  C    0.008213   0.390902   0.005076  -0.000514  -0.023255   0.002540
     8  N   -0.001817  -0.029569  -0.000080  -0.000001  -0.000466   0.000113
     9  C    0.007632   0.393291  -0.022787   0.002682   0.006524  -0.000477
    10  N   -0.001820  -0.028038  -0.000513   0.000152  -0.000053  -0.000001
    11  C   -0.022303   0.002557   0.006844   0.392978   0.005666  -0.000499
    12  N   -0.000481   0.000127  -0.001825  -0.028592  -0.000066  -0.000001
    13  C    0.005257  -0.000493   0.008078   0.392955  -0.022133   0.002609
    14  N   -0.000078  -0.000001  -0.001821  -0.029221  -0.000457   0.000119
    15  C    0.006254  -0.000488  -0.023573   0.002673   0.009475   0.391276
    16  N   -0.000051  -0.000001  -0.000538   0.000157  -0.001699  -0.028434
    17  C   -0.023778   0.002727   0.006153  -0.000488   0.006895   0.389793
    18  N   -0.000541   0.000157  -0.000049  -0.000001  -0.001663  -0.028535
               7          8          9         10         11         12
     1  C    0.008213  -0.001817   0.007632  -0.001820  -0.022303  -0.000481
     2  C    0.390902  -0.029569   0.393291  -0.028038   0.002557   0.000127
     3  C    0.005076  -0.000080  -0.022787  -0.000513   0.006844  -0.001825
     4  C   -0.000514  -0.000001   0.002682   0.000152   0.392978  -0.028592
     5  C   -0.023255  -0.000466   0.006524  -0.000053   0.005666  -0.000066
     6  C    0.002540   0.000113  -0.000477  -0.000001  -0.000499  -0.000001
     7  C    4.848439   0.905694  -0.055291   0.002131   0.000118   0.000002
     8  N    0.905694   6.107976   0.001827   0.000068   0.000000   0.000000
     9  C   -0.055291   0.001827   4.848076   0.906666  -0.000452   0.000078
    10  N    0.002131   0.000068   0.906666   6.105333   0.000283  -0.000765
    11  C    0.000118   0.000000  -0.000452   0.000283   4.847276   0.906955
    12  N    0.000002   0.000000   0.000078  -0.000765   0.906955   6.104393
    13  C   -0.000015  -0.000000   0.000122   0.000002  -0.054802   0.001940
    14  N   -0.000000  -0.000000   0.000000   0.000000   0.001873   0.000068
    15  C    0.000118   0.000002  -0.000014  -0.000000   0.000125   0.000000
    16  N    0.000000   0.000000  -0.000000  -0.000000   0.000002   0.000000
    17  C   -0.000449  -0.000013   0.000123   0.000000  -0.000014  -0.000000
    18  N    0.000324  -0.000737   0.000002   0.000000  -0.000000  -0.000000
              13         14         15         16         17         18
     1  C    0.005257  -0.000078   0.006254  -0.000051  -0.023778  -0.000541
     2  C   -0.000493  -0.000001  -0.000488  -0.000001   0.002727   0.000157
     3  C    0.008078  -0.001821  -0.023573  -0.000538   0.006153  -0.000049
     4  C    0.392955  -0.029221   0.002673   0.000157  -0.000488  -0.000001
     5  C   -0.022133  -0.000457   0.009475  -0.001699   0.006895  -0.001663
     6  C    0.002609   0.000119   0.391276  -0.028434   0.389793  -0.028535
     7  C   -0.000015  -0.000000   0.000118   0.000000  -0.000449   0.000324
     8  N   -0.000000  -0.000000   0.000002   0.000000  -0.000013  -0.000737
     9  C    0.000122   0.000000  -0.000014  -0.000000   0.000123   0.000002
    10  N    0.000002   0.000000  -0.000000  -0.000000   0.000000   0.000000
    11  C   -0.054802   0.001873   0.000125   0.000002  -0.000014  -0.000000
    12  N    0.001940   0.000068   0.000000   0.000000  -0.000000  -0.000000
    13  C    4.845248   0.907404  -0.000420   0.000348   0.000118   0.000000
    14  N    0.907404   6.105598   0.000012  -0.000768   0.000002   0.000000
    15  C   -0.000420   0.000012   4.844544   0.905886  -0.052384   0.002058
    16  N    0.000348  -0.000768   0.905886   6.108645   0.002124   0.000064
    17  C    0.000118   0.000002  -0.052384   0.002124   4.847832   0.904752
    18  N    0.000000   0.000000   0.002058   0.000064   0.904752   6.108558
          Atomic-Atomic Spin Densities.
               1          2          3          4          5          6
     1  C   -0.047325  -0.066576   0.036245  -0.005964   0.036187  -0.005870
     2  C   -0.066576   0.383829  -0.005993   0.000988  -0.005976   0.001006
     3  C    0.036245  -0.005993  -0.047836  -0.066515   0.036061  -0.005888
     4  C   -0.005964   0.000988  -0.066515   0.383809  -0.005909   0.000991
     5  C    0.036187  -0.005976   0.036061  -0.005909  -0.047487  -0.066151
     6  C   -0.005870   0.001006  -0.005888   0.000991  -0.066151   0.381287
     7  C    0.000383   0.005074  -0.000144  -0.000014   0.000418  -0.000070
     8  N    0.000489  -0.005452   0.000009  -0.000000   0.000035  -0.000026
     9  C    0.000439   0.004850   0.000370  -0.000074  -0.000167  -0.000015
    10  N    0.000556  -0.005422   0.000035  -0.000030   0.000010  -0.000000
    11  C    0.000367  -0.000072   0.000416   0.004925  -0.000147  -0.000014
    12  N    0.000033  -0.000026   0.000516  -0.005402   0.000009  -0.000000
    13  C   -0.000147  -0.000014   0.000431   0.004935   0.000378  -0.000070
    14  N    0.000009  -0.000000   0.000499  -0.005403   0.000034  -0.000025
    15  C   -0.000151  -0.000015   0.000393  -0.000075   0.000379   0.004902
    16  N    0.000010  -0.000000   0.000037  -0.000032   0.000542  -0.005401
    17  C    0.000392  -0.000073  -0.000142  -0.000015   0.000420   0.005028
    18  N    0.000036  -0.000030   0.000010  -0.000000   0.000532  -0.005394
               7          8          9         10         11         12
     1  C    0.000383   0.000489   0.000439   0.000556   0.000367   0.000033
     2  C    0.005074  -0.005452   0.004850  -0.005422  -0.000072  -0.000026
     3  C   -0.000144   0.000009   0.000370   0.000035   0.000416   0.000516
     4  C   -0.000014  -0.000000  -0.000074  -0.000030   0.004925  -0.005402
     5  C    0.000418   0.000035  -0.000167   0.000010  -0.000147   0.000009
     6  C   -0.000070  -0.000026  -0.000015  -0.000000  -0.000014  -0.000000
     7  C   -0.076670  -0.001654  -0.000207   0.000128  -0.000003   0.000000
     8  N   -0.001654   0.119061   0.000171   0.000010  -0.000000   0.000000
     9  C   -0.000207   0.000171  -0.076468  -0.001613   0.000017   0.000016
    10  N    0.000128   0.000010  -0.001613   0.118338   0.000015   0.000040
    11  C   -0.000003  -0.000000   0.000017   0.000015  -0.076661  -0.001640
    12  N    0.000000   0.000000   0.000016   0.000040  -0.001640   0.118784
    13  C    0.000000  -0.000000  -0.000003   0.000000  -0.000242   0.000147
    14  N   -0.000000   0.000000  -0.000000   0.000000   0.000163   0.000011
    15  C   -0.000003   0.000000   0.000000  -0.000000  -0.000003  -0.000000
    16  N   -0.000000   0.000000  -0.000000   0.000000   0.000000   0.000000
    17  C    0.000019   0.000016  -0.000003  -0.000000   0.000000  -0.000000
    18  N    0.000014   0.000035   0.000000   0.000000  -0.000000   0.000000
              13         14         15         16         17         18
     1  C   -0.000147   0.000009  -0.000151   0.000010   0.000392   0.000036
     2  C   -0.000014  -0.000000  -0.000015  -0.000000  -0.000073  -0.000030
     3  C    0.000431   0.000499   0.000393   0.000037  -0.000142   0.000010
     4  C    0.004935  -0.005403  -0.000075  -0.000032  -0.000015  -0.000000
     5  C    0.000378   0.000034   0.000379   0.000542   0.000420   0.000532
     6  C   -0.000070  -0.000025   0.004902  -0.005401   0.005028  -0.005394
     7  C    0.000000  -0.000000  -0.000003  -0.000000   0.000019   0.000014
     8  N   -0.000000   0.000000   0.000000   0.000000   0.000016   0.000035
     9  C   -0.000003  -0.000000   0.000000  -0.000000  -0.000003   0.000000
    10  N    0.000000   0.000000  -0.000000   0.000000  -0.000000   0.000000
    11  C   -0.000242   0.000163  -0.000003   0.000000   0.000000  -0.000000
    12  N    0.000147   0.000011  -0.000000   0.000000  -0.000000   0.000000
    13  C   -0.076132  -0.001593   0.000018   0.000015  -0.000003  -0.000000
    14  N   -0.001593   0.118181   0.000016   0.000039   0.000000   0.000000
    15  C    0.000018   0.000016  -0.075331  -0.001576  -0.000309   0.000131
    16  N    0.000015   0.000039  -0.001576   0.116673   0.000129   0.000009
    17  C   -0.000003   0.000000  -0.000309   0.000129  -0.076179  -0.001657
    18  N   -0.000000   0.000000   0.000131   0.000009  -0.001657   0.117880
 Mulliken charges and spin densities:
               1          2
     1  C    0.178623  -0.050887
     2  C   -0.375351   0.306098
     3  C    0.183589  -0.051494
     4  C   -0.379183   0.306215
     5  C    0.178544  -0.050833
     6  C   -0.371295   0.304289
     7  C   -0.084034  -0.072729
     8  N    0.017002   0.112694
     9  C   -0.088003  -0.072687
    10  N    0.016556   0.112066
    11  C   -0.086606  -0.072880
    12  N    0.018166   0.112487
    13  C   -0.086218  -0.072279
    14  N    0.017270   0.111930
    15  C   -0.085543  -0.071623
    16  N    0.014265   0.110444
    17  C   -0.083393  -0.072378
    18  N    0.015612   0.111566
 Sum of Mulliken charges =  -1.00000   1.00000
 Mulliken charges and spin densities with hydrogens summed into heavy atoms:
               1          2
     1  C    0.178623  -0.050887
     2  C   -0.375351   0.306098
     3  C    0.183589  -0.051494
     4  C   -0.379183   0.306215
     5  C    0.178544  -0.050833
     6  C   -0.371295   0.304289
     7  C   -0.084034  -0.072729
     8  N    0.017002   0.112694
     9  C   -0.088003  -0.072687
    10  N    0.016556   0.112066
    11  C   -0.086606  -0.072880
    12  N    0.018166   0.112487
    13  C   -0.086218  -0.072279
    14  N    0.017270   0.111930
    15  C   -0.085543  -0.071623
    16  N    0.014265   0.110444
    17  C   -0.083393  -0.072378
    18  N    0.015612   0.111566
 Electronic spatial extent (au):  <R**2>=          38982.2533
 Charge=             -1.0000 electrons
 Dipole moment (field-independent basis, Debye):
    X=             42.7429    Y=              8.2206    Z=             -4.9590  Tot=             43.8078
 Quadrupole moment (field-independent basis, Debye-Ang):
   XX=           -551.7111   YY=           -184.9846   ZZ=           -104.1563
   XY=            -72.3952   XZ=             44.8778   YZ=              1.1903
 Traceless Quadrupole moment (field-independent basis, Debye-Ang):
   XX=           -271.4271   YY=             95.2994   ZZ=            176.1277
   XY=            -72.3952   XZ=             44.8778   YZ=              1.1903
 Octapole moment (field-independent basis, Debye-Ang**2):
  XXX=           7977.3892  YYY=            970.4841  ZZZ=           -311.1019  XYY=           1650.5296
  XXY=            863.0387  XXZ=           -587.4901  XZZ=            932.2026  YZZ=            163.9305
  YYZ=           -160.7261  XYZ=            -11.7950
 Hexadecapole moment (field-independent basis, Debye-Ang**3):
 XXXX=        -116499.9882 YYYY=          -7787.3126 ZZZZ=           -763.4037 XXXY=         -11640.5022
 XXXZ=           8559.6915 YYYX=          -8644.9003 YYYZ=            640.4939 ZZZX=           2799.1194
 ZZZY=            360.6349 XXYY=         -16426.0986 XXZZ=          -9077.1226 YYZZ=           -972.9753
 XXYZ=            266.3117 YYXZ=           1455.1432 ZZXY=          -1463.9201
 N-N= 9.657259821616D+02 E-N=-3.766745063523D+03  KE= 7.772609816811D+02
                          Isotropic Fermi Contact Couplings
        Atom                 a.u.       MegaHertz       Gauss      10(-4) cm-1
     1  C(13)             -0.01759     -19.77888      -7.05760      -6.59753
     2  C(13)              0.05016      56.38776      20.12055      18.80893
     3  C(13)             -0.01776     -19.96660      -7.12458      -6.66014
     4  C(13)              0.05034      56.59040      20.19286      18.87653
     5  C(13)             -0.01756     -19.73591      -7.04226      -6.58319
     6  C(13)              0.04992      56.11980      20.02494      18.71955
     7  C(13)             -0.03266     -36.71878     -13.10217     -12.24807
     8  N(14)              0.02620       8.46479       3.02045       2.82355
     9  C(13)             -0.03260     -36.65220     -13.07841     -12.22586
    10  N(14)              0.02603       8.41055       3.00109       2.80546
    11  C(13)             -0.03266     -36.71855     -13.10209     -12.24799
    12  N(14)              0.02613       8.44310       3.01271       2.81631
    13  C(13)             -0.03260     -36.64913     -13.07732     -12.22483
    14  N(14)              0.02599       8.39743       2.99641       2.80108
    15  C(13)             -0.03230     -36.31502     -12.95810     -12.11339
    16  N(14)              0.02565       8.28614       2.95670       2.76396
    17  C(13)             -0.03247     -36.49815     -13.02345     -12.17447
    18  N(14)              0.02594       8.38192       2.99088       2.79591
 --------------------------------------------------------
       Center         ----  Spin Dipole Couplings  ----
                      3XX-RR        3YY-RR        3ZZ-RR
 --------------------------------------------------------
     1   Atom        0.000645      0.023331     -0.023975
     2   Atom       -0.160014     -0.156891      0.316905
     3   Atom        0.018173      0.006261     -0.024434
     4   Atom       -0.161846     -0.155245      0.317092
     5   Atom        0.017915      0.005952     -0.023867
     6   Atom       -0.160783     -0.156832      0.317615
     7   Atom        0.037171      0.009316     -0.046488
     8   Atom       -0.112704     -0.092804      0.205507
     9   Atom        0.038263      0.008028     -0.046291
    10   Atom       -0.113977     -0.090539      0.204516
    11   Atom        0.035855      0.010706     -0.046561
    12   Atom       -0.113284     -0.092319      0.205602
    13   Atom       -0.002735      0.048444     -0.045708
    14   Atom       -0.086321     -0.116900      0.203220
    15   Atom       -0.002650      0.048437     -0.045788
    16   Atom       -0.085106     -0.118630      0.203736
    17   Atom        0.035051      0.011399     -0.046449
    18   Atom       -0.111801     -0.093936      0.205737
 --------------------------------------------------------
                        XY            XZ            YZ
 --------------------------------------------------------
     1   Atom        0.000165     -0.002215      0.003768
     2   Atom       -0.000278      0.002835     -0.051235
     3   Atom       -0.010021      0.000207      0.003611
     4   Atom        0.000133      0.008482     -0.051123
     5   Atom        0.009956      0.000239      0.003931
     6   Atom       -0.000869     -0.001011     -0.035956
     7   Atom       -0.022360     -0.003480      0.006313
     8   Atom        0.015076      0.008477     -0.034195
     9   Atom        0.021568      0.002322      0.006045
    10   Atom       -0.014659     -0.002615     -0.033444
    11   Atom        0.023318      0.000780      0.005659
    12   Atom       -0.016113      0.005004     -0.031482
    13   Atom        0.000800     -0.000462      0.010704
    14   Atom        0.000101      0.004032     -0.039691
    15   Atom       -0.002213      0.000074      0.006970
    16   Atom        0.001179     -0.001432     -0.022267
    17   Atom       -0.023342     -0.001581      0.004199
    18   Atom        0.015892     -0.000270     -0.021359
 --------------------------------------------------------


 ---------------------------------------------------------------------------------
              Anisotropic Spin Dipole Couplings in Principal Axis System
 ---------------------------------------------------------------------------------

       Atom             a.u.   MegaHertz   Gauss  10(-4) cm-1        Axes

              Baa    -0.0245    -3.284    -1.172    -1.095  0.0881 -0.0786  0.9930
     1 C(13)  Bbb     0.0008     0.113     0.040     0.038  0.9961  0.0074 -0.0878
              Bcc     0.0236     3.171     1.131     1.058 -0.0004  0.9969  0.0789
 
              Baa    -0.1624   -21.788    -7.775    -7.268 -0.0105  0.9943  0.1064
     2 C(13)  Bbb    -0.1600   -21.475    -7.663    -7.163  0.9999  0.0111 -0.0048
              Bcc     0.3224    43.263    15.437    14.431  0.0059 -0.1063  0.9943
 
              Baa    -0.0249    -3.341    -1.192    -1.115 -0.0340 -0.1258  0.9915
     3 C(13)  Bbb     0.0010     0.130     0.047     0.043  0.4982  0.8578  0.1260
              Bcc     0.0239     3.211     1.146     1.071  0.8664 -0.4983 -0.0335
 
              Baa    -0.1626   -21.815    -7.784    -7.277  0.8732 -0.4827 -0.0669
     4 C(13)  Bbb    -0.1601   -21.489    -7.668    -7.168  0.4870  0.8693  0.0845
              Bcc     0.3227    43.304    15.452    14.445  0.0174 -0.1063  0.9942
 
              Baa    -0.0244    -3.275    -1.169    -1.092  0.0266 -0.1370  0.9902
     5 C(13)  Bbb     0.0008     0.102     0.036     0.034 -0.4989  0.8566  0.1319
              Bcc     0.0236     3.173     1.132     1.058  0.8662  0.4975  0.0455
 
              Baa    -0.1613   -21.644    -7.723    -7.220  0.8805  0.4725  0.0373
     6 C(13)  Bbb    -0.1590   -21.341    -7.615    -7.119 -0.4740  0.8781  0.0652
              Bcc     0.3203    42.985    15.338    14.338 -0.0020 -0.0751  0.9972
 
              Baa    -0.0472    -6.335    -2.260    -2.113  0.0129 -0.1059  0.9943
     7 C(13)  Bbb    -0.0028    -0.372    -0.133    -0.124  0.4924  0.8661  0.0859
              Bcc     0.0500     6.706     2.393     2.237  0.8703 -0.4885 -0.0634
 
              Baa    -0.1226    -4.729    -1.688    -1.578  0.8521 -0.5179 -0.0760
     8 N(14)  Bbb    -0.0869    -3.351    -1.196    -1.118  0.5230  0.8482  0.0840
              Bcc     0.2095     8.081     2.883     2.695  0.0209 -0.1113  0.9936
 
              Baa    -0.0470    -6.301    -2.248    -2.102  0.0006 -0.1095  0.9940
     9 C(13)  Bbb    -0.0028    -0.372    -0.133    -0.124 -0.4673  0.8787  0.0971
              Bcc     0.0497     6.673     2.381     2.226  0.8841  0.4646  0.0506
 
              Baa    -0.1220    -4.704    -1.678    -1.569  0.8810  0.4698  0.0552
    10 N(14)  Bbb    -0.0863    -3.329    -1.188    -1.110 -0.4730  0.8758  0.0965
              Bcc     0.2083     8.032     2.866     2.679 -0.0030 -0.1111  0.9938
 
              Baa    -0.0471    -6.326    -2.257    -2.110  0.0203 -0.1054  0.9942
    11 C(13)  Bbb    -0.0028    -0.370    -0.132    -0.124 -0.5158  0.8508  0.1007
              Bcc     0.0499     6.697     2.390     2.234  0.8565  0.5148  0.0371
 
              Baa    -0.1224    -4.720    -1.684    -1.575  0.8653  0.5000  0.0348
    12 N(14)  Bbb    -0.0866    -3.341    -1.192    -1.115 -0.5008  0.8596  0.1012
              Bcc     0.2090     8.062     2.877     2.689  0.0207 -0.1050  0.9943
 
              Baa    -0.0469    -6.296    -2.246    -2.100  0.0124 -0.1116  0.9937
    13 C(13)  Bbb    -0.0027    -0.368    -0.131    -0.123  0.9998 -0.0127 -0.0139
              Bcc     0.0497     6.663     2.378     2.223  0.0142  0.9937  0.1115
 
              Baa    -0.1218    -4.696    -1.676    -1.566 -0.0167  0.9925  0.1214
    14 N(14)  Bbb    -0.0864    -3.331    -1.189    -1.111  0.9998  0.0182 -0.0114
              Bcc     0.2081     8.027     2.864     2.677  0.0135 -0.1212  0.9925
 
              Baa    -0.0463    -6.213    -2.217    -2.073 -0.0054 -0.0735  0.9973
    15 C(13)  Bbb    -0.0027    -0.368    -0.131    -0.123  0.9991  0.0420  0.0085
              Bcc     0.0490     6.581     2.348     2.195 -0.0426  0.9964  0.0732
 
              Baa    -0.1202    -4.636    -1.654    -1.546 -0.0307  0.9972  0.0684
    16 N(14)  Bbb    -0.0851    -3.281    -1.171    -1.095  0.9995  0.0303  0.0073
              Bcc     0.2053     7.917     2.825     2.641 -0.0052 -0.0686  0.9976
 
              Baa    -0.0468    -6.274    -2.239    -2.093 -0.0014 -0.0726  0.9974
    17 C(13)  Bbb    -0.0028    -0.372    -0.133    -0.124  0.5261  0.8481  0.0625
              Bcc     0.0495     6.645     2.371     2.217  0.8504 -0.5248 -0.0370
 
              Baa    -0.1214    -4.684    -1.671    -1.562  0.8541 -0.5191 -0.0332
    18 N(14)  Bbb    -0.0858    -3.309    -1.181    -1.104  0.5201  0.8518  0.0629
              Bcc     0.2073     7.993     2.852     2.666 -0.0044 -0.0710  0.9975
 

 ---------------------------------------------------------------------------------

   1 Symmetry operations used in ECPInt.
 ECPInt:  NShTT=    5886 NPrTT=   23670 LenC2=    5404 LenP2D=   14972.
 LDataN:  DoStor=T MaxTD1= 5 Len=  102
 D1PCM: PCM CHGder 1st derivatives, ID1Alg=3 FixD1E=F DoIter=F DoCFld=F I1PDM=0.
 Calling FoFJK, ICntrl=      2127 FMM=F ISym2X=0 I1Cent= 0 IOpClX= 1 NMat=1 NMatS=1 NMatT=0.
 -------------------------------------------------------------------
 Center     Atomic                   Forces (Hartrees/Bohr)
 Number     Number              X              Y              Z
 -------------------------------------------------------------------
      1        6          -0.000481150    0.021630206    0.001815158
      2        6           0.000410136   -0.013970889   -0.000999007
      3        6           0.018352162   -0.011472750   -0.001079866
      4        6          -0.013872649    0.007502960    0.000498971
      5        6          -0.017027085   -0.011245353   -0.001024876
      6        6           0.012437996    0.006407043    0.000492157
      7        6          -0.007834289    0.006846909    0.001182555
      8        7           0.005047622   -0.004548289   -0.000837012
      9        6           0.009497980    0.004231639    0.000472572
     10        7          -0.006273470   -0.002773451   -0.000432180
     11        6           0.008627070    0.005650047    0.000670758
     12        7          -0.006261596   -0.003496741   -0.000306880
     13        6           0.001106348   -0.008316385   -0.001175066
     14        7          -0.000998042    0.005094834    0.000833320
     15        6          -0.000698505   -0.008190916   -0.000783697
     16        7          -0.000144954    0.005534067    0.000344273
     17        6          -0.008731216    0.005588244    0.000671411
     18        7           0.006843641   -0.004471175   -0.000342591
 -------------------------------------------------------------------
 Cartesian Forces:  Max     0.021630206 RMS     0.007256431

 GradGradGradGradGradGradGradGradGradGradGradGradGradGradGradGradGradGrad
 Berny optimization.
 Search for a local minimum.
 Step number   1 out of a maximum of    2
 All quantities printed in internal units (Hartrees-Bohrs-Radians)
 Second derivative matrix not updated -- first step.
 ITU=  0
     Eigenvalues ---    0.00101   0.00144   0.00194   0.00300   0.00301
     Eigenvalues ---    0.00745   0.01539   0.01724   0.01986   0.02024
     Eigenvalues ---    0.03130   0.04132   0.05340   0.05357   0.10303
     Eigenvalues ---    0.16054   0.21279   0.21686   0.24397   0.24880
     Eigenvalues ---    0.25068   0.25670   0.26161   0.30044   0.30204
     Eigenvalues ---    0.40679   0.48413   0.78921   0.79650   0.81471
     Eigenvalues ---    0.95514   0.99575   1.04383   1.04951   1.12158
     Eigenvalues ---    1.59810   1.60555   2.06396   2.77742   2.78026
     Eigenvalues ---    2.78435   2.83395   2.83460   2.83699  35.76038
     Eigenvalues ---   46.39775  74.15564 122.38226
 Angle between quadratic step and forces=  77.46 degrees.
 Linear search not attempted -- first point.
 B after Tr=    -0.000221    0.000075   -0.000056
         Rot=    1.000000    0.000006    0.000000   -0.000003 Ang=   0.00 deg.
 Variable       Old X    -DE/DX   Delta X   Delta X   Delta X     New X
                                 (Linear)    (Quad)   (Total)
    X1      -16.90629  -0.00048   0.00000   0.00615   0.00594 -16.90035
    Y1       -1.73179   0.02163   0.00000   0.00723   0.00721  -1.72458
    Z1        2.09081   0.00182   0.00000   0.00370   0.00367   2.09447
    X2      -16.91373   0.00041   0.00000   0.01026   0.01003 -16.90370
    Y2        0.88708  -0.01397   0.00000  -0.01476  -0.01477   0.87231
    Z2        2.35154  -0.00100   0.00000   0.00434   0.00428   2.35582
    X3      -15.59354   0.01835   0.00000   0.01027   0.01008 -15.58347
    Y3       -3.99477  -0.01147   0.00000  -0.00424  -0.00425  -3.99902
    Z3        1.86139  -0.00108   0.00000  -0.00223  -0.00223   1.85916
    X4      -13.31236  -0.01387   0.00000  -0.01422  -0.01440 -13.32676
    Y4       -5.30678   0.00750   0.00000   0.00991   0.00992  -5.29686
    Z4        1.70085   0.00050   0.00000  -0.00273  -0.00272   1.69813
    X5      -18.22459  -0.01703   0.00000   0.00110   0.00091 -18.22368
    Y5       -3.99171  -0.01125   0.00000  -0.00620  -0.00622  -3.99793
    Z5        1.88437  -0.00102   0.00000  -0.00075  -0.00075   1.88362
    X6      -20.50384   0.01244   0.00000   0.02171   0.02152 -20.48231
    Y6       -5.30496   0.00641   0.00000   0.00454   0.00450  -5.30046
    Z6        1.77833   0.00049   0.00000  -0.00101  -0.00100   1.77733
    X7      -19.22642  -0.00783   0.00000   0.00023  -0.00001 -19.22643
    Y7        2.23027   0.00685   0.00000  -0.01442  -0.01444   2.21583
    Z7        2.52509   0.00118   0.00000  -0.00269  -0.00278   2.52231
    X8      -21.10371   0.00505   0.00000  -0.01032  -0.01056 -21.11428
    Y8        3.36132  -0.00455   0.00000  -0.03981  -0.03985   3.32147
    Z8        2.68385  -0.00084   0.00000  -0.02025  -0.02035   2.66350
    X9      -14.58994   0.00950   0.00000   0.01678   0.01655 -14.57339
    Y9        2.21663   0.00423   0.00000  -0.00809  -0.00808   2.20854
    Z9        2.49390   0.00047   0.00000  -0.00896  -0.00904   2.48486
   X10      -12.65100  -0.00627   0.00000   0.00710   0.00686 -12.64414
   Y10        3.24429  -0.00277   0.00000  -0.00014  -0.00012   3.24418
   Z10        2.61158  -0.00043   0.00000  -0.02057  -0.02067   2.59091
   X11      -10.97962   0.00863   0.00000  -0.01218  -0.01238 -10.99200
   Y11       -3.98753   0.00565   0.00000   0.02057   0.02059  -3.96694
   Z11        1.79227   0.00067   0.00000   0.00682   0.00682   1.79908
   X12       -9.08141  -0.00626   0.00000  -0.02195  -0.02215  -9.10356
   Y12       -2.88251  -0.00350   0.00000   0.02552   0.02555  -2.85695
   Z12        1.87028  -0.00031   0.00000   0.01363   0.01361   1.88389
   X13      -13.30067   0.00111   0.00000  -0.01916  -0.01933 -13.31999
   Y13       -7.97180  -0.00832   0.00000   0.00061   0.00061  -7.97119
   Z13        1.40161  -0.00118   0.00000   0.01175   0.01180   1.41341
   X14      -13.27341  -0.00100   0.00000  -0.04106  -0.04121 -13.31462
   Y14      -10.15250   0.00509   0.00000   0.00228   0.00228 -10.15022
   Z14        1.14261   0.00083   0.00000   0.03003   0.03011   1.17272
   X15      -20.47565  -0.00070   0.00000   0.00821   0.00804 -20.46761
   Y15       -7.98031  -0.00819   0.00000   0.00021   0.00017  -7.98014
   Z15        1.57999  -0.00078   0.00000  -0.02956  -0.02951   1.55048
   X16      -20.40295  -0.00014   0.00000  -0.00236  -0.00251 -20.40545
   Y16      -10.17014   0.00553   0.00000   0.00588   0.00583 -10.16430
   Z16        1.42555   0.00034   0.00000  -0.05241  -0.05234   1.37321
   X17      -22.83047  -0.00873   0.00000   0.01916   0.01896 -22.81151
   Y17       -3.97278   0.00559   0.00000   0.00870   0.00865  -3.96414
   Z17        1.87191   0.00067   0.00000   0.02494   0.02493   1.89684
   X18      -24.70604   0.00684   0.00000   0.02387   0.02366 -24.68238
   Y18       -2.82819  -0.00447   0.00000   0.00249   0.00242  -2.82577
   Z18        1.94843  -0.00034   0.00000   0.04621   0.04619   1.99461
         Item               Value     Threshold  Converged?
 Maximum Force            0.021630     0.000450     NO 
 RMS     Force            0.007256     0.000300     NO 
 Maximum Displacement     0.052337     0.001800     NO 
 RMS     Displacement     0.017832     0.001200     NO 
 Predicted change in Energy=-7.582812D-04
 GradGradGradGradGradGradGradGradGradGradGradGradGradGradGradGradGradGrad

 Unable to Open any file for archive entry.
 1\1\GINC-X10P1N4\Force\UwB97XD\def2SVP\C12N6(1-,2)\MAYUMIAO\11-Oct-202
 4\0\\# wb97xd def2svp scrf=(smd,solvent=acetonitrile) g09default scf=(
 xqc,maxcycle=64) force guess=read nosymm\\Title Card\\-1,2\C,-8.946422
 9,-0.91642562,1.10640636\C,-8.95036236,0.46942003,1.2443828\C,-8.25174
 846,-2.11394158,0.98500731\C,-7.04459634,-2.8082259,0.90005277\C,-9.64
 403515,-2.112321,0.99716787\C,-10.85016294,-2.80726229,0.94105136\C,-1
 0.1741851,1.18020655,1.33621754\N,-11.16760451,1.7787365,1.42023267\C,
 -7.72066295,1.17298756,1.31971567\N,-6.69461872,1.71680662,1.38198797\
 C,-5.81016712,-2.11011135,0.94842738\N,-4.80567526,-1.52535608,0.98971
 056\C,-7.03840904,-4.21849241,0.74170198\N,-7.02398468,-5.37247327,0.6
 0464423\C,-10.83524824,-4.22299848,0.83609334\N,-10.79677397,-5.381805
 27,0.75436826\C,-12.08136289,-2.10230594,0.99057308\N,-13.07387338,-1.
 49661556,1.03106379\\Version=ES64L-G16RevC.01\HF=-784.8605137\S2=0.787
 099\S2-1=0.\S2A=0.751132\RMSD=7.750e-09\RMSF=7.256e-03\Dipole=-0.07552
 34,-0.0065108,-0.0056716\Quadrupole=-201.7993791,70.8527704,130.946608
 8,-53.8240301,33.3655289,0.8849889\PG=C01 [X(C12N6)]\\@
 The archive entry for this job was punched.


 A MAN IS EXACTLY AS GREAT AS THE TIDE SURGING
 BENEATH HIM.      - BISMARCK
 Job cpu time:       0 days  0 hours 12 minutes 55.9 seconds.
 Elapsed time:       0 days  0 hours  0 minutes 29.1 seconds.
 File lengths (MBytes):  RWF=    173 Int=      0 D2E=      0 Chk=      9 Scr=      1
 Normal termination of Gaussian 16 at Fri Oct 11 16:07:39 2024.
