 Entering Gaussian System, Link 0=g16
 Input=JOBS/45_B.gjf
 Output=JOBS/45_B.log
 Initial command:
 /data/app/gaussian/C01-avx2//g16/l1.exe "/tmp/Gau-2556004.inp" -scrdir="/tmp/"
 Entering Link 1 = /data/app/gaussian/C01-avx2//g16/l1.exe PID=   2556005.
  
 Copyright (c) 1988-2019, Gaussian, Inc.  All Rights Reserved.
  
 This is part of the Gaussian(R) 16 program.  It is based on
 the Gaussian(R) 09 system (copyright 2009, Gaussian, Inc.),
 the Gaussian(R) 03 system (copyright 2003, Gaussian, Inc.),
 the Gaussian(R) 98 system (copyright 1998, Gaussian, Inc.),
 the Gaussian(R) 94 system (copyright 1995, Gaussian, Inc.),
 the Gaussian 92(TM) system (copyright 1992, Gaussian, Inc.),
 the Gaussian 90(TM) system (copyright 1990, Gaussian, Inc.),
 the Gaussian 88(TM) system (copyright 1988, Gaussian, Inc.),
 the Gaussian 86(TM) system (copyright 1986, Carnegie Mellon
 University), and the Gaussian 82(TM) system (copyright 1983,
 Carnegie Mellon University). Gaussian is a federally registered
 trademark of Gaussian, Inc.
  
 This software contains proprietary and confidential information,
 including trade secrets, belonging to Gaussian, Inc.
  
 This software is provided under written license and may be
 used, copied, transmitted, or stored only in accord with that
 written license.
  
 The following legend is applicable only to US Government
 contracts under FAR:
  
                    RESTRICTED RIGHTS LEGEND
  
 Use, reproduction and disclosure by the US Government is
 subject to restrictions as set forth in subparagraphs (a)
 and (c) of the Commercial Computer Software - Restricted
 Rights clause in FAR 52.227-19.
  
 Gaussian, Inc.
 340 Quinnipiac St., Bldg. 40, Wallingford CT 06492
  
  
 ---------------------------------------------------------------
 Warning -- This program may not be used in any manner that
 competes with the business of Gaussian, Inc. or will provide
 assistance to any competitor of Gaussian, Inc.  The licensee
 of this program is prohibited from giving any competitor of
 Gaussian, Inc. access to this program.  By using this program,
 the user acknowledges that Gaussian, Inc. is engaged in the
 business of creating and licensing software in the field of
 computational chemistry and represents and warrants to the
 licensee that it is not a competitor of Gaussian, Inc. and that
 it will not use this program in any manner prohibited above.
 ---------------------------------------------------------------
  

 Cite this work as:
 Gaussian 16, Revision C.01,
 M. J. Frisch, G. W. Trucks, H. B. Schlegel, G. E. Scuseria, 
 M. A. Robb, J. R. Cheeseman, G. Scalmani, V. Barone, 
 G. A. Petersson, H. Nakatsuji, X. Li, M. Caricato, A. V. Marenich, 
 J. Bloino, B. G. Janesko, R. Gomperts, B. Mennucci, H. P. Hratchian, 
 J. V. Ortiz, A. F. Izmaylov, J. L. Sonnenberg, D. Williams-Young, 
 F. Ding, F. Lipparini, F. Egidi, J. Goings, B. Peng, A. Petrone, 
 T. Henderson, D. Ranasinghe, V. G. Zakrzewski, J. Gao, N. Rega, 
 G. Zheng, W. Liang, M. Hada, M. Ehara, K. Toyota, R. Fukuda, 
 J. Hasegawa, M. Ishida, T. Nakajima, Y. Honda, O. Kitao, H. Nakai, 
 T. Vreven, K. Throssell, J. A. Montgomery, Jr., J. E. Peralta, 
 F. Ogliaro, M. J. Bearpark, J. J. Heyd, E. N. Brothers, K. N. Kudin, 
 V. N. Staroverov, T. A. Keith, R. Kobayashi, J. Normand, 
 K. Raghavachari, A. P. Rendell, J. C. Burant, S. S. Iyengar, 
 J. Tomasi, M. Cossi, J. M. Millam, M. Klene, C. Adamo, R. Cammi, 
 J. W. Ochterski, R. L. Martin, K. Morokuma, O. Farkas, 
 J. B. Foresman, and D. J. Fox, Gaussian, Inc., Wallingford CT, 2019.
 
 ******************************************
 Gaussian 16:  ES64L-G16RevC.01  3-Jul-2019
                11-Oct-2024 
 ******************************************
 %chk=b.chk
 %nprocshared=28
 Will use up to   28 processors via shared memory.
 %mem=48gb
 ----------------------------------------------------------------------
 # wb97xd def2svp scrf=(smd,solvent=acetonitrile) g09default scf=(xqc,m
 axcycle=64) force guess=read nosymm
 ----------------------------------------------------------------------
 1/10=7,30=1,38=1,158=3,167=1/1,3;
 2/12=2,15=1,17=6,18=5,40=1/2;
 3/5=43,7=101,11=2,25=1,27=10,30=1,70=32201,71=1,72=2,74=-58,75=-4,116=-2,158=3/1,2,3;
 4/5=1,60=-1/1;
 5/5=2,7=64,8=3,13=1,38=6,53=2,87=10/2,8;
 6/7=2,8=2,9=2,10=2,28=1,87=10/1;
 7/29=1,30=1,87=10/1,2,3,16;
 1/10=7,30=1,158=3,167=1/3;
 99//99;
 Using 2006 physical constants.
 ----------
 Title Card
 ----------
 Symbolic Z-matrix:
 Charge = -1 Multiplicity = 2
 6                    -8.94665  -0.91609   1.10645 
 6                    -8.95105   0.47252   1.24514 
 6                    -8.25286  -2.11375   0.98546 
 6                    -7.04252  -2.81007   0.89953 
 6                    -9.64403  -2.1142    0.99696 
 6                    -10.85263  -2.80999   0.94094 
 6                    -10.17421   1.18815   1.33765 
 7                    -11.1701   1.7786    1.42051 
 6                    -7.71823   1.17531   1.3206 
 7                    -6.69319   1.71781   1.38232 
 6                    -5.80853  -2.11102   0.94849 
 7                    -4.80335  -1.52429   0.98883 
 6                    -7.03386  -4.22086   0.7399 
 7                    -7.02467  -5.37478   0.60321 
 6                    -10.83873  -4.2237    0.83663 
 7                    -10.79608  -5.38426   0.75581 
 6                    -12.0829  -2.10324   0.99054 
 7                    -13.07632  -1.49631   1.02984 
 

 GradGradGradGradGradGradGradGradGradGradGradGradGradGradGradGradGradGrad
 Berny optimization.
 Initialization pass.
 Trust Radius=3.00D-01 FncErr=1.00D-07 GrdErr=1.00D-07 EigMax=2.50D+02 EigMin=1.00D-04
 Number of steps in this run=      2 maximum allowed number of steps=      2.
 GradGradGradGradGradGradGradGradGradGradGradGradGradGradGradGradGradGrad

                          Input orientation:                          
 ---------------------------------------------------------------------
 Center     Atomic      Atomic             Coordinates (Angstroms)
 Number     Number       Type             X           Y           Z
 ---------------------------------------------------------------------
      1          6           0       -8.946650   -0.916086    1.106446
      2          6           0       -8.951048    0.472520    1.245136
      3          6           0       -8.252858   -2.113753    0.985462
      4          6           0       -7.042518   -2.810073    0.899528
      5          6           0       -9.644028   -2.114200    0.996961
      6          6           0      -10.852633   -2.809986    0.940938
      7          6           0      -10.174207    1.188148    1.337653
      8          7           0      -11.170097    1.778596    1.420512
      9          6           0       -7.718232    1.175309    1.320595
     10          7           0       -6.693188    1.717811    1.382320
     11          6           0       -5.808534   -2.111017    0.948494
     12          7           0       -4.803348   -1.524293    0.988829
     13          6           0       -7.033858   -4.220865    0.739904
     14          7           0       -7.024671   -5.374780    0.603211
     15          6           0      -10.838729   -4.223702    0.836627
     16          7           0      -10.796079   -5.384255    0.755811
     17          6           0      -12.082897   -2.103238    0.990542
     18          7           0      -13.076320   -1.496315    1.029836
 ---------------------------------------------------------------------
                    Distance matrix (angstroms):
                    1          2          3          4          5
     1  C    0.000000
     2  C    1.395521   0.000000
     3  C    1.389386   2.691414   0.000000
     4  C    2.693645   3.812788   1.398989   0.000000
     5  C    1.390611   2.689410   1.391217   2.694733   0.000000
     6  C    2.692030   3.805708   2.691757   3.810341   1.395703
     7  C    2.447070   1.420142   3.836428   5.097569   3.361943
     8  N    3.507658   2.580847   4.883640   6.193886   4.202635
     9  C    2.434914   1.421071   3.349041   4.064131   3.825480
    10  N    3.477300   2.582151   4.155834   4.566931   4.851831
    11  C    3.361634   4.078977   2.444605   1.419082   3.835801
    12  N    4.189356   4.610463   3.499514   2.583619   4.876499
    13  C    3.835973   5.094972   2.446667   1.419820   3.364090
    14  N    4.881311   6.189823   3.505546   2.581829   4.200887
    15  C    3.820091   5.077866   3.340774   4.051361   2.429613
    16  N    4.848491   6.159983   4.149324   4.553711   3.475434
    17  C    3.355415   4.062983   3.830057   5.090513   2.438903
    18  N    4.170936   4.576083   4.863023   6.176546   3.487620
                    6          7          8          9         10
     6  C    0.000000
     7  C    4.074644   0.000000
     8  N    4.624485   1.160728   0.000000
     9  C    5.084407   2.456068   3.505612   0.000000
    10  N    6.164151   3.521368   4.477485   1.161393   0.000000
    11  C    5.092304   5.485895   6.640651   3.819077   3.953574
    12  N    6.184591   6.027035   7.185466   3.986787   3.773270
    13  C    4.076032   6.283034   7.318827   5.470308   5.983028
    14  N    4.620121   7.316489   8.308027   6.625657   7.142950
    15  C    1.417627   5.475467   6.039727   6.254683   7.265320
    16  N    2.581536   6.627349   7.203343   7.267738   8.225909
    17  C    1.419684   3.820577   4.010824   5.468831   6.618374
    18  N    2.584264   3.965269   3.809377   5.994266   7.155364
                   11         12         13         14         15
    11  C    0.000000
    12  N    1.164591   0.000000
    13  C    2.448752   3.508367   0.000000
    14  N    3.500051   4.461976   1.162019   0.000000
    15  C    5.456997   6.613306   3.806102   3.990802   0.000000
    16  N    5.968820   7.132071   3.938024   3.774505   1.164145
    17  C    6.274509   7.302535   5.480872   6.036444   2.463333
    18  N    7.294189   8.273122   6.634650   7.200483   3.533098
                   16         17         18
    16  N    0.000000
    17  C    3.532149   0.000000
    18  N    4.515603   1.164813   0.000000
 Symmetry turned off by external request.
 Stoichiometry    C12N6(1-,2)
 Framework group  C1[X(C12N6)]
 Deg. of freedom    48
 Full point group                 C1      NOp   1
 Rotational constants (GHZ):           0.4318462           0.4261001           0.2145167
 Standard basis: def2SVP (5D, 7F)
   252 basis functions,   450 primitive gaussians,   270 cartesian basis functions
    58 alpha electrons       57 beta electrons
       nuclear repulsion energy       965.0577866003 Hartrees.
 NAtoms=   18 NActive=   18 NUniq=   18 SFac= 1.00D+00 NAtFMM=   60 NAOKFM=F Big=F
 Integral buffers will be    131072 words long.
 Raffenetti 2 integral format.
 Two-electron integral symmetry is turned off.
 Nuclear repulsion after empirical dispersion term =      965.0461145332 Hartrees.
 Force PCM accuracy= 1.00D-10.
 ------------------------------------------------------------------------------
 Polarizable Continuum Model (PCM)
 =================================
 Model                : PCM (using non-symmetric T matrix).
 Atomic radii         : SMD-Coulomb.
 Polarization charges : Total charges.
 Charge compensation  : None.
 Solution method      : On-the-fly selection.
 Cavity type          : VdW (van der Waals Surface) (Alpha=1.000).
 Cavity algorithm     : GePol (No added spheres)
                        Default sphere list used, NSphG=   18.
                        Lebedev-Laikov grids with approx.  5.0 points / Ang**2.
                        Smoothing algorithm: York/Karplus (Gamma=1.0000).
                        Polarization charges: spherical gaussians, with
                                              point-specific exponents (IZeta= 3).
                        Self-potential: point-specific (ISelfS= 7).
                        Self-field    : sphere-specific E.n sum rule (ISelfD= 2).
 1st derivatives      : Analytical E(r).r(x)/FMM algorithm (CHGder, D1EAlg=3).
                        Cavity 1st derivative terms included.
 Solvent              : Acetonitrile, Eps=  35.688000 Eps(inf)=   1.806874
 ------------------------------------------------------------------------------
 Spheres list:
 ISph  on   Nord     Re0    Alpha      Xe            Ye            Ze
    1   C      1    1.8500  1.000     -8.946650     -0.916086      1.106446
    2   C      2    1.8500  1.000     -8.951048      0.472520      1.245136
    3   C      3    1.8500  1.000     -8.252858     -2.113753      0.985462
    4   C      4    1.8500  1.000     -7.042518     -2.810073      0.899528
    5   C      5    1.8500  1.000     -9.644028     -2.114200      0.996961
    6   C      6    1.8500  1.000    -10.852633     -2.809986      0.940938
    7   C      7    1.8500  1.000    -10.174207      1.188148      1.337653
    8   N      8    1.8900  1.000    -11.170097      1.778596      1.420512
    9   C      9    1.8500  1.000     -7.718232      1.175309      1.320595
   10   N     10    1.8900  1.000     -6.693188      1.717811      1.382320
   11   C     11    1.8500  1.000     -5.808534     -2.111017      0.948494
   12   N     12    1.8900  1.000     -4.803348     -1.524293      0.988829
   13   C     13    1.8500  1.000     -7.033858     -4.220865      0.739904
   14   N     14    1.8900  1.000     -7.024671     -5.374780      0.603211
   15   C     15    1.8500  1.000    -10.838729     -4.223702      0.836627
   16   N     16    1.8900  1.000    -10.796079     -5.384255      0.755811
   17   C     17    1.8500  1.000    -12.082897     -2.103238      0.990542
   18   N     18    1.8900  1.000    -13.076320     -1.496315      1.029836
 ------------------------------------------------------------------------------
 ------------------------------------------------------------------------------
 Atomic radii for non-electrostatic terms: SMD-CDS.
 ------------------------------------------------------------------------------
 Nuclear repulsion after PCM non-electrostatic terms =      965.0548242634 Hartrees.
 One-electron integrals computed using PRISM.
   1 Symmetry operations used in ECPInt.
 ECPInt:  NShTT=    5886 NPrTT=   23670 LenC2=    5404 LenP2D=   14959.
 LDataN:  DoStor=T MaxTD1= 4 Len=   56
 NBasis=   252 RedAO= T EigKep=  1.96D-04  NBF=   252
 NBsUse=   252 1.00D-06 EigRej= -1.00D+00 NBFU=   252
 Initial guess from the checkpoint file:  "b.chk"
 B after Tr=    -0.000227    0.000248   -0.001347
         Rot=    1.000000   -0.000033   -0.000045   -0.000005 Ang=  -0.01 deg.
 Initial guess <Sx>= 0.0000 <Sy>= 0.0000 <Sz>= 0.5000 <S**2>= 0.7872 S= 0.5184
 Requested convergence on RMS density matrix=1.00D-08 within  64 cycles.
 Requested convergence on MAX density matrix=1.00D-06.
 Requested convergence on             energy=1.00D-06.
 No special actions if energy rises.
 Inv3:  Mode=1 IEnd=    19309107.
 Iteration    1 A*A^-1 deviation from unit magnitude is 3.22D-15 for   1108.
 Iteration    1 A*A^-1 deviation from orthogonality  is 2.33D-15 for   2478     79.
 Iteration    1 A^-1*A deviation from unit magnitude is 3.11D-15 for    383.
 Iteration    1 A^-1*A deviation from orthogonality  is 1.59D-11 for   2029   2011.
 Error on total polarization charges =  0.01952
 SCF Done:  E(UwB97XD) =  -784.860293811     A.U. after   16 cycles
            NFock= 16  Conv=0.68D-08     -V/T= 2.0098
 <Sx>= 0.0000 <Sy>= 0.0000 <Sz>= 0.5000 <S**2>= 0.7874 S= 0.5185
 <L.S>=  0.00000000000    
 SMD-CDS (non-electrostatic) energy       (kcal/mol) =       5.47
 (included in total energy above)
 Annihilation of the first spin contaminant:
 S**2 before annihilation     0.7874,   after     0.7512
 QCSCF skips out because SCF is already converged.

 **********************************************************************

            Population analysis using the SCF Density.

 **********************************************************************

 Alpha  occ. eigenvalues --  -14.46003 -14.45984 -14.45953 -14.45928 -14.45913
 Alpha  occ. eigenvalues --  -14.45901 -10.38298 -10.38227 -10.38205 -10.38106
 Alpha  occ. eigenvalues --  -10.38072 -10.38045 -10.36186 -10.36154 -10.36126
 Alpha  occ. eigenvalues --  -10.36102 -10.36090 -10.36081  -1.06728  -1.01964
 Alpha  occ. eigenvalues --   -1.01900  -1.01550  -1.00770  -1.00683  -1.00619
 Alpha  occ. eigenvalues --   -0.92034  -0.92002  -0.90091  -0.72207  -0.72165
 Alpha  occ. eigenvalues --   -0.68770  -0.68590  -0.68505  -0.67676  -0.55713
 Alpha  occ. eigenvalues --   -0.50875  -0.50862  -0.49778  -0.49720  -0.47630
 Alpha  occ. eigenvalues --   -0.47525  -0.47516  -0.47023  -0.46780  -0.46773
 Alpha  occ. eigenvalues --   -0.46637  -0.45162  -0.44867  -0.44820  -0.44668
 Alpha  occ. eigenvalues --   -0.44384  -0.44348  -0.42943  -0.42755  -0.42706
 Alpha  occ. eigenvalues --   -0.35251  -0.35224  -0.28047
 Alpha virt. eigenvalues --    0.04774   0.04834   0.06428   0.06833   0.06903
 Alpha virt. eigenvalues --    0.10131   0.10223   0.10499   0.10591   0.12334
 Alpha virt. eigenvalues --    0.12504   0.14490   0.19332   0.19392   0.20933
 Alpha virt. eigenvalues --    0.24843   0.25006   0.25047   0.26242   0.26285
 Alpha virt. eigenvalues --    0.27791   0.31545   0.31570   0.31580   0.33837
 Alpha virt. eigenvalues --    0.33967   0.35219   0.46366   0.46625   0.48583
 Alpha virt. eigenvalues --    0.48947   0.53194   0.53250   0.53293   0.53302
 Alpha virt. eigenvalues --    0.54950   0.54996   0.56029   0.57204   0.59459
 Alpha virt. eigenvalues --    0.60177   0.60187   0.60858   0.61145   0.62685
 Alpha virt. eigenvalues --    0.64058   0.68303   0.69650   0.69748   0.71650
 Alpha virt. eigenvalues --    0.71702   0.72734   0.72821   0.73111   0.73299
 Alpha virt. eigenvalues --    0.73383   0.73533   0.74481   0.74856   0.75747
 Alpha virt. eigenvalues --    0.79509   0.79776   0.79923   0.80932   0.81185
 Alpha virt. eigenvalues --    0.86421   0.86669   0.86891   0.87158   0.92785
 Alpha virt. eigenvalues --    0.92853   0.93032   0.93141   0.93822   0.94063
 Alpha virt. eigenvalues --    0.95835   0.98485   0.98522   0.99018   0.99313
 Alpha virt. eigenvalues --    1.00106   1.00284   1.02862   1.03217   1.03329
 Alpha virt. eigenvalues --    1.05756   1.06717   1.07245   1.07751   1.10356
 Alpha virt. eigenvalues --    1.10585   1.14783   1.16358   1.17961   1.18100
 Alpha virt. eigenvalues --    1.19017   1.22834   1.22976   1.23579   1.33282
 Alpha virt. eigenvalues --    1.36112   1.36287   1.38124   1.38192   1.41275
 Alpha virt. eigenvalues --    1.43528   1.43568   1.45503   1.45756   1.55624
 Alpha virt. eigenvalues --    1.59815   1.65875   1.68326   1.68386   1.68600
 Alpha virt. eigenvalues --    1.68766   1.68869   1.76370   1.76537   1.76657
 Alpha virt. eigenvalues --    1.77089   1.77817   1.79091   1.79203   1.79775
 Alpha virt. eigenvalues --    1.81883   1.82325   1.85149   1.92575   1.92759
 Alpha virt. eigenvalues --    1.93093   1.97728   1.99540   1.99720   2.03269
 Alpha virt. eigenvalues --    2.03548   2.06115   2.07252   2.12608   2.12653
 Alpha virt. eigenvalues --    2.17400   2.19333   2.19825   2.19954   2.25932
 Alpha virt. eigenvalues --    2.26619   2.26866   2.28657   2.32949   2.33056
 Alpha virt. eigenvalues --    2.33345   2.33609   2.33802   2.33921   2.34381
 Alpha virt. eigenvalues --    2.35358   2.35397   2.35611   2.35886   2.35988
 Alpha virt. eigenvalues --    2.37231   2.37327   2.56148   2.61793   2.62137
 Alpha virt. eigenvalues --    2.70323   2.70553   2.92574   2.94463   2.94855
 Alpha virt. eigenvalues --    2.95338   2.98179   2.98555   2.98990   3.02081
 Alpha virt. eigenvalues --    3.04450   3.04762   3.08133   3.08455   3.11534
 Alpha virt. eigenvalues --    3.11680   3.12168   3.22834   3.23201   3.28246
 Alpha virt. eigenvalues --    3.40283   3.40494   3.42192   3.53563   3.56732
 Alpha virt. eigenvalues --    3.56989   3.61175   3.61537   3.74803
  Beta  occ. eigenvalues --  -14.45810 -14.45787 -14.45761 -14.45735 -14.45721
  Beta  occ. eigenvalues --  -14.45711 -10.38335 -10.38265 -10.38243 -10.37751
  Beta  occ. eigenvalues --  -10.37719 -10.37696 -10.36278 -10.36248 -10.36218
  Beta  occ. eigenvalues --  -10.36195 -10.36182 -10.36172  -1.06337  -1.01612
  Beta  occ. eigenvalues --   -1.01547  -1.01196  -1.00440  -1.00348  -1.00288
  Beta  occ. eigenvalues --   -0.91273  -0.91230  -0.89114  -0.72075  -0.72031
  Beta  occ. eigenvalues --   -0.68556  -0.68376  -0.68245  -0.67519  -0.54950
  Beta  occ. eigenvalues --   -0.49662  -0.49642  -0.49577  -0.49529  -0.47270
  Beta  occ. eigenvalues --   -0.47163  -0.47157  -0.46663  -0.46498  -0.46487
  Beta  occ. eigenvalues --   -0.45477  -0.45059  -0.44239  -0.44204  -0.43942
  Beta  occ. eigenvalues --   -0.43877  -0.43853  -0.42798  -0.42614  -0.42566
  Beta  occ. eigenvalues --   -0.32238  -0.32195
  Beta virt. eigenvalues --   -0.10763   0.05457   0.05512   0.06540   0.06932
  Beta virt. eigenvalues --    0.06999   0.10499   0.11158   0.11254   0.11382
  Beta virt. eigenvalues --    0.12379   0.12550   0.14744   0.19530   0.19589
  Beta virt. eigenvalues --    0.22503   0.24761   0.26397   0.26423   0.26619
  Beta virt. eigenvalues --    0.26634   0.28001   0.32032   0.32093   0.32222
  Beta virt. eigenvalues --    0.33919   0.34069   0.35298   0.46489   0.46743
  Beta virt. eigenvalues --    0.48726   0.49014   0.53166   0.53178   0.53333
  Beta virt. eigenvalues --    0.53404   0.55116   0.55147   0.56180   0.57368
  Beta virt. eigenvalues --    0.59386   0.60061   0.60074   0.60872   0.61164
  Beta virt. eigenvalues --    0.62817   0.63926   0.68631   0.69813   0.69901
  Beta virt. eigenvalues --    0.71779   0.71828   0.72870   0.72966   0.73288
  Beta virt. eigenvalues --    0.73495   0.73578   0.73658   0.74613   0.74986
  Beta virt. eigenvalues --    0.75770   0.79772   0.79933   0.80482   0.81677
  Beta virt. eigenvalues --    0.81922   0.86653   0.86783   0.87029   0.87265
  Beta virt. eigenvalues --    0.92970   0.93028   0.93650   0.93736   0.94051
  Beta virt. eigenvalues --    0.94671   0.96549   0.99087   0.99119   0.99279
  Beta virt. eigenvalues --    0.99549   1.00249   1.00421   1.02998   1.03360
  Beta virt. eigenvalues --    1.03469   1.06075   1.06788   1.07569   1.08050
  Beta virt. eigenvalues --    1.10484   1.10712   1.14999   1.16690   1.18205
  Beta virt. eigenvalues --    1.18350   1.19292   1.23070   1.23188   1.24123
  Beta virt. eigenvalues --    1.33433   1.36295   1.36475   1.38685   1.38760
  Beta virt. eigenvalues --    1.42040   1.44229   1.44282   1.45589   1.45834
  Beta virt. eigenvalues --    1.55683   1.59850   1.65709   1.68105   1.68165
  Beta virt. eigenvalues --    1.68375   1.68549   1.68652   1.76487   1.76530
  Beta virt. eigenvalues --    1.76718   1.76950   1.77707   1.78989   1.79089
  Beta virt. eigenvalues --    1.80020   1.81815   1.82257   1.85057   1.92628
  Beta virt. eigenvalues --    1.92796   1.93201   1.97901   2.00130   2.00316
  Beta virt. eigenvalues --    2.03615   2.03897   2.06912   2.07404   2.13134
  Beta virt. eigenvalues --    2.13165   2.17678   2.20435   2.20795   2.20915
  Beta virt. eigenvalues --    2.26470   2.27209   2.27452   2.29146   2.33633
  Beta virt. eigenvalues --    2.33735   2.34005   2.34284   2.34496   2.34606
  Beta virt. eigenvalues --    2.35042   2.35796   2.36056   2.36094   2.36366
  Beta virt. eigenvalues --    2.36512   2.37972   2.38061   2.56612   2.61865
  Beta virt. eigenvalues --    2.62214   2.70745   2.70974   2.92666   2.94614
  Beta virt. eigenvalues --    2.94981   2.95524   2.98342   2.98719   2.99110
  Beta virt. eigenvalues --    3.02584   3.04973   3.05286   3.08293   3.08613
  Beta virt. eigenvalues --    3.12040   3.12183   3.12668   3.23077   3.23446
  Beta virt. eigenvalues --    3.28438   3.40486   3.40697   3.42384   3.53744
  Beta virt. eigenvalues --    3.56914   3.57171   3.61369   3.61732   3.74957
          Condensed to atoms (all electrons):
               1          2          3          4          5          6
     1  C    4.912757   0.542119   0.296210  -0.102909   0.298565  -0.102193
     2  C    0.542119   5.324866  -0.103337  -0.008271  -0.103099  -0.007881
     3  C    0.296210  -0.103337   4.913378   0.539480   0.299050  -0.101966
     4  C   -0.102909  -0.008271   0.539480   5.326681  -0.101862  -0.008056
     5  C    0.298565  -0.103099   0.299050  -0.101862   4.908453   0.542602
     6  C   -0.102193  -0.007881  -0.101966  -0.008056   0.542602   5.320842
     7  C    0.007052   0.391230   0.005172  -0.000489  -0.022499   0.002432
     8  N   -0.001721  -0.029293  -0.000072  -0.000001  -0.000464   0.000115
     9  C    0.007640   0.393593  -0.022254   0.002595   0.006342  -0.000452
    10  N   -0.001754  -0.028133  -0.000505   0.000149  -0.000050  -0.000001
    11  C   -0.021864   0.002496   0.006886   0.393422   0.005650  -0.000478
    12  N   -0.000465   0.000125  -0.001742  -0.028852  -0.000062  -0.000001
    13  C    0.005287  -0.000477   0.007308   0.392856  -0.021766   0.002508
    14  N   -0.000071  -0.000001  -0.001742  -0.029212  -0.000451   0.000119
    15  C    0.006264  -0.000475  -0.023469   0.002641   0.008844   0.391737
    16  N   -0.000047  -0.000001  -0.000533   0.000159  -0.001690  -0.028816
    17  C   -0.023347   0.002639   0.006140  -0.000475   0.006738   0.389246
    18  N   -0.000522   0.000152  -0.000047  -0.000001  -0.001638  -0.028721
               7          8          9         10         11         12
     1  C    0.007052  -0.001721   0.007640  -0.001754  -0.021864  -0.000465
     2  C    0.391230  -0.029293   0.393593  -0.028133   0.002496   0.000125
     3  C    0.005172  -0.000072  -0.022254  -0.000505   0.006886  -0.001742
     4  C   -0.000489  -0.000001   0.002595   0.000149   0.393422  -0.028852
     5  C   -0.022499  -0.000464   0.006342  -0.000050   0.005650  -0.000062
     6  C    0.002432   0.000115  -0.000452  -0.000001  -0.000478  -0.000001
     7  C    4.843412   0.908225  -0.052883   0.002069   0.000113   0.000002
     8  N    0.908225   6.103214   0.001792   0.000066   0.000000   0.000000
     9  C   -0.052883   0.001792   4.842864   0.908600  -0.000388   0.000096
    10  N    0.002069   0.000066   0.908600   6.103849   0.000268  -0.000760
    11  C    0.000113   0.000000  -0.000388   0.000268   4.844203   0.905225
    12  N    0.000002   0.000000   0.000096  -0.000760   0.905225   6.109567
    13  C   -0.000014  -0.000000   0.000117   0.000002  -0.053063   0.001944
    14  N   -0.000000  -0.000000   0.000000   0.000000   0.001877   0.000067
    15  C    0.000113   0.000002  -0.000013  -0.000000   0.000121   0.000000
    16  N    0.000000   0.000000  -0.000000  -0.000000   0.000002   0.000000
    17  C   -0.000403   0.000006   0.000117   0.000000  -0.000013  -0.000000
    18  N    0.000312  -0.000732   0.000002   0.000000  -0.000000  -0.000000
              13         14         15         16         17         18
     1  C    0.005287  -0.000071   0.006264  -0.000047  -0.023347  -0.000522
     2  C   -0.000477  -0.000001  -0.000475  -0.000001   0.002639   0.000152
     3  C    0.007308  -0.001742  -0.023469  -0.000533   0.006140  -0.000047
     4  C    0.392856  -0.029212   0.002641   0.000159  -0.000475  -0.000001
     5  C   -0.021766  -0.000451   0.008844  -0.001690   0.006738  -0.001638
     6  C    0.002508   0.000119   0.391737  -0.028816   0.389246  -0.028721
     7  C   -0.000014  -0.000000   0.000113   0.000000  -0.000403   0.000312
     8  N   -0.000000  -0.000000   0.000002   0.000000   0.000006  -0.000732
     9  C    0.000117   0.000000  -0.000013  -0.000000   0.000117   0.000002
    10  N    0.000002   0.000000  -0.000000  -0.000000   0.000000   0.000000
    11  C   -0.053063   0.001877   0.000121   0.000002  -0.000013  -0.000000
    12  N    0.001944   0.000067   0.000000   0.000000  -0.000000  -0.000000
    13  C    4.842409   0.907740  -0.000397   0.000352   0.000113   0.000000
    14  N    0.907740   6.105200   0.000013  -0.000763   0.000002   0.000000
    15  C   -0.000397   0.000013   4.843778   0.903877  -0.051675   0.002072
    16  N    0.000352  -0.000763   0.903877   6.113414   0.002146   0.000064
    17  C    0.000113   0.000002  -0.051675   0.002146   4.846348   0.903598
    18  N    0.000000   0.000000   0.002072   0.000064   0.903598   6.112083
          Atomic-Atomic Spin Densities.
               1          2          3          4          5          6
     1  C   -0.049379  -0.065990   0.036148  -0.005848   0.035850  -0.005738
     2  C   -0.065990   0.384515  -0.005925   0.000971  -0.005883   0.000986
     3  C    0.036148  -0.005925  -0.048281  -0.066534   0.036108  -0.005840
     4  C   -0.005848   0.000971  -0.066534   0.385996  -0.005872   0.000978
     5  C    0.035850  -0.005883   0.036108  -0.005872  -0.047477  -0.065928
     6  C   -0.005738   0.000986  -0.005840   0.000978  -0.065928   0.379691
     7  C    0.000375   0.004886  -0.000143  -0.000014   0.000404  -0.000067
     8  N    0.000485  -0.005412   0.000009  -0.000000   0.000034  -0.000025
     9  C    0.000433   0.004707   0.000362  -0.000070  -0.000160  -0.000014
    10  N    0.000545  -0.005380   0.000035  -0.000030   0.000010  -0.000000
    11  C    0.000361  -0.000070   0.000473   0.004912  -0.000145  -0.000014
    12  N    0.000032  -0.000026   0.000517  -0.005432   0.000009  -0.000000
    13  C   -0.000143  -0.000014   0.000450   0.004800   0.000370  -0.000069
    14  N    0.000009  -0.000000   0.000498  -0.005416   0.000033  -0.000025
    15  C   -0.000149  -0.000015   0.000381  -0.000073   0.000470   0.004884
    16  N    0.000010  -0.000000   0.000036  -0.000031   0.000548  -0.005416
    17  C    0.000383  -0.000070  -0.000144  -0.000015   0.000477   0.004954
    18  N    0.000034  -0.000029   0.000009  -0.000000   0.000528  -0.005377
               7          8          9         10         11         12
     1  C    0.000375   0.000485   0.000433   0.000545   0.000361   0.000032
     2  C    0.004886  -0.005412   0.004707  -0.005380  -0.000070  -0.000026
     3  C   -0.000143   0.000009   0.000362   0.000035   0.000473   0.000517
     4  C   -0.000014  -0.000000  -0.000070  -0.000030   0.004912  -0.005432
     5  C    0.000404   0.000034  -0.000160   0.000010  -0.000145   0.000009
     6  C   -0.000067  -0.000025  -0.000014  -0.000000  -0.000014  -0.000000
     7  C   -0.075953  -0.001561  -0.000313   0.000125  -0.000003   0.000000
     8  N   -0.001561   0.117622   0.000159   0.000010  -0.000000   0.000000
     9  C   -0.000313   0.000159  -0.075694  -0.001524   0.000016   0.000016
    10  N    0.000125   0.000010  -0.001524   0.116932   0.000015   0.000040
    11  C   -0.000003  -0.000000   0.000016   0.000015  -0.077673  -0.001668
    12  N    0.000000   0.000000   0.000016   0.000040  -0.001668   0.120524
    13  C    0.000000  -0.000000  -0.000003   0.000000  -0.000304   0.000148
    14  N   -0.000000   0.000000  -0.000000   0.000000   0.000160   0.000010
    15  C   -0.000003   0.000000   0.000000  -0.000000  -0.000003  -0.000000
    16  N   -0.000000   0.000000  -0.000000   0.000000   0.000000   0.000000
    17  C    0.000017   0.000016  -0.000003  -0.000000   0.000000  -0.000000
    18  N    0.000014   0.000035   0.000000   0.000000  -0.000000   0.000000
              13         14         15         16         17         18
     1  C   -0.000143   0.000009  -0.000149   0.000010   0.000383   0.000034
     2  C   -0.000014  -0.000000  -0.000015  -0.000000  -0.000070  -0.000029
     3  C    0.000450   0.000498   0.000381   0.000036  -0.000144   0.000009
     4  C    0.004800  -0.005416  -0.000073  -0.000031  -0.000015  -0.000000
     5  C    0.000370   0.000033   0.000470   0.000548   0.000477   0.000528
     6  C   -0.000069  -0.000025   0.004884  -0.005416   0.004954  -0.005377
     7  C    0.000000  -0.000000  -0.000003  -0.000000   0.000017   0.000014
     8  N   -0.000000   0.000000   0.000000   0.000000   0.000016   0.000035
     9  C   -0.000003  -0.000000   0.000000  -0.000000  -0.000003   0.000000
    10  N    0.000000   0.000000  -0.000000   0.000000  -0.000000   0.000000
    11  C   -0.000304   0.000160  -0.000003   0.000000   0.000000  -0.000000
    12  N    0.000148   0.000010  -0.000000   0.000000  -0.000000   0.000000
    13  C   -0.076528  -0.001559   0.000017   0.000015  -0.000003  -0.000000
    14  N   -0.001559   0.118697   0.000016   0.000039   0.000000   0.000000
    15  C    0.000017   0.000016  -0.076013  -0.001616  -0.000319   0.000134
    16  N    0.000015   0.000039  -0.001616   0.118094   0.000129   0.000009
    17  C   -0.000003   0.000000  -0.000319   0.000129  -0.076289  -0.001667
    18  N   -0.000000   0.000000   0.000134   0.000009  -0.001667   0.118116
 Mulliken charges and spin densities:
               1          2
     1  C    0.178998  -0.052581
     2  C   -0.376249   0.307251
     3  C    0.182044  -0.051840
     4  C   -0.377853   0.308322
     5  C    0.177338  -0.050625
     6  C   -0.371035   0.302978
     7  C   -0.083844  -0.072234
     8  N    0.018864   0.111371
     9  C   -0.087766  -0.072087
    10  N    0.016200   0.110777
    11  C   -0.084458  -0.073943
    12  N    0.014855   0.114171
    13  C   -0.084919  -0.072822
    14  N    0.017223   0.112462
    15  C   -0.083432  -0.072288
    16  N    0.011836   0.111816
    17  C   -0.081180  -0.072534
    18  N    0.013380   0.111806
 Sum of Mulliken charges =  -1.00000   1.00000
 Mulliken charges and spin densities with hydrogens summed into heavy atoms:
               1          2
     1  C    0.178998  -0.052581
     2  C   -0.376249   0.307251
     3  C    0.182044  -0.051840
     4  C   -0.377853   0.308322
     5  C    0.177338  -0.050625
     6  C   -0.371035   0.302978
     7  C   -0.083844  -0.072234
     8  N    0.018864   0.111371
     9  C   -0.087766  -0.072087
    10  N    0.016200   0.110777
    11  C   -0.084458  -0.073943
    12  N    0.014855   0.114171
    13  C   -0.084919  -0.072822
    14  N    0.017223   0.112462
    15  C   -0.083432  -0.072288
    16  N    0.011836   0.111816
    17  C   -0.081180  -0.072534
    18  N    0.013380   0.111806
 Electronic spatial extent (au):  <R**2>=          38988.6974
 Charge=             -1.0000 electrons
 Dipole moment (field-independent basis, Debye):
    X=             42.7485    Y=              8.2478    Z=             -4.9530  Tot=             43.8177
 Quadrupole moment (field-independent basis, Debye-Ang):
   XX=           -551.9131   YY=           -185.0527   ZZ=           -104.1728
   XY=            -72.6946   XZ=             44.8299   YZ=              1.2229
 Traceless Quadrupole moment (field-independent basis, Debye-Ang):
   XX=           -271.5336   YY=             95.3268   ZZ=            176.2067
   XY=            -72.6946   XZ=             44.8299   YZ=              1.2229
 Octapole moment (field-independent basis, Debye-Ang**2):
  XXX=           7981.5117  YYY=            971.3741  ZZZ=           -311.1540  XYY=           1651.3371
  XXY=            866.2083  XXZ=           -587.1631  XZZ=            932.3470  YZZ=            164.0712
  YYZ=           -160.7809  XYZ=            -12.1704
 Hexadecapole moment (field-independent basis, Debye-Ang**3):
 XXXX=        -116573.9984 YYYY=          -7797.4926 ZZZZ=           -763.6621 XXXY=         -11673.4901
 XXXZ=           8558.2822 YYYX=          -8654.1404 YYYZ=            641.0020 ZZZX=           2799.7147
 ZZZY=            360.6425 XXYY=         -16436.5318 XXZZ=          -9079.2673 YYZZ=           -974.0716
 XXYZ=            270.2224 YYXZ=           1456.0573 ZZXY=          -1465.3041
 N-N= 9.650548242634D+02 E-N=-3.765372677928D+03  KE= 7.772265273067D+02
                          Isotropic Fermi Contact Couplings
        Atom                 a.u.       MegaHertz       Gauss      10(-4) cm-1
     1  C(13)             -0.01794     -20.16826      -7.19654      -6.72741
     2  C(13)              0.05061      56.89752      20.30245      18.97897
     3  C(13)             -0.01791     -20.12891      -7.18250      -6.71428
     4  C(13)              0.05090      57.22342      20.41874      19.08768
     5  C(13)             -0.01755     -19.72596      -7.03871      -6.57987
     6  C(13)              0.04983      56.01693      19.98823      18.68523
     7  C(13)             -0.03254     -36.58562     -13.05466     -12.20365
     8  N(14)              0.02585       8.35069       2.97973       2.78549
     9  C(13)             -0.03250     -36.53639     -13.03709     -12.18723
    10  N(14)              0.02569       8.29911       2.96133       2.76828
    11  C(13)             -0.03304     -37.14403     -13.25391     -12.38991
    12  N(14)              0.02654       8.57446       3.05958       2.86013
    13  C(13)             -0.03282     -36.89426     -13.16479     -12.30660
    14  N(14)              0.02610       8.43300       3.00910       2.81294
    15  C(13)             -0.03241     -36.43026     -12.99922     -12.15183
    16  N(14)              0.02600       8.39979       2.99725       2.80187
    17  C(13)             -0.03249     -36.52736     -13.03387     -12.18421
    18  N(14)              0.02601       8.40507       2.99914       2.80363
 --------------------------------------------------------
       Center         ----  Spin Dipole Couplings  ----
                      3XX-RR        3YY-RR        3ZZ-RR
 --------------------------------------------------------
     1   Atom        0.001534      0.024163     -0.025696
     2   Atom       -0.160575     -0.157474      0.318048
     3   Atom        0.018160      0.006403     -0.024564
     4   Atom       -0.163014     -0.156284      0.319298
     5   Atom        0.017886      0.006062     -0.023948
     6   Atom       -0.160179     -0.156310      0.316489
     7   Atom        0.036851      0.009168     -0.046019
     8   Atom       -0.111686     -0.091633      0.203319
     9   Atom        0.037950      0.007900     -0.045850
    10   Atom       -0.112700     -0.089534      0.202234
    11   Atom        0.036340      0.010908     -0.047248
    12   Atom       -0.114833     -0.093524      0.208357
    13   Atom       -0.002744      0.048693     -0.045950
    14   Atom       -0.086684     -0.117498      0.204182
    15   Atom       -0.002661      0.048980     -0.046319
    16   Atom       -0.085916     -0.120106      0.206022
    17   Atom        0.035078      0.011510     -0.046588
    18   Atom       -0.111950     -0.094010      0.205960
 --------------------------------------------------------
                        XY            XZ            YZ
 --------------------------------------------------------
     1   Atom        0.000145     -0.002333      0.004092
     2   Atom       -0.000248      0.002825     -0.051576
     3   Atom       -0.009877      0.000153      0.003652
     4   Atom        0.000136      0.008484     -0.052050
     5   Atom        0.009787      0.000223      0.003986
     6   Atom       -0.000877     -0.000867     -0.035767
     7   Atom       -0.022130     -0.003429      0.006243
     8   Atom        0.014721      0.008282     -0.033808
     9   Atom        0.021312      0.002287      0.005998
    10   Atom       -0.014465     -0.002399     -0.033102
    11   Atom        0.023671      0.000753      0.005774
    12   Atom       -0.016511      0.005551     -0.031954
    13   Atom        0.000842     -0.000456      0.010799
    14   Atom       -0.000045      0.003996     -0.039743
    15   Atom       -0.002289      0.000063      0.006992
    16   Atom        0.001322     -0.001375     -0.022203
    17   Atom       -0.023394     -0.001547      0.004184
    18   Atom        0.016042     -0.000583     -0.021104
 --------------------------------------------------------


 ---------------------------------------------------------------------------------
              Anisotropic Spin Dipole Couplings in Principal Axis System
 ---------------------------------------------------------------------------------

       Atom             a.u.   MegaHertz   Gauss  10(-4) cm-1        Axes

              Baa    -0.0262    -3.519    -1.256    -1.174  0.0839 -0.0809  0.9932
     1 C(13)  Bbb     0.0017     0.232     0.083     0.077  0.9965  0.0088 -0.0835
              Bcc     0.0245     3.287     1.173     1.096 -0.0019  0.9967  0.0813
 
              Baa    -0.1630   -21.874    -7.805    -7.296 -0.0227  0.9940  0.1067
     2 C(13)  Bbb    -0.1606   -21.550    -7.689    -7.188  0.9997  0.0232 -0.0034
              Bcc     0.3236    43.423    15.495    14.484  0.0059 -0.1066  0.9943
 
              Baa    -0.0250    -3.359    -1.199    -1.120 -0.0322 -0.1253  0.9916
     3 C(13)  Bbb     0.0012     0.160     0.057     0.054  0.4984  0.8579  0.1246
              Bcc     0.0238     3.198     1.141     1.067  0.8663 -0.4982 -0.0349
 
              Baa    -0.1638   -21.974    -7.841    -7.330  0.8691 -0.4899 -0.0681
     4 C(13)  Bbb    -0.1613   -21.647    -7.724    -7.221  0.4943  0.8651  0.0850
              Bcc     0.3251    43.622    15.565    14.551  0.0172 -0.1075  0.9941
 
              Baa    -0.0245    -3.287    -1.173    -1.096  0.0266 -0.1377  0.9901
     5 C(13)  Bbb     0.0010     0.133     0.047     0.044 -0.4981  0.8569  0.1325
              Bcc     0.0235     3.154     1.126     1.052  0.8667  0.4967  0.0458
 
              Baa    -0.1607   -21.564    -7.695    -7.193  0.8751  0.4825  0.0378
     6 C(13)  Bbb    -0.1585   -21.267    -7.588    -7.094 -0.4840  0.8727  0.0648
              Bcc     0.3192    42.831    15.283    14.287 -0.0017 -0.0750  0.9972
 
              Baa    -0.0467    -6.270    -2.237    -2.092  0.0127 -0.1060  0.9943
     7 C(13)  Bbb    -0.0028    -0.371    -0.132    -0.124  0.4915  0.8666  0.0861
              Bcc     0.0495     6.641     2.370     2.215  0.8708 -0.4876 -0.0631
 
              Baa    -0.1212    -4.675    -1.668    -1.559  0.8558 -0.5118 -0.0752
     8 N(14)  Bbb    -0.0861    -3.319    -1.184    -1.107  0.5168  0.8519  0.0847
              Bcc     0.2073     7.994     2.853     2.667  0.0207 -0.1114  0.9936
 
              Baa    -0.0465    -6.241    -2.227    -2.082  0.0008 -0.1099  0.9939
     9 C(13)  Bbb    -0.0027    -0.367    -0.131    -0.122 -0.4661  0.8793  0.0976
              Bcc     0.0492     6.608     2.358     2.204  0.8847  0.4634  0.0505
 
              Baa    -0.1206    -4.649    -1.659    -1.551  0.8813  0.4694  0.0547
    10 N(14)  Bbb    -0.0854    -3.293    -1.175    -1.099 -0.4725  0.8760  0.0969
              Bcc     0.2059     7.943     2.834     2.649 -0.0024 -0.1112  0.9938
 
              Baa    -0.0478    -6.421    -2.291    -2.142  0.0210 -0.1061  0.9941
    11 C(13)  Bbb    -0.0028    -0.373    -0.133    -0.124 -0.5164  0.8503  0.1017
              Bcc     0.0506     6.794     2.424     2.266  0.8561  0.5155  0.0370
 
              Baa    -0.1242    -4.789    -1.709    -1.598  0.8648  0.5009  0.0337
    12 N(14)  Bbb    -0.0877    -3.382    -1.207    -1.128 -0.5016  0.8591  0.1021
              Bcc     0.2119     8.171     2.916     2.726  0.0222 -0.1052  0.9942
 
              Baa    -0.0472    -6.330    -2.259    -2.112  0.0123 -0.1120  0.9936
    13 C(13)  Bbb    -0.0027    -0.369    -0.132    -0.123  0.9998 -0.0134 -0.0139
              Bcc     0.0499     6.699     2.390     2.235  0.0149  0.9936  0.1118
 
              Baa    -0.1223    -4.718    -1.684    -1.574 -0.0123  0.9926  0.1210
    14 N(14)  Bbb    -0.0867    -3.345    -1.194    -1.116  0.9998  0.0138 -0.0118
              Bcc     0.2091     8.063     2.877     2.690  0.0134 -0.1208  0.9926
 
              Baa    -0.0468    -6.284    -2.242    -2.096 -0.0052 -0.0729  0.9973
    15 C(13)  Bbb    -0.0028    -0.370    -0.132    -0.124  0.9990  0.0431  0.0084
              Bcc     0.0496     6.654     2.374     2.220 -0.0436  0.9964  0.0726
 
              Baa    -0.1217    -4.692    -1.674    -1.565 -0.0343  0.9971  0.0674
    16 N(14)  Bbb    -0.0859    -3.312    -1.182    -1.105  0.9994  0.0339  0.0073
              Bcc     0.2075     8.004     2.856     2.670 -0.0050 -0.0676  0.9977
 
              Baa    -0.0469    -6.292    -2.245    -2.099 -0.0018 -0.0722  0.9974
    17 C(13)  Bbb    -0.0027    -0.366    -0.131    -0.122  0.5270  0.8476  0.0623
              Bcc     0.0496     6.658     2.376     2.221  0.8499 -0.5258 -0.0365
 
              Baa    -0.1217    -4.693    -1.675    -1.565  0.8540 -0.5194 -0.0319
    18 N(14)  Bbb    -0.0858    -3.308    -1.180    -1.103  0.5203  0.8517  0.0627
              Bcc     0.2074     8.001     2.855     2.669 -0.0053 -0.0701  0.9975
 

 ---------------------------------------------------------------------------------

   1 Symmetry operations used in ECPInt.
 ECPInt:  NShTT=    5886 NPrTT=   23670 LenC2=    5404 LenP2D=   14959.
 LDataN:  DoStor=T MaxTD1= 5 Len=  102
 D1PCM: PCM CHGder 1st derivatives, ID1Alg=3 FixD1E=F DoIter=F DoCFld=F I1PDM=0.
 Calling FoFJK, ICntrl=      2127 FMM=F ISym2X=0 I1Cent= 0 IOpClX= 1 NMat=1 NMatS=1 NMatT=0.
 -------------------------------------------------------------------
 Center     Atomic                   Forces (Hartrees/Bohr)
 Number     Number              X              Y              Z
 -------------------------------------------------------------------
      1        6          -0.001708676    0.023391912    0.002103469
      2        6           0.001263997   -0.014617293   -0.001033645
      3        6           0.021545158   -0.013439632   -0.001439455
      4        6          -0.015500978    0.008591851    0.000683123
      5        6          -0.018719549   -0.010866942   -0.000946177
      6        6           0.013926011    0.008868491    0.000699320
      7        6          -0.002859705    0.002465725    0.000568974
      8        7           0.001103237   -0.001654578   -0.000427481
      9        6           0.004881305    0.001686634    0.000152257
     10        7          -0.003138158   -0.001142956   -0.000221193
     11        6           0.011293749    0.007409226    0.000654954
     12        7          -0.009286553   -0.005298917   -0.000354908
     13        6           0.000238536   -0.007152490   -0.000914923
     14        7          -0.000702395    0.004694467    0.000725915
     15        6          -0.000108974   -0.013635752   -0.001121106
     16        7          -0.000479854    0.009620109    0.000593759
     17        6          -0.011356442    0.007206255    0.000661623
     18        7           0.009609289   -0.006126111   -0.000384506
 -------------------------------------------------------------------
 Cartesian Forces:  Max     0.023391912 RMS     0.008045616

 GradGradGradGradGradGradGradGradGradGradGradGradGradGradGradGradGradGrad
 Berny optimization.
 Search for a local minimum.
 Step number   1 out of a maximum of    2
 All quantities printed in internal units (Hartrees-Bohrs-Radians)
 Second derivative matrix not updated -- first step.
 ITU=  0
     Eigenvalues ---    0.00099   0.00141   0.00190   0.00300   0.00301
     Eigenvalues ---    0.00736   0.01531   0.01717   0.01981   0.02008
     Eigenvalues ---    0.03253   0.03939   0.05307   0.05341   0.10255
     Eigenvalues ---    0.15326   0.21203   0.21513   0.24375   0.24778
     Eigenvalues ---    0.25001   0.25870   0.29371   0.30070   0.30242
     Eigenvalues ---    0.37639   0.48339   0.79399   0.79716   0.81819
     Eigenvalues ---    0.96121   0.96417   1.04416   1.04540   1.11962
     Eigenvalues ---    1.59339   1.59881   2.05640   2.75887   2.77116
     Eigenvalues ---    2.80097   2.81658   2.83149   2.85382  38.17583
     Eigenvalues ---   45.43737  58.18079 226.86711
 Angle between quadratic step and forces=  77.37 degrees.
 Linear search not attempted -- first point.
 B after Tr=    -0.000245    0.000068   -0.000152
         Rot=    1.000000    0.000005   -0.000002   -0.000003 Ang=   0.00 deg.
 Variable       Old X    -DE/DX   Delta X   Delta X   Delta X     New X
                                 (Linear)    (Quad)   (Total)
    X1      -16.90672  -0.00171   0.00000   0.00716   0.00694 -16.89978
    Y1       -1.73115   0.02339   0.00000   0.00654   0.00654  -1.72462
    Z1        2.09088   0.00210   0.00000   0.00579   0.00574   2.09662
    X2      -16.91503   0.00126   0.00000   0.01162   0.01138 -16.90365
    Y2        0.89293  -0.01462   0.00000  -0.02221  -0.02221   0.87072
    Z2        2.35297  -0.00103   0.00000   0.00528   0.00520   2.35817
    X3      -15.59564   0.02155   0.00000   0.01246   0.01225 -15.58339
    Y3       -3.99441  -0.01344   0.00000  -0.00425  -0.00425  -3.99866
    Z3        1.86225  -0.00144   0.00000  -0.00008  -0.00012   1.86213
    X4      -13.30843  -0.01550   0.00000  -0.01802  -0.01822 -13.32665
    Y4       -5.31027   0.00859   0.00000   0.01395   0.01396  -5.29631
    Z4        1.69986   0.00068   0.00000   0.00015   0.00011   1.69997
    X5      -18.22457  -0.01872   0.00000   0.00253   0.00232 -18.22225
    Y5       -3.99526  -0.01087   0.00000  -0.00407  -0.00409  -3.99935
    Z5        1.88398  -0.00095   0.00000   0.00091   0.00088   1.88487
    X6      -20.50851   0.01393   0.00000   0.02708   0.02688 -20.48163
    Y6       -5.31010   0.00887   0.00000   0.00971   0.00968  -5.30043
    Z6        1.77811   0.00070   0.00000  -0.00031  -0.00031   1.77780
    X7      -19.22647  -0.00286   0.00000   0.00121   0.00097 -19.22550
    Y7        2.24528   0.00247   0.00000  -0.02924  -0.02926   2.21602
    Z7        2.52780   0.00057   0.00000  -0.00814  -0.00823   2.51957
    X8      -21.10842   0.00110   0.00000  -0.01143  -0.01169 -21.12011
    Y8        3.36106  -0.00165   0.00000  -0.05121  -0.05123   3.30982
    Z8        2.68438  -0.00043   0.00000  -0.02364  -0.02373   2.66065
    X9      -14.58534   0.00488   0.00000   0.01350   0.01325 -14.57209
    Y9        2.22101   0.00169   0.00000  -0.01558  -0.01557   2.20544
    Z9        2.49556   0.00015   0.00000  -0.00788  -0.00798   2.48758
   X10      -12.64829  -0.00314   0.00000   0.00571   0.00545 -12.64284
   Y10        3.24619  -0.00114   0.00000  -0.00521  -0.00519   3.24100
   Z10        2.61221  -0.00022   0.00000  -0.01880  -0.01893   2.59328
   X11      -10.97654   0.01129   0.00000  -0.01650  -0.01671 -10.99325
   Y11       -3.98924   0.00741   0.00000   0.02427   0.02430  -3.96495
   Z11        1.79239   0.00065   0.00000   0.00453   0.00446   1.79686
   X12       -9.07701  -0.00929   0.00000  -0.02840  -0.02862  -9.10563
   Y12       -2.88050  -0.00530   0.00000   0.02745   0.02748  -2.85301
   Z12        1.86862  -0.00035   0.00000   0.00757   0.00749   1.87610
   X13      -13.29206   0.00024   0.00000  -0.02803  -0.02822 -13.32029
   Y13       -7.97628  -0.00715   0.00000   0.00632   0.00632  -7.96995
   Z13        1.39822  -0.00091   0.00000   0.01551   0.01549   1.41371
   X14      -13.27471  -0.00070   0.00000  -0.04893  -0.04911 -13.32382
   Y14      -10.15686   0.00469   0.00000   0.00784   0.00785 -10.14902
   Z14        1.13990   0.00073   0.00000   0.03318   0.03319   1.17309
   X15      -20.48223  -0.00011   0.00000   0.01457   0.01438 -20.46786
   Y15       -7.98164  -0.01364   0.00000   0.00242   0.00239  -7.97926
   Z15        1.58100  -0.00112   0.00000  -0.03127  -0.03125   1.54975
   X16      -20.40163  -0.00048   0.00000   0.00144   0.00126 -20.40037
   Y16      -10.17477   0.00962   0.00000   0.01142   0.01138 -10.16339
   Z16        1.42828   0.00059   0.00000  -0.05630  -0.05626   1.37202
   X17      -22.83337  -0.01136   0.00000   0.02518   0.02496 -22.80840
   Y17       -3.97454   0.00721   0.00000   0.01428   0.01424  -3.96031
   Z17        1.87185   0.00066   0.00000   0.02620   0.02619   1.89804
   X18      -24.71066   0.00961   0.00000   0.03276   0.03254 -24.67812
   Y18       -2.82763  -0.00613   0.00000   0.00773   0.00768  -2.81995
   Z18        1.94611  -0.00038   0.00000   0.04809   0.04808   1.99418
         Item               Value     Threshold  Converged?
 Maximum Force            0.023392     0.000450     NO 
 RMS     Force            0.008046     0.000300     NO 
 Maximum Displacement     0.056259     0.001800     NO 
 RMS     Displacement     0.021104     0.001200     NO 
 Predicted change in Energy=-1.002079D-03
 GradGradGradGradGradGradGradGradGradGradGradGradGradGradGradGradGradGrad

 Unable to Open any file for archive entry.
 1\1\GINC-X10P1N4\Force\UwB97XD\def2SVP\C12N6(1-,2)\MAYUMIAO\11-Oct-202
 4\0\\# wb97xd def2svp scrf=(smd,solvent=acetonitrile) g09default scf=(
 xqc,maxcycle=64) force guess=read nosymm\\Title Card\\-1,2\C,-8.946650
 12,-0.91608559,1.10644554\C,-8.95104775,0.47251982,1.24513626\C,-8.252
 85774,-2.11375331,0.98546169\C,-7.0425176,-2.81007318,0.89952831\C,-9.
 64402755,-2.11419953,0.99696139\C,-10.8526335,-2.80998632,0.94093789\C
 ,-10.17420709,1.18814845,1.33765292\N,-11.1700972,1.77859565,1.4205115
 2\C,-7.71823176,1.17530942,1.32059507\N,-6.69318781,1.71781136,1.38232
 035\C,-5.8085339,-2.11101734,0.94849385\N,-4.80334758,-1.52429254,0.98
 882865\C,-7.03385777,-4.22086463,0.73990358\N,-7.02467136,-5.3747797,0
 .60321115\C,-10.83872949,-4.22370214,0.83662697\N,-10.79607858,-5.3842
 5512,0.75581145\C,-12.08289709,-2.10323803,0.99054209\N,-13.07632016,-
 1.4963148,1.02983624\\Version=ES64L-G16RevC.01\HF=-784.8602938\S2=0.78
 7437\S2-1=0.\S2A=0.751152\RMSD=6.823e-09\RMSF=8.046e-03\Dipole=-0.0733
 193,0.0041306,-0.0033349\Quadrupole=-201.8785625,70.8731598,131.005402
 8,-54.0466448,33.3299287,0.9091754\PG=C01 [X(C12N6)]\\@
 The archive entry for this job was punched.


 AND HERE I AM, FOR ALL MY LORE,
 THE WRETCHED FOOL I WAS BEFORE.
 CALLED MASTER OF ARTS, AND DOCTOR TO BOOT,
 FOR TEN YEARS ALMOST I CONFUTE
 AND UP AND DOWN, WHEREVER IT GOES
 I DRAG MY STUDENTS BY THE NOSE --
 AND SEE THAT FOR ALL OUR SCIENCE AND ART
 WE CAN KNOW NOTHING.  IT BURNS MY HEART.

                                       -- FAUST
 Job cpu time:       0 days  0 hours 12 minutes 22.3 seconds.
 Elapsed time:       0 days  0 hours  0 minutes 27.9 seconds.
 File lengths (MBytes):  RWF=    173 Int=      0 D2E=      0 Chk=      9 Scr=      1
 Normal termination of Gaussian 16 at Fri Oct 11 16:08:29 2024.
