 Entering Gaussian System, Link 0=g16
 Input=JOBS/46_A.gjf
 Output=JOBS/46_A.log
 Initial command:
 /data/app/gaussian/C01-avx2//g16/l1.exe "/tmp/Gau-2557391.inp" -scrdir="/tmp/"
 Entering Link 1 = /data/app/gaussian/C01-avx2//g16/l1.exe PID=   2557392.
  
 Copyright (c) 1988-2019, Gaussian, Inc.  All Rights Reserved.
  
 This is part of the Gaussian(R) 16 program.  It is based on
 the Gaussian(R) 09 system (copyright 2009, Gaussian, Inc.),
 the Gaussian(R) 03 system (copyright 2003, Gaussian, Inc.),
 the Gaussian(R) 98 system (copyright 1998, Gaussian, Inc.),
 the Gaussian(R) 94 system (copyright 1995, Gaussian, Inc.),
 the Gaussian 92(TM) system (copyright 1992, Gaussian, Inc.),
 the Gaussian 90(TM) system (copyright 1990, Gaussian, Inc.),
 the Gaussian 88(TM) system (copyright 1988, Gaussian, Inc.),
 the Gaussian 86(TM) system (copyright 1986, Carnegie Mellon
 University), and the Gaussian 82(TM) system (copyright 1983,
 Carnegie Mellon University). Gaussian is a federally registered
 trademark of Gaussian, Inc.
  
 This software contains proprietary and confidential information,
 including trade secrets, belonging to Gaussian, Inc.
  
 This software is provided under written license and may be
 used, copied, transmitted, or stored only in accord with that
 written license.
  
 The following legend is applicable only to US Government
 contracts under FAR:
  
                    RESTRICTED RIGHTS LEGEND
  
 Use, reproduction and disclosure by the US Government is
 subject to restrictions as set forth in subparagraphs (a)
 and (c) of the Commercial Computer Software - Restricted
 Rights clause in FAR 52.227-19.
  
 Gaussian, Inc.
 340 Quinnipiac St., Bldg. 40, Wallingford CT 06492
  
  
 ---------------------------------------------------------------
 Warning -- This program may not be used in any manner that
 competes with the business of Gaussian, Inc. or will provide
 assistance to any competitor of Gaussian, Inc.  The licensee
 of this program is prohibited from giving any competitor of
 Gaussian, Inc. access to this program.  By using this program,
 the user acknowledges that Gaussian, Inc. is engaged in the
 business of creating and licensing software in the field of
 computational chemistry and represents and warrants to the
 licensee that it is not a competitor of Gaussian, Inc. and that
 it will not use this program in any manner prohibited above.
 ---------------------------------------------------------------
  

 Cite this work as:
 Gaussian 16, Revision C.01,
 M. J. Frisch, G. W. Trucks, H. B. Schlegel, G. E. Scuseria, 
 M. A. Robb, J. R. Cheeseman, G. Scalmani, V. Barone, 
 G. A. Petersson, H. Nakatsuji, X. Li, M. Caricato, A. V. Marenich, 
 J. Bloino, B. G. Janesko, R. Gomperts, B. Mennucci, H. P. Hratchian, 
 J. V. Ortiz, A. F. Izmaylov, J. L. Sonnenberg, D. Williams-Young, 
 F. Ding, F. Lipparini, F. Egidi, J. Goings, B. Peng, A. Petrone, 
 T. Henderson, D. Ranasinghe, V. G. Zakrzewski, J. Gao, N. Rega, 
 G. Zheng, W. Liang, M. Hada, M. Ehara, K. Toyota, R. Fukuda, 
 J. Hasegawa, M. Ishida, T. Nakajima, Y. Honda, O. Kitao, H. Nakai, 
 T. Vreven, K. Throssell, J. A. Montgomery, Jr., J. E. Peralta, 
 F. Ogliaro, M. J. Bearpark, J. J. Heyd, E. N. Brothers, K. N. Kudin, 
 V. N. Staroverov, T. A. Keith, R. Kobayashi, J. Normand, 
 K. Raghavachari, A. P. Rendell, J. C. Burant, S. S. Iyengar, 
 J. Tomasi, M. Cossi, J. M. Millam, M. Klene, C. Adamo, R. Cammi, 
 J. W. Ochterski, R. L. Martin, K. Morokuma, O. Farkas, 
 J. B. Foresman, and D. J. Fox, Gaussian, Inc., Wallingford CT, 2019.
 
 ******************************************
 Gaussian 16:  ES64L-G16RevC.01  3-Jul-2019
                11-Oct-2024 
 ******************************************
 %chk=a.chk
 %nprocshared=28
 Will use up to   28 processors via shared memory.
 %mem=48gb
 ----------------------------------------------------------------------
 # wb97xd def2svp scrf=(smd,solvent=acetonitrile) g09default scf=(xqc,m
 axcycle=64) force guess=read nosymm
 ----------------------------------------------------------------------
 1/10=7,30=1,38=1,158=3,167=1/1,3;
 2/12=2,15=1,17=6,18=5,40=1/2;
 3/5=43,7=101,11=2,25=1,27=10,30=1,70=32201,71=1,72=2,74=-58,75=-4,116=-2,158=3/1,2,3;
 4/5=1,60=-1/1;
 5/5=2,7=64,8=3,13=1,38=6,53=2,87=10/2,8;
 6/7=2,8=2,9=2,10=2,28=1,87=10/1;
 7/29=1,30=1,87=10/1,2,3,16;
 1/10=7,30=1,158=3,167=1/3;
 99//99;
 Using 2006 physical constants.
 ----------
 Title Card
 ----------
 Symbolic Z-matrix:
 Charge = -2 Multiplicity = 1
 6                    -8.94943  -0.91724   1.10603 
 6                    -8.95073   0.4705    1.24515 
 6                    -8.25255  -2.11515   0.98526 
 6                    -7.04561  -2.80834   0.89935 
 6                    -9.6434   -2.11368   0.99696 
 6                    -10.85042  -2.80796   0.94129 
 6                    -10.17111   1.18829   1.33841 
 7                    -11.16898   1.77986   1.4208 
 6                    -7.71941   1.17026   1.32044 
 7                    -6.69555   1.71773   1.38265 
 6                    -5.81156  -2.11025   0.94865 
 7                    -4.8065   -1.52723   0.98808 
 6                    -7.03387  -4.21833   0.73913 
 7                    -7.02471  -5.37293   0.60292 
 6                    -10.83749  -4.22299   0.83742 
 7                    -10.79504  -5.38122   0.75725 
 6                    -12.08055  -2.10282   0.99044 
 7                    -13.07298  -1.49865   1.02859 
 

 GradGradGradGradGradGradGradGradGradGradGradGradGradGradGradGradGradGrad
 Berny optimization.
 Initialization pass.
 Trust Radius=3.00D-01 FncErr=1.00D-07 GrdErr=1.00D-07 EigMax=2.50D+02 EigMin=1.00D-04
 Number of steps in this run=      2 maximum allowed number of steps=      2.
 GradGradGradGradGradGradGradGradGradGradGradGradGradGradGradGradGradGrad

                          Input orientation:                          
 ---------------------------------------------------------------------
 Center     Atomic      Atomic             Coordinates (Angstroms)
 Number     Number       Type             X           Y           Z
 ---------------------------------------------------------------------
      1          6           0       -8.949434   -0.917243    1.106028
      2          6           0       -8.950729    0.470495    1.245147
      3          6           0       -8.252555   -2.115152    0.985260
      4          6           0       -7.045613   -2.808344    0.899350
      5          6           0       -9.643396   -2.113679    0.996964
      6          6           0      -10.850417   -2.807965    0.941289
      7          6           0      -10.171106    1.188292    1.338407
      8          7           0      -11.168981    1.779858    1.420797
      9          6           0       -7.719412    1.170255    1.320441
     10          7           0       -6.695547    1.717732    1.382647
     11          6           0       -5.811563   -2.110254    0.948651
     12          7           0       -4.806497   -1.527235    0.988079
     13          6           0       -7.033874   -4.218327    0.739133
     14          7           0       -7.024710   -5.372927    0.602922
     15          6           0      -10.837489   -4.222994    0.837415
     16          7           0      -10.795039   -5.381221    0.757250
     17          6           0      -12.080551   -2.102825    0.990439
     18          7           0      -13.072980   -1.498645    1.028587
 ---------------------------------------------------------------------
                    Distance matrix (angstroms):
                    1          2          3          4          5
     1  C    0.000000
     2  C    1.394694   0.000000
     3  C    1.391119   2.690829   0.000000
     4  C    2.691378   3.807865   1.394491   0.000000
     5  C    1.387422   2.686883   1.390891   2.690829   0.000000
     6  C    2.686206   3.801242   2.689017   3.805034   1.393568
     7  C    2.445355   1.418890   3.836443   5.092601   3.361261
     8  N    3.507110   2.581845   4.885319   6.190773   4.203175
     9  C    2.432401   1.418265   3.345219   4.057164   3.819762
    10  N    3.478450   2.580766   4.156102   4.565248   4.849564
    11  C    3.360696   4.074621   2.441271   1.418676   3.832139
    12  N    4.189264   4.607784   3.495850   2.581231   4.872329
    13  C    3.834207   5.090721   2.443176   1.419105   3.362384
    14  N    4.879632   6.186080   3.502411   2.581742   4.199462
    15  C    3.816399   5.074934   3.338674   4.047640   2.429099
    16  N    4.843037   6.154844   4.145289   4.549514   3.472834
    17  C    3.350053   4.059881   3.828019   5.084943   2.437188
    18  N    4.165052   4.573551   4.859883   6.169373   3.484439
                    6          7          8          9         10
     6  C    0.000000
     7  C    4.072989   0.000000
     8  N    4.623800   1.162968   0.000000
     9  C    5.076729   2.451826   3.504457   0.000000
    10  N    6.159518   3.515931   4.474028   1.162712   0.000000
    11  C    5.086934   5.480687   6.637606   3.813116   3.952626
    12  N    6.178302   6.022943   7.183684   3.983967   3.775448
    13  C    4.073817   6.279561   7.317240   5.463031   5.980416
    14  N    4.618393   7.313709   8.306999   6.618964   7.140992
    15  C    1.418896   5.475133   6.040236   6.248429   7.262588
    16  N    2.580424   6.624617   7.201471   7.259374   8.221441
    17  C    1.418756   3.820800   4.011408   5.462736   6.614283
    18  N    2.581032   3.966925   3.811512   5.989065   7.151370
                   11         12         13         14         15
    11  C    0.000000
    12  N    1.162593   0.000000
    13  C    2.445796   3.502165   0.000000
    14  N    3.498041   4.456250   1.162643   0.000000
    15  C    5.453071   6.607775   3.804888   3.989313   0.000000
    16  N    5.964134   7.125246   3.936878   3.773495   1.161774
    17  C    6.269131   7.296791   5.477906   6.033677   2.462465
    18  N    7.287567   8.266632   6.629574   7.195333   3.529312
                   16         17         18
    16  N    0.000000
    17  C    3.529136   0.000000
    18  N    4.509660   1.162499   0.000000
 Symmetry turned off by external request.
 Stoichiometry    C12N6(2-)
 Framework group  C1[X(C12N6)]
 Deg. of freedom    48
 Full point group                 C1      NOp   1
 Rotational constants (GHZ):           0.4325086           0.4265452           0.2147941
 Standard basis: def2SVP (5D, 7F)
   252 basis functions,   450 primitive gaussians,   270 cartesian basis functions
    58 alpha electrons       58 beta electrons
       nuclear repulsion energy       965.7131590893 Hartrees.
 NAtoms=   18 NActive=   18 NUniq=   18 SFac= 1.00D+00 NAtFMM=   60 NAOKFM=F Big=F
 Integral buffers will be    131072 words long.
 Raffenetti 2 integral format.
 Two-electron integral symmetry is turned off.
 Nuclear repulsion after empirical dispersion term =      965.7014742935 Hartrees.
 Force PCM accuracy= 1.00D-10.
 ------------------------------------------------------------------------------
 Polarizable Continuum Model (PCM)
 =================================
 Model                : PCM (using non-symmetric T matrix).
 Atomic radii         : SMD-Coulomb.
 Polarization charges : Total charges.
 Charge compensation  : None.
 Solution method      : On-the-fly selection.
 Cavity type          : VdW (van der Waals Surface) (Alpha=1.000).
 Cavity algorithm     : GePol (No added spheres)
                        Default sphere list used, NSphG=   18.
                        Lebedev-Laikov grids with approx.  5.0 points / Ang**2.
                        Smoothing algorithm: York/Karplus (Gamma=1.0000).
                        Polarization charges: spherical gaussians, with
                                              point-specific exponents (IZeta= 3).
                        Self-potential: point-specific (ISelfS= 7).
                        Self-field    : sphere-specific E.n sum rule (ISelfD= 2).
 1st derivatives      : Analytical E(r).r(x)/FMM algorithm (CHGder, D1EAlg=3).
                        Cavity 1st derivative terms included.
 Solvent              : Acetonitrile, Eps=  35.688000 Eps(inf)=   1.806874
 ------------------------------------------------------------------------------
 Spheres list:
 ISph  on   Nord     Re0    Alpha      Xe            Ye            Ze
    1   C      1    1.8500  1.000     -8.949434     -0.917243      1.106028
    2   C      2    1.8500  1.000     -8.950729      0.470495      1.245147
    3   C      3    1.8500  1.000     -8.252555     -2.115152      0.985260
    4   C      4    1.8500  1.000     -7.045613     -2.808344      0.899350
    5   C      5    1.8500  1.000     -9.643396     -2.113679      0.996964
    6   C      6    1.8500  1.000    -10.850417     -2.807965      0.941289
    7   C      7    1.8500  1.000    -10.171106      1.188292      1.338407
    8   N      8    1.8900  1.000    -11.168981      1.779858      1.420797
    9   C      9    1.8500  1.000     -7.719412      1.170255      1.320441
   10   N     10    1.8900  1.000     -6.695547      1.717732      1.382647
   11   C     11    1.8500  1.000     -5.811563     -2.110254      0.948651
   12   N     12    1.8900  1.000     -4.806497     -1.527235      0.988079
   13   C     13    1.8500  1.000     -7.033874     -4.218327      0.739133
   14   N     14    1.8900  1.000     -7.024710     -5.372927      0.602922
   15   C     15    1.8500  1.000    -10.837489     -4.222994      0.837415
   16   N     16    1.8900  1.000    -10.795039     -5.381221      0.757250
   17   C     17    1.8500  1.000    -12.080551     -2.102825      0.990439
   18   N     18    1.8900  1.000    -13.072980     -1.498645      1.028587
 ------------------------------------------------------------------------------
 ------------------------------------------------------------------------------
 Atomic radii for non-electrostatic terms: SMD-CDS.
 ------------------------------------------------------------------------------
 Nuclear repulsion after PCM non-electrostatic terms =      965.7101823313 Hartrees.
 One-electron integrals computed using PRISM.
   1 Symmetry operations used in ECPInt.
 ECPInt:  NShTT=    5886 NPrTT=   23670 LenC2=    5404 LenP2D=   14968.
 LDataN:  DoStor=T MaxTD1= 4 Len=   56
 NBasis=   252 RedAO= T EigKep=  1.93D-04  NBF=   252
 NBsUse=   252 1.00D-06 EigRej= -1.00D+00 NBFU=   252
 Initial guess from the checkpoint file:  "a.chk"
 B after Tr=    -0.000025   -0.000353   -0.000821
         Rot=    1.000000   -0.000014   -0.000027    0.000012 Ang=  -0.00 deg.
 Requested convergence on RMS density matrix=1.00D-08 within  64 cycles.
 Requested convergence on MAX density matrix=1.00D-06.
 Requested convergence on             energy=1.00D-06.
 No special actions if energy rises.
 Inv3:  Mode=1 IEnd=    19309107.
 Iteration    1 A*A^-1 deviation from unit magnitude is 3.33D-15 for   1281.
 Iteration    1 A*A^-1 deviation from orthogonality  is 2.55D-15 for   1081    847.
 Iteration    1 A^-1*A deviation from unit magnitude is 3.33D-15 for    233.
 Iteration    1 A^-1*A deviation from orthogonality  is 2.91D-12 for   2057   2011.
 Error on total polarization charges =  0.02151
 SCF Done:  E(RwB97XD) =  -785.032673766     A.U. after   11 cycles
            NFock= 11  Conv=0.61D-08     -V/T= 2.0097
 SMD-CDS (non-electrostatic) energy       (kcal/mol) =       5.46
 (included in total energy above)
 QCSCF skips out because SCF is already converged.

 **********************************************************************

            Population analysis using the SCF Density.

 **********************************************************************

 Alpha  occ. eigenvalues --  -14.42781 -14.42777 -14.42770 -14.42764 -14.42744
 Alpha  occ. eigenvalues --  -14.42742 -10.34990 -10.34913 -10.34880 -10.33720
 Alpha  occ. eigenvalues --  -10.33719 -10.33701 -10.33697 -10.33677 -10.33675
 Alpha  occ. eigenvalues --  -10.32733 -10.32698 -10.32692  -1.03118  -0.99096
 Alpha  occ. eigenvalues --   -0.99083  -0.98716  -0.98031  -0.97998  -0.97928
 Alpha  occ. eigenvalues --   -0.88200  -0.88186  -0.86108  -0.68804  -0.68726
 Alpha  occ. eigenvalues --   -0.65217  -0.65044  -0.64933  -0.64134  -0.52477
 Alpha  occ. eigenvalues --   -0.47693  -0.47683  -0.46810  -0.46726  -0.45186
 Alpha  occ. eigenvalues --   -0.45071  -0.45068  -0.44535  -0.44214  -0.44168
 Alpha  occ. eigenvalues --   -0.43856  -0.42813  -0.42239  -0.42209  -0.42038
 Alpha  occ. eigenvalues --   -0.41950  -0.41918  -0.40528  -0.40169  -0.40156
 Alpha  occ. eigenvalues --   -0.31476  -0.31449  -0.23642
 Alpha virt. eigenvalues --    0.07456   0.07563   0.08842   0.09274   0.09375
 Alpha virt. eigenvalues --    0.12678   0.12710   0.13127   0.13135   0.14830
 Alpha virt. eigenvalues --    0.14960   0.16329   0.21095   0.21158   0.24203
 Alpha virt. eigenvalues --    0.27567   0.28115   0.28131   0.28629   0.28666
 Alpha virt. eigenvalues --    0.29999   0.33661   0.33740   0.33932   0.36863
 Alpha virt. eigenvalues --    0.37097   0.37228   0.48972   0.49131   0.50519
 Alpha virt. eigenvalues --    0.50699   0.54921   0.54925   0.55010   0.55106
 Alpha virt. eigenvalues --    0.57458   0.57495   0.58299   0.59980   0.61117
 Alpha virt. eigenvalues --    0.61710   0.61748   0.62813   0.63028   0.64875
 Alpha virt. eigenvalues --    0.65538   0.70913   0.71747   0.71866   0.73683
 Alpha virt. eigenvalues --    0.73721   0.74455   0.74638   0.74775   0.75097
 Alpha virt. eigenvalues --    0.75158   0.75237   0.76591   0.76911   0.77854
 Alpha virt. eigenvalues --    0.82035   0.82138   0.82232   0.83427   0.83671
 Alpha virt. eigenvalues --    0.88835   0.88893   0.89419   0.89674   0.94738
 Alpha virt. eigenvalues --    0.94806   0.95109   0.95201   0.95988   0.96130
 Alpha virt. eigenvalues --    0.98116   1.00612   1.00657   1.01291   1.01587
 Alpha virt. eigenvalues --    1.02366   1.02526   1.05278   1.05477   1.05866
 Alpha virt. eigenvalues --    1.08505   1.09005   1.10171   1.10376   1.12691
 Alpha virt. eigenvalues --    1.12902   1.17467   1.18911   1.20383   1.20523
 Alpha virt. eigenvalues --    1.21179   1.25115   1.25254   1.27264   1.35282
 Alpha virt. eigenvalues --    1.38795   1.39000   1.41767   1.41903   1.45037
 Alpha virt. eigenvalues --    1.47109   1.47325   1.47835   1.47972   1.58925
 Alpha virt. eigenvalues --    1.62398   1.68390   1.70726   1.70820   1.70979
 Alpha virt. eigenvalues --    1.71169   1.71265   1.79131   1.79436   1.79633
 Alpha virt. eigenvalues --    1.79686   1.80348   1.81534   1.81568   1.82870
 Alpha virt. eigenvalues --    1.84631   1.85135   1.87658   1.95480   1.95574
 Alpha virt. eigenvalues --    1.95859   2.00356   2.03147   2.03307   2.06388
 Alpha virt. eigenvalues --    2.06680   2.10007   2.10495   2.16240   2.16324
 Alpha virt. eigenvalues --    2.21115   2.23567   2.23735   2.23861   2.29530
 Alpha virt. eigenvalues --    2.30381   2.30655   2.32165   2.35899   2.35917
 Alpha virt. eigenvalues --    2.36475   2.36580   2.36746   2.36866   2.37468
 Alpha virt. eigenvalues --    2.38495   2.38540   2.38768   2.38841   2.39209
 Alpha virt. eigenvalues --    2.40541   2.40661   2.60012   2.65214   2.65607
 Alpha virt. eigenvalues --    2.74296   2.74524   2.95350   2.97365   2.97762
 Alpha virt. eigenvalues --    2.98174   3.01190   3.01368   3.01970   3.05272
 Alpha virt. eigenvalues --    3.07906   3.07992   3.11370   3.11872   3.14811
 Alpha virt. eigenvalues --    3.14930   3.15431   3.26073   3.26344   3.31437
 Alpha virt. eigenvalues --    3.43873   3.43948   3.45314   3.56608   3.59916
 Alpha virt. eigenvalues --    3.60049   3.64559   3.64665   3.78544
          Condensed to atoms (all electrons):
               1          2          3          4          5          6
     1  C    4.966683   0.493778   0.314078  -0.117366   0.316956  -0.116615
     2  C    0.493778   5.548889  -0.115517  -0.007641  -0.117342  -0.007151
     3  C    0.314078  -0.115517   4.960861   0.493324   0.315792  -0.115528
     4  C   -0.117366  -0.007641   0.493324   5.553767  -0.117266  -0.007508
     5  C    0.316956  -0.117342   0.315792  -0.117266   4.964885   0.494004
     6  C   -0.116615  -0.007151  -0.115528  -0.007508   0.494004   5.546109
     7  C    0.012058   0.384103   0.005963  -0.000551  -0.025712   0.002970
     8  N   -0.001068  -0.044544  -0.000074  -0.000001  -0.000582   0.000142
     9  C    0.014318   0.387720  -0.025339   0.003054   0.007133  -0.000519
    10  N   -0.001042  -0.043413  -0.000618   0.000165  -0.000054  -0.000001
    11  C   -0.024714   0.002998   0.012619   0.387013   0.006329  -0.000536
    12  N   -0.000583   0.000149  -0.001115  -0.043808  -0.000069  -0.000001
    13  C    0.005930  -0.000544   0.012597   0.386468  -0.024899   0.002999
    14  N   -0.000076  -0.000001  -0.001118  -0.044220  -0.000579   0.000146
    15  C    0.007318  -0.000519  -0.026518   0.003093   0.014905   0.385385
    16  N   -0.000045  -0.000001  -0.000670   0.000178  -0.000929  -0.043773
    17  C   -0.026815   0.003060   0.007000  -0.000540   0.012724   0.383546
    18  N   -0.000662   0.000171  -0.000048  -0.000001  -0.000916  -0.043945
               7          8          9         10         11         12
     1  C    0.012058  -0.001068   0.014318  -0.001042  -0.024714  -0.000583
     2  C    0.384103  -0.044544   0.387720  -0.043413   0.002998   0.000149
     3  C    0.005963  -0.000074  -0.025339  -0.000618   0.012619  -0.001115
     4  C   -0.000551  -0.000001   0.003054   0.000165   0.387013  -0.043808
     5  C   -0.025712  -0.000582   0.007133  -0.000054   0.006329  -0.000069
     6  C    0.002970   0.000142  -0.000519  -0.000001  -0.000536  -0.000001
     7  C    4.882074   0.924791  -0.056050   0.002735   0.000138   0.000002
     8  N    0.924791   6.155540   0.002483   0.000092   0.000000   0.000000
     9  C   -0.056050   0.002483   4.878712   0.925224  -0.000537   0.000037
    10  N    0.002735   0.000092   0.925224   6.155486   0.000249  -0.000880
    11  C    0.000138   0.000000  -0.000537   0.000249   4.878765   0.925993
    12  N    0.000002   0.000000   0.000037  -0.000880   0.925993   6.153113
    13  C   -0.000017  -0.000000   0.000142   0.000003  -0.055417   0.002612
    14  N   -0.000000  -0.000000   0.000000   0.000000   0.002549   0.000094
    15  C    0.000137   0.000002  -0.000017  -0.000000   0.000145   0.000000
    16  N    0.000000   0.000000  -0.000000  -0.000000   0.000003   0.000000
    17  C   -0.000573  -0.000034   0.000142   0.000000  -0.000017  -0.000000
    18  N    0.000258  -0.000842   0.000003   0.000000  -0.000000  -0.000000
              13         14         15         16         17         18
     1  C    0.005930  -0.000076   0.007318  -0.000045  -0.026815  -0.000662
     2  C   -0.000544  -0.000001  -0.000519  -0.000001   0.003060   0.000171
     3  C    0.012597  -0.001118  -0.026518  -0.000670   0.007000  -0.000048
     4  C    0.386468  -0.044220   0.003093   0.000178  -0.000540  -0.000001
     5  C   -0.024899  -0.000579   0.014905  -0.000929   0.012724  -0.000916
     6  C    0.002999   0.000146   0.385385  -0.043773   0.383546  -0.043945
     7  C   -0.000017  -0.000000   0.000137   0.000000  -0.000573   0.000258
     8  N   -0.000000  -0.000000   0.000002   0.000000  -0.000034  -0.000842
     9  C    0.000142   0.000000  -0.000017  -0.000000   0.000142   0.000003
    10  N    0.000003   0.000000  -0.000000  -0.000000   0.000000   0.000000
    11  C   -0.055417   0.002549   0.000145   0.000003  -0.000017  -0.000000
    12  N    0.002612   0.000094   0.000000   0.000000  -0.000000  -0.000000
    13  C    4.878904   0.925806  -0.000556   0.000320   0.000139   0.000000
    14  N    0.925806   6.154194  -0.000029  -0.000886   0.000002   0.000000
    15  C   -0.000556  -0.000029   4.878783   0.924921  -0.055129   0.002602
    16  N    0.000320  -0.000886   0.924921   6.156061   0.002698   0.000085
    17  C    0.000139   0.000002  -0.055129   0.002698   4.882351   0.924165
    18  N    0.000000   0.000000   0.002602   0.000085   0.924165   6.155479
 Mulliken charges:
               1
     1  C    0.157867
     2  C   -0.484192
     3  C    0.164311
     4  C   -0.488160
     5  C    0.155620
     6  C   -0.479723
     7  C   -0.132326
     8  N   -0.035903
     9  C   -0.136507
    10  N   -0.037945
    11  C   -0.135578
    12  N   -0.035544
    13  C   -0.134487
    14  N   -0.035882
    15  C   -0.134522
    16  N   -0.037961
    17  C   -0.132719
    18  N   -0.036348
 Sum of Mulliken charges =  -2.00000
 Mulliken charges with hydrogens summed into heavy atoms:
               1
     1  C    0.157867
     2  C   -0.484192
     3  C    0.164311
     4  C   -0.488160
     5  C    0.155620
     6  C   -0.479723
     7  C   -0.132326
     8  N   -0.035903
     9  C   -0.136507
    10  N   -0.037945
    11  C   -0.135578
    12  N   -0.035544
    13  C   -0.134487
    14  N   -0.035882
    15  C   -0.134522
    16  N   -0.037961
    17  C   -0.132719
    18  N   -0.036348
 Electronic spatial extent (au):  <R**2>=          39328.2396
 Charge=             -2.0000 electrons
 Dipole moment (field-independent basis, Debye):
    X=             85.6775    Y=             16.4316    Z=             -9.9008  Tot=             87.7990
 Quadrupole moment (field-independent basis, Debye-Ang):
   XX=           -964.1050   YY=           -227.4797   ZZ=           -113.5534
   XY=           -145.6238   XZ=             89.3151   YZ=              7.2212
 Traceless Quadrupole moment (field-independent basis, Debye-Ang):
   XX=           -529.0590   YY=            207.5663   ZZ=            321.4926
   XY=           -145.6238   XZ=             89.3151   YZ=              7.2212
 Octapole moment (field-independent basis, Debye-Ang**2):
  XXX=          12175.0741  YYY=           1140.2054  ZZZ=           -329.6639  XYY=           2029.8595
  XXY=           1565.2754  XXZ=          -1016.0493  XZZ=           1016.6681  YZZ=            174.9401
  YYZ=           -196.6210  XYZ=            -66.3509
 Hexadecapole moment (field-independent basis, Debye-Ang**3):
 XXXX=        -161241.8163 YYYY=          -8688.3126 ZZZZ=           -804.2915 XXXY=         -18780.7093
 XXXZ=          12931.9837 YYYX=         -10157.2669 YYYZ=            766.3216 ZZZX=           2966.5696
 ZZZY=            378.2764 XXYY=         -20017.2407 XXZZ=          -9887.8295 YYZZ=          -1038.2642
 XXYZ=            799.5742 YYXZ=           1779.9905 ZZXY=          -1563.0797
 N-N= 9.657101823313D+02 E-N=-3.785197057202D+03  KE= 7.774790352006D+02
   1 Symmetry operations used in ECPInt.
 ECPInt:  NShTT=    5886 NPrTT=   23670 LenC2=    5404 LenP2D=   14968.
 LDataN:  DoStor=T MaxTD1= 5 Len=  102
 D1PCM: PCM CHGder 1st derivatives, ID1Alg=3 FixD1E=F DoIter=F DoCFld=F I1PDM=0.
 Calling FoFJK, ICntrl=      2127 FMM=F ISym2X=0 I1Cent= 0 IOpClX= 0 NMat=1 NMatS=1 NMatT=0.
 -------------------------------------------------------------------
 Center     Atomic                   Forces (Hartrees/Bohr)
 Number     Number              X              Y              Z
 -------------------------------------------------------------------
      1        6           0.000598127   -0.017909807   -0.001601129
      2        6           0.000157296    0.012502217    0.001445067
      3        6          -0.017193912    0.009992081    0.000799049
      4        6           0.010841091   -0.006448315   -0.000794810
      5        6           0.016761713    0.008687816    0.000721364
      6        6          -0.011096289   -0.007110377   -0.000569743
      7        6           0.005807807   -0.001898751    0.000080034
      8        7          -0.003225363    0.000734682   -0.000058854
      9        6          -0.005086407   -0.002483889   -0.000326298
     10        7           0.003389640    0.001947015    0.000173025
     11        6          -0.005226251   -0.003151160   -0.000217703
     12        7           0.003302955    0.002319848    0.000163052
     13        6           0.000698180    0.006245816    0.000537494
     14        7          -0.000746378   -0.003906867   -0.000327619
     15        6          -0.001389307    0.008318942    0.000540390
     16        7           0.000189805   -0.006013510   -0.000472933
     17        6           0.005900816   -0.004006400   -0.000246080
     18        7          -0.003683521    0.002180659    0.000155695
 -------------------------------------------------------------------
 Cartesian Forces:  Max     0.017909807 RMS     0.006010970

 GradGradGradGradGradGradGradGradGradGradGradGradGradGradGradGradGradGrad
 Berny optimization.
 Search for a local minimum.
 Step number   1 out of a maximum of    2
 All quantities printed in internal units (Hartrees-Bohrs-Radians)
 Second derivative matrix not updated -- first step.
 ITU=  0
     Eigenvalues ---    0.00128   0.00146   0.00197   0.00300   0.00301
     Eigenvalues ---    0.00818   0.01534   0.01722   0.01986   0.02012
     Eigenvalues ---    0.03004   0.04131   0.05324   0.05354   0.10293
     Eigenvalues ---    0.15200   0.21291   0.21588   0.24359   0.24734
     Eigenvalues ---    0.25015   0.25750   0.25963   0.30143   0.30226
     Eigenvalues ---    0.36117   0.41820   0.48432   0.79479   0.80053
     Eigenvalues ---    0.82090   0.99809   1.01036   1.04793   1.05071
     Eigenvalues ---    1.12282   1.60151   1.60653   2.06613   2.78126
     Eigenvalues ---    2.78473   2.78854   2.83480   2.83648   2.84431
     Eigenvalues ---   45.10539  57.71420  58.79163
 Angle between quadratic step and forces=  74.00 degrees.
 Linear search not attempted -- first point.
 B after Tr=    -0.000252    0.000053   -0.000118
         Rot=    1.000000    0.000007   -0.000002   -0.000003 Ang=   0.00 deg.
 Variable       Old X    -DE/DX   Delta X   Delta X   Delta X     New X
                                 (Linear)    (Quad)   (Total)
    X1      -16.91198   0.00060   0.00000   0.00955   0.00931 -16.90267
    Y1       -1.73334  -0.01791   0.00000  -0.00385  -0.00388  -1.73721
    Z1        2.09009  -0.00160   0.00000   0.00236   0.00232   2.09241
    X2      -16.91443   0.00016   0.00000   0.01237   0.01212 -16.90231
    Y2        0.88911   0.01250   0.00000   0.01912   0.01909   0.90820
    Z2        2.35299   0.00145   0.00000   0.00778   0.00770   2.36069
    X3      -15.59507  -0.01719   0.00000   0.00090   0.00068 -15.59439
    Y3       -3.99706   0.00999   0.00000   0.00487   0.00484  -3.99221
    Z3        1.86187   0.00080   0.00000  -0.00042  -0.00043   1.86144
    X4      -13.31428   0.01084   0.00000   0.01942   0.01920 -13.29508
    Y4       -5.30700  -0.00645   0.00000  -0.00662  -0.00663  -5.31363
    Z4        1.69952  -0.00079   0.00000  -0.00241  -0.00241   1.69711
    X5      -18.22338   0.01676   0.00000   0.01199   0.01177 -18.21160
    Y5       -3.99427   0.00869   0.00000   0.00212   0.00208  -3.99219
    Z5        1.88399   0.00072   0.00000   0.00013   0.00013   1.88411
    X6      -20.50432  -0.01110   0.00000  -0.00970  -0.00991 -20.51422
    Y6       -5.30628  -0.00711   0.00000  -0.01174  -0.01179  -5.31808
    Z6        1.77878  -0.00057   0.00000  -0.00291  -0.00289   1.77589
    X7      -19.22060   0.00581   0.00000   0.01221   0.01195 -19.20866
    Y7        2.24555  -0.00190   0.00000   0.00588   0.00585   2.25139
    Z7        2.52922   0.00008   0.00000   0.00722   0.00713   2.53636
    X8      -21.10632  -0.00323   0.00000  -0.00472  -0.00499 -21.11130
    Y8        3.36344   0.00073   0.00000  -0.01724  -0.01728   3.34616
    Z8        2.68492  -0.00006   0.00000   0.00339   0.00329   2.68821
    X9      -14.58757  -0.00509   0.00000   0.00343   0.00317 -14.58441
    Y9        2.21146  -0.00248   0.00000   0.02767   0.02766   2.23912
    Z9        2.49527  -0.00033   0.00000  -0.00242  -0.00252   2.49275
   X10      -12.65275   0.00339   0.00000   0.00086   0.00059 -12.65216
   Y10        3.24604   0.00195   0.00000   0.03998   0.03999   3.28603
   Z10        2.61282   0.00017   0.00000  -0.01051  -0.01063   2.60219
   X11      -10.98226  -0.00523   0.00000   0.01392   0.01370 -10.96856
   Y11       -3.98780  -0.00315   0.00000  -0.00682  -0.00681  -3.99461
   Z11        1.79269  -0.00022   0.00000  -0.00272  -0.00275   1.78995
   X12       -9.08296   0.00330   0.00000   0.01228   0.01206  -9.07091
   Y12       -2.88606   0.00232   0.00000   0.00233   0.00235  -2.88370
   Z12        1.86720   0.00016   0.00000  -0.00219  -0.00223   1.86496
   X13      -13.29210   0.00070   0.00000   0.01077   0.01057 -13.28152
   Y13       -7.97148   0.00625   0.00000  -0.00236  -0.00237  -7.97385
   Z13        1.39676   0.00054   0.00000   0.00827   0.00831   1.40507
   X14      -13.27478  -0.00075   0.00000  -0.01105  -0.01123 -13.28601
   Y14      -10.15336  -0.00391   0.00000  -0.00699  -0.00701 -10.16037
   Z14        1.13936  -0.00033   0.00000   0.01962   0.01968   1.15904
   X15      -20.47989  -0.00139   0.00000  -0.02650  -0.02670 -20.50658
   Y15       -7.98030   0.00832   0.00000  -0.00573  -0.00579  -7.98609
   Z15        1.58249   0.00054   0.00000  -0.01264  -0.01258   1.56990
   X16      -20.39967   0.00019   0.00000  -0.04070  -0.04088 -20.44055
   Y16      -10.16903  -0.00601   0.00000  -0.01042  -0.01048 -10.17952
   Z16        1.43099  -0.00047   0.00000  -0.02144  -0.02135   1.40964
   X17      -22.82893   0.00590   0.00000  -0.00384  -0.00406 -22.83299
   Y17       -3.97376  -0.00401   0.00000  -0.01523  -0.01530  -3.98907
   Z17        1.87166  -0.00025   0.00000   0.00224   0.00225   1.87391
   X18      -24.70435  -0.00368   0.00000  -0.00715  -0.00737 -24.71173
   Y18       -2.83203   0.00218   0.00000  -0.01444  -0.01452  -2.84655
   Z18        1.94375   0.00016   0.00000   0.00698   0.00698   1.95073
         Item               Value     Threshold  Converged?
 Maximum Force            0.017910     0.000450     NO 
 RMS     Force            0.006011     0.000300     NO 
 Maximum Displacement     0.040880     0.001800     NO 
 RMS     Displacement     0.013210     0.001200     NO 
 Predicted change in Energy=-5.909396D-04
 GradGradGradGradGradGradGradGradGradGradGradGradGradGradGradGradGradGrad

 Unable to Open any file for archive entry.
 1\1\GINC-X10P1N4\Force\RwB97XD\def2SVP\C12N6(2-)\MAYUMIAO\11-Oct-2024\
 0\\# wb97xd def2svp scrf=(smd,solvent=acetonitrile) g09default scf=(xq
 c,maxcycle=64) force guess=read nosymm\\Title Card\\-2,1\C,-8.94943416
 ,-0.91724253,1.1060284\C,-8.95072928,0.47049549,1.24514732\C,-8.252554
 62,-2.11515166,0.9852595\C,-7.04561332,-2.80834441,0.8993495\C,-9.6433
 9599,-2.11367915,0.99696371\C,-10.8504166,-2.80796466,0.94128854\C,-10
 .17110588,1.18829236,1.33840693\N,-11.16898145,1.77985794,1.42079718\C
 ,-7.71941188,1.17025532,1.32044127\N,-6.69554742,1.7177322,1.38264711\
 C,-5.81156338,-2.11025354,0.94865129\N,-4.80649717,-1.52723486,0.98807
 87\C,-7.03387394,-4.2183274,0.7391326\N,-7.02471002,-5.37292702,0.6029
 2163\C,-10.83748936,-4.22299405,0.83741507\N,-10.79503882,-5.38122116,
 0.75724969\C,-12.08055069,-2.10282493,0.99043922\N,-13.07298002,-1.498
 64541,1.02858727\\Version=ES64L-G16RevC.01\HF=-785.0326738\RMSD=6.128e
 -09\RMSF=6.011e-03\Dipole=-0.0756273,-0.0168464,-0.0046486\Quadrupole=
 -393.3423892,154.3204789,239.0219103,-108.2676979,66.4036029,5.3688123
 \PG=C01 [X(C12N6)]\\@
 The archive entry for this job was punched.


 NOT WHAT WE DID SHALL BE THE TEST
 WHEN ACT AND WILL ARE DONE,
 BUT WHAT OUR LORD INFERS WE WOULD-
 HAD WE DIVINER BEEN.
           EMILY DICKINSON  POEMS NO. CLXXV
 Job cpu time:       0 days  0 hours  8 minutes 42.0 seconds.
 Elapsed time:       0 days  0 hours  0 minutes 19.9 seconds.
 File lengths (MBytes):  RWF=    148 Int=      0 D2E=      0 Chk=      8 Scr=      1
 Normal termination of Gaussian 16 at Fri Oct 11 16:09:39 2024.
