 Entering Gaussian System, Link 0=g16
 Input=JOBS/46_B.gjf
 Output=JOBS/46_B.log
 Initial command:
 /data/app/gaussian/C01-avx2//g16/l1.exe "/tmp/Gau-2556928.inp" -scrdir="/tmp/"
 Entering Link 1 = /data/app/gaussian/C01-avx2//g16/l1.exe PID=   2556929.
  
 Copyright (c) 1988-2019, Gaussian, Inc.  All Rights Reserved.
  
 This is part of the Gaussian(R) 16 program.  It is based on
 the Gaussian(R) 09 system (copyright 2009, Gaussian, Inc.),
 the Gaussian(R) 03 system (copyright 2003, Gaussian, Inc.),
 the Gaussian(R) 98 system (copyright 1998, Gaussian, Inc.),
 the Gaussian(R) 94 system (copyright 1995, Gaussian, Inc.),
 the Gaussian 92(TM) system (copyright 1992, Gaussian, Inc.),
 the Gaussian 90(TM) system (copyright 1990, Gaussian, Inc.),
 the Gaussian 88(TM) system (copyright 1988, Gaussian, Inc.),
 the Gaussian 86(TM) system (copyright 1986, Carnegie Mellon
 University), and the Gaussian 82(TM) system (copyright 1983,
 Carnegie Mellon University). Gaussian is a federally registered
 trademark of Gaussian, Inc.
  
 This software contains proprietary and confidential information,
 including trade secrets, belonging to Gaussian, Inc.
  
 This software is provided under written license and may be
 used, copied, transmitted, or stored only in accord with that
 written license.
  
 The following legend is applicable only to US Government
 contracts under FAR:
  
                    RESTRICTED RIGHTS LEGEND
  
 Use, reproduction and disclosure by the US Government is
 subject to restrictions as set forth in subparagraphs (a)
 and (c) of the Commercial Computer Software - Restricted
 Rights clause in FAR 52.227-19.
  
 Gaussian, Inc.
 340 Quinnipiac St., Bldg. 40, Wallingford CT 06492
  
  
 ---------------------------------------------------------------
 Warning -- This program may not be used in any manner that
 competes with the business of Gaussian, Inc. or will provide
 assistance to any competitor of Gaussian, Inc.  The licensee
 of this program is prohibited from giving any competitor of
 Gaussian, Inc. access to this program.  By using this program,
 the user acknowledges that Gaussian, Inc. is engaged in the
 business of creating and licensing software in the field of
 computational chemistry and represents and warrants to the
 licensee that it is not a competitor of Gaussian, Inc. and that
 it will not use this program in any manner prohibited above.
 ---------------------------------------------------------------
  

 Cite this work as:
 Gaussian 16, Revision C.01,
 M. J. Frisch, G. W. Trucks, H. B. Schlegel, G. E. Scuseria, 
 M. A. Robb, J. R. Cheeseman, G. Scalmani, V. Barone, 
 G. A. Petersson, H. Nakatsuji, X. Li, M. Caricato, A. V. Marenich, 
 J. Bloino, B. G. Janesko, R. Gomperts, B. Mennucci, H. P. Hratchian, 
 J. V. Ortiz, A. F. Izmaylov, J. L. Sonnenberg, D. Williams-Young, 
 F. Ding, F. Lipparini, F. Egidi, J. Goings, B. Peng, A. Petrone, 
 T. Henderson, D. Ranasinghe, V. G. Zakrzewski, J. Gao, N. Rega, 
 G. Zheng, W. Liang, M. Hada, M. Ehara, K. Toyota, R. Fukuda, 
 J. Hasegawa, M. Ishida, T. Nakajima, Y. Honda, O. Kitao, H. Nakai, 
 T. Vreven, K. Throssell, J. A. Montgomery, Jr., J. E. Peralta, 
 F. Ogliaro, M. J. Bearpark, J. J. Heyd, E. N. Brothers, K. N. Kudin, 
 V. N. Staroverov, T. A. Keith, R. Kobayashi, J. Normand, 
 K. Raghavachari, A. P. Rendell, J. C. Burant, S. S. Iyengar, 
 J. Tomasi, M. Cossi, J. M. Millam, M. Klene, C. Adamo, R. Cammi, 
 J. W. Ochterski, R. L. Martin, K. Morokuma, O. Farkas, 
 J. B. Foresman, and D. J. Fox, Gaussian, Inc., Wallingford CT, 2019.
 
 ******************************************
 Gaussian 16:  ES64L-G16RevC.01  3-Jul-2019
                11-Oct-2024 
 ******************************************
 %chk=b.chk
 %nprocshared=28
 Will use up to   28 processors via shared memory.
 %mem=48gb
 ----------------------------------------------------------------------
 # wb97xd def2svp scrf=(smd,solvent=acetonitrile) g09default scf=(xqc,m
 axcycle=64) force guess=read nosymm
 ----------------------------------------------------------------------
 1/10=7,30=1,38=1,158=3,167=1/1,3;
 2/12=2,15=1,17=6,18=5,40=1/2;
 3/5=43,7=101,11=2,25=1,27=10,30=1,70=32201,71=1,72=2,74=-58,75=-4,116=-2,158=3/1,2,3;
 4/5=1,60=-1/1;
 5/5=2,7=64,8=3,13=1,38=6,53=2,87=10/2,8;
 6/7=2,8=2,9=2,10=2,28=1,87=10/1;
 7/29=1,30=1,87=10/1,2,3,16;
 1/10=7,30=1,158=3,167=1/3;
 99//99;
 Using 2006 physical constants.
 ----------
 Title Card
 ----------
 Symbolic Z-matrix:
 Charge = -1 Multiplicity = 2
 6                    -8.94943  -0.91724   1.10603 
 6                    -8.95073   0.4705    1.24515 
 6                    -8.25255  -2.11515   0.98526 
 6                    -7.04561  -2.80834   0.89935 
 6                    -9.6434   -2.11368   0.99696 
 6                    -10.85042  -2.80796   0.94129 
 6                    -10.17111   1.18829   1.33841 
 7                    -11.16898   1.77986   1.4208 
 6                    -7.71941   1.17026   1.32044 
 7                    -6.69555   1.71773   1.38265 
 6                    -5.81156  -2.11025   0.94865 
 7                    -4.8065   -1.52723   0.98808 
 6                    -7.03387  -4.21833   0.73913 
 7                    -7.02471  -5.37293   0.60292 
 6                    -10.83749  -4.22299   0.83742 
 7                    -10.79504  -5.38122   0.75725 
 6                    -12.08055  -2.10282   0.99044 
 7                    -13.07298  -1.49865   1.02859 
 

 GradGradGradGradGradGradGradGradGradGradGradGradGradGradGradGradGradGrad
 Berny optimization.
 Initialization pass.
 Trust Radius=3.00D-01 FncErr=1.00D-07 GrdErr=1.00D-07 EigMax=2.50D+02 EigMin=1.00D-04
 Number of steps in this run=      2 maximum allowed number of steps=      2.
 GradGradGradGradGradGradGradGradGradGradGradGradGradGradGradGradGradGrad

                          Input orientation:                          
 ---------------------------------------------------------------------
 Center     Atomic      Atomic             Coordinates (Angstroms)
 Number     Number       Type             X           Y           Z
 ---------------------------------------------------------------------
      1          6           0       -8.949434   -0.917243    1.106028
      2          6           0       -8.950729    0.470495    1.245147
      3          6           0       -8.252555   -2.115152    0.985260
      4          6           0       -7.045613   -2.808344    0.899350
      5          6           0       -9.643396   -2.113679    0.996964
      6          6           0      -10.850417   -2.807965    0.941289
      7          6           0      -10.171106    1.188292    1.338407
      8          7           0      -11.168981    1.779858    1.420797
      9          6           0       -7.719412    1.170255    1.320441
     10          7           0       -6.695547    1.717732    1.382647
     11          6           0       -5.811563   -2.110254    0.948651
     12          7           0       -4.806497   -1.527235    0.988079
     13          6           0       -7.033874   -4.218327    0.739133
     14          7           0       -7.024710   -5.372927    0.602922
     15          6           0      -10.837489   -4.222994    0.837415
     16          7           0      -10.795039   -5.381221    0.757250
     17          6           0      -12.080551   -2.102825    0.990439
     18          7           0      -13.072980   -1.498645    1.028587
 ---------------------------------------------------------------------
                    Distance matrix (angstroms):
                    1          2          3          4          5
     1  C    0.000000
     2  C    1.394694   0.000000
     3  C    1.391119   2.690829   0.000000
     4  C    2.691378   3.807865   1.394491   0.000000
     5  C    1.387422   2.686883   1.390891   2.690829   0.000000
     6  C    2.686206   3.801242   2.689017   3.805034   1.393568
     7  C    2.445355   1.418890   3.836443   5.092601   3.361261
     8  N    3.507110   2.581845   4.885319   6.190773   4.203175
     9  C    2.432401   1.418265   3.345219   4.057164   3.819762
    10  N    3.478450   2.580766   4.156102   4.565248   4.849564
    11  C    3.360696   4.074621   2.441271   1.418676   3.832139
    12  N    4.189264   4.607784   3.495850   2.581231   4.872329
    13  C    3.834207   5.090721   2.443176   1.419105   3.362384
    14  N    4.879632   6.186080   3.502411   2.581742   4.199462
    15  C    3.816399   5.074934   3.338674   4.047640   2.429099
    16  N    4.843037   6.154844   4.145289   4.549514   3.472834
    17  C    3.350053   4.059881   3.828019   5.084943   2.437188
    18  N    4.165052   4.573551   4.859883   6.169373   3.484439
                    6          7          8          9         10
     6  C    0.000000
     7  C    4.072989   0.000000
     8  N    4.623800   1.162968   0.000000
     9  C    5.076729   2.451826   3.504457   0.000000
    10  N    6.159518   3.515931   4.474028   1.162712   0.000000
    11  C    5.086934   5.480687   6.637606   3.813116   3.952626
    12  N    6.178302   6.022943   7.183684   3.983967   3.775448
    13  C    4.073817   6.279561   7.317240   5.463031   5.980416
    14  N    4.618393   7.313709   8.306999   6.618964   7.140992
    15  C    1.418896   5.475133   6.040236   6.248429   7.262588
    16  N    2.580424   6.624617   7.201471   7.259374   8.221441
    17  C    1.418756   3.820800   4.011408   5.462736   6.614283
    18  N    2.581032   3.966925   3.811512   5.989065   7.151370
                   11         12         13         14         15
    11  C    0.000000
    12  N    1.162593   0.000000
    13  C    2.445796   3.502165   0.000000
    14  N    3.498041   4.456250   1.162643   0.000000
    15  C    5.453071   6.607775   3.804888   3.989313   0.000000
    16  N    5.964134   7.125246   3.936878   3.773495   1.161774
    17  C    6.269131   7.296791   5.477906   6.033677   2.462465
    18  N    7.287567   8.266632   6.629574   7.195333   3.529312
                   16         17         18
    16  N    0.000000
    17  C    3.529136   0.000000
    18  N    4.509660   1.162499   0.000000
 Symmetry turned off by external request.
 Stoichiometry    C12N6(1-,2)
 Framework group  C1[X(C12N6)]
 Deg. of freedom    48
 Full point group                 C1      NOp   1
 Rotational constants (GHZ):           0.4325086           0.4265452           0.2147941
 Standard basis: def2SVP (5D, 7F)
   252 basis functions,   450 primitive gaussians,   270 cartesian basis functions
    58 alpha electrons       57 beta electrons
       nuclear repulsion energy       965.7131590893 Hartrees.
 NAtoms=   18 NActive=   18 NUniq=   18 SFac= 1.00D+00 NAtFMM=   60 NAOKFM=F Big=F
 Integral buffers will be    131072 words long.
 Raffenetti 2 integral format.
 Two-electron integral symmetry is turned off.
 Nuclear repulsion after empirical dispersion term =      965.7014742935 Hartrees.
 Force PCM accuracy= 1.00D-10.
 ------------------------------------------------------------------------------
 Polarizable Continuum Model (PCM)
 =================================
 Model                : PCM (using non-symmetric T matrix).
 Atomic radii         : SMD-Coulomb.
 Polarization charges : Total charges.
 Charge compensation  : None.
 Solution method      : On-the-fly selection.
 Cavity type          : VdW (van der Waals Surface) (Alpha=1.000).
 Cavity algorithm     : GePol (No added spheres)
                        Default sphere list used, NSphG=   18.
                        Lebedev-Laikov grids with approx.  5.0 points / Ang**2.
                        Smoothing algorithm: York/Karplus (Gamma=1.0000).
                        Polarization charges: spherical gaussians, with
                                              point-specific exponents (IZeta= 3).
                        Self-potential: point-specific (ISelfS= 7).
                        Self-field    : sphere-specific E.n sum rule (ISelfD= 2).
 1st derivatives      : Analytical E(r).r(x)/FMM algorithm (CHGder, D1EAlg=3).
                        Cavity 1st derivative terms included.
 Solvent              : Acetonitrile, Eps=  35.688000 Eps(inf)=   1.806874
 ------------------------------------------------------------------------------
 Spheres list:
 ISph  on   Nord     Re0    Alpha      Xe            Ye            Ze
    1   C      1    1.8500  1.000     -8.949434     -0.917243      1.106028
    2   C      2    1.8500  1.000     -8.950729      0.470495      1.245147
    3   C      3    1.8500  1.000     -8.252555     -2.115152      0.985260
    4   C      4    1.8500  1.000     -7.045613     -2.808344      0.899350
    5   C      5    1.8500  1.000     -9.643396     -2.113679      0.996964
    6   C      6    1.8500  1.000    -10.850417     -2.807965      0.941289
    7   C      7    1.8500  1.000    -10.171106      1.188292      1.338407
    8   N      8    1.8900  1.000    -11.168981      1.779858      1.420797
    9   C      9    1.8500  1.000     -7.719412      1.170255      1.320441
   10   N     10    1.8900  1.000     -6.695547      1.717732      1.382647
   11   C     11    1.8500  1.000     -5.811563     -2.110254      0.948651
   12   N     12    1.8900  1.000     -4.806497     -1.527235      0.988079
   13   C     13    1.8500  1.000     -7.033874     -4.218327      0.739133
   14   N     14    1.8900  1.000     -7.024710     -5.372927      0.602922
   15   C     15    1.8500  1.000    -10.837489     -4.222994      0.837415
   16   N     16    1.8900  1.000    -10.795039     -5.381221      0.757250
   17   C     17    1.8500  1.000    -12.080551     -2.102825      0.990439
   18   N     18    1.8900  1.000    -13.072980     -1.498645      1.028587
 ------------------------------------------------------------------------------
 ------------------------------------------------------------------------------
 Atomic radii for non-electrostatic terms: SMD-CDS.
 ------------------------------------------------------------------------------
 Nuclear repulsion after PCM non-electrostatic terms =      965.7101823313 Hartrees.
 One-electron integrals computed using PRISM.
   1 Symmetry operations used in ECPInt.
 ECPInt:  NShTT=    5886 NPrTT=   23670 LenC2=    5404 LenP2D=   14968.
 LDataN:  DoStor=T MaxTD1= 4 Len=   56
 NBasis=   252 RedAO= T EigKep=  1.93D-04  NBF=   252
 NBsUse=   252 1.00D-06 EigRej= -1.00D+00 NBFU=   252
 Initial guess from the checkpoint file:  "b.chk"
 B after Tr=    -0.000025   -0.000353   -0.000821
         Rot=    1.000000   -0.000014   -0.000027    0.000012 Ang=  -0.00 deg.
 Initial guess <Sx>= 0.0000 <Sy>= 0.0000 <Sz>= 0.5000 <S**2>= 0.7874 S= 0.5185
 Requested convergence on RMS density matrix=1.00D-08 within  64 cycles.
 Requested convergence on MAX density matrix=1.00D-06.
 Requested convergence on             energy=1.00D-06.
 No special actions if energy rises.
 Inv3:  Mode=1 IEnd=    19309107.
 Iteration    1 A*A^-1 deviation from unit magnitude is 3.55D-15 for   1281.
 Iteration    1 A*A^-1 deviation from orthogonality  is 2.77D-15 for   1081    847.
 Iteration    1 A^-1*A deviation from unit magnitude is 3.55D-15 for   2045.
 Iteration    1 A^-1*A deviation from orthogonality  is 3.81D-12 for   2057   2011.
 Error on total polarization charges =  0.01949
 SCF Done:  E(UwB97XD) =  -784.860505625     A.U. after   16 cycles
            NFock= 16  Conv=0.56D-08     -V/T= 2.0098
 <Sx>= 0.0000 <Sy>= 0.0000 <Sz>= 0.5000 <S**2>= 0.7872 S= 0.5184
 <L.S>=  0.00000000000    
 SMD-CDS (non-electrostatic) energy       (kcal/mol) =       5.46
 (included in total energy above)
 Annihilation of the first spin contaminant:
 S**2 before annihilation     0.7872,   after     0.7511
 QCSCF skips out because SCF is already converged.

 **********************************************************************

            Population analysis using the SCF Density.

 **********************************************************************

 Alpha  occ. eigenvalues --  -14.45956 -14.45947 -14.45935 -14.45928 -14.45918
 Alpha  occ. eigenvalues --  -14.45903 -10.38253 -10.38180 -10.38148 -10.38043
 Alpha  occ. eigenvalues --  -10.38023 -10.38010 -10.36127 -10.36120 -10.36101
 Alpha  occ. eigenvalues --  -10.36096 -10.36084 -10.36075  -1.06762  -1.01951
 Alpha  occ. eigenvalues --   -1.01944  -1.01569  -1.00743  -1.00714  -1.00648
 Alpha  occ. eigenvalues --   -0.92070  -0.92059  -0.90127  -0.72269  -0.72193
 Alpha  occ. eigenvalues --   -0.68787  -0.68611  -0.68522  -0.67742  -0.55756
 Alpha  occ. eigenvalues --   -0.50895  -0.50892  -0.49794  -0.49695  -0.47623
 Alpha  occ. eigenvalues --   -0.47515  -0.47512  -0.47019  -0.46786  -0.46752
 Alpha  occ. eigenvalues --   -0.46644  -0.45175  -0.44859  -0.44834  -0.44676
 Alpha  occ. eigenvalues --   -0.44383  -0.44355  -0.42940  -0.42744  -0.42734
 Alpha  occ. eigenvalues --   -0.35261  -0.35244  -0.28019
 Alpha virt. eigenvalues --    0.04778   0.04882   0.06444   0.06840   0.06946
 Alpha virt. eigenvalues --    0.10191   0.10225   0.10542   0.10606   0.12397
 Alpha virt. eigenvalues --    0.12539   0.14507   0.19349   0.19407   0.20969
 Alpha virt. eigenvalues --    0.24858   0.25075   0.25111   0.26259   0.26307
 Alpha virt. eigenvalues --    0.27813   0.31566   0.31609   0.31618   0.33906
 Alpha virt. eigenvalues --    0.34115   0.35282   0.46483   0.46663   0.48572
 Alpha virt. eigenvalues --    0.48959   0.53211   0.53249   0.53294   0.53358
 Alpha virt. eigenvalues --    0.55027   0.55052   0.56098   0.57305   0.59461
 Alpha virt. eigenvalues --    0.60165   0.60199   0.60920   0.61166   0.62715
 Alpha virt. eigenvalues --    0.64073   0.68408   0.69656   0.69778   0.71692
 Alpha virt. eigenvalues --    0.71773   0.72767   0.72855   0.73126   0.73329
 Alpha virt. eigenvalues --    0.73413   0.73547   0.74541   0.74893   0.75795
 Alpha virt. eigenvalues --    0.79563   0.79868   0.79957   0.80962   0.81215
 Alpha virt. eigenvalues --    0.86507   0.86707   0.86939   0.87264   0.92816
 Alpha virt. eigenvalues --    0.92889   0.93053   0.93156   0.93833   0.94081
 Alpha virt. eigenvalues --    0.95865   0.98504   0.98548   0.99084   0.99356
 Alpha virt. eigenvalues --    1.00145   1.00303   1.02923   1.03309   1.03392
 Alpha virt. eigenvalues --    1.05864   1.06799   1.07452   1.07703   1.10390
 Alpha virt. eigenvalues --    1.10606   1.14863   1.16409   1.18021   1.18152
 Alpha virt. eigenvalues --    1.18967   1.22890   1.23096   1.23583   1.33328
 Alpha virt. eigenvalues --    1.36207   1.36391   1.38089   1.38213   1.41284
 Alpha virt. eigenvalues --    1.43554   1.43606   1.45592   1.45835   1.55765
 Alpha virt. eigenvalues --    1.60008   1.65875   1.68312   1.68408   1.68601
 Alpha virt. eigenvalues --    1.68778   1.68875   1.76409   1.76609   1.76735
 Alpha virt. eigenvalues --    1.77215   1.77869   1.79143   1.79186   1.79856
 Alpha virt. eigenvalues --    1.81929   1.82429   1.85229   1.92718   1.92825
 Alpha virt. eigenvalues --    1.93074   1.97766   1.99642   1.99803   2.03302
 Alpha virt. eigenvalues --    2.03600   2.06201   2.07239   2.12622   2.12713
 Alpha virt. eigenvalues --    2.17554   2.19508   2.19904   2.20030   2.26079
 Alpha virt. eigenvalues --    2.26835   2.27088   2.28791   2.33016   2.33035
 Alpha virt. eigenvalues --    2.33470   2.33618   2.33830   2.33941   2.34438
 Alpha virt. eigenvalues --    2.35430   2.35491   2.35703   2.35940   2.36117
 Alpha virt. eigenvalues --    2.37364   2.37403   2.56406   2.62045   2.62433
 Alpha virt. eigenvalues --    2.70611   2.70837   2.92678   2.94630   2.95049
 Alpha virt. eigenvalues --    2.95369   2.98427   2.98602   2.99155   3.02225
 Alpha virt. eigenvalues --    3.04737   3.04823   3.08278   3.08777   3.11663
 Alpha virt. eigenvalues --    3.11779   3.12281   3.23123   3.23399   3.28492
 Alpha virt. eigenvalues --    3.40665   3.40746   3.42438   3.53706   3.56941
 Alpha virt. eigenvalues --    3.57069   3.61525   3.61633   3.75237
  Beta  occ. eigenvalues --  -14.45762 -14.45754 -14.45742 -14.45736 -14.45725
  Beta  occ. eigenvalues --  -14.45712 -10.38290 -10.38217 -10.38184 -10.37692
  Beta  occ. eigenvalues --  -10.37671 -10.37659 -10.36219 -10.36212 -10.36193
  Beta  occ. eigenvalues --  -10.36188 -10.36177 -10.36167  -1.06368  -1.01599
  Beta  occ. eigenvalues --   -1.01591  -1.01214  -1.00412  -1.00381  -1.00317
  Beta  occ. eigenvalues --   -0.91307  -0.91294  -0.89152  -0.72137  -0.72057
  Beta  occ. eigenvalues --   -0.68572  -0.68398  -0.68260  -0.67584  -0.54989
  Beta  occ. eigenvalues --   -0.49700  -0.49609  -0.49595  -0.49546  -0.47263
  Beta  occ. eigenvalues --   -0.47155  -0.47152  -0.46659  -0.46501  -0.46471
  Beta  occ. eigenvalues --   -0.45482  -0.45071  -0.44238  -0.44211  -0.43928
  Beta  occ. eigenvalues --   -0.43893  -0.43867  -0.42794  -0.42603  -0.42593
  Beta  occ. eigenvalues --   -0.32261  -0.32222
  Beta virt. eigenvalues --   -0.10735   0.05468   0.05568   0.06556   0.06939
  Beta virt. eigenvalues --    0.07043   0.10541   0.11230   0.11261   0.11383
  Beta virt. eigenvalues --    0.12443   0.12583   0.14760   0.19543   0.19602
  Beta virt. eigenvalues --    0.22540   0.24773   0.26418   0.26443   0.26670
  Beta virt. eigenvalues --    0.26713   0.28021   0.32045   0.32122   0.32267
  Beta virt. eigenvalues --    0.33991   0.34224   0.35360   0.46605   0.46781
  Beta virt. eigenvalues --    0.48715   0.49027   0.53163   0.53169   0.53357
  Beta virt. eigenvalues --    0.53463   0.55183   0.55216   0.56248   0.57470
  Beta virt. eigenvalues --    0.59389   0.60051   0.60085   0.60933   0.61183
  Beta virt. eigenvalues --    0.62854   0.63941   0.68732   0.69818   0.69934
  Beta virt. eigenvalues --    0.71822   0.71901   0.72901   0.72999   0.73304
  Beta virt. eigenvalues --    0.73523   0.73606   0.73674   0.74676   0.75023
  Beta virt. eigenvalues --    0.75817   0.79866   0.79969   0.80533   0.81709
  Beta virt. eigenvalues --    0.81947   0.86752   0.86810   0.87073   0.87373
  Beta virt. eigenvalues --    0.93002   0.93063   0.93668   0.93752   0.94062
  Beta virt. eigenvalues --    0.94688   0.96579   0.99116   0.99141   0.99333
  Beta virt. eigenvalues --    0.99590   1.00286   1.00442   1.03061   1.03454
  Beta virt. eigenvalues --    1.03531   1.06182   1.06864   1.07776   1.08008
  Beta virt. eigenvalues --    1.10516   1.10735   1.15079   1.16744   1.18267
  Beta virt. eigenvalues --    1.18402   1.19245   1.23127   1.23305   1.24127
  Beta virt. eigenvalues --    1.33480   1.36391   1.36581   1.38647   1.38780
  Beta virt. eigenvalues --    1.42048   1.44253   1.44322   1.45680   1.45913
  Beta virt. eigenvalues --    1.55823   1.60042   1.65709   1.68092   1.68188
  Beta virt. eigenvalues --    1.68378   1.68562   1.68660   1.76569   1.76572
  Beta virt. eigenvalues --    1.76788   1.77076   1.77761   1.79040   1.79075
  Beta virt. eigenvalues --    1.80104   1.81862   1.82364   1.85138   1.92771
  Beta virt. eigenvalues --    1.92859   1.93185   1.97940   2.00236   2.00395
  Beta virt. eigenvalues --    2.03646   2.03947   2.07002   2.07394   2.13140
  Beta virt. eigenvalues --    2.13226   2.17830   2.20607   2.20867   2.20995
  Beta virt. eigenvalues --    2.26612   2.27427   2.27676   2.29280   2.33697
  Beta virt. eigenvalues --    2.33714   2.34130   2.34296   2.34519   2.34628
  Beta virt. eigenvalues --    2.35098   2.35913   2.36142   2.36174   2.36467
  Beta virt. eigenvalues --    2.36549   2.38095   2.38155   2.56869   2.62119
  Beta virt. eigenvalues --    2.62510   2.71035   2.71262   2.92771   2.94772
  Beta virt. eigenvalues --    2.95175   2.95565   2.98592   2.98768   2.99275
  Beta virt. eigenvalues --    3.02727   3.05261   3.05347   3.08437   3.08936
  Beta virt. eigenvalues --    3.12167   3.12283   3.12782   3.23367   3.23643
  Beta virt. eigenvalues --    3.28684   3.40868   3.40949   3.42631   3.53887
  Beta virt. eigenvalues --    3.57123   3.57251   3.61719   3.61827   3.75390
          Condensed to atoms (all electrons):
               1          2          3          4          5          6
     1  C    4.916680   0.542329   0.295952  -0.104905   0.297684  -0.104249
     2  C    0.542329   5.326843  -0.103156  -0.008499  -0.104794  -0.008037
     3  C    0.295952  -0.103156   4.910795   0.541593   0.296883  -0.103220
     4  C   -0.104905  -0.008499   0.541593   5.332397  -0.104748  -0.008342
     5  C    0.297684  -0.104794   0.296883  -0.104748   4.916677   0.543054
     6  C   -0.104249  -0.008037  -0.103220  -0.008342   0.543054   5.323828
     7  C    0.006725   0.390663   0.005225  -0.000506  -0.023001   0.002543
     8  N   -0.001762  -0.029360  -0.000072  -0.000001  -0.000475   0.000119
     9  C    0.008663   0.393940  -0.022633   0.002646   0.006297  -0.000475
    10  N   -0.001769  -0.028334  -0.000503   0.000148  -0.000055  -0.000001
    11  C   -0.022084   0.002577   0.007320   0.393367   0.005608  -0.000489
    12  N   -0.000473   0.000127  -0.001798  -0.028790  -0.000067  -0.000001
    13  C    0.005254  -0.000496   0.007388   0.392679  -0.022269   0.002561
    14  N   -0.000073  -0.000001  -0.001794  -0.029192  -0.000472   0.000122
    15  C    0.006385  -0.000476  -0.023619   0.002671   0.009207   0.391448
    16  N   -0.000048  -0.000001  -0.000545   0.000159  -0.001685  -0.028571
    17  C   -0.023909   0.002640   0.006087  -0.000495   0.007177   0.389981
    18  N   -0.000541   0.000152  -0.000051  -0.000001  -0.001661  -0.028719
               7          8          9         10         11         12
     1  C    0.006725  -0.001762   0.008663  -0.001769  -0.022084  -0.000473
     2  C    0.390663  -0.029360   0.393940  -0.028334   0.002577   0.000127
     3  C    0.005225  -0.000072  -0.022633  -0.000503   0.007320  -0.001798
     4  C   -0.000506  -0.000001   0.002646   0.000148   0.393367  -0.028790
     5  C   -0.023001  -0.000475   0.006297  -0.000055   0.005608  -0.000067
     6  C    0.002543   0.000119  -0.000475  -0.000001  -0.000489  -0.000001
     7  C    4.847574   0.906111  -0.054049   0.002121   0.000116   0.000002
     8  N    0.906111   6.106958   0.001860   0.000068   0.000000   0.000000
     9  C   -0.054049   0.001860   4.844731   0.906599  -0.000427   0.000084
    10  N    0.002121   0.000068   0.906599   6.106916   0.000271  -0.000762
    11  C    0.000116   0.000000  -0.000427   0.000271   4.844906   0.907360
    12  N    0.000002   0.000000   0.000084  -0.000762   0.907360   6.104867
    13  C   -0.000014  -0.000000   0.000122   0.000002  -0.053757   0.001968
    14  N   -0.000000  -0.000000   0.000000   0.000000   0.001900   0.000069
    15  C    0.000116   0.000002  -0.000014  -0.000000   0.000123   0.000000
    16  N    0.000000   0.000000  -0.000000  -0.000000   0.000002   0.000000
    17  C   -0.000443   0.000022   0.000121   0.000000  -0.000014  -0.000000
    18  N    0.000286  -0.000729   0.000002   0.000000  -0.000000  -0.000000
              13         14         15         16         17         18
     1  C    0.005254  -0.000073   0.006385  -0.000048  -0.023909  -0.000541
     2  C   -0.000496  -0.000001  -0.000476  -0.000001   0.002640   0.000152
     3  C    0.007388  -0.001794  -0.023619  -0.000545   0.006087  -0.000051
     4  C    0.392679  -0.029192   0.002671   0.000159  -0.000495  -0.000001
     5  C   -0.022269  -0.000472   0.009207  -0.001685   0.007177  -0.001661
     6  C    0.002561   0.000122   0.391448  -0.028571   0.389981  -0.028719
     7  C   -0.000014  -0.000000   0.000116   0.000000  -0.000443   0.000286
     8  N   -0.000000  -0.000000   0.000002   0.000000   0.000022  -0.000729
     9  C    0.000122   0.000000  -0.000014  -0.000000   0.000121   0.000002
    10  N    0.000002   0.000000  -0.000000  -0.000000   0.000000   0.000000
    11  C   -0.053757   0.001900   0.000123   0.000002  -0.000014  -0.000000
    12  N    0.001968   0.000069   0.000000   0.000000  -0.000000  -0.000000
    13  C    4.845253   0.907210  -0.000431   0.000338   0.000117   0.000000
    14  N    0.907210   6.105886   0.000026  -0.000766   0.000002   0.000000
    15  C   -0.000431   0.000026   4.844406   0.906554  -0.052337   0.002057
    16  N    0.000338  -0.000766   0.906554   6.107388   0.002151   0.000065
    17  C    0.000117   0.000002  -0.052337   0.002151   4.847212   0.905637
    18  N    0.000000   0.000000   0.002057   0.000065   0.905637   6.106904
          Atomic-Atomic Spin Densities.
               1          2          3          4          5          6
     1  C   -0.047585  -0.066481   0.036095  -0.005934   0.036277  -0.005909
     2  C   -0.066481   0.383909  -0.005946   0.000976  -0.005924   0.001001
     3  C    0.036095  -0.005946  -0.048125  -0.066281   0.036000  -0.005906
     4  C   -0.005934   0.000976  -0.066281   0.382247  -0.005918   0.000988
     5  C    0.036277  -0.005924   0.036000  -0.005918  -0.047676  -0.066273
     6  C   -0.005909   0.001001  -0.005906   0.000988  -0.066273   0.382996
     7  C    0.000423   0.005028  -0.000138  -0.000014   0.000398  -0.000068
     8  N    0.000493  -0.005428   0.000009  -0.000000   0.000034  -0.000025
     9  C    0.000442   0.004852   0.000372  -0.000074  -0.000163  -0.000015
    10  N    0.000548  -0.005439   0.000035  -0.000030   0.000010  -0.000000
    11  C    0.000363  -0.000070   0.000451   0.004898  -0.000147  -0.000014
    12  N    0.000033  -0.000026   0.000513  -0.005391   0.000009  -0.000000
    13  C   -0.000141  -0.000014   0.000427   0.004948   0.000372  -0.000069
    14  N    0.000009  -0.000000   0.000499  -0.005376   0.000033  -0.000025
    15  C   -0.000155  -0.000015   0.000391  -0.000076   0.000400   0.004868
    16  N    0.000010  -0.000000   0.000037  -0.000032   0.000549  -0.005441
    17  C    0.000400  -0.000072  -0.000145  -0.000015   0.000408   0.004983
    18  N    0.000036  -0.000030   0.000010  -0.000000   0.000532  -0.005441
               7          8          9         10         11         12
     1  C    0.000423   0.000493   0.000442   0.000548   0.000363   0.000033
     2  C    0.005028  -0.005428   0.004852  -0.005439  -0.000070  -0.000026
     3  C   -0.000138   0.000009   0.000372   0.000035   0.000451   0.000513
     4  C   -0.000014  -0.000000  -0.000074  -0.000030   0.004898  -0.005391
     5  C    0.000398   0.000034  -0.000163   0.000010  -0.000147   0.000009
     6  C   -0.000068  -0.000025  -0.000015  -0.000000  -0.000014  -0.000000
     7  C   -0.076782  -0.001652  -0.000272   0.000132  -0.000003   0.000000
     8  N   -0.001652   0.119124   0.000163   0.000010  -0.000000   0.000000
     9  C   -0.000272   0.000163  -0.076403  -0.001602   0.000017   0.000016
    10  N    0.000132   0.000010  -0.001602   0.118546   0.000015   0.000040
    11  C   -0.000003  -0.000000   0.000017   0.000015  -0.076157  -0.001608
    12  N    0.000000   0.000000   0.000016   0.000040  -0.001608   0.118175
    13  C    0.000000  -0.000000  -0.000003   0.000000  -0.000288   0.000149
    14  N   -0.000000   0.000000  -0.000000   0.000000   0.000158   0.000011
    15  C   -0.000003   0.000000   0.000000  -0.000000  -0.000003  -0.000000
    16  N   -0.000000   0.000000  -0.000000   0.000000   0.000000   0.000000
    17  C    0.000018   0.000016  -0.000003  -0.000000   0.000000  -0.000000
    18  N    0.000014   0.000035   0.000000   0.000000  -0.000000   0.000000
              13         14         15         16         17         18
     1  C   -0.000141   0.000009  -0.000155   0.000010   0.000400   0.000036
     2  C   -0.000014  -0.000000  -0.000015  -0.000000  -0.000072  -0.000030
     3  C    0.000427   0.000499   0.000391   0.000037  -0.000145   0.000010
     4  C    0.004948  -0.005376  -0.000076  -0.000032  -0.000015  -0.000000
     5  C    0.000372   0.000033   0.000400   0.000549   0.000408   0.000532
     6  C   -0.000069  -0.000025   0.004868  -0.005441   0.004983  -0.005441
     7  C    0.000000  -0.000000  -0.000003  -0.000000   0.000018   0.000014
     8  N   -0.000000   0.000000   0.000000   0.000000   0.000016   0.000035
     9  C   -0.000003  -0.000000   0.000000  -0.000000  -0.000003   0.000000
    10  N    0.000000   0.000000  -0.000000   0.000000  -0.000000   0.000000
    11  C   -0.000288   0.000158  -0.000003   0.000000   0.000000  -0.000000
    12  N    0.000149   0.000011  -0.000000   0.000000  -0.000000   0.000000
    13  C   -0.076116  -0.001605   0.000018   0.000015  -0.000003  -0.000000
    14  N   -0.001605   0.118080   0.000016   0.000039   0.000000   0.000000
    15  C    0.000018   0.000016  -0.075646  -0.001562  -0.000320   0.000133
    16  N    0.000015   0.000039  -0.001562   0.117291   0.000127   0.000009
    17  C   -0.000003   0.000000  -0.000320   0.000127  -0.076337  -0.001628
    18  N   -0.000000   0.000000   0.000133   0.000009  -0.001628   0.118281
 Mulliken charges and spin densities:
               1          2
     1  C    0.180143  -0.051077
     2  C   -0.376117   0.306321
     3  C    0.186148  -0.051702
     4  C   -0.380180   0.304917
     5  C    0.176641  -0.051081
     6  C   -0.371551   0.305649
     7  C   -0.083469  -0.072918
     8  N    0.017261   0.112777
     9  C   -0.087467  -0.072675
    10  N    0.015298   0.112264
    11  C   -0.086779  -0.072388
    12  N    0.017416   0.111919
    13  C   -0.085924  -0.072312
    14  N    0.017084   0.111838
    15  C   -0.086117  -0.071954
    16  N    0.014960   0.111043
    17  C   -0.083947  -0.072571
    18  N    0.016601   0.111951
 Sum of Mulliken charges =  -1.00000   1.00000
 Mulliken charges and spin densities with hydrogens summed into heavy atoms:
               1          2
     1  C    0.180143  -0.051077
     2  C   -0.376117   0.306321
     3  C    0.186148  -0.051702
     4  C   -0.380180   0.304917
     5  C    0.176641  -0.051081
     6  C   -0.371551   0.305649
     7  C   -0.083469  -0.072918
     8  N    0.017261   0.112777
     9  C   -0.087467  -0.072675
    10  N    0.015298   0.112264
    11  C   -0.086779  -0.072388
    12  N    0.017416   0.111919
    13  C   -0.085924  -0.072312
    14  N    0.017084   0.111838
    15  C   -0.086117  -0.071954
    16  N    0.014960   0.111043
    17  C   -0.083947  -0.072571
    18  N    0.016601   0.111951
 Electronic spatial extent (au):  <R**2>=          38982.9269
 Charge=             -1.0000 electrons
 Dipole moment (field-independent basis, Debye):
    X=             42.7351    Y=              8.2183    Z=             -4.9544  Tot=             43.7993
 Quadrupole moment (field-independent basis, Debye-Ang):
   XX=           -551.5542   YY=           -184.9875   ZZ=           -104.1390
   XY=            -72.3553   XZ=             44.8311   YZ=              1.1929
 Traceless Quadrupole moment (field-independent basis, Debye-Ang):
   XX=           -271.3273   YY=             95.2394   ZZ=            176.0879
   XY=            -72.3553   XZ=             44.8311   YZ=              1.1929
 Octapole moment (field-independent basis, Debye-Ang**2):
  XXX=           7974.9409  YYY=            970.4094  ZZZ=           -311.0653  XYY=           1650.4070
  XXY=            862.4235  XXZ=           -586.8847  XZZ=            932.0134  YZZ=            163.9011
  YYZ=           -160.8077  XYZ=            -11.8592
 Hexadecapole moment (field-independent basis, Debye-Ang**3):
 XXXX=        -116464.3532 YYYY=          -7788.8160 ZZZZ=           -763.4644 XXXY=         -11631.0543
 XXXZ=           8551.4766 YYYX=          -8643.2144 YYYZ=            640.6013 ZZZX=           2798.9570
 ZZZY=            360.2844 XXYY=         -16423.3561 XXZZ=          -9074.7143 YYZZ=           -973.3377
 XXYZ=            266.9430 YYXZ=           1456.1935 ZZXY=          -1463.5458
 N-N= 9.657101823313D+02 E-N=-3.766720559611D+03  KE= 7.772704883565D+02
                          Isotropic Fermi Contact Couplings
        Atom                 a.u.       MegaHertz       Gauss      10(-4) cm-1
     1  C(13)             -0.01765     -19.83741      -7.07848      -6.61705
     2  C(13)              0.05030      56.54957      20.17829      18.86291
     3  C(13)             -0.01776     -19.96217      -7.12300      -6.65866
     4  C(13)              0.05010      56.32148      20.09690      18.78682
     5  C(13)             -0.01762     -19.80503      -7.06693      -6.60625
     6  C(13)              0.05009      56.31446      20.09440      18.78448
     7  C(13)             -0.03271     -36.77350     -13.12170     -12.26632
     8  N(14)              0.02621       8.46969       3.02220       2.82519
     9  C(13)             -0.03261     -36.65747     -13.08030     -12.22762
    10  N(14)              0.02607       8.42345       3.00570       2.80976
    11  C(13)             -0.03248     -36.51627     -13.02991     -12.18052
    12  N(14)              0.02599       8.39758       2.99647       2.80113
    13  C(13)             -0.03251     -36.54978     -13.04187     -12.19170
    14  N(14)              0.02597       8.39230       2.99458       2.79937
    15  C(13)             -0.03242     -36.44403     -13.00414     -12.15642
    16  N(14)              0.02577       8.32784       2.97158       2.77787
    17  C(13)             -0.03254     -36.58115     -13.05306     -12.20216
    18  N(14)              0.02602       8.40566       2.99935       2.80383
 --------------------------------------------------------
       Center         ----  Spin Dipole Couplings  ----
                      3XX-RR        3YY-RR        3ZZ-RR
 --------------------------------------------------------
     1   Atom        0.000774      0.023298     -0.024071
     2   Atom       -0.160152     -0.156977      0.317130
     3   Atom        0.018433      0.006488     -0.024921
     4   Atom       -0.161120     -0.154343      0.315463
     5   Atom        0.017939      0.005997     -0.023936
     6   Atom       -0.161572     -0.157619      0.319191
     7   Atom        0.037183      0.009365     -0.046548
     8   Atom       -0.113032     -0.092614      0.205646
     9   Atom        0.038333      0.008019     -0.046352
    10   Atom       -0.114044     -0.090803      0.204847
    11   Atom        0.035711      0.010619     -0.046330
    12   Atom       -0.112744     -0.091825      0.204569
    13   Atom       -0.002712      0.048387     -0.045674
    14   Atom       -0.086174     -0.116884      0.203058
    15   Atom       -0.002686      0.048714     -0.046028
    16   Atom       -0.085668     -0.119324      0.204992
    17   Atom        0.035179      0.011426     -0.046606
    18   Atom       -0.112261     -0.094399      0.206660
 --------------------------------------------------------
                        XY            XZ            YZ
 --------------------------------------------------------
     1   Atom        0.000228     -0.002405      0.003872
     2   Atom       -0.000259      0.002945     -0.051668
     3   Atom       -0.009994      0.000136      0.003757
     4   Atom        0.000189      0.008325     -0.051776
     5   Atom        0.009929      0.000259      0.003995
     6   Atom       -0.000896     -0.000829     -0.035898
     7   Atom       -0.022398     -0.003461      0.006328
     8   Atom        0.015019      0.008168     -0.034137
     9   Atom        0.021608      0.002313      0.006091
    10   Atom       -0.014761     -0.002327     -0.033684
    11   Atom        0.023189      0.000713      0.005676
    12   Atom       -0.016036      0.005713     -0.031463
    13   Atom        0.000754     -0.000450      0.010735
    14   Atom       -0.000053      0.003905     -0.039325
    15   Atom       -0.002255      0.000061      0.006917
    16   Atom        0.001297     -0.001351     -0.021927
    17   Atom       -0.023433     -0.001517      0.004143
    18   Atom        0.015891     -0.000813     -0.020937
 --------------------------------------------------------


 ---------------------------------------------------------------------------------
              Anisotropic Spin Dipole Couplings in Principal Axis System
 ---------------------------------------------------------------------------------

       Atom             a.u.   MegaHertz   Gauss  10(-4) cm-1        Axes

              Baa    -0.0246    -3.303    -1.179    -1.102  0.0947 -0.0806  0.9922
     1 C(13)  Bbb     0.0010     0.135     0.048     0.045  0.9955  0.0062 -0.0945
              Bcc     0.0236     3.169     1.131     1.057  0.0014  0.9967  0.0809
 
              Baa    -0.1625   -21.812    -7.783    -7.276 -0.0245  0.9939  0.1072
     2 C(13)  Bbb    -0.1602   -21.493    -7.669    -7.169  0.9997  0.0250 -0.0035
              Bcc     0.3227    43.305    15.452    14.445  0.0061 -0.1071  0.9942
 
              Baa    -0.0254    -3.409    -1.216    -1.137 -0.0320 -0.1268  0.9914
     3 C(13)  Bbb     0.0012     0.167     0.059     0.056  0.4978  0.8581  0.1258
              Bcc     0.0242     3.243     1.157     1.082  0.8667 -0.4976 -0.0357
 
              Baa    -0.1619   -21.723    -7.751    -7.246  0.8678 -0.4922 -0.0685
     4 C(13)  Bbb    -0.1594   -21.384    -7.630    -7.133  0.4967  0.8637  0.0855
              Bcc     0.3212    43.108    15.382    14.379  0.0171 -0.1082  0.9940
 
              Baa    -0.0245    -3.286    -1.173    -1.096  0.0263 -0.1383  0.9900
     5 C(13)  Bbb     0.0008     0.111     0.040     0.037 -0.4990  0.8563  0.1329
              Bcc     0.0237     3.174     1.133     1.059  0.8662  0.4975  0.0465
 
              Baa    -0.1621   -21.750    -7.761    -7.255  0.8809  0.4718  0.0367
     6 C(13)  Bbb    -0.1598   -21.443    -7.651    -7.153 -0.4732  0.8785  0.0650
              Bcc     0.3219    43.193    15.412    14.408 -0.0016 -0.0747  0.9972
 
              Baa    -0.0473    -6.343    -2.263    -2.116  0.0126 -0.1061  0.9943
     7 C(13)  Bbb    -0.0028    -0.370    -0.132    -0.123  0.4930  0.8658  0.0861
              Bcc     0.0500     6.713     2.395     2.239  0.8700 -0.4891 -0.0632
 
              Baa    -0.1227    -4.733    -1.689    -1.579  0.8560 -0.5115 -0.0745
     8 N(14)  Bbb    -0.0869    -3.352    -1.196    -1.118  0.5165  0.8520  0.0850
              Bcc     0.2096     8.085     2.885     2.697  0.0200 -0.1112  0.9936
 
              Baa    -0.0470    -6.310    -2.252    -2.105  0.0010 -0.1104  0.9939
     9 C(13)  Bbb    -0.0028    -0.374    -0.134    -0.125 -0.4672  0.8787  0.0981
              Bcc     0.0498     6.685     2.385     2.230  0.8841  0.4645  0.0507
 
              Baa    -0.1221    -4.711    -1.681    -1.571  0.8792  0.4733  0.0550
    10 N(14)  Bbb    -0.0865    -3.336    -1.190    -1.113 -0.4765  0.8738  0.0972
              Bcc     0.2086     8.047     2.871     2.684 -0.0021 -0.1117  0.9937
 
              Baa    -0.0469    -6.297    -2.247    -2.100  0.0214 -0.1067  0.9941
    11 C(13)  Bbb    -0.0027    -0.367    -0.131    -0.122 -0.5151  0.8510  0.1024
              Bcc     0.0497     6.664     2.378     2.223  0.8568  0.5143  0.0368
 
              Baa    -0.1218    -4.696    -1.676    -1.566  0.8662  0.4986  0.0329
    12 N(14)  Bbb    -0.0863    -3.328    -1.187    -1.110 -0.4992  0.8604  0.1029
              Bcc     0.2080     8.024     2.863     2.676  0.0230 -0.1055  0.9941
 
              Baa    -0.0469    -6.292    -2.245    -2.099  0.0120 -0.1120  0.9936
    13 C(13)  Bbb    -0.0027    -0.364    -0.130    -0.122  0.9998 -0.0119 -0.0135
              Bcc     0.0496     6.657     2.375     2.220  0.0134  0.9936  0.1119
 
              Baa    -0.1217    -4.692    -1.674    -1.565 -0.0118  0.9927  0.1204
    14 N(14)  Bbb    -0.0862    -3.325    -1.187    -1.109  0.9998  0.0133 -0.0117
              Bcc     0.2079     8.017     2.861     2.674  0.0132 -0.1202  0.9927
 
              Baa    -0.0465    -6.244    -2.228    -2.083 -0.0051 -0.0726  0.9974
    15 C(13)  Bbb    -0.0028    -0.373    -0.133    -0.125  0.9991  0.0427  0.0082
              Bcc     0.0493     6.617     2.361     2.207 -0.0431  0.9965  0.0723
 
              Baa    -0.1208    -4.661    -1.663    -1.555 -0.0342  0.9972  0.0670
    16 N(14)  Bbb    -0.0856    -3.303    -1.178    -1.102  0.9994  0.0338  0.0072
              Bcc     0.2065     7.963     2.841     2.656 -0.0049 -0.0672  0.9977
 
              Baa    -0.0469    -6.294    -2.246    -2.099 -0.0020 -0.0717  0.9974
    17 C(13)  Bbb    -0.0028    -0.375    -0.134    -0.125  0.5259  0.8483  0.0620
              Bcc     0.0497     6.669     2.380     2.225  0.8505 -0.5247 -0.0360
 
              Baa    -0.1219    -4.700    -1.677    -1.568  0.8548 -0.5181 -0.0309
    18 N(14)  Bbb    -0.0863    -3.327    -1.187    -1.110  0.5190  0.8525  0.0624
              Bcc     0.2081     8.027     2.864     2.677 -0.0060 -0.0694  0.9976
 

 ---------------------------------------------------------------------------------

   1 Symmetry operations used in ECPInt.
 ECPInt:  NShTT=    5886 NPrTT=   23670 LenC2=    5404 LenP2D=   14968.
 LDataN:  DoStor=T MaxTD1= 5 Len=  102
 D1PCM: PCM CHGder 1st derivatives, ID1Alg=3 FixD1E=F DoIter=F DoCFld=F I1PDM=0.
 Calling FoFJK, ICntrl=      2127 FMM=F ISym2X=0 I1Cent= 0 IOpClX= 1 NMat=1 NMatS=1 NMatT=0.
 -------------------------------------------------------------------
 Center     Atomic                   Forces (Hartrees/Bohr)
 Number     Number              X              Y              Z
 -------------------------------------------------------------------
      1        6           0.000556126    0.023261387    0.002146716
      2        6           0.000201770   -0.015046565   -0.001064796
      3        6           0.018525956   -0.010621447   -0.001177336
      4        6          -0.013012577    0.007270647    0.000536730
      5        6          -0.019035960   -0.011876891   -0.001054986
      6        6           0.012815822    0.006583870    0.000539749
      7        6          -0.008355739    0.005435407    0.000882419
      8        7           0.005649657   -0.004235860   -0.000740560
      9        6           0.009252185    0.004425615    0.000446220
     10        7          -0.005659013   -0.002735564   -0.000393779
     11        6           0.008092853    0.005535567    0.000438515
     12        7          -0.005392014   -0.002944110   -0.000146863
     13        6          -0.000069864   -0.009525805   -0.001079841
     14        7          -0.000608313    0.006219469    0.000852575
     15        6          -0.000197132   -0.007442632   -0.000683310
     16        7          -0.000314464    0.004147037    0.000207747
     17        6          -0.007384745    0.004796744    0.000455431
     18        7           0.004935452   -0.003246867   -0.000164631
 -------------------------------------------------------------------
 Cartesian Forces:  Max     0.023261387 RMS     0.007344940

 GradGradGradGradGradGradGradGradGradGradGradGradGradGradGradGradGradGrad
 Berny optimization.
 Search for a local minimum.
 Step number   1 out of a maximum of    2
 All quantities printed in internal units (Hartrees-Bohrs-Radians)
 Second derivative matrix not updated -- first step.
 ITU=  0
     Eigenvalues ---    0.00128   0.00146   0.00197   0.00300   0.00301
     Eigenvalues ---    0.00818   0.01534   0.01722   0.01986   0.02012
     Eigenvalues ---    0.03004   0.04131   0.05324   0.05354   0.10293
     Eigenvalues ---    0.15200   0.21291   0.21588   0.24359   0.24734
     Eigenvalues ---    0.25015   0.25750   0.25963   0.30143   0.30226
     Eigenvalues ---    0.36117   0.41820   0.48432   0.79479   0.80053
     Eigenvalues ---    0.82090   0.99809   1.01036   1.04793   1.05071
     Eigenvalues ---    1.12282   1.60151   1.60653   2.06613   2.78126
     Eigenvalues ---    2.78473   2.78854   2.83480   2.83648   2.84431
     Eigenvalues ---   45.10539  57.71420  58.79163
 Angle between quadratic step and forces=  78.20 degrees.
 Linear search not attempted -- first point.
 B after Tr=    -0.000206    0.000051   -0.000004
         Rot=    1.000000    0.000005    0.000001   -0.000003 Ang=   0.00 deg.
 Variable       Old X    -DE/DX   Delta X   Delta X   Delta X     New X
                                 (Linear)    (Quad)   (Total)
    X1      -16.91198   0.00056   0.00000   0.00769   0.00749 -16.90449
    Y1       -1.73334   0.02326   0.00000   0.00818   0.00816  -1.72518
    Z1        2.09009   0.00215   0.00000   0.00465   0.00461   2.09470
    X2      -16.91443   0.00020   0.00000   0.01251   0.01230 -16.90213
    Y2        0.88911  -0.01505   0.00000  -0.01817  -0.01818   0.87092
    Z2        2.35299  -0.00106   0.00000   0.00489   0.00483   2.35782
    X3      -15.59507   0.01853   0.00000   0.01031   0.01012 -15.58495
    Y3       -3.99706  -0.01062   0.00000  -0.00201  -0.00203  -3.99908
    Z3        1.86187  -0.00118   0.00000  -0.00182  -0.00183   1.86004
    X4      -13.31428  -0.01301   0.00000  -0.01304  -0.01322 -13.32750
    Y4       -5.30700   0.00727   0.00000   0.01284   0.01284  -5.29416
    Z4        1.69952   0.00054   0.00000  -0.00305  -0.00304   1.69649
    X5      -18.22338  -0.01904   0.00000  -0.00103  -0.00122 -18.22460
    Y5       -3.99427  -0.01188   0.00000  -0.00498  -0.00500  -3.99928
    Z5        1.88399  -0.00105   0.00000   0.00033   0.00032   1.88431
    X6      -20.50432   0.01282   0.00000   0.02019   0.02000 -20.48431
    Y6       -5.30628   0.00658   0.00000   0.00525   0.00521  -5.30107
    Z6        1.77878   0.00054   0.00000   0.00026   0.00026   1.77903
    X7      -19.22060  -0.00836   0.00000  -0.00015  -0.00037 -19.22098
    Y7        2.24555   0.00544   0.00000  -0.02374  -0.02377   2.22178
    Z7        2.52922   0.00088   0.00000  -0.01289  -0.01297   2.51626
    X8      -21.10632   0.00565   0.00000  -0.00846  -0.00869 -21.11501
    Y8        3.36344  -0.00424   0.00000  -0.04616  -0.04620   3.31725
    Z8        2.68492  -0.00074   0.00000  -0.03171  -0.03181   2.65311
    X9      -14.58757   0.00925   0.00000   0.01938   0.01915 -14.56842
    Y9        2.21146   0.00443   0.00000  -0.01080  -0.01080   2.20066
    Z9        2.49527   0.00045   0.00000  -0.00137  -0.00144   2.49383
   X10      -12.65275  -0.00566   0.00000   0.01170   0.01147 -12.64128
   Y10        3.24604  -0.00274   0.00000  -0.00641  -0.00640   3.23965
   Z10        2.61282  -0.00039   0.00000  -0.00709  -0.00716   2.60566
   X11      -10.98226   0.00809   0.00000  -0.01062  -0.01081 -10.99307
   Y11       -3.98780   0.00554   0.00000   0.02564   0.02565  -3.96215
   Z11        1.79269   0.00044   0.00000   0.00038   0.00038   1.79307
   X12       -9.08296  -0.00539   0.00000  -0.02052  -0.02072  -9.10368
   Y12       -2.88606  -0.00294   0.00000   0.03276   0.03278  -2.85327
   Z12        1.86720  -0.00015   0.00000   0.00381   0.00381   1.87101
   X13      -13.29210  -0.00007   0.00000  -0.02387  -0.02404 -13.31614
   Y13       -7.97148  -0.00953   0.00000   0.00284   0.00283  -7.96865
   Z13        1.39676  -0.00108   0.00000   0.01547   0.01551   1.41227
   X14      -13.27478  -0.00061   0.00000  -0.04349  -0.04364 -13.31842
   Y14      -10.15336   0.00622   0.00000   0.00538   0.00537 -10.14799
   Z14        1.13936   0.00085   0.00000   0.03512   0.03518   1.17454
   X15      -20.47989  -0.00020   0.00000   0.00942   0.00925 -20.47064
   Y15       -7.98030  -0.00744   0.00000  -0.00038  -0.00042  -7.98072
   Z15        1.58249  -0.00068   0.00000  -0.03065  -0.03063   1.55186
   X16      -20.39967  -0.00031   0.00000  -0.00273  -0.00289 -20.40256
   Y16      -10.16903   0.00415   0.00000   0.00424   0.00419 -10.16484
   Z16        1.43099   0.00021   0.00000  -0.05612  -0.05607   1.37492
   X17      -22.82893  -0.00738   0.00000   0.01629   0.01610 -22.81283
   Y17       -3.97376   0.00480   0.00000   0.01020   0.01015  -3.96362
   Z17        1.87166   0.00046   0.00000   0.02838   0.02835   1.90001
   X18      -24.70435   0.00494   0.00000   0.01992   0.01972 -24.68463
   Y18       -2.83203  -0.00325   0.00000   0.00568   0.00562  -2.82641
   Z18        1.94375  -0.00016   0.00000   0.05173   0.05169   1.99543
         Item               Value     Threshold  Converged?
 Maximum Force            0.023261     0.000450     NO 
 RMS     Force            0.007345     0.000300     NO 
 Maximum Displacement     0.056075     0.001800     NO 
 RMS     Displacement     0.019706     0.001200     NO 
 Predicted change in Energy=-7.994535D-04
 GradGradGradGradGradGradGradGradGradGradGradGradGradGradGradGradGradGrad

 Unable to Open any file for archive entry.
 1\1\GINC-X10P1N4\Force\UwB97XD\def2SVP\C12N6(1-,2)\MAYUMIAO\11-Oct-202
 4\0\\# wb97xd def2svp scrf=(smd,solvent=acetonitrile) g09default scf=(
 xqc,maxcycle=64) force guess=read nosymm\\Title Card\\-1,2\C,-8.949434
 16,-0.91724253,1.1060284\C,-8.95072928,0.47049549,1.24514732\C,-8.2525
 5462,-2.11515166,0.9852595\C,-7.04561332,-2.80834441,0.8993495\C,-9.64
 339599,-2.11367915,0.99696371\C,-10.8504166,-2.80796466,0.94128854\C,-
 10.17110588,1.18829236,1.33840693\N,-11.16898145,1.77985794,1.42079718
 \C,-7.71941188,1.17025532,1.32044127\N,-6.69554742,1.7177322,1.3826471
 1\C,-5.81156338,-2.11025354,0.94865129\N,-4.80649717,-1.52723486,0.988
 0787\C,-7.03387394,-4.2183274,0.7391326\N,-7.02471002,-5.37292702,0.60
 292163\C,-10.83748936,-4.22299405,0.83741507\N,-10.79503882,-5.3812211
 6,0.75724969\C,-12.08055069,-2.10282493,0.99043922\N,-13.07298002,-1.4
 9864541,1.02858727\\Version=ES64L-G16RevC.01\HF=-784.8605056\S2=0.7871
 75\S2-1=0.\S2A=0.751136\RMSD=5.597e-09\RMSF=7.345e-03\Dipole=-0.078595
 5,-0.0074483,-0.0039213\Quadrupole=-201.7252366,70.8081689,130.9170677
 ,-53.7944198,33.3307913,0.8869287\PG=C01 [X(C12N6)]\\@
 The archive entry for this job was punched.


 GOORD'S AXIOM:  A MEETING IS AN EVENT AT WHICH
 THE MINUTES ARE KEPT AND THE HOURS ARE LOST.
 Job cpu time:       0 days  0 hours 12 minutes 37.4 seconds.
 Elapsed time:       0 days  0 hours  0 minutes 28.5 seconds.
 File lengths (MBytes):  RWF=    173 Int=      0 D2E=      0 Chk=      9 Scr=      1
 Normal termination of Gaussian 16 at Fri Oct 11 16:09:19 2024.
