 Entering Gaussian System, Link 0=g16
 Input=JOBS/47_A.gjf
 Output=JOBS/47_A.log
 Initial command:
 /data/app/gaussian/C01-avx2//g16/l1.exe "/tmp/Gau-2558314.inp" -scrdir="/tmp/"
 Entering Link 1 = /data/app/gaussian/C01-avx2//g16/l1.exe PID=   2558315.
  
 Copyright (c) 1988-2019, Gaussian, Inc.  All Rights Reserved.
  
 This is part of the Gaussian(R) 16 program.  It is based on
 the Gaussian(R) 09 system (copyright 2009, Gaussian, Inc.),
 the Gaussian(R) 03 system (copyright 2003, Gaussian, Inc.),
 the Gaussian(R) 98 system (copyright 1998, Gaussian, Inc.),
 the Gaussian(R) 94 system (copyright 1995, Gaussian, Inc.),
 the Gaussian 92(TM) system (copyright 1992, Gaussian, Inc.),
 the Gaussian 90(TM) system (copyright 1990, Gaussian, Inc.),
 the Gaussian 88(TM) system (copyright 1988, Gaussian, Inc.),
 the Gaussian 86(TM) system (copyright 1986, Carnegie Mellon
 University), and the Gaussian 82(TM) system (copyright 1983,
 Carnegie Mellon University). Gaussian is a federally registered
 trademark of Gaussian, Inc.
  
 This software contains proprietary and confidential information,
 including trade secrets, belonging to Gaussian, Inc.
  
 This software is provided under written license and may be
 used, copied, transmitted, or stored only in accord with that
 written license.
  
 The following legend is applicable only to US Government
 contracts under FAR:
  
                    RESTRICTED RIGHTS LEGEND
  
 Use, reproduction and disclosure by the US Government is
 subject to restrictions as set forth in subparagraphs (a)
 and (c) of the Commercial Computer Software - Restricted
 Rights clause in FAR 52.227-19.
  
 Gaussian, Inc.
 340 Quinnipiac St., Bldg. 40, Wallingford CT 06492
  
  
 ---------------------------------------------------------------
 Warning -- This program may not be used in any manner that
 competes with the business of Gaussian, Inc. or will provide
 assistance to any competitor of Gaussian, Inc.  The licensee
 of this program is prohibited from giving any competitor of
 Gaussian, Inc. access to this program.  By using this program,
 the user acknowledges that Gaussian, Inc. is engaged in the
 business of creating and licensing software in the field of
 computational chemistry and represents and warrants to the
 licensee that it is not a competitor of Gaussian, Inc. and that
 it will not use this program in any manner prohibited above.
 ---------------------------------------------------------------
  

 Cite this work as:
 Gaussian 16, Revision C.01,
 M. J. Frisch, G. W. Trucks, H. B. Schlegel, G. E. Scuseria, 
 M. A. Robb, J. R. Cheeseman, G. Scalmani, V. Barone, 
 G. A. Petersson, H. Nakatsuji, X. Li, M. Caricato, A. V. Marenich, 
 J. Bloino, B. G. Janesko, R. Gomperts, B. Mennucci, H. P. Hratchian, 
 J. V. Ortiz, A. F. Izmaylov, J. L. Sonnenberg, D. Williams-Young, 
 F. Ding, F. Lipparini, F. Egidi, J. Goings, B. Peng, A. Petrone, 
 T. Henderson, D. Ranasinghe, V. G. Zakrzewski, J. Gao, N. Rega, 
 G. Zheng, W. Liang, M. Hada, M. Ehara, K. Toyota, R. Fukuda, 
 J. Hasegawa, M. Ishida, T. Nakajima, Y. Honda, O. Kitao, H. Nakai, 
 T. Vreven, K. Throssell, J. A. Montgomery, Jr., J. E. Peralta, 
 F. Ogliaro, M. J. Bearpark, J. J. Heyd, E. N. Brothers, K. N. Kudin, 
 V. N. Staroverov, T. A. Keith, R. Kobayashi, J. Normand, 
 K. Raghavachari, A. P. Rendell, J. C. Burant, S. S. Iyengar, 
 J. Tomasi, M. Cossi, J. M. Millam, M. Klene, C. Adamo, R. Cammi, 
 J. W. Ochterski, R. L. Martin, K. Morokuma, O. Farkas, 
 J. B. Foresman, and D. J. Fox, Gaussian, Inc., Wallingford CT, 2019.
 
 ******************************************
 Gaussian 16:  ES64L-G16RevC.01  3-Jul-2019
                11-Oct-2024 
 ******************************************
 %chk=a.chk
 %nprocshared=28
 Will use up to   28 processors via shared memory.
 %mem=48gb
 ----------------------------------------------------------------------
 # wb97xd def2svp scrf=(smd,solvent=acetonitrile) g09default scf=(xqc,m
 axcycle=64) force guess=read nosymm
 ----------------------------------------------------------------------
 1/10=7,30=1,38=1,158=3,167=1/1,3;
 2/12=2,15=1,17=6,18=5,40=1/2;
 3/5=43,7=101,11=2,25=1,27=10,30=1,70=32201,71=1,72=2,74=-58,75=-4,116=-2,158=3/1,2,3;
 4/5=1,60=-1/1;
 5/5=2,7=64,8=3,13=1,38=6,53=2,87=10/2,8;
 6/7=2,8=2,9=2,10=2,28=1,87=10/1;
 7/29=1,30=1,87=10/1,2,3,16;
 1/10=7,30=1,158=3,167=1/3;
 99//99;
 Using 2006 physical constants.
 ----------
 Title Card
 ----------
 Symbolic Z-matrix:
 Charge = -2 Multiplicity = 1
 6                    -8.95142  -0.91709   1.10589 
 6                    -8.95114   0.47093   1.24588 
 6                    -8.25359  -2.11563   0.98548 
 6                    -7.04629  -2.80858   0.8987 
 6                    -9.64368  -2.11526   0.99675 
 6                    -10.8506  -2.80864   0.94153 
 6                    -10.16909   1.19407   1.34009 
 7                    -11.16975   1.78137   1.42145 
 6                    -7.7179    1.16745   1.32111 
 7                    -6.69599   1.71879   1.38331 
 6                    -5.81276  -2.10941   0.94869 
 7                    -4.80671  -1.529     0.98666 
 6                    -7.03109  -4.21861   0.73689 
 7                    -7.02512  -5.37314   0.60119 
 6                    -10.83862  -4.22327   0.83863 
 7                    -10.79342  -5.38144   0.75992 
 6                    -12.0798  -2.10262   0.99029 
 7                    -13.07294  -1.5001    1.02635 
 

 GradGradGradGradGradGradGradGradGradGradGradGradGradGradGradGradGradGrad
 Berny optimization.
 Initialization pass.
 Trust Radius=3.00D-01 FncErr=1.00D-07 GrdErr=1.00D-07 EigMax=2.50D+02 EigMin=1.00D-04
 Number of steps in this run=      2 maximum allowed number of steps=      2.
 GradGradGradGradGradGradGradGradGradGradGradGradGradGradGradGradGradGrad

                          Input orientation:                          
 ---------------------------------------------------------------------
 Center     Atomic      Atomic             Coordinates (Angstroms)
 Number     Number       Type             X           Y           Z
 ---------------------------------------------------------------------
      1          6           0       -8.951415   -0.917088    1.105893
      2          6           0       -8.951137    0.470926    1.245879
      3          6           0       -8.253588   -2.115628    0.985477
      4          6           0       -7.046294   -2.808579    0.898699
      5          6           0       -9.643681   -2.115257    0.996747
      6          6           0      -10.850598   -2.808644    0.941530
      7          6           0      -10.169088    1.194067    1.340089
      8          7           0      -11.169750    1.781375    1.421455
      9          6           0       -7.717898    1.167452    1.321111
     10          7           0       -6.695985    1.718791    1.383308
     11          6           0       -5.812764   -2.109413    0.948689
     12          7           0       -4.806707   -1.529001    0.986658
     13          6           0       -7.031088   -4.218606    0.736887
     14          7           0       -7.025120   -5.373140    0.601189
     15          6           0      -10.838622   -4.223272    0.838629
     16          7           0      -10.793418   -5.381443    0.759924
     17          6           0      -12.079800   -2.102616    0.990288
     18          7           0      -13.072940   -1.500101    1.026351
 ---------------------------------------------------------------------
                    Distance matrix (angstroms):
                    1          2          3          4          5
     1  C    0.000000
     2  C    1.395055   0.000000
     3  C    1.392107   2.691588   0.000000
     4  C    2.692611   3.808427   1.394730   0.000000
     5  C    1.388075   2.688871   1.390139   2.690117   0.000000
     6  C    2.685497   3.802125   2.688246   3.804546   1.393012
     7  C    2.448377   1.419582   3.840439   5.095865   3.368317
     8  N    3.507462   2.582702   4.886790   6.192241   4.206305
     9  C    2.431706   1.418339   3.343386   4.054419   3.819690
    10  N    3.480199   2.581039   4.157784   4.566689   4.851625
    11  C    3.361173   4.073801   2.441109   1.418777   3.831223
    12  N    4.191332   4.609034   3.496444   2.580854   4.872383
    13  C    3.837166   5.092874   2.445162   1.419363   3.364111
    14  N    4.880752   6.186943   3.502598   2.581847   4.198467
    15  C    3.816259   5.075820   3.338582   4.048052   2.428294
    16  N    4.841810   6.154703   4.143327   4.547508   3.470727
    17  C    3.347481   4.059184   3.826238   5.083598   2.436161
    18  N    4.163316   4.574102   4.858673   6.168377   3.484123
                    6          7          8          9         10
     6  C    0.000000
     7  C    4.079828   0.000000
     8  N    4.626062   1.163132   0.000000
     9  C    5.076143   2.451407   3.507457   0.000000
    10  N    6.160653   3.512783   4.474366   1.162820   0.000000
    11  C    5.086133   5.481216   6.637698   3.808685   3.952736
    12  N    6.178037   6.024545   7.185816   3.982179   3.778208
    13  C    4.076583   6.285533   7.320992   5.461012   5.981876
    14  N    4.618090   7.318382   8.308904   6.616463   7.142516
    15  C    1.418417   5.481542   6.041946   6.247529   7.264037
    16  N    2.579834   6.630513   7.203138   7.256844   8.221368
    17  C    1.418376   3.826395   4.012415   5.461591   6.613855
    18  N    2.580365   3.973579   3.813964   5.989925   7.152220
                   11         12         13         14         15
    11  C    0.000000
    12  N    1.162097   0.000000
    13  C    2.444969   3.499176   0.000000
    14  N    3.498926   4.455036   1.162496   0.000000
    15  C    5.453418   6.607951   3.808896   3.990160   0.000000
    16  N    5.962276   7.122740   3.938000   3.771649   1.161722
    17  C    6.267179   7.295679   5.480066   6.033036   2.461851
    18  N    7.286114   8.266379   6.631594   7.194256   3.527474
                   16         17         18
    16  N    0.000000
    17  C    3.529668   0.000000
    18  N    4.509104   1.162175   0.000000
 Symmetry turned off by external request.
 Stoichiometry    C12N6(2-)
 Framework group  C1[X(C12N6)]
 Deg. of freedom    48
 Full point group                 C1      NOp   1
 Rotational constants (GHZ):           0.4325041           0.4263657           0.2147504
 Standard basis: def2SVP (5D, 7F)
   252 basis functions,   450 primitive gaussians,   270 cartesian basis functions
    58 alpha electrons       58 beta electrons
       nuclear repulsion energy       965.6456067664 Hartrees.
 NAtoms=   18 NActive=   18 NUniq=   18 SFac= 1.00D+00 NAtFMM=   60 NAOKFM=F Big=F
 Integral buffers will be    131072 words long.
 Raffenetti 2 integral format.
 Two-electron integral symmetry is turned off.
 Nuclear repulsion after empirical dispersion term =      965.6339266372 Hartrees.
 Force PCM accuracy= 1.00D-10.
 ------------------------------------------------------------------------------
 Polarizable Continuum Model (PCM)
 =================================
 Model                : PCM (using non-symmetric T matrix).
 Atomic radii         : SMD-Coulomb.
 Polarization charges : Total charges.
 Charge compensation  : None.
 Solution method      : On-the-fly selection.
 Cavity type          : VdW (van der Waals Surface) (Alpha=1.000).
 Cavity algorithm     : GePol (No added spheres)
                        Default sphere list used, NSphG=   18.
                        Lebedev-Laikov grids with approx.  5.0 points / Ang**2.
                        Smoothing algorithm: York/Karplus (Gamma=1.0000).
                        Polarization charges: spherical gaussians, with
                                              point-specific exponents (IZeta= 3).
                        Self-potential: point-specific (ISelfS= 7).
                        Self-field    : sphere-specific E.n sum rule (ISelfD= 2).
 1st derivatives      : Analytical E(r).r(x)/FMM algorithm (CHGder, D1EAlg=3).
                        Cavity 1st derivative terms included.
 Solvent              : Acetonitrile, Eps=  35.688000 Eps(inf)=   1.806874
 ------------------------------------------------------------------------------
 Spheres list:
 ISph  on   Nord     Re0    Alpha      Xe            Ye            Ze
    1   C      1    1.8500  1.000     -8.951415     -0.917088      1.105893
    2   C      2    1.8500  1.000     -8.951137      0.470926      1.245879
    3   C      3    1.8500  1.000     -8.253588     -2.115628      0.985477
    4   C      4    1.8500  1.000     -7.046294     -2.808579      0.898699
    5   C      5    1.8500  1.000     -9.643681     -2.115257      0.996747
    6   C      6    1.8500  1.000    -10.850598     -2.808644      0.941530
    7   C      7    1.8500  1.000    -10.169088      1.194067      1.340089
    8   N      8    1.8900  1.000    -11.169750      1.781375      1.421455
    9   C      9    1.8500  1.000     -7.717898      1.167452      1.321111
   10   N     10    1.8900  1.000     -6.695985      1.718791      1.383308
   11   C     11    1.8500  1.000     -5.812764     -2.109413      0.948689
   12   N     12    1.8900  1.000     -4.806707     -1.529001      0.986658
   13   C     13    1.8500  1.000     -7.031088     -4.218606      0.736887
   14   N     14    1.8900  1.000     -7.025120     -5.373140      0.601189
   15   C     15    1.8500  1.000    -10.838622     -4.223272      0.838629
   16   N     16    1.8900  1.000    -10.793418     -5.381443      0.759924
   17   C     17    1.8500  1.000    -12.079800     -2.102616      0.990288
   18   N     18    1.8900  1.000    -13.072940     -1.500101      1.026351
 ------------------------------------------------------------------------------
 ------------------------------------------------------------------------------
 Atomic radii for non-electrostatic terms: SMD-CDS.
 ------------------------------------------------------------------------------
 Nuclear repulsion after PCM non-electrostatic terms =      965.6426350973 Hartrees.
 One-electron integrals computed using PRISM.
   1 Symmetry operations used in ECPInt.
 ECPInt:  NShTT=    5886 NPrTT=   23670 LenC2=    5404 LenP2D=   14965.
 LDataN:  DoStor=T MaxTD1= 4 Len=   56
 NBasis=   252 RedAO= T EigKep=  1.94D-04  NBF=   252
 NBsUse=   252 1.00D-06 EigRej= -1.00D+00 NBFU=   252
 Initial guess from the checkpoint file:  "a.chk"
 B after Tr=    -0.000215   -0.000142   -0.002072
         Rot=    1.000000   -0.000046   -0.000069    0.000009 Ang=  -0.01 deg.
 Requested convergence on RMS density matrix=1.00D-08 within  64 cycles.
 Requested convergence on MAX density matrix=1.00D-06.
 Requested convergence on             energy=1.00D-06.
 No special actions if energy rises.
 Inv3:  Mode=1 IEnd=    19217883.
 Iteration    1 A*A^-1 deviation from unit magnitude is 3.55D-15 for     31.
 Iteration    1 A*A^-1 deviation from orthogonality  is 3.07D-15 for   1857    308.
 Iteration    1 A^-1*A deviation from unit magnitude is 2.89D-15 for   1016.
 Iteration    1 A^-1*A deviation from orthogonality  is 1.95D-12 for   1002    975.
 Error on total polarization charges =  0.02151
 SCF Done:  E(RwB97XD) =  -785.032662753     A.U. after   10 cycles
            NFock= 10  Conv=0.93D-08     -V/T= 2.0097
 SMD-CDS (non-electrostatic) energy       (kcal/mol) =       5.46
 (included in total energy above)
 QCSCF skips out because SCF is already converged.

 **********************************************************************

            Population analysis using the SCF Density.

 **********************************************************************

 Alpha  occ. eigenvalues --  -14.42795 -14.42769 -14.42768 -14.42748 -14.42743
 Alpha  occ. eigenvalues --  -14.42737 -10.34997 -10.34926 -10.34879 -10.33739
 Alpha  occ. eigenvalues --  -10.33706 -10.33702 -10.33678 -10.33676 -10.33668
 Alpha  occ. eigenvalues --  -10.32733 -10.32719 -10.32676  -1.03103  -0.99103
 Alpha  occ. eigenvalues --   -0.99084  -0.98718  -0.98036  -0.98002  -0.97932
 Alpha  occ. eigenvalues --   -0.88208  -0.88177  -0.86105  -0.68804  -0.68730
 Alpha  occ. eigenvalues --   -0.65227  -0.65025  -0.64920  -0.64138  -0.52471
 Alpha  occ. eigenvalues --   -0.47698  -0.47682  -0.46808  -0.46724  -0.45185
 Alpha  occ. eigenvalues --   -0.45071  -0.45067  -0.44534  -0.44220  -0.44164
 Alpha  occ. eigenvalues --   -0.43856  -0.42818  -0.42242  -0.42211  -0.42041
 Alpha  occ. eigenvalues --   -0.41948  -0.41917  -0.40530  -0.40184  -0.40154
 Alpha  occ. eigenvalues --   -0.31474  -0.31455  -0.23639
 Alpha virt. eigenvalues --    0.07446   0.07562   0.08849   0.09278   0.09382
 Alpha virt. eigenvalues --    0.12682   0.12723   0.13128   0.13141   0.14841
 Alpha virt. eigenvalues --    0.14977   0.16311   0.21085   0.21163   0.24201
 Alpha virt. eigenvalues --    0.27554   0.28111   0.28137   0.28619   0.28678
 Alpha virt. eigenvalues --    0.29992   0.33669   0.33731   0.33925   0.36844
 Alpha virt. eigenvalues --    0.37079   0.37214   0.48964   0.49123   0.50524
 Alpha virt. eigenvalues --    0.50707   0.54919   0.54930   0.55022   0.55083
 Alpha virt. eigenvalues --    0.57467   0.57510   0.58292   0.59987   0.61114
 Alpha virt. eigenvalues --    0.61715   0.61744   0.62837   0.62995   0.64879
 Alpha virt. eigenvalues --    0.65534   0.70915   0.71731   0.71866   0.73678
 Alpha virt. eigenvalues --    0.73724   0.74454   0.74631   0.74777   0.75085
 Alpha virt. eigenvalues --    0.75159   0.75238   0.76610   0.76912   0.77814
 Alpha virt. eigenvalues --    0.82032   0.82097   0.82232   0.83418   0.83689
 Alpha virt. eigenvalues --    0.88852   0.88873   0.89418   0.89647   0.94743
 Alpha virt. eigenvalues --    0.94792   0.95116   0.95198   0.95996   0.96135
 Alpha virt. eigenvalues --    0.98108   1.00598   1.00659   1.01303   1.01582
 Alpha virt. eigenvalues --    1.02393   1.02531   1.05266   1.05480   1.05830
 Alpha virt. eigenvalues --    1.08518   1.08989   1.10203   1.10340   1.12688
 Alpha virt. eigenvalues --    1.12917   1.17490   1.18926   1.20382   1.20517
 Alpha virt. eigenvalues --    1.21146   1.25072   1.25279   1.27264   1.35266
 Alpha virt. eigenvalues --    1.38748   1.39009   1.41769   1.41923   1.45031
 Alpha virt. eigenvalues --    1.47104   1.47333   1.47829   1.48015   1.58912
 Alpha virt. eigenvalues --    1.62441   1.68383   1.70720   1.70816   1.70982
 Alpha virt. eigenvalues --    1.71157   1.71269   1.79118   1.79426   1.79660
 Alpha virt. eigenvalues --    1.79694   1.80340   1.81514   1.81563   1.82869
 Alpha virt. eigenvalues --    1.84594   1.85166   1.87655   1.95511   1.95597
 Alpha virt. eigenvalues --    1.95739   2.00371   2.03159   2.03310   2.06379
 Alpha virt. eigenvalues --    2.06680   2.10005   2.10480   2.16206   2.16339
 Alpha virt. eigenvalues --    2.21093   2.23565   2.23722   2.23870   2.29522
 Alpha virt. eigenvalues --    2.30388   2.30651   2.32146   2.35895   2.35925
 Alpha virt. eigenvalues --    2.36513   2.36544   2.36760   2.36874   2.37482
 Alpha virt. eigenvalues --    2.38486   2.38563   2.38735   2.38833   2.39215
 Alpha virt. eigenvalues --    2.40504   2.40698   2.59982   2.65210   2.65546
 Alpha virt. eigenvalues --    2.74237   2.74519   2.95379   2.97453   2.97768
 Alpha virt. eigenvalues --    2.98106   3.01259   3.01306   3.01982   3.05308
 Alpha virt. eigenvalues --    3.07926   3.08052   3.11336   3.11894   3.14787
 Alpha virt. eigenvalues --    3.14911   3.15449   3.26054   3.26322   3.31499
 Alpha virt. eigenvalues --    3.43891   3.44024   3.45291   3.56582   3.59852
 Alpha virt. eigenvalues --    3.60040   3.64569   3.64741   3.78577
          Condensed to atoms (all electrons):
               1          2          3          4          5          6
     1  C    4.964302   0.493290   0.314839  -0.116865   0.317266  -0.116752
     2  C    0.493290   5.548833  -0.115106  -0.007645  -0.117290  -0.007135
     3  C    0.314839  -0.115106   4.960844   0.492730   0.315208  -0.116207
     4  C   -0.116865  -0.007645   0.492730   5.554137  -0.117611  -0.007511
     5  C    0.317266  -0.117290   0.315208  -0.117611   4.965989   0.494709
     6  C   -0.116752  -0.007135  -0.116207  -0.007511   0.494709   5.546928
     7  C    0.010892   0.384082   0.006106  -0.000544  -0.025441   0.002958
     8  N   -0.001042  -0.044271  -0.000068  -0.000001  -0.000586   0.000144
     9  C    0.015193   0.388075  -0.025257   0.003044   0.006922  -0.000518
    10  N   -0.001023  -0.043518  -0.000608   0.000162  -0.000057  -0.000001
    11  C   -0.024512   0.003024   0.013091   0.387460   0.006285  -0.000529
    12  N   -0.000572   0.000149  -0.001091  -0.043907  -0.000070  -0.000001
    13  C    0.005963  -0.000548   0.012041   0.386415  -0.024937   0.002950
    14  N   -0.000073  -0.000002  -0.001092  -0.044141  -0.000588   0.000146
    15  C    0.007399  -0.000512  -0.026597   0.003097   0.014638   0.385340
    16  N   -0.000043  -0.000001  -0.000676   0.000180  -0.000942  -0.043872
    17  C   -0.026855   0.002990   0.006952  -0.000544   0.013077   0.383390
    18  N   -0.000659   0.000166  -0.000050  -0.000002  -0.000929  -0.044076
               7          8          9         10         11         12
     1  C    0.010892  -0.001042   0.015193  -0.001023  -0.024512  -0.000572
     2  C    0.384082  -0.044271   0.388075  -0.043518   0.003024   0.000149
     3  C    0.006106  -0.000068  -0.025257  -0.000608   0.013091  -0.001091
     4  C   -0.000544  -0.000001   0.003044   0.000162   0.387460  -0.043907
     5  C   -0.025441  -0.000586   0.006922  -0.000057   0.006285  -0.000070
     6  C    0.002958   0.000144  -0.000518  -0.000001  -0.000529  -0.000001
     7  C    4.881700   0.924967  -0.055316   0.002717   0.000137   0.000002
     8  N    0.924967   6.154602   0.002493   0.000091   0.000000   0.000000
     9  C   -0.055316   0.002493   4.876535   0.924859  -0.000514   0.000037
    10  N    0.002717   0.000091   0.924859   6.157113   0.000240  -0.000879
    11  C    0.000137   0.000000  -0.000514   0.000240   4.876869   0.926396
    12  N    0.000002   0.000000   0.000037  -0.000879   0.926396   6.153116
    13  C   -0.000017  -0.000000   0.000143   0.000003  -0.054903   0.002611
    14  N   -0.000000  -0.000000   0.000000   0.000000   0.002544   0.000094
    15  C    0.000135   0.000002  -0.000017  -0.000000   0.000143   0.000000
    16  N    0.000000   0.000000  -0.000000  -0.000000   0.000003   0.000000
    17  C   -0.000566  -0.000006   0.000141   0.000000  -0.000017  -0.000000
    18  N    0.000229  -0.000835   0.000003   0.000000  -0.000000  -0.000000
              13         14         15         16         17         18
     1  C    0.005963  -0.000073   0.007399  -0.000043  -0.026855  -0.000659
     2  C   -0.000548  -0.000002  -0.000512  -0.000001   0.002990   0.000166
     3  C    0.012041  -0.001092  -0.026597  -0.000676   0.006952  -0.000050
     4  C    0.386415  -0.044141   0.003097   0.000180  -0.000544  -0.000002
     5  C   -0.024937  -0.000588   0.014638  -0.000942   0.013077  -0.000929
     6  C    0.002950   0.000146   0.385340  -0.043872   0.383390  -0.044076
     7  C   -0.000017  -0.000000   0.000135   0.000000  -0.000566   0.000229
     8  N   -0.000000  -0.000000   0.000002   0.000000  -0.000006  -0.000835
     9  C    0.000143   0.000000  -0.000017  -0.000000   0.000141   0.000003
    10  N    0.000003   0.000000  -0.000000  -0.000000   0.000000   0.000000
    11  C   -0.054903   0.002544   0.000143   0.000003  -0.000017  -0.000000
    12  N    0.002611   0.000094   0.000000   0.000000  -0.000000  -0.000000
    13  C    4.878920   0.926131  -0.000561   0.000318   0.000137   0.000000
    14  N    0.926131   6.153172  -0.000020  -0.000885   0.000002   0.000000
    15  C   -0.000561  -0.000020   4.879480   0.925113  -0.055279   0.002604
    16  N    0.000318  -0.000885   0.925113   6.155733   0.002717   0.000086
    17  C    0.000137   0.000002  -0.055279   0.002717   4.882286   0.924507
    18  N    0.000000   0.000000   0.002604   0.000086   0.924507   6.154879
 Mulliken charges:
               1
     1  C    0.159252
     2  C   -0.484578
     3  C    0.164943
     4  C   -0.488453
     5  C    0.154358
     6  C   -0.479964
     7  C   -0.132040
     8  N   -0.035491
     9  C   -0.135823
    10  N   -0.039097
    11  C   -0.135718
    12  N   -0.035884
    13  C   -0.134665
    14  N   -0.035290
    15  C   -0.134966
    16  N   -0.037729
    17  C   -0.132933
    18  N   -0.035922
 Sum of Mulliken charges =  -2.00000
 Mulliken charges with hydrogens summed into heavy atoms:
               1
     1  C    0.159252
     2  C   -0.484578
     3  C    0.164943
     4  C   -0.488453
     5  C    0.154358
     6  C   -0.479964
     7  C   -0.132040
     8  N   -0.035491
     9  C   -0.135823
    10  N   -0.039097
    11  C   -0.135718
    12  N   -0.035884
    13  C   -0.134665
    14  N   -0.035290
    15  C   -0.134966
    16  N   -0.037729
    17  C   -0.132933
    18  N   -0.035922
 Electronic spatial extent (au):  <R**2>=          39329.0833
 Charge=             -2.0000 electrons
 Dipole moment (field-independent basis, Debye):
    X=             85.6719    Y=             16.4405    Z=             -9.8962  Tot=             87.7947
 Quadrupole moment (field-independent basis, Debye-Ang):
   XX=           -963.9957   YY=           -227.5249   ZZ=           -113.5446
   XY=           -145.6917   XZ=             89.2734   YZ=              7.2301
 Traceless Quadrupole moment (field-independent basis, Debye-Ang):
   XX=           -528.9740   YY=            207.4968   ZZ=            321.4771
   XY=           -145.6917   XZ=             89.2734   YZ=              7.2301
 Octapole moment (field-independent basis, Debye-Ang**2):
  XXX=          12173.4492  YYY=           1140.2830  ZZZ=           -329.6519  XYY=           2030.1840
  XXY=           1565.7914  XXZ=          -1015.5385  XZZ=           1016.5730  YZZ=            174.9379
  YYZ=           -196.7375  XYZ=            -66.4930
 Hexadecapole moment (field-independent basis, Debye-Ang**3):
 XXXX=        -161219.9205 YYYY=          -8690.6361 ZZZZ=           -804.4106 XXXY=         -18784.0653
 XXXZ=          12925.1067 YYYX=         -10157.4608 YYYZ=            766.5087 ZZZX=           2966.6481
 ZZZY=            378.0094 XXYY=         -20019.4551 XXZZ=          -9886.5080 YYZZ=          -1038.7121
 XXYZ=            801.1720 YYXZ=           1781.4984 ZZXY=          -1563.0498
 N-N= 9.656426350973D+02 E-N=-3.785062427245D+03  KE= 7.774801107108D+02
   1 Symmetry operations used in ECPInt.
 ECPInt:  NShTT=    5886 NPrTT=   23670 LenC2=    5404 LenP2D=   14965.
 LDataN:  DoStor=T MaxTD1= 5 Len=  102
 D1PCM: PCM CHGder 1st derivatives, ID1Alg=3 FixD1E=F DoIter=F DoCFld=F I1PDM=0.
 Calling FoFJK, ICntrl=      2127 FMM=F ISym2X=0 I1Cent= 0 IOpClX= 0 NMat=1 NMatS=1 NMatT=0.
 -------------------------------------------------------------------
 Center     Atomic                   Forces (Hartrees/Bohr)
 Number     Number              X              Y              Z
 -------------------------------------------------------------------
      1        6           0.000639539   -0.018599331   -0.001551961
      2        6           0.000311786    0.012554245    0.001483990
      3        6          -0.016910540    0.010246820    0.000679488
      4        6           0.011154982   -0.006260338   -0.000746582
      5        6           0.016729745    0.009611670    0.000842835
      6        6          -0.011343886   -0.007130862   -0.000554723
      7        6           0.005416679   -0.002852358   -0.000098655
      8        7          -0.002638097    0.000816781   -0.000019156
      9        6          -0.005041777   -0.001877142   -0.000319653
     10        7           0.003275822    0.001592602    0.000166407
     11        6          -0.006117152   -0.003889220   -0.000438908
     12        7           0.004271175    0.003019096    0.000297606
     13        6          -0.000013218    0.006834264    0.000796624
     14        7          -0.000511641   -0.004243240   -0.000449058
     15        6          -0.001161340    0.008095518    0.000574072
     16        7           0.000083856   -0.006178929   -0.000520423
     17        6           0.006146450   -0.004405195   -0.000404262
     18        7          -0.004292383    0.002665618    0.000262358
 -------------------------------------------------------------------
 Cartesian Forces:  Max     0.018599331 RMS     0.006145093

 GradGradGradGradGradGradGradGradGradGradGradGradGradGradGradGradGradGrad
 Berny optimization.
 Search for a local minimum.
 Step number   1 out of a maximum of    2
 All quantities printed in internal units (Hartrees-Bohrs-Radians)
 Second derivative matrix not updated -- first step.
 ITU=  0
     Eigenvalues ---    0.00128   0.00146   0.00198   0.00300   0.00301
     Eigenvalues ---    0.00817   0.01536   0.01723   0.01986   0.02015
     Eigenvalues ---    0.03002   0.04121   0.05332   0.05356   0.10296
     Eigenvalues ---    0.15161   0.21341   0.21553   0.24395   0.24727
     Eigenvalues ---    0.25072   0.25754   0.25982   0.30100   0.30239
     Eigenvalues ---    0.36060   0.41815   0.48413   0.79351   0.79982
     Eigenvalues ---    0.81968   0.99774   1.00843   1.04661   1.05137
     Eigenvalues ---    1.12249   1.60060   1.60509   2.06446   2.77923
     Eigenvalues ---    2.78835   2.79140   2.83260   2.84016   2.84696
     Eigenvalues ---   38.70461  66.73787 101.83662
 Angle between quadratic step and forces=  75.07 degrees.
 Linear search not attempted -- first point.
 B after Tr=    -0.000262    0.000043   -0.000138
         Rot=    1.000000    0.000006   -0.000002   -0.000003 Ang=   0.00 deg.
 Variable       Old X    -DE/DX   Delta X   Delta X   Delta X     New X
                                 (Linear)    (Quad)   (Total)
    X1      -16.91572   0.00064   0.00000   0.01152   0.01127 -16.90445
    Y1       -1.73305  -0.01860   0.00000  -0.00468  -0.00471  -1.73775
    Z1        2.08984  -0.00155   0.00000   0.00275   0.00271   2.09254
    X2      -16.91520   0.00031   0.00000   0.01416   0.01391 -16.90129
    Y2        0.88992   0.01255   0.00000   0.01711   0.01709   0.90701
    Z2        2.35437   0.00148   0.00000   0.00775   0.00767   2.36204
    X3      -15.59702  -0.01691   0.00000   0.00231   0.00208 -15.59494
    Y3       -3.99796   0.01025   0.00000   0.00555   0.00552  -3.99243
    Z3        1.86228   0.00068   0.00000  -0.00007  -0.00009   1.86219
    X4      -13.31557   0.01115   0.00000   0.02076   0.02054 -13.29503
    Y4       -5.30745  -0.00626   0.00000  -0.00492  -0.00493  -5.31238
    Z4        1.69830  -0.00075   0.00000  -0.00176  -0.00177   1.69652
    X5      -18.22392   0.01673   0.00000   0.01239   0.01216 -18.21176
    Y5       -3.99726   0.00961   0.00000   0.00337   0.00334  -3.99392
    Z5        1.88358   0.00084   0.00000   0.00053   0.00052   1.88410
    X6      -20.50466  -0.01134   0.00000  -0.01056  -0.01078 -20.51544
    Y6       -5.30757  -0.00713   0.00000  -0.01068  -0.01073  -5.31830
    Z6        1.77923  -0.00055   0.00000  -0.00296  -0.00294   1.77630
    X7      -19.21679   0.00542   0.00000   0.01173   0.01147 -19.20532
    Y7        2.25646  -0.00285   0.00000  -0.00250  -0.00254   2.25392
    Z7        2.53240  -0.00010   0.00000   0.00532   0.00524   2.53764
    X8      -21.10777  -0.00264   0.00000  -0.00389  -0.00416 -21.11193
    Y8        3.36631   0.00082   0.00000  -0.02426  -0.02431   3.34200
    Z8        2.68616  -0.00002   0.00000   0.00076   0.00067   2.68683
    X9      -14.58471  -0.00504   0.00000   0.00347   0.00320 -14.58151
    Y9        2.20617  -0.00188   0.00000   0.02903   0.02903   2.23519
    Z9        2.49654  -0.00032   0.00000  -0.00153  -0.00163   2.49490
   X10      -12.65358   0.00328   0.00000   0.00164   0.00137 -12.65220
   Y10        3.24805   0.00159   0.00000   0.03933   0.03933   3.28738
   Z10        2.61407   0.00017   0.00000  -0.00876  -0.00888   2.60519
   X11      -10.98453  -0.00612   0.00000   0.01580   0.01557 -10.96896
   Y11       -3.98621  -0.00389   0.00000  -0.00562  -0.00562  -3.99183
   Z11        1.79276  -0.00044   0.00000  -0.00527  -0.00531   1.78745
   X12       -9.08336   0.00427   0.00000   0.01406   0.01382  -9.06953
   Y12       -2.88939   0.00302   0.00000   0.00569   0.00570  -2.88369
   Z12        1.86451   0.00030   0.00000  -0.00593  -0.00599   1.85852
   X13      -13.28683  -0.00001   0.00000   0.00820   0.00799 -13.27884
   Y13       -7.97201   0.00683   0.00000  -0.00049  -0.00050  -7.97251
   Z13        1.39252   0.00080   0.00000   0.01239   0.01241   1.40492
   X14      -13.27555  -0.00051   0.00000  -0.01218  -0.01238 -13.28793
   Y14      -10.15376  -0.00424   0.00000  -0.00546  -0.00548 -10.15924
   Z14        1.13608  -0.00045   0.00000   0.02486   0.02491   1.16100
   X15      -20.48203  -0.00116   0.00000  -0.02733  -0.02754 -20.50957
   Y15       -7.98083   0.00810   0.00000  -0.00539  -0.00544  -7.98627
   Z15        1.58478   0.00057   0.00000  -0.01557  -0.01552   1.56926
   X16      -20.39660   0.00008   0.00000  -0.04400  -0.04420 -20.44080
   Y16      -10.16945  -0.00618   0.00000  -0.01016  -0.01022 -10.17967
   Z16        1.43605  -0.00052   0.00000  -0.02712  -0.02704   1.40901
   X17      -22.82751   0.00615   0.00000  -0.00545  -0.00568 -22.83320
   Y17       -3.97337  -0.00441   0.00000  -0.01395  -0.01401  -3.98738
   Z17        1.87137  -0.00040   0.00000   0.00435   0.00436   1.87574
   X18      -24.70428  -0.00429   0.00000  -0.00839  -0.00863 -24.71291
   Y18       -2.83478   0.00267   0.00000  -0.01146  -0.01153  -2.84631
   Z18        1.93952   0.00026   0.00000   0.01069   0.01070   1.95022
         Item               Value     Threshold  Converged?
 Maximum Force            0.018599     0.000450     NO 
 RMS     Force            0.006145     0.000300     NO 
 Maximum Displacement     0.044201     0.001800     NO 
 RMS     Displacement     0.014150     0.001200     NO 
 Predicted change in Energy=-6.050525D-04
 GradGradGradGradGradGradGradGradGradGradGradGradGradGradGradGradGradGrad

 Unable to Open any file for archive entry.
 1\1\GINC-X10P1N4\Force\RwB97XD\def2SVP\C12N6(2-)\MAYUMIAO\11-Oct-2024\
 0\\# wb97xd def2svp scrf=(smd,solvent=acetonitrile) g09default scf=(xq
 c,maxcycle=64) force guess=read nosymm\\Title Card\\-2,1\C,-8.95141549
 ,-0.91708849,1.10589345\C,-8.95113662,0.47092567,1.24587875\C,-8.25358
 778,-2.11562821,0.98547709\C,-7.04629367,-2.80857926,0.89869943\C,-9.6
 4368079,-2.11525739,0.99674747\C,-10.85059828,-2.80864371,0.94152996\C
 ,-10.16908786,1.19406663,1.34008949\N,-11.16975048,1.78137459,1.421454
 82\C,-7.71789837,1.16745249,1.32111058\N,-6.69598531,1.71879147,1.3833
 0776\C,-5.81276359,-2.10941258,0.9486892\N,-4.80670698,-1.52900072,0.9
 8665848\C,-7.0310879,-4.21860608,0.73688732\N,-7.02511975,-5.3731399,0
 .60118874\C,-10.83862236,-4.22327222,0.83862858\N,-10.79341792,-5.3814
 4278,0.75992406\C,-12.07980047,-2.1026155,0.99028826\N,-13.07294034,-1
 .50010145,1.02635149\\Version=ES64L-G16RevC.01\HF=-785.0326628\RMSD=9.
 337e-09\RMSF=6.145e-03\Dipole=-0.0778352,-0.0134023,-0.0029007\Quadrup
 ole=-393.2791989,154.2688252,239.0103737,-108.3182323,66.3725797,5.375
 432\PG=C01 [X(C12N6)]\\@
 The archive entry for this job was punched.


 IN THE FIGHT BETWEEN YOU AND THE WORLD, BACK THE WORLD

                                        -- FRANZ KAFKA
 Job cpu time:       0 days  0 hours  8 minutes 12.6 seconds.
 Elapsed time:       0 days  0 hours  0 minutes 18.9 seconds.
 File lengths (MBytes):  RWF=    147 Int=      0 D2E=      0 Chk=      8 Scr=      1
 Normal termination of Gaussian 16 at Fri Oct 11 16:10:24 2024.
