 Entering Gaussian System, Link 0=g16
 Input=JOBS/47_B.gjf
 Output=JOBS/47_B.log
 Initial command:
 /data/app/gaussian/C01-avx2//g16/l1.exe "/tmp/Gau-2557852.inp" -scrdir="/tmp/"
 Entering Link 1 = /data/app/gaussian/C01-avx2//g16/l1.exe PID=   2557853.
  
 Copyright (c) 1988-2019, Gaussian, Inc.  All Rights Reserved.
  
 This is part of the Gaussian(R) 16 program.  It is based on
 the Gaussian(R) 09 system (copyright 2009, Gaussian, Inc.),
 the Gaussian(R) 03 system (copyright 2003, Gaussian, Inc.),
 the Gaussian(R) 98 system (copyright 1998, Gaussian, Inc.),
 the Gaussian(R) 94 system (copyright 1995, Gaussian, Inc.),
 the Gaussian 92(TM) system (copyright 1992, Gaussian, Inc.),
 the Gaussian 90(TM) system (copyright 1990, Gaussian, Inc.),
 the Gaussian 88(TM) system (copyright 1988, Gaussian, Inc.),
 the Gaussian 86(TM) system (copyright 1986, Carnegie Mellon
 University), and the Gaussian 82(TM) system (copyright 1983,
 Carnegie Mellon University). Gaussian is a federally registered
 trademark of Gaussian, Inc.
  
 This software contains proprietary and confidential information,
 including trade secrets, belonging to Gaussian, Inc.
  
 This software is provided under written license and may be
 used, copied, transmitted, or stored only in accord with that
 written license.
  
 The following legend is applicable only to US Government
 contracts under FAR:
  
                    RESTRICTED RIGHTS LEGEND
  
 Use, reproduction and disclosure by the US Government is
 subject to restrictions as set forth in subparagraphs (a)
 and (c) of the Commercial Computer Software - Restricted
 Rights clause in FAR 52.227-19.
  
 Gaussian, Inc.
 340 Quinnipiac St., Bldg. 40, Wallingford CT 06492
  
  
 ---------------------------------------------------------------
 Warning -- This program may not be used in any manner that
 competes with the business of Gaussian, Inc. or will provide
 assistance to any competitor of Gaussian, Inc.  The licensee
 of this program is prohibited from giving any competitor of
 Gaussian, Inc. access to this program.  By using this program,
 the user acknowledges that Gaussian, Inc. is engaged in the
 business of creating and licensing software in the field of
 computational chemistry and represents and warrants to the
 licensee that it is not a competitor of Gaussian, Inc. and that
 it will not use this program in any manner prohibited above.
 ---------------------------------------------------------------
  

 Cite this work as:
 Gaussian 16, Revision C.01,
 M. J. Frisch, G. W. Trucks, H. B. Schlegel, G. E. Scuseria, 
 M. A. Robb, J. R. Cheeseman, G. Scalmani, V. Barone, 
 G. A. Petersson, H. Nakatsuji, X. Li, M. Caricato, A. V. Marenich, 
 J. Bloino, B. G. Janesko, R. Gomperts, B. Mennucci, H. P. Hratchian, 
 J. V. Ortiz, A. F. Izmaylov, J. L. Sonnenberg, D. Williams-Young, 
 F. Ding, F. Lipparini, F. Egidi, J. Goings, B. Peng, A. Petrone, 
 T. Henderson, D. Ranasinghe, V. G. Zakrzewski, J. Gao, N. Rega, 
 G. Zheng, W. Liang, M. Hada, M. Ehara, K. Toyota, R. Fukuda, 
 J. Hasegawa, M. Ishida, T. Nakajima, Y. Honda, O. Kitao, H. Nakai, 
 T. Vreven, K. Throssell, J. A. Montgomery, Jr., J. E. Peralta, 
 F. Ogliaro, M. J. Bearpark, J. J. Heyd, E. N. Brothers, K. N. Kudin, 
 V. N. Staroverov, T. A. Keith, R. Kobayashi, J. Normand, 
 K. Raghavachari, A. P. Rendell, J. C. Burant, S. S. Iyengar, 
 J. Tomasi, M. Cossi, J. M. Millam, M. Klene, C. Adamo, R. Cammi, 
 J. W. Ochterski, R. L. Martin, K. Morokuma, O. Farkas, 
 J. B. Foresman, and D. J. Fox, Gaussian, Inc., Wallingford CT, 2019.
 
 ******************************************
 Gaussian 16:  ES64L-G16RevC.01  3-Jul-2019
                11-Oct-2024 
 ******************************************
 %chk=b.chk
 %nprocshared=28
 Will use up to   28 processors via shared memory.
 %mem=48gb
 ----------------------------------------------------------------------
 # wb97xd def2svp scrf=(smd,solvent=acetonitrile) g09default scf=(xqc,m
 axcycle=64) force guess=read nosymm
 ----------------------------------------------------------------------
 1/10=7,30=1,38=1,158=3,167=1/1,3;
 2/12=2,15=1,17=6,18=5,40=1/2;
 3/5=43,7=101,11=2,25=1,27=10,30=1,70=32201,71=1,72=2,74=-58,75=-4,116=-2,158=3/1,2,3;
 4/5=1,60=-1/1;
 5/5=2,7=64,8=3,13=1,38=6,53=2,87=10/2,8;
 6/7=2,8=2,9=2,10=2,28=1,87=10/1;
 7/29=1,30=1,87=10/1,2,3,16;
 1/10=7,30=1,158=3,167=1/3;
 99//99;
 Using 2006 physical constants.
 ----------
 Title Card
 ----------
 Symbolic Z-matrix:
 Charge = -1 Multiplicity = 2
 6                    -8.95142  -0.91709   1.10589 
 6                    -8.95114   0.47093   1.24588 
 6                    -8.25359  -2.11563   0.98548 
 6                    -7.04629  -2.80858   0.8987 
 6                    -9.64368  -2.11526   0.99675 
 6                    -10.8506  -2.80864   0.94153 
 6                    -10.16909   1.19407   1.34009 
 7                    -11.16975   1.78137   1.42145 
 6                    -7.7179    1.16745   1.32111 
 7                    -6.69599   1.71879   1.38331 
 6                    -5.81276  -2.10941   0.94869 
 7                    -4.80671  -1.529     0.98666 
 6                    -7.03109  -4.21861   0.73689 
 7                    -7.02512  -5.37314   0.60119 
 6                    -10.83862  -4.22327   0.83863 
 7                    -10.79342  -5.38144   0.75992 
 6                    -12.0798  -2.10262   0.99029 
 7                    -13.07294  -1.5001    1.02635 
 

 GradGradGradGradGradGradGradGradGradGradGradGradGradGradGradGradGradGrad
 Berny optimization.
 Initialization pass.
 Trust Radius=3.00D-01 FncErr=1.00D-07 GrdErr=1.00D-07 EigMax=2.50D+02 EigMin=1.00D-04
 Number of steps in this run=      2 maximum allowed number of steps=      2.
 GradGradGradGradGradGradGradGradGradGradGradGradGradGradGradGradGradGrad

                          Input orientation:                          
 ---------------------------------------------------------------------
 Center     Atomic      Atomic             Coordinates (Angstroms)
 Number     Number       Type             X           Y           Z
 ---------------------------------------------------------------------
      1          6           0       -8.951415   -0.917088    1.105893
      2          6           0       -8.951137    0.470926    1.245879
      3          6           0       -8.253588   -2.115628    0.985477
      4          6           0       -7.046294   -2.808579    0.898699
      5          6           0       -9.643681   -2.115257    0.996747
      6          6           0      -10.850598   -2.808644    0.941530
      7          6           0      -10.169088    1.194067    1.340089
      8          7           0      -11.169750    1.781375    1.421455
      9          6           0       -7.717898    1.167452    1.321111
     10          7           0       -6.695985    1.718791    1.383308
     11          6           0       -5.812764   -2.109413    0.948689
     12          7           0       -4.806707   -1.529001    0.986658
     13          6           0       -7.031088   -4.218606    0.736887
     14          7           0       -7.025120   -5.373140    0.601189
     15          6           0      -10.838622   -4.223272    0.838629
     16          7           0      -10.793418   -5.381443    0.759924
     17          6           0      -12.079800   -2.102616    0.990288
     18          7           0      -13.072940   -1.500101    1.026351
 ---------------------------------------------------------------------
                    Distance matrix (angstroms):
                    1          2          3          4          5
     1  C    0.000000
     2  C    1.395055   0.000000
     3  C    1.392107   2.691588   0.000000
     4  C    2.692611   3.808427   1.394730   0.000000
     5  C    1.388075   2.688871   1.390139   2.690117   0.000000
     6  C    2.685497   3.802125   2.688246   3.804546   1.393012
     7  C    2.448377   1.419582   3.840439   5.095865   3.368317
     8  N    3.507462   2.582702   4.886790   6.192241   4.206305
     9  C    2.431706   1.418339   3.343386   4.054419   3.819690
    10  N    3.480199   2.581039   4.157784   4.566689   4.851625
    11  C    3.361173   4.073801   2.441109   1.418777   3.831223
    12  N    4.191332   4.609034   3.496444   2.580854   4.872383
    13  C    3.837166   5.092874   2.445162   1.419363   3.364111
    14  N    4.880752   6.186943   3.502598   2.581847   4.198467
    15  C    3.816259   5.075820   3.338582   4.048052   2.428294
    16  N    4.841810   6.154703   4.143327   4.547508   3.470727
    17  C    3.347481   4.059184   3.826238   5.083598   2.436161
    18  N    4.163316   4.574102   4.858673   6.168377   3.484123
                    6          7          8          9         10
     6  C    0.000000
     7  C    4.079828   0.000000
     8  N    4.626062   1.163132   0.000000
     9  C    5.076143   2.451407   3.507457   0.000000
    10  N    6.160653   3.512783   4.474366   1.162820   0.000000
    11  C    5.086133   5.481216   6.637698   3.808685   3.952736
    12  N    6.178037   6.024545   7.185816   3.982179   3.778208
    13  C    4.076583   6.285533   7.320992   5.461012   5.981876
    14  N    4.618090   7.318382   8.308904   6.616463   7.142516
    15  C    1.418417   5.481542   6.041946   6.247529   7.264037
    16  N    2.579834   6.630513   7.203138   7.256844   8.221368
    17  C    1.418376   3.826395   4.012415   5.461591   6.613855
    18  N    2.580365   3.973579   3.813964   5.989925   7.152220
                   11         12         13         14         15
    11  C    0.000000
    12  N    1.162097   0.000000
    13  C    2.444969   3.499176   0.000000
    14  N    3.498926   4.455036   1.162496   0.000000
    15  C    5.453418   6.607951   3.808896   3.990160   0.000000
    16  N    5.962276   7.122740   3.938000   3.771649   1.161722
    17  C    6.267179   7.295679   5.480066   6.033036   2.461851
    18  N    7.286114   8.266379   6.631594   7.194256   3.527474
                   16         17         18
    16  N    0.000000
    17  C    3.529668   0.000000
    18  N    4.509104   1.162175   0.000000
 Symmetry turned off by external request.
 Stoichiometry    C12N6(1-,2)
 Framework group  C1[X(C12N6)]
 Deg. of freedom    48
 Full point group                 C1      NOp   1
 Rotational constants (GHZ):           0.4325041           0.4263657           0.2147504
 Standard basis: def2SVP (5D, 7F)
   252 basis functions,   450 primitive gaussians,   270 cartesian basis functions
    58 alpha electrons       57 beta electrons
       nuclear repulsion energy       965.6456067664 Hartrees.
 NAtoms=   18 NActive=   18 NUniq=   18 SFac= 1.00D+00 NAtFMM=   60 NAOKFM=F Big=F
 Integral buffers will be    131072 words long.
 Raffenetti 2 integral format.
 Two-electron integral symmetry is turned off.
 Nuclear repulsion after empirical dispersion term =      965.6339266372 Hartrees.
 Force PCM accuracy= 1.00D-10.
 ------------------------------------------------------------------------------
 Polarizable Continuum Model (PCM)
 =================================
 Model                : PCM (using non-symmetric T matrix).
 Atomic radii         : SMD-Coulomb.
 Polarization charges : Total charges.
 Charge compensation  : None.
 Solution method      : On-the-fly selection.
 Cavity type          : VdW (van der Waals Surface) (Alpha=1.000).
 Cavity algorithm     : GePol (No added spheres)
                        Default sphere list used, NSphG=   18.
                        Lebedev-Laikov grids with approx.  5.0 points / Ang**2.
                        Smoothing algorithm: York/Karplus (Gamma=1.0000).
                        Polarization charges: spherical gaussians, with
                                              point-specific exponents (IZeta= 3).
                        Self-potential: point-specific (ISelfS= 7).
                        Self-field    : sphere-specific E.n sum rule (ISelfD= 2).
 1st derivatives      : Analytical E(r).r(x)/FMM algorithm (CHGder, D1EAlg=3).
                        Cavity 1st derivative terms included.
 Solvent              : Acetonitrile, Eps=  35.688000 Eps(inf)=   1.806874
 ------------------------------------------------------------------------------
 Spheres list:
 ISph  on   Nord     Re0    Alpha      Xe            Ye            Ze
    1   C      1    1.8500  1.000     -8.951415     -0.917088      1.105893
    2   C      2    1.8500  1.000     -8.951137      0.470926      1.245879
    3   C      3    1.8500  1.000     -8.253588     -2.115628      0.985477
    4   C      4    1.8500  1.000     -7.046294     -2.808579      0.898699
    5   C      5    1.8500  1.000     -9.643681     -2.115257      0.996747
    6   C      6    1.8500  1.000    -10.850598     -2.808644      0.941530
    7   C      7    1.8500  1.000    -10.169088      1.194067      1.340089
    8   N      8    1.8900  1.000    -11.169750      1.781375      1.421455
    9   C      9    1.8500  1.000     -7.717898      1.167452      1.321111
   10   N     10    1.8900  1.000     -6.695985      1.718791      1.383308
   11   C     11    1.8500  1.000     -5.812764     -2.109413      0.948689
   12   N     12    1.8900  1.000     -4.806707     -1.529001      0.986658
   13   C     13    1.8500  1.000     -7.031088     -4.218606      0.736887
   14   N     14    1.8900  1.000     -7.025120     -5.373140      0.601189
   15   C     15    1.8500  1.000    -10.838622     -4.223272      0.838629
   16   N     16    1.8900  1.000    -10.793418     -5.381443      0.759924
   17   C     17    1.8500  1.000    -12.079800     -2.102616      0.990288
   18   N     18    1.8900  1.000    -13.072940     -1.500101      1.026351
 ------------------------------------------------------------------------------
 ------------------------------------------------------------------------------
 Atomic radii for non-electrostatic terms: SMD-CDS.
 ------------------------------------------------------------------------------
 Nuclear repulsion after PCM non-electrostatic terms =      965.6426350973 Hartrees.
 One-electron integrals computed using PRISM.
   1 Symmetry operations used in ECPInt.
 ECPInt:  NShTT=    5886 NPrTT=   23670 LenC2=    5404 LenP2D=   14965.
 LDataN:  DoStor=T MaxTD1= 4 Len=   56
 NBasis=   252 RedAO= T EigKep=  1.94D-04  NBF=   252
 NBsUse=   252 1.00D-06 EigRej= -1.00D+00 NBFU=   252
 Initial guess from the checkpoint file:  "b.chk"
 B after Tr=    -0.000215   -0.000142   -0.002072
         Rot=    1.000000   -0.000046   -0.000069    0.000009 Ang=  -0.01 deg.
 Initial guess <Sx>= 0.0000 <Sy>= 0.0000 <Sz>= 0.5000 <S**2>= 0.7872 S= 0.5184
 Requested convergence on RMS density matrix=1.00D-08 within  64 cycles.
 Requested convergence on MAX density matrix=1.00D-06.
 Requested convergence on             energy=1.00D-06.
 No special actions if energy rises.
 Inv3:  Mode=1 IEnd=    19217883.
 Iteration    1 A*A^-1 deviation from unit magnitude is 3.77D-15 for   1644.
 Iteration    1 A*A^-1 deviation from orthogonality  is 3.06D-15 for   1857    308.
 Iteration    1 A^-1*A deviation from unit magnitude is 2.89D-15 for   1016.
 Iteration    1 A^-1*A deviation from orthogonality  is 2.09D-12 for   1002    975.
 Error on total polarization charges =  0.01949
 SCF Done:  E(UwB97XD) =  -784.860521412     A.U. after   14 cycles
            NFock= 14  Conv=0.49D-08     -V/T= 2.0098
 <Sx>= 0.0000 <Sy>= 0.0000 <Sz>= 0.5000 <S**2>= 0.7872 S= 0.5184
 <L.S>=  0.00000000000    
 SMD-CDS (non-electrostatic) energy       (kcal/mol) =       5.46
 (included in total energy above)
 Annihilation of the first spin contaminant:
 S**2 before annihilation     0.7872,   after     0.7511
 QCSCF skips out because SCF is already converged.

 **********************************************************************

            Population analysis using the SCF Density.

 **********************************************************************

 Alpha  occ. eigenvalues --  -14.45967 -14.45937 -14.45936 -14.45915 -14.45912
 Alpha  occ. eigenvalues --  -14.45901 -10.38259 -10.38193 -10.38146 -10.38049
 Alpha  occ. eigenvalues --  -10.38038 -10.37994 -10.36142 -10.36108 -10.36104
 Alpha  occ. eigenvalues --  -10.36080 -10.36079 -10.36070  -1.06746  -1.01960
 Alpha  occ. eigenvalues --   -1.01942  -1.01571  -1.00749  -1.00717  -1.00651
 Alpha  occ. eigenvalues --   -0.92079  -0.92049  -0.90125  -0.72269  -0.72197
 Alpha  occ. eigenvalues --   -0.68798  -0.68592  -0.68509  -0.67747  -0.55749
 Alpha  occ. eigenvalues --   -0.50903  -0.50887  -0.49791  -0.49693  -0.47622
 Alpha  occ. eigenvalues --   -0.47515  -0.47510  -0.47018  -0.46789  -0.46749
 Alpha  occ. eigenvalues --   -0.46644  -0.45179  -0.44863  -0.44834  -0.44678
 Alpha  occ. eigenvalues --   -0.44382  -0.44355  -0.42941  -0.42756  -0.42732
 Alpha  occ. eigenvalues --   -0.35262  -0.35246  -0.28017
 Alpha virt. eigenvalues --    0.04768   0.04882   0.06452   0.06844   0.06954
 Alpha virt. eigenvalues --    0.10196   0.10238   0.10541   0.10615   0.12406
 Alpha virt. eigenvalues --    0.12552   0.14494   0.19341   0.19410   0.20968
 Alpha virt. eigenvalues --    0.24847   0.25067   0.25118   0.26255   0.26316
 Alpha virt. eigenvalues --    0.27808   0.31575   0.31601   0.31612   0.33879
 Alpha virt. eigenvalues --    0.34099   0.35275   0.46475   0.46656   0.48577
 Alpha virt. eigenvalues --    0.48968   0.53218   0.53254   0.53298   0.53338
 Alpha virt. eigenvalues --    0.55029   0.55074   0.56091   0.57311   0.59459
 Alpha virt. eigenvalues --    0.60169   0.60197   0.60948   0.61131   0.62719
 Alpha virt. eigenvalues --    0.64069   0.68411   0.69640   0.69779   0.71681
 Alpha virt. eigenvalues --    0.71774   0.72765   0.72855   0.73125   0.73330
 Alpha virt. eigenvalues --    0.73415   0.73545   0.74556   0.74889   0.75757
 Alpha virt. eigenvalues --    0.79564   0.79854   0.79929   0.80953   0.81234
 Alpha virt. eigenvalues --    0.86538   0.86668   0.86933   0.87247   0.92825
 Alpha virt. eigenvalues --    0.92873   0.93061   0.93154   0.93841   0.94086
 Alpha virt. eigenvalues --    0.95857   0.98493   0.98549   0.99107   0.99350
 Alpha virt. eigenvalues --    1.00176   1.00293   1.02921   1.03275   1.03395
 Alpha virt. eigenvalues --    1.05873   1.06800   1.07487   1.07653   1.10385
 Alpha virt. eigenvalues --    1.10623   1.14886   1.16423   1.18018   1.18147
 Alpha virt. eigenvalues --    1.18936   1.22852   1.23120   1.23580   1.33313
 Alpha virt. eigenvalues --    1.36154   1.36400   1.38093   1.38235   1.41284
 Alpha virt. eigenvalues --    1.43545   1.43612   1.45617   1.45848   1.55753
 Alpha virt. eigenvalues --    1.60050   1.65868   1.68305   1.68404   1.68604
 Alpha virt. eigenvalues --    1.68768   1.68879   1.76399   1.76610   1.76721
 Alpha virt. eigenvalues --    1.77251   1.77862   1.79120   1.79185   1.79855
 Alpha virt. eigenvalues --    1.81891   1.82463   1.85227   1.92761   1.92851
 Alpha virt. eigenvalues --    1.92944   1.97782   1.99655   1.99807   2.03292
 Alpha virt. eigenvalues --    2.03597   2.06201   2.07224   2.12587   2.12733
 Alpha virt. eigenvalues --    2.17532   2.19516   2.19880   2.20041   2.26071
 Alpha virt. eigenvalues --    2.26837   2.27087   2.28772   2.33011   2.33044
 Alpha virt. eigenvalues --    2.33514   2.33575   2.33844   2.33950   2.34452
 Alpha virt. eigenvalues --    2.35422   2.35509   2.35665   2.35946   2.36128
 Alpha virt. eigenvalues --    2.37331   2.37435   2.56376   2.62041   2.62372
 Alpha virt. eigenvalues --    2.70552   2.70833   2.92708   2.94733   2.95034
 Alpha virt. eigenvalues --    2.95305   2.98495   2.98542   2.99168   3.02261
 Alpha virt. eigenvalues --    3.04758   3.04883   3.08244   3.08799   3.11638
 Alpha virt. eigenvalues --    3.11763   3.12300   3.23105   3.23377   3.28555
 Alpha virt. eigenvalues --    3.40684   3.40821   3.42416   3.53682   3.56878
 Alpha virt. eigenvalues --    3.57063   3.61537   3.61708   3.75270
  Beta  occ. eigenvalues --  -14.45773 -14.45744 -14.45743 -14.45722 -14.45719
  Beta  occ. eigenvalues --  -14.45709 -10.38296 -10.38230 -10.38182 -10.37697
  Beta  occ. eigenvalues --  -10.37686 -10.37643 -10.36235 -10.36200 -10.36196
  Beta  occ. eigenvalues --  -10.36172 -10.36171 -10.36161  -1.06353  -1.01608
  Beta  occ. eigenvalues --   -1.01590  -1.01216  -1.00418  -1.00385  -1.00319
  Beta  occ. eigenvalues --   -0.91316  -0.91283  -0.89150  -0.72137  -0.72061
  Beta  occ. eigenvalues --   -0.68583  -0.68378  -0.68247  -0.67588  -0.54982
  Beta  occ. eigenvalues --   -0.49703  -0.49602  -0.49588  -0.49554  -0.47262
  Beta  occ. eigenvalues --   -0.47155  -0.47150  -0.46658  -0.46505  -0.46467
  Beta  occ. eigenvalues --   -0.45482  -0.45076  -0.44237  -0.44211  -0.43931
  Beta  occ. eigenvalues --   -0.43895  -0.43868  -0.42795  -0.42615  -0.42591
  Beta  occ. eigenvalues --   -0.32259  -0.32230
  Beta virt. eigenvalues --   -0.10732   0.05459   0.05569   0.06564   0.06944
  Beta virt. eigenvalues --    0.07051   0.10539   0.11234   0.11272   0.11393
  Beta virt. eigenvalues --    0.12452   0.12595   0.14748   0.19536   0.19605
  Beta virt. eigenvalues --    0.22539   0.24762   0.26416   0.26445   0.26660
  Beta virt. eigenvalues --    0.26729   0.28015   0.32054   0.32114   0.32260
  Beta virt. eigenvalues --    0.33964   0.34209   0.35353   0.46597   0.46774
  Beta virt. eigenvalues --    0.48720   0.49036   0.53162   0.53172   0.53371
  Beta virt. eigenvalues --    0.53443   0.55184   0.55239   0.56240   0.57477
  Beta virt. eigenvalues --    0.59387   0.60055   0.60083   0.60962   0.61148
  Beta virt. eigenvalues --    0.62857   0.63938   0.68735   0.69803   0.69934
  Beta virt. eigenvalues --    0.71812   0.71902   0.72901   0.72998   0.73302
  Beta virt. eigenvalues --    0.73522   0.73609   0.73672   0.74691   0.75020
  Beta virt. eigenvalues --    0.75779   0.79858   0.79935   0.80534   0.81700
  Beta virt. eigenvalues --    0.81966   0.86767   0.86796   0.87060   0.87354
  Beta virt. eigenvalues --    0.93007   0.93052   0.93675   0.93749   0.94070
  Beta virt. eigenvalues --    0.94692   0.96570   0.99109   0.99138   0.99353
  Beta virt. eigenvalues --    0.99584   1.00317   1.00434   1.03057   1.03419
  Beta virt. eigenvalues --    1.03533   1.06192   1.06856   1.07809   1.07967
  Beta virt. eigenvalues --    1.10512   1.10751   1.15102   1.16758   1.18264
  Beta virt. eigenvalues --    1.18396   1.19215   1.23087   1.23329   1.24127
  Beta virt. eigenvalues --    1.33465   1.36341   1.36589   1.38650   1.38802
  Beta virt. eigenvalues --    1.42047   1.44243   1.44331   1.45702   1.45929
  Beta virt. eigenvalues --    1.55810   1.60085   1.65703   1.68086   1.68184
  Beta virt. eigenvalues --    1.68381   1.68551   1.68664   1.76554   1.76564
  Beta virt. eigenvalues --    1.76788   1.77112   1.77754   1.79017   1.79073
  Beta virt. eigenvalues --    1.80103   1.81823   1.82397   1.85136   1.92796
  Beta virt. eigenvalues --    1.92878   1.93079   1.97956   2.00248   2.00399
  Beta virt. eigenvalues --    2.03638   2.03947   2.07000   2.07379   2.13108
  Beta virt. eigenvalues --    2.13242   2.17807   2.20612   2.20846   2.21005
  Beta virt. eigenvalues --    2.26605   2.27431   2.27675   2.29262   2.33692
  Beta virt. eigenvalues --    2.33723   2.34176   2.34250   2.34533   2.34637
  Beta virt. eigenvalues --    2.35113   2.35885   2.36146   2.36177   2.36480
  Beta virt. eigenvalues --    2.36546   2.38061   2.38187   2.56839   2.62116
  Beta virt. eigenvalues --    2.62449   2.70976   2.71258   2.92800   2.94865
  Beta virt. eigenvalues --    2.95175   2.95497   2.98661   2.98706   2.99288
  Beta virt. eigenvalues --    3.02763   3.05282   3.05407   3.08403   3.08958
  Beta virt. eigenvalues --    3.12141   3.12266   3.12801   3.23349   3.23622
  Beta virt. eigenvalues --    3.28746   3.40887   3.41023   3.42608   3.53862
  Beta virt. eigenvalues --    3.57059   3.57245   3.61731   3.61902   3.75424
          Condensed to atoms (all electrons):
               1          2          3          4          5          6
     1  C    4.914360   0.541929   0.296489  -0.104398   0.297909  -0.104335
     2  C    0.541929   5.327175  -0.102772  -0.008495  -0.104772  -0.008020
     3  C    0.296489  -0.102772   4.910976   0.540940   0.296410  -0.103820
     4  C   -0.104398  -0.008495   0.540940   5.332612  -0.105081  -0.008348
     5  C    0.297909  -0.104772   0.296410  -0.105081   4.917570   0.543811
     6  C   -0.104335  -0.008020  -0.103820  -0.008348   0.543811   5.324261
     7  C    0.005693   0.390468   0.005351  -0.000500  -0.022749   0.002535
     8  N   -0.001734  -0.029152  -0.000067  -0.000001  -0.000479   0.000122
     9  C    0.009460   0.394289  -0.022559   0.002628   0.006102  -0.000474
    10  N   -0.001753  -0.028466  -0.000494   0.000144  -0.000058  -0.000001
    11  C   -0.021884   0.002593   0.007771   0.393761   0.005565  -0.000482
    12  N   -0.000463   0.000126  -0.001776  -0.028864  -0.000068  -0.000001
    13  C    0.005272  -0.000500   0.006853   0.392635  -0.022296   0.002520
    14  N   -0.000070  -0.000001  -0.001771  -0.029091  -0.000480   0.000122
    15  C    0.006466  -0.000470  -0.023695   0.002680   0.008946   0.391460
    16  N   -0.000047  -0.000001  -0.000550   0.000162  -0.001700  -0.028623
    17  C   -0.023952   0.002581   0.006049  -0.000499   0.007501   0.389931
    18  N   -0.000538   0.000147  -0.000053  -0.000001  -0.001674  -0.028792
               7          8          9         10         11         12
     1  C    0.005693  -0.001734   0.009460  -0.001753  -0.021884  -0.000463
     2  C    0.390468  -0.029152   0.394289  -0.028466   0.002593   0.000126
     3  C    0.005351  -0.000067  -0.022559  -0.000494   0.007771  -0.001776
     4  C   -0.000500  -0.000001   0.002628   0.000144   0.393761  -0.028864
     5  C   -0.022749  -0.000479   0.006102  -0.000058   0.005565  -0.000068
     6  C    0.002535   0.000122  -0.000474  -0.000001  -0.000482  -0.000001
     7  C    4.847171   0.906313  -0.053360   0.002102   0.000116   0.000002
     8  N    0.906313   6.106178   0.001876   0.000067   0.000000   0.000000
     9  C   -0.053360   0.001876   4.842933   0.906344  -0.000403   0.000085
    10  N    0.002102   0.000067   0.906344   6.108501   0.000265  -0.000760
    11  C    0.000116   0.000000  -0.000403   0.000265   4.843215   0.907777
    12  N    0.000002   0.000000   0.000085  -0.000760   0.907777   6.104824
    13  C   -0.000014  -0.000000   0.000122   0.000002  -0.053278   0.001965
    14  N   -0.000000  -0.000000   0.000000   0.000000   0.001898   0.000069
    15  C    0.000114   0.000002  -0.000014  -0.000000   0.000122   0.000000
    16  N    0.000000   0.000000  -0.000000  -0.000000   0.000002   0.000000
    17  C   -0.000439   0.000047   0.000120   0.000000  -0.000014  -0.000000
    18  N    0.000258  -0.000724   0.000002   0.000000  -0.000000  -0.000000
              13         14         15         16         17         18
     1  C    0.005272  -0.000070   0.006466  -0.000047  -0.023952  -0.000538
     2  C   -0.000500  -0.000001  -0.000470  -0.000001   0.002581   0.000147
     3  C    0.006853  -0.001771  -0.023695  -0.000550   0.006049  -0.000053
     4  C    0.392635  -0.029091   0.002680   0.000162  -0.000499  -0.000001
     5  C   -0.022296  -0.000480   0.008946  -0.001700   0.007501  -0.001674
     6  C    0.002520   0.000122   0.391460  -0.028623   0.389931  -0.028792
     7  C   -0.000014  -0.000000   0.000114   0.000000  -0.000439   0.000258
     8  N   -0.000000  -0.000000   0.000002   0.000000   0.000047  -0.000724
     9  C    0.000122   0.000000  -0.000014  -0.000000   0.000120   0.000002
    10  N    0.000002   0.000000  -0.000000  -0.000000   0.000000   0.000000
    11  C   -0.053278   0.001898   0.000122   0.000002  -0.000014  -0.000000
    12  N    0.001965   0.000069   0.000000   0.000000  -0.000000  -0.000000
    13  C    4.845126   0.907491  -0.000438   0.000335   0.000116   0.000000
    14  N    0.907491   6.104871   0.000032  -0.000766   0.000002   0.000000
    15  C   -0.000438   0.000032   4.844925   0.906695  -0.052497   0.002055
    16  N    0.000335  -0.000766   0.906695   6.107033   0.002168   0.000065
    17  C    0.000116   0.000002  -0.052497   0.002168   4.847106   0.905955
    18  N    0.000000   0.000000   0.002055   0.000065   0.905955   6.106303
          Atomic-Atomic Spin Densities.
               1          2          3          4          5          6
     1  C   -0.047586  -0.066411   0.036084  -0.005920   0.036220  -0.005934
     2  C   -0.066411   0.383235  -0.005933   0.000971  -0.005892   0.000998
     3  C    0.036084  -0.005933  -0.048145  -0.066346   0.036037  -0.005930
     4  C   -0.005920   0.000971  -0.066346   0.382912  -0.005933   0.000989
     5  C    0.036220  -0.005892   0.036037  -0.005933  -0.047516  -0.066347
     6  C   -0.005934   0.000998  -0.005930   0.000989  -0.066347   0.383158
     7  C    0.000441   0.005018  -0.000135  -0.000014   0.000384  -0.000067
     8  N    0.000495  -0.005397   0.000009  -0.000000   0.000033  -0.000025
     9  C    0.000439   0.004879   0.000374  -0.000073  -0.000160  -0.000015
    10  N    0.000542  -0.005433   0.000036  -0.000030   0.000010  -0.000000
    11  C    0.000362  -0.000070   0.000465   0.004889  -0.000147  -0.000014
    12  N    0.000033  -0.000026   0.000511  -0.005402   0.000009  -0.000000
    13  C   -0.000138  -0.000014   0.000407   0.004947   0.000370  -0.000069
    14  N    0.000009  -0.000000   0.000500  -0.005377   0.000033  -0.000025
    15  C   -0.000157  -0.000015   0.000388  -0.000075   0.000414   0.004871
    16  N    0.000010  -0.000000   0.000037  -0.000032   0.000555  -0.005453
    17  C    0.000405  -0.000072  -0.000149  -0.000015   0.000396   0.004982
    18  N    0.000036  -0.000030   0.000010  -0.000000   0.000531  -0.005458
               7          8          9         10         11         12
     1  C    0.000441   0.000495   0.000439   0.000542   0.000362   0.000033
     2  C    0.005018  -0.005397   0.004879  -0.005433  -0.000070  -0.000026
     3  C   -0.000135   0.000009   0.000374   0.000036   0.000465   0.000511
     4  C   -0.000014  -0.000000  -0.000073  -0.000030   0.004889  -0.005402
     5  C    0.000384   0.000033  -0.000160   0.000010  -0.000147   0.000009
     6  C   -0.000067  -0.000025  -0.000015  -0.000000  -0.000014  -0.000000
     7  C   -0.076692  -0.001661  -0.000303   0.000136  -0.000003   0.000000
     8  N   -0.001661   0.118841   0.000157   0.000010  -0.000000   0.000000
     9  C   -0.000303   0.000157  -0.076195  -0.001604   0.000016   0.000016
    10  N    0.000136   0.000010  -0.001604   0.118362   0.000015   0.000039
    11  C   -0.000003  -0.000000   0.000016   0.000015  -0.076022  -0.001590
    12  N    0.000000   0.000000   0.000016   0.000039  -0.001590   0.118081
    13  C    0.000000  -0.000000  -0.000003   0.000000  -0.000318   0.000151
    14  N   -0.000000   0.000000  -0.000000   0.000000   0.000155   0.000011
    15  C   -0.000003   0.000000   0.000000  -0.000000  -0.000003  -0.000000
    16  N   -0.000000   0.000000  -0.000000   0.000000   0.000000   0.000000
    17  C    0.000017   0.000015  -0.000003  -0.000000   0.000000  -0.000000
    18  N    0.000014   0.000035   0.000000   0.000000  -0.000000   0.000000
              13         14         15         16         17         18
     1  C   -0.000138   0.000009  -0.000157   0.000010   0.000405   0.000036
     2  C   -0.000014  -0.000000  -0.000015  -0.000000  -0.000072  -0.000030
     3  C    0.000407   0.000500   0.000388   0.000037  -0.000149   0.000010
     4  C    0.004947  -0.005377  -0.000075  -0.000032  -0.000015  -0.000000
     5  C    0.000370   0.000033   0.000414   0.000555   0.000396   0.000531
     6  C   -0.000069  -0.000025   0.004871  -0.005453   0.004982  -0.005458
     7  C    0.000000  -0.000000  -0.000003  -0.000000   0.000017   0.000014
     8  N   -0.000000   0.000000   0.000000   0.000000   0.000015   0.000035
     9  C   -0.000003  -0.000000   0.000000  -0.000000  -0.000003   0.000000
    10  N    0.000000   0.000000  -0.000000   0.000000  -0.000000   0.000000
    11  C   -0.000318   0.000155  -0.000003   0.000000   0.000000  -0.000000
    12  N    0.000151   0.000011  -0.000000   0.000000  -0.000000   0.000000
    13  C   -0.076251  -0.001609   0.000017   0.000015  -0.000003  -0.000000
    14  N   -0.001609   0.118207   0.000016   0.000040   0.000000   0.000000
    15  C    0.000017   0.000016  -0.075737  -0.001565  -0.000313   0.000136
    16  N    0.000015   0.000040  -0.001565   0.117491   0.000126   0.000009
    17  C   -0.000003   0.000000  -0.000313   0.000126  -0.076268  -0.001624
    18  N   -0.000000   0.000000   0.000136   0.000009  -0.001624   0.118260
 Mulliken charges and spin densities:
               1          2
     1  C    0.181598  -0.051072
     2  C   -0.376659   0.305809
     3  C    0.186719  -0.051780
     4  C   -0.380285   0.305489
     5  C    0.175541  -0.051003
     6  C   -0.371868   0.305661
     7  C   -0.083061  -0.072868
     8  N    0.017553   0.112511
     9  C   -0.087152  -0.072475
    10  N    0.014105   0.112082
    11  C   -0.087025  -0.072266
    12  N    0.017087   0.111832
    13  C   -0.085911  -0.072498
    14  N    0.017694   0.111958
    15  C   -0.086385  -0.072026
    16  N    0.015226   0.111232
    17  C   -0.084173  -0.072506
    18  N    0.016996   0.111919
 Sum of Mulliken charges =  -1.00000   1.00000
 Mulliken charges and spin densities with hydrogens summed into heavy atoms:
               1          2
     1  C    0.181598  -0.051072
     2  C   -0.376659   0.305809
     3  C    0.186719  -0.051780
     4  C   -0.380285   0.305489
     5  C    0.175541  -0.051003
     6  C   -0.371868   0.305661
     7  C   -0.083061  -0.072868
     8  N    0.017553   0.112511
     9  C   -0.087152  -0.072475
    10  N    0.014105   0.112082
    11  C   -0.087025  -0.072266
    12  N    0.017087   0.111832
    13  C   -0.085911  -0.072498
    14  N    0.017694   0.111958
    15  C   -0.086385  -0.072026
    16  N    0.015226   0.111232
    17  C   -0.084173  -0.072506
    18  N    0.016996   0.111919
 Electronic spatial extent (au):  <R**2>=          38983.7657
 Charge=             -1.0000 electrons
 Dipole moment (field-independent basis, Debye):
    X=             42.7313    Y=              8.2152    Z=             -4.9512  Tot=             43.7946
 Quadrupole moment (field-independent basis, Debye-Ang):
   XX=           -551.4786   YY=           -184.9907   ZZ=           -104.1318
   XY=            -72.3225   XZ=             44.7990   YZ=              1.1941
 Traceless Quadrupole moment (field-independent basis, Debye-Ang):
   XX=           -271.2782   YY=             95.2097   ZZ=            176.0685
   XY=            -72.3225   XZ=             44.7990   YZ=              1.1941
 Octapole moment (field-independent basis, Debye-Ang**2):
  XXX=           7973.7855  YYY=            970.2826  ZZZ=           -311.0570  XYY=           1650.3744
  XXY=            862.0397  XXZ=           -586.4648  XZZ=            931.9316  YZZ=            163.8848
  YYZ=           -160.8899  XYZ=            -11.9188
 Hexadecapole moment (field-independent basis, Debye-Ang**3):
 XXXX=        -116448.3616 YYYY=          -7790.0852 ZZZZ=           -763.5887 XXXY=         -11625.9624
 XXXZ=           8545.6513 YYYX=          -8641.6804 YYYZ=            640.6256 ZZZX=           2799.0609
 ZZZY=            359.9988 XXYY=         -16422.3966 XXZZ=          -9073.5376 YYZZ=           -973.7157
 XXYZ=            267.6717 YYXZ=           1457.3071 ZZXY=          -1463.3744
 N-N= 9.656426350973D+02 E-N=-3.766586489337D+03  KE= 7.772715707524D+02
                          Isotropic Fermi Contact Couplings
        Atom                 a.u.       MegaHertz       Gauss      10(-4) cm-1
     1  C(13)             -0.01764     -19.83526      -7.07771      -6.61633
     2  C(13)              0.05027      56.51671      20.16657      18.85195
     3  C(13)             -0.01778     -19.99295      -7.13398      -6.66893
     4  C(13)              0.05021      56.44207      20.13993      18.82705
     5  C(13)             -0.01760     -19.78851      -7.06103      -6.60074
     6  C(13)              0.05004      56.25927      20.07471      18.76607
     7  C(13)             -0.03268     -36.73680     -13.10860     -12.25408
     8  N(14)              0.02615       8.45021       3.01525       2.81869
     9  C(13)             -0.03255     -36.59154     -13.05677     -12.20563
    10  N(14)              0.02603       8.40993       3.00087       2.80525
    11  C(13)             -0.03249     -36.52102     -13.03161     -12.18210
    12  N(14)              0.02596       8.38784       2.99299       2.79788
    13  C(13)             -0.03256     -36.60369     -13.06111     -12.20968
    14  N(14)              0.02600       8.39996       2.99732       2.80193
    15  C(13)             -0.03243     -36.45672     -13.00866     -12.16065
    16  N(14)              0.02582       8.34234       2.97675       2.78270
    17  C(13)             -0.03252     -36.55735     -13.04457     -12.19422
    18  N(14)              0.02600       8.40224       2.99813       2.80269
 --------------------------------------------------------
       Center         ----  Spin Dipole Couplings  ----
                      3XX-RR        3YY-RR        3ZZ-RR
 --------------------------------------------------------
     1   Atom        0.000822      0.023315     -0.024137
     2   Atom       -0.159866     -0.156656      0.316522
     3   Atom        0.018456      0.006486     -0.024942
     4   Atom       -0.161408     -0.154493      0.315901
     5   Atom        0.017933      0.005955     -0.023888
     6   Atom       -0.161600     -0.157688      0.319289
     7   Atom        0.037065      0.009390     -0.046454
     8   Atom       -0.112921     -0.092219      0.205140
     9   Atom        0.038271      0.008003     -0.046274
    10   Atom       -0.113725     -0.090734      0.204459
    11   Atom        0.035709      0.010576     -0.046285
    12   Atom       -0.112725     -0.091700      0.204425
    13   Atom       -0.002719      0.048433     -0.045714
    14   Atom       -0.086279     -0.117065      0.203344
    15   Atom       -0.002694      0.048797     -0.046104
    16   Atom       -0.085836     -0.119582      0.205418
    17   Atom        0.035173      0.011420     -0.046593
    18   Atom       -0.112294     -0.094428      0.206722
 --------------------------------------------------------
                        XY            XZ            YZ
 --------------------------------------------------------
     1   Atom        0.000257     -0.002574      0.003953
     2   Atom       -0.000239      0.002970     -0.051884
     3   Atom       -0.009990      0.000098      0.003810
     4   Atom        0.000202      0.008316     -0.052571
     5   Atom        0.009928      0.000263      0.004041
     6   Atom       -0.000915     -0.000690     -0.035684
     7   Atom       -0.022374     -0.003434      0.006322
     8   Atom        0.014952      0.007936     -0.034035
     9   Atom        0.021568      0.002299      0.006113
    10   Atom       -0.014835     -0.002072     -0.033747
    11   Atom        0.023174      0.000665      0.005708
    12   Atom       -0.015999      0.006254     -0.031584
    13   Atom        0.000728     -0.000445      0.010786
    14   Atom       -0.000149      0.003857     -0.039181
    15   Atom       -0.002289      0.000052      0.006842
    16   Atom        0.001381     -0.001296     -0.021516
    17   Atom       -0.023432     -0.001455      0.004077
    18   Atom        0.015858     -0.001280     -0.020473
 --------------------------------------------------------


 ---------------------------------------------------------------------------------
              Anisotropic Spin Dipole Couplings in Principal Axis System
 ---------------------------------------------------------------------------------

       Atom             a.u.   MegaHertz   Gauss  10(-4) cm-1        Axes

              Baa    -0.0247    -3.318    -1.184    -1.107  0.1007 -0.0821  0.9915
     1 C(13)  Bbb     0.0011     0.145     0.052     0.049  0.9949  0.0064 -0.1006
              Bcc     0.0236     3.173     1.132     1.058  0.0019  0.9966  0.0824
 
              Baa    -0.1623   -21.777    -7.770    -7.264 -0.0343  0.9936  0.1079
     2 C(13)  Bbb    -0.1599   -21.455    -7.656    -7.156  0.9994  0.0348 -0.0024
              Bcc     0.3222    43.231    15.426    14.420  0.0062 -0.1077  0.9942
 
              Baa    -0.0254    -3.413    -1.218    -1.139 -0.0314 -0.1281  0.9913
     3 C(13)  Bbb     0.0013     0.168     0.060     0.056  0.4976  0.8581  0.1267
              Bcc     0.0242     3.245     1.158     1.082  0.8668 -0.4973 -0.0368
 
              Baa    -0.1622   -21.766    -7.767    -7.260  0.8630 -0.5003 -0.0700
     4 C(13)  Bbb    -0.1596   -21.423    -7.644    -7.146  0.5048  0.8589  0.0861
              Bcc     0.3218    43.189    15.411    14.406  0.0171 -0.1097  0.9938
 
              Baa    -0.0245    -3.281    -1.171    -1.095  0.0267 -0.1402  0.9898
     5 C(13)  Bbb     0.0008     0.109     0.039     0.036 -0.4986  0.8563  0.1348
              Bcc     0.0236     3.173     1.132     1.058  0.8664  0.4971  0.0471
 
              Baa    -0.1621   -21.755    -7.763    -7.257  0.8794  0.4747  0.0364
     6 C(13)  Bbb    -0.1598   -21.447    -7.653    -7.154 -0.4761  0.8770  0.0646
              Bcc     0.3219    43.202    15.415    14.411 -0.0013 -0.0742  0.9972
 
              Baa    -0.0472    -6.330    -2.259    -2.112  0.0123 -0.1063  0.9943
     7 C(13)  Bbb    -0.0027    -0.368    -0.131    -0.123  0.4938  0.8653  0.0864
              Bcc     0.0499     6.699     2.390     2.234  0.8695 -0.4899 -0.0631
 
              Baa    -0.1224    -4.722    -1.685    -1.575  0.8585 -0.5075 -0.0735
     8 N(14)  Bbb    -0.0867    -3.342    -1.193    -1.115  0.5125  0.8544  0.0857
              Bcc     0.2091     8.065     2.878     2.690  0.0193 -0.1113  0.9936
 
              Baa    -0.0470    -6.301    -2.248    -2.102  0.0013 -0.1111  0.9938
     9 C(13)  Bbb    -0.0028    -0.373    -0.133    -0.124 -0.4672  0.8786  0.0988
              Bcc     0.0497     6.673     2.381     2.226  0.8842  0.4644  0.0507
 
              Baa    -0.1219    -4.702    -1.678    -1.568  0.8773  0.4768  0.0549
    10 N(14)  Bbb    -0.0864    -3.330    -1.188    -1.111 -0.4799  0.8719  0.0978
              Bcc     0.2083     8.032     2.866     2.679 -0.0012 -0.1121  0.9937
 
              Baa    -0.0469    -6.292    -2.245    -2.099  0.0222 -0.1077  0.9939
    11 C(13)  Bbb    -0.0027    -0.368    -0.131    -0.123 -0.5147  0.8511  0.1037
              Bcc     0.0496     6.660     2.376     2.222  0.8571  0.5139  0.0365
 
              Baa    -0.1217    -4.692    -1.674    -1.565  0.8675  0.4965  0.0315
    12 N(14)  Bbb    -0.0863    -3.328    -1.188    -1.110 -0.4969  0.8615  0.1043
              Bcc     0.2080     8.020     2.862     2.675  0.0247 -0.1061  0.9940
 
              Baa    -0.0469    -6.299    -2.248    -2.101  0.0118 -0.1125  0.9936
    13 C(13)  Bbb    -0.0027    -0.365    -0.130    -0.122  0.9998 -0.0114 -0.0132
              Bcc     0.0497     6.664     2.378     2.223  0.0129  0.9936  0.1123
 
              Baa    -0.1218    -4.697    -1.676    -1.567 -0.0088  0.9928  0.1197
    14 N(14)  Bbb    -0.0863    -3.329    -1.188    -1.111  0.9999  0.0103 -0.0119
              Bcc     0.2081     8.027     2.864     2.677  0.0131 -0.1196  0.9927
 
              Baa    -0.0466    -6.253    -2.231    -2.086 -0.0049 -0.0717  0.9974
    15 C(13)  Bbb    -0.0028    -0.375    -0.134    -0.125  0.9990  0.0433  0.0080
              Bcc     0.0494     6.627     2.365     2.211 -0.0437  0.9965  0.0714
 
              Baa    -0.1210    -4.669    -1.666    -1.557 -0.0367  0.9972  0.0656
    16 N(14)  Bbb    -0.0858    -3.309    -1.181    -1.104  0.9993  0.0363  0.0071
              Bcc     0.2068     7.977     2.847     2.661 -0.0047 -0.0658  0.9978
 
              Baa    -0.0469    -6.291    -2.245    -2.098 -0.0025 -0.0708  0.9975
    17 C(13)  Bbb    -0.0028    -0.377    -0.134    -0.126  0.5258  0.8484  0.0615
              Bcc     0.0497     6.667     2.379     2.224  0.8506 -0.5246 -0.0351
 
              Baa    -0.1218    -4.699    -1.677    -1.567  0.8556 -0.5168 -0.0289
    18 N(14)  Bbb    -0.0863    -3.328    -1.188    -1.110  0.5175  0.8534  0.0619
              Bcc     0.2081     8.027     2.864     2.677 -0.0073 -0.0679  0.9977
 

 ---------------------------------------------------------------------------------

   1 Symmetry operations used in ECPInt.
 ECPInt:  NShTT=    5886 NPrTT=   23670 LenC2=    5404 LenP2D=   14965.
 LDataN:  DoStor=T MaxTD1= 5 Len=  102
 D1PCM: PCM CHGder 1st derivatives, ID1Alg=3 FixD1E=F DoIter=F DoCFld=F I1PDM=0.
 Calling FoFJK, ICntrl=      2127 FMM=F ISym2X=0 I1Cent= 0 IOpClX= 1 NMat=1 NMatS=1 NMatT=0.
 -------------------------------------------------------------------
 Center     Atomic                   Forces (Hartrees/Bohr)
 Number     Number              X              Y              Z
 -------------------------------------------------------------------
      1        6           0.000592861    0.022596576    0.002211130
      2        6           0.000299041   -0.015000489   -0.001042225
      3        6           0.018804934   -0.010347810   -0.001286719
      4        6          -0.012718733    0.007445290    0.000593701
      5        6          -0.019045942   -0.010987125   -0.000950158
      6        6           0.012592581    0.006556314    0.000553341
      7        6          -0.008718724    0.004527388    0.000694928
      8        7           0.006233070   -0.004132271   -0.000695272
      9        6           0.009287171    0.004977751    0.000468762
     10        7          -0.005754560   -0.003093877   -0.000403890
     11        6           0.007194294    0.004806097    0.000225438
     12        7          -0.004435234   -0.002239993   -0.000013564
     13        6          -0.000757541   -0.008956635   -0.000842347
     14        7          -0.000364692    0.005893457    0.000733288
     15        6           0.000032481   -0.007685564   -0.000649934
     16        7          -0.000433684    0.003991519    0.000159365
     17        6          -0.007143706    0.004410571    0.000298724
     18        7           0.004336384   -0.002761199   -0.000054570
 -------------------------------------------------------------------
 Cartesian Forces:  Max     0.022596576 RMS     0.007207033

 GradGradGradGradGradGradGradGradGradGradGradGradGradGradGradGradGradGrad
 Berny optimization.
 Search for a local minimum.
 Step number   1 out of a maximum of    2
 All quantities printed in internal units (Hartrees-Bohrs-Radians)
 Second derivative matrix not updated -- first step.
 ITU=  0
     Eigenvalues ---    0.00128   0.00146   0.00198   0.00300   0.00301
     Eigenvalues ---    0.00817   0.01536   0.01723   0.01986   0.02015
     Eigenvalues ---    0.03002   0.04121   0.05332   0.05356   0.10296
     Eigenvalues ---    0.15161   0.21341   0.21553   0.24395   0.24727
     Eigenvalues ---    0.25072   0.25754   0.25982   0.30100   0.30239
     Eigenvalues ---    0.36060   0.41815   0.48413   0.79351   0.79982
     Eigenvalues ---    0.81968   0.99774   1.00843   1.04661   1.05137
     Eigenvalues ---    1.12249   1.60060   1.60509   2.06446   2.77923
     Eigenvalues ---    2.78835   2.79140   2.83260   2.84016   2.84696
     Eigenvalues ---   38.70461  66.73787 101.83662
 Angle between quadratic step and forces=  78.89 degrees.
 Linear search not attempted -- first point.
 B after Tr=    -0.000208    0.000035   -0.000009
         Rot=    1.000000    0.000005    0.000002   -0.000002 Ang=   0.00 deg.
 Variable       Old X    -DE/DX   Delta X   Delta X   Delta X     New X
                                 (Linear)    (Quad)   (Total)
    X1      -16.91572   0.00059   0.00000   0.00932   0.00912 -16.90661
    Y1       -1.73305   0.02260   0.00000   0.00740   0.00739  -1.72566
    Z1        2.08984   0.00221   0.00000   0.00573   0.00568   2.09552
    X2      -16.91520   0.00030   0.00000   0.01433   0.01411 -16.90109
    Y2        0.88992  -0.01500   0.00000  -0.02018  -0.02019   0.86973
    Z2        2.35437  -0.00104   0.00000   0.00555   0.00548   2.35985
    X3      -15.59702   0.01880   0.00000   0.01143   0.01124 -15.58578
    Y3       -3.99796  -0.01035   0.00000  -0.00129  -0.00131  -3.99926
    Z3        1.86228  -0.00129   0.00000  -0.00108  -0.00110   1.86118
    X4      -13.31557  -0.01272   0.00000  -0.01196  -0.01215 -13.32771
    Y4       -5.30745   0.00745   0.00000   0.01479   0.01478  -5.29266
    Z4        1.69830   0.00059   0.00000  -0.00260  -0.00260   1.69570
    X5      -18.22392  -0.01905   0.00000  -0.00084  -0.00104 -18.22495
    Y5       -3.99726  -0.01099   0.00000  -0.00383  -0.00386  -4.00111
    Z5        1.88358  -0.00095   0.00000   0.00125   0.00122   1.88479
    X6      -20.50466   0.01259   0.00000   0.01918   0.01899 -20.48567
    Y6       -5.30757   0.00656   0.00000   0.00595   0.00592  -5.30165
    Z6        1.77923   0.00055   0.00000   0.00069   0.00066   1.77990
    X7      -19.21679  -0.00872   0.00000  -0.00017  -0.00040 -19.21719
    Y7        2.25646   0.00453   0.00000  -0.03096  -0.03098   2.22548
    Z7        2.53240   0.00069   0.00000  -0.01650  -0.01660   2.51580
    X8      -21.10777   0.00623   0.00000  -0.00709  -0.00732 -21.11509
    Y8        3.36631  -0.00413   0.00000  -0.05155  -0.05158   3.31473
    Z8        2.68616  -0.00070   0.00000  -0.03814  -0.03826   2.64791
    X9      -14.58471   0.00929   0.00000   0.01985   0.01962 -14.56509
    Y9        2.20617   0.00498   0.00000  -0.01049  -0.01049   2.19567
    Z9        2.49654   0.00047   0.00000   0.00197   0.00189   2.49842
   X10      -12.65358  -0.00575   0.00000   0.01308   0.01284 -12.64073
   Y10        3.24805  -0.00309   0.00000  -0.00850  -0.00850   3.23955
   Z10        2.61407  -0.00040   0.00000  -0.00150  -0.00158   2.61249
   X11      -10.98453   0.00719   0.00000  -0.00921  -0.00941 -10.99394
   Y11       -3.98621   0.00481   0.00000   0.02747   0.02748  -3.95873
   Z11        1.79276   0.00023   0.00000  -0.00346  -0.00347   1.78929
   X12       -9.08336  -0.00444   0.00000  -0.01922  -0.01942  -9.10278
   Y12       -2.88939  -0.00224   0.00000   0.03689   0.03690  -2.85249
   Z12        1.86451  -0.00001   0.00000  -0.00229  -0.00230   1.86221
   X13      -13.28683  -0.00076   0.00000  -0.02639  -0.02657 -13.31340
   Y13       -7.97201  -0.00896   0.00000   0.00497   0.00496  -7.96705
   Z13        1.39252  -0.00084   0.00000   0.01888   0.01890   1.41142
   X14      -13.27555  -0.00036   0.00000  -0.04466  -0.04483 -13.32038
   Y14      -10.15376   0.00589   0.00000   0.00721   0.00720 -10.14656
   Z14        1.13608   0.00073   0.00000   0.03936   0.03941   1.17549
   X15      -20.48203   0.00003   0.00000   0.00873   0.00855 -20.47348
   Y15       -7.98083  -0.00769   0.00000  -0.00045  -0.00048  -7.98131
   Z15        1.58478  -0.00065   0.00000  -0.03249  -0.03249   1.55229
   X16      -20.39660  -0.00043   0.00000  -0.00541  -0.00558 -20.40218
   Y16      -10.16945   0.00399   0.00000   0.00406   0.00402 -10.16543
   Z16        1.43605   0.00016   0.00000  -0.06021  -0.06019   1.37586
   X17      -22.82751  -0.00714   0.00000   0.01441   0.01422 -22.81330
   Y17       -3.97337   0.00441   0.00000   0.01094   0.01090  -3.96247
   Z17        1.87137   0.00030   0.00000   0.03038   0.03034   1.90171
   X18      -24.70428   0.00434   0.00000   0.01821   0.01801 -24.68627
   Y18       -2.83478  -0.00276   0.00000   0.00788   0.00783  -2.82695
   Z18        1.93952  -0.00005   0.00000   0.05508   0.05502   1.99454
         Item               Value     Threshold  Converged?
 Maximum Force            0.022597     0.000450     NO 
 RMS     Force            0.007207     0.000300     NO 
 Maximum Displacement     0.060187     0.001800     NO 
 RMS     Displacement     0.021356     0.001200     NO 
 Predicted change in Energy=-8.010552D-04
 GradGradGradGradGradGradGradGradGradGradGradGradGradGradGradGradGradGrad

 Unable to Open any file for archive entry.
 1\1\GINC-X10P1N4\Force\UwB97XD\def2SVP\C12N6(1-,2)\MAYUMIAO\11-Oct-202
 4\0\\# wb97xd def2svp scrf=(smd,solvent=acetonitrile) g09default scf=(
 xqc,maxcycle=64) force guess=read nosymm\\Title Card\\-1,2\C,-8.951415
 49,-0.91708849,1.10589345\C,-8.95113662,0.47092567,1.24587875\C,-8.253
 58778,-2.11562821,0.98547709\C,-7.04629367,-2.80857926,0.89869943\C,-9
 .64368079,-2.11525739,0.99674747\C,-10.85059828,-2.80864371,0.94152996
 \C,-10.16908786,1.19406663,1.34008949\N,-11.16975048,1.78137459,1.4214
 5482\C,-7.71789837,1.16745249,1.32111058\N,-6.69598531,1.71879147,1.38
 330776\C,-5.81276359,-2.10941258,0.9486892\N,-4.80670698,-1.52900072,0
 .98665848\C,-7.0310879,-4.21860608,0.73688732\N,-7.02511975,-5.3731399
 ,0.60118874\C,-10.83862236,-4.22327222,0.83862858\N,-10.79341792,-5.38
 144278,0.75992406\C,-12.07980047,-2.1026155,0.99028826\N,-13.07294034,
 -1.50010145,1.02635149\\Version=ES64L-G16RevC.01\HF=-784.8605214\S2=0.
 787186\S2-1=0.\S2A=0.751137\RMSD=4.851e-09\RMSF=7.207e-03\Dipole=-0.08
 00796,-0.0086825,-0.0026541\Quadrupole=-201.6886972,70.7860491,130.902
 6481,-53.7700164,33.306929,0.88779\PG=C01 [X(C12N6)]\\@
 The archive entry for this job was punched.


 ALL THINGS ARE POSSIBLE EXCEPT SKIING THROUGH A REVOLVING DOOR.
 Job cpu time:       0 days  0 hours 11 minutes 25.3 seconds.
 Elapsed time:       0 days  0 hours  0 minutes 25.8 seconds.
 File lengths (MBytes):  RWF=    173 Int=      0 D2E=      0 Chk=      9 Scr=      1
 Normal termination of Gaussian 16 at Fri Oct 11 16:10:05 2024.
