 Entering Gaussian System, Link 0=g16
 Input=JOBS/48_A.gjf
 Output=JOBS/48_A.log
 Initial command:
 /data/app/gaussian/C01-avx2//g16/l1.exe "/tmp/Gau-2559238.inp" -scrdir="/tmp/"
 Entering Link 1 = /data/app/gaussian/C01-avx2//g16/l1.exe PID=   2559239.
  
 Copyright (c) 1988-2019, Gaussian, Inc.  All Rights Reserved.
  
 This is part of the Gaussian(R) 16 program.  It is based on
 the Gaussian(R) 09 system (copyright 2009, Gaussian, Inc.),
 the Gaussian(R) 03 system (copyright 2003, Gaussian, Inc.),
 the Gaussian(R) 98 system (copyright 1998, Gaussian, Inc.),
 the Gaussian(R) 94 system (copyright 1995, Gaussian, Inc.),
 the Gaussian 92(TM) system (copyright 1992, Gaussian, Inc.),
 the Gaussian 90(TM) system (copyright 1990, Gaussian, Inc.),
 the Gaussian 88(TM) system (copyright 1988, Gaussian, Inc.),
 the Gaussian 86(TM) system (copyright 1986, Carnegie Mellon
 University), and the Gaussian 82(TM) system (copyright 1983,
 Carnegie Mellon University). Gaussian is a federally registered
 trademark of Gaussian, Inc.
  
 This software contains proprietary and confidential information,
 including trade secrets, belonging to Gaussian, Inc.
  
 This software is provided under written license and may be
 used, copied, transmitted, or stored only in accord with that
 written license.
  
 The following legend is applicable only to US Government
 contracts under FAR:
  
                    RESTRICTED RIGHTS LEGEND
  
 Use, reproduction and disclosure by the US Government is
 subject to restrictions as set forth in subparagraphs (a)
 and (c) of the Commercial Computer Software - Restricted
 Rights clause in FAR 52.227-19.
  
 Gaussian, Inc.
 340 Quinnipiac St., Bldg. 40, Wallingford CT 06492
  
  
 ---------------------------------------------------------------
 Warning -- This program may not be used in any manner that
 competes with the business of Gaussian, Inc. or will provide
 assistance to any competitor of Gaussian, Inc.  The licensee
 of this program is prohibited from giving any competitor of
 Gaussian, Inc. access to this program.  By using this program,
 the user acknowledges that Gaussian, Inc. is engaged in the
 business of creating and licensing software in the field of
 computational chemistry and represents and warrants to the
 licensee that it is not a competitor of Gaussian, Inc. and that
 it will not use this program in any manner prohibited above.
 ---------------------------------------------------------------
  

 Cite this work as:
 Gaussian 16, Revision C.01,
 M. J. Frisch, G. W. Trucks, H. B. Schlegel, G. E. Scuseria, 
 M. A. Robb, J. R. Cheeseman, G. Scalmani, V. Barone, 
 G. A. Petersson, H. Nakatsuji, X. Li, M. Caricato, A. V. Marenich, 
 J. Bloino, B. G. Janesko, R. Gomperts, B. Mennucci, H. P. Hratchian, 
 J. V. Ortiz, A. F. Izmaylov, J. L. Sonnenberg, D. Williams-Young, 
 F. Ding, F. Lipparini, F. Egidi, J. Goings, B. Peng, A. Petrone, 
 T. Henderson, D. Ranasinghe, V. G. Zakrzewski, J. Gao, N. Rega, 
 G. Zheng, W. Liang, M. Hada, M. Ehara, K. Toyota, R. Fukuda, 
 J. Hasegawa, M. Ishida, T. Nakajima, Y. Honda, O. Kitao, H. Nakai, 
 T. Vreven, K. Throssell, J. A. Montgomery, Jr., J. E. Peralta, 
 F. Ogliaro, M. J. Bearpark, J. J. Heyd, E. N. Brothers, K. N. Kudin, 
 V. N. Staroverov, T. A. Keith, R. Kobayashi, J. Normand, 
 K. Raghavachari, A. P. Rendell, J. C. Burant, S. S. Iyengar, 
 J. Tomasi, M. Cossi, J. M. Millam, M. Klene, C. Adamo, R. Cammi, 
 J. W. Ochterski, R. L. Martin, K. Morokuma, O. Farkas, 
 J. B. Foresman, and D. J. Fox, Gaussian, Inc., Wallingford CT, 2019.
 
 ******************************************
 Gaussian 16:  ES64L-G16RevC.01  3-Jul-2019
                11-Oct-2024 
 ******************************************
 %chk=a.chk
 %nprocshared=28
 Will use up to   28 processors via shared memory.
 %mem=48gb
 ----------------------------------------------------------------------
 # wb97xd def2svp scrf=(smd,solvent=acetonitrile) g09default scf=(xqc,m
 axcycle=64) force guess=read nosymm
 ----------------------------------------------------------------------
 1/10=7,30=1,38=1,158=3,167=1/1,3;
 2/12=2,15=1,17=6,18=5,40=1/2;
 3/5=43,7=101,11=2,25=1,27=10,30=1,70=32201,71=1,72=2,74=-58,75=-4,116=-2,158=3/1,2,3;
 4/5=1,60=-1/1;
 5/5=2,7=64,8=3,13=1,38=6,53=2,87=10/2,8;
 6/7=2,8=2,9=2,10=2,28=1,87=10/1;
 7/29=1,30=1,87=10/1,2,3,16;
 1/10=7,30=1,158=3,167=1/3;
 99//99;
 Using 2006 physical constants.
 ----------
 Title Card
 ----------
 Symbolic Z-matrix:
 Charge = -2 Multiplicity = 1
 6                    -8.95052  -0.91626   1.10611 
 6                    -8.95073   0.47093   1.2461 
 6                    -8.25335  -2.11513   0.98523 
 6                    -7.04624  -2.8085    0.89867 
 6                    -9.64385  -2.11533   0.99676 
 6                    -10.85062  -2.80909   0.94145 
 6                    -10.1693   1.19365   1.34009 
 7                    -11.16952   1.78003   1.42104 
 6                    -7.71765   1.16884   1.32099 
 7                    -6.69576   1.71859   1.38314 
 6                    -5.81208  -2.10946   0.94862 
 7                    -4.80663  -1.52812   0.98703 
 6                    -7.03141  -4.21887   0.73727 
 7                    -7.02562  -5.3731    0.60158 
 6                    -10.83937  -4.22346   0.83832 
 7                    -10.79393  -5.38205   0.7593 
 6                    -12.0803  -2.10294   0.99028 
 7                    -13.07302  -1.4999    1.02684 
 

 GradGradGradGradGradGradGradGradGradGradGradGradGradGradGradGradGradGrad
 Berny optimization.
 Initialization pass.
 Trust Radius=3.00D-01 FncErr=1.00D-07 GrdErr=1.00D-07 EigMax=2.50D+02 EigMin=1.00D-04
 Number of steps in this run=      2 maximum allowed number of steps=      2.
 GradGradGradGradGradGradGradGradGradGradGradGradGradGradGradGradGradGrad

                          Input orientation:                          
 ---------------------------------------------------------------------
 Center     Atomic      Atomic             Coordinates (Angstroms)
 Number     Number       Type             X           Y           Z
 ---------------------------------------------------------------------
      1          6           0       -8.950524   -0.916259    1.106109
      2          6           0       -8.950732    0.470931    1.246098
      3          6           0       -8.253347   -2.115134    0.985225
      4          6           0       -7.046238   -2.808498    0.898674
      5          6           0       -9.643853   -2.115331    0.996758
      6          6           0      -10.850617   -2.809090    0.941452
      7          6           0      -10.169299    1.193645    1.340087
      8          7           0      -11.169520    1.780031    1.421040
      9          6           0       -7.717647    1.168842    1.320994
     10          7           0       -6.695757    1.718594    1.383136
     11          6           0       -5.812085   -2.109463    0.948621
     12          7           0       -4.806626   -1.528115    0.987027
     13          6           0       -7.031411   -4.218875    0.737268
     14          7           0       -7.025622   -5.373099    0.601578
     15          6           0      -10.839366   -4.223463    0.838322
     16          7           0      -10.793934   -5.382053    0.759299
     17          6           0      -12.080299   -2.102942    0.990279
     18          7           0      -13.073017   -1.499899    1.026838
 ---------------------------------------------------------------------
                    Distance matrix (angstroms):
                    1          2          3          4          5
     1  C    0.000000
     2  C    1.394236   0.000000
     3  C    1.392110   2.691121   0.000000
     4  C    2.692564   3.808209   1.394760   0.000000
     5  C    1.389401   2.689115   1.390554   2.690298   0.000000
     6  C    2.687056   3.802750   2.688737   3.804619   1.393069
     7  C    2.447827   1.419878   3.839898   5.095636   3.367981
     8  N    3.506152   2.582124   4.885315   6.191035   4.204940
     9  C    2.431833   1.418869   3.344281   4.055660   3.821151
    10  N    3.478962   2.580767   4.157149   4.566411   4.851756
    11  C    3.361300   4.074068   2.441543   1.419253   3.832075
    12  N    4.190518   4.608353   3.496351   2.581288   4.872748
    13  C    3.837487   5.092836   2.445472   1.419660   3.364087
    14  N    4.880904   6.186610   3.502689   2.581834   4.198137
    15  C    3.817987   5.076471   3.339780   4.048900   2.428698
    16  N    4.843733   6.155631   4.144682   4.548388   3.471390
    17  C    3.349197   4.060105   3.826975   5.084090   2.436487
    18  N    4.164356   4.574437   4.858957   6.168542   3.484082
                    6          7          8          9         10
     6  C    0.000000
     7  C    4.079828   0.000000
     8  N    4.625120   1.162257   0.000000
     9  C    5.077745   2.451852   3.506991   0.000000
    10  N    6.160996   3.513249   4.474345   1.162045   0.000000
    11  C    5.086879   5.481705   6.637277   3.810133   3.952683
    12  N    6.178414   6.024192   7.184609   3.982355   3.777147
    13  C    4.076213   6.285308   7.319723   5.462522   5.981918
    14  N    4.617385   7.317803   8.307266   6.617662   7.142252
    15  C    1.418172   5.481407   6.040737   6.249405   7.264596
    16  N    2.580026   6.630784   7.202390   7.259014   8.222130
    17  C    1.418854   3.826457   4.011553   5.463211   6.614512
    18  N    2.580762   3.973019   3.812694   5.990717   7.152278
                   11         12         13         14         15
    11  C    0.000000
    12  N    1.162061   0.000000
    13  C    2.445618   3.500319   0.000000
    14  N    3.499204   4.456053   1.162187   0.000000
    15  C    5.454789   6.609157   3.809298   3.990283   0.000000
    16  N    5.963599   7.124083   3.938280   3.771622   1.162171
    17  C    6.268356   7.296352   5.480187   6.032808   2.461628
    18  N    7.286893   8.266534   6.631566   7.193991   3.527397
                   16         17         18
    16  N    0.000000
    17  C    3.529965   0.000000
    18  N    4.509647   1.162104   0.000000
 Symmetry turned off by external request.
 Stoichiometry    C12N6(2-)
 Framework group  C1[X(C12N6)]
 Deg. of freedom    48
 Full point group                 C1      NOp   1
 Rotational constants (GHZ):           0.4323689           0.4264352           0.2147340
 Standard basis: def2SVP (5D, 7F)
   252 basis functions,   450 primitive gaussians,   270 cartesian basis functions
    58 alpha electrons       58 beta electrons
       nuclear repulsion energy       965.6103485855 Hartrees.
 NAtoms=   18 NActive=   18 NUniq=   18 SFac= 1.00D+00 NAtFMM=   60 NAOKFM=F Big=F
 Integral buffers will be    131072 words long.
 Raffenetti 2 integral format.
 Two-electron integral symmetry is turned off.
 Nuclear repulsion after empirical dispersion term =      965.5986691251 Hartrees.
 Force PCM accuracy= 1.00D-10.
 ------------------------------------------------------------------------------
 Polarizable Continuum Model (PCM)
 =================================
 Model                : PCM (using non-symmetric T matrix).
 Atomic radii         : SMD-Coulomb.
 Polarization charges : Total charges.
 Charge compensation  : None.
 Solution method      : On-the-fly selection.
 Cavity type          : VdW (van der Waals Surface) (Alpha=1.000).
 Cavity algorithm     : GePol (No added spheres)
                        Default sphere list used, NSphG=   18.
                        Lebedev-Laikov grids with approx.  5.0 points / Ang**2.
                        Smoothing algorithm: York/Karplus (Gamma=1.0000).
                        Polarization charges: spherical gaussians, with
                                              point-specific exponents (IZeta= 3).
                        Self-potential: point-specific (ISelfS= 7).
                        Self-field    : sphere-specific E.n sum rule (ISelfD= 2).
 1st derivatives      : Analytical E(r).r(x)/FMM algorithm (CHGder, D1EAlg=3).
                        Cavity 1st derivative terms included.
 Solvent              : Acetonitrile, Eps=  35.688000 Eps(inf)=   1.806874
 ------------------------------------------------------------------------------
 Spheres list:
 ISph  on   Nord     Re0    Alpha      Xe            Ye            Ze
    1   C      1    1.8500  1.000     -8.950524     -0.916259      1.106109
    2   C      2    1.8500  1.000     -8.950732      0.470931      1.246098
    3   C      3    1.8500  1.000     -8.253347     -2.115134      0.985225
    4   C      4    1.8500  1.000     -7.046238     -2.808498      0.898674
    5   C      5    1.8500  1.000     -9.643853     -2.115331      0.996758
    6   C      6    1.8500  1.000    -10.850617     -2.809090      0.941452
    7   C      7    1.8500  1.000    -10.169299      1.193645      1.340087
    8   N      8    1.8900  1.000    -11.169520      1.780031      1.421040
    9   C      9    1.8500  1.000     -7.717647      1.168842      1.320994
   10   N     10    1.8900  1.000     -6.695757      1.718594      1.383136
   11   C     11    1.8500  1.000     -5.812085     -2.109463      0.948621
   12   N     12    1.8900  1.000     -4.806626     -1.528115      0.987027
   13   C     13    1.8500  1.000     -7.031411     -4.218875      0.737268
   14   N     14    1.8900  1.000     -7.025622     -5.373099      0.601578
   15   C     15    1.8500  1.000    -10.839366     -4.223463      0.838322
   16   N     16    1.8900  1.000    -10.793934     -5.382053      0.759299
   17   C     17    1.8500  1.000    -12.080299     -2.102942      0.990279
   18   N     18    1.8900  1.000    -13.073017     -1.499899      1.026838
 ------------------------------------------------------------------------------
 ------------------------------------------------------------------------------
 Atomic radii for non-electrostatic terms: SMD-CDS.
 ------------------------------------------------------------------------------
 Nuclear repulsion after PCM non-electrostatic terms =      965.6073736077 Hartrees.
 One-electron integrals computed using PRISM.
   1 Symmetry operations used in ECPInt.
 ECPInt:  NShTT=    5886 NPrTT=   23670 LenC2=    5404 LenP2D=   14965.
 LDataN:  DoStor=T MaxTD1= 4 Len=   56
 NBasis=   252 RedAO= T EigKep=  1.95D-04  NBF=   252
 NBsUse=   252 1.00D-06 EigRej= -1.00D+00 NBFU=   252
 Initial guess from the checkpoint file:  "a.chk"
 B after Tr=     0.000010    0.000087    0.000343
         Rot=    1.000000    0.000004    0.000011   -0.000003 Ang=   0.00 deg.
 Requested convergence on RMS density matrix=1.00D-08 within  64 cycles.
 Requested convergence on MAX density matrix=1.00D-06.
 Requested convergence on             energy=1.00D-06.
 No special actions if energy rises.
 Inv3:  Mode=1 IEnd=    19248267.
 Iteration    1 A*A^-1 deviation from unit magnitude is 3.11D-15 for   2027.
 Iteration    1 A*A^-1 deviation from orthogonality  is 2.86D-15 for   1184     32.
 Iteration    1 A^-1*A deviation from unit magnitude is 2.89D-15 for   1004.
 Iteration    1 A^-1*A deviation from orthogonality  is 1.28D-12 for   2073   2007.
 Error on total polarization charges =  0.02151
 SCF Done:  E(RwB97XD) =  -785.032620531     A.U. after   10 cycles
            NFock= 10  Conv=0.65D-08     -V/T= 2.0097
 SMD-CDS (non-electrostatic) energy       (kcal/mol) =       5.46
 (included in total energy above)
 QCSCF skips out because SCF is already converged.

 **********************************************************************

            Population analysis using the SCF Density.

 **********************************************************************

 Alpha  occ. eigenvalues --  -14.42781 -14.42772 -14.42759 -14.42745 -14.42744
 Alpha  occ. eigenvalues --  -14.42735 -10.34993 -10.34925 -10.34884 -10.33722
 Alpha  occ. eigenvalues --  -10.33709 -10.33694 -10.33678 -10.33676 -10.33665
 Alpha  occ. eigenvalues --  -10.32731 -10.32719 -10.32685  -1.03069  -0.99102
 Alpha  occ. eigenvalues --   -0.99101  -0.98724  -0.98034  -0.98023  -0.97948
 Alpha  occ. eigenvalues --   -0.88206  -0.88172  -0.86093  -0.68792  -0.68728
 Alpha  occ. eigenvalues --   -0.65218  -0.65019  -0.64905  -0.64134  -0.52458
 Alpha  occ. eigenvalues --   -0.47695  -0.47685  -0.46785  -0.46730  -0.45185
 Alpha  occ. eigenvalues --   -0.45071  -0.45066  -0.44534  -0.44215  -0.44167
 Alpha  occ. eigenvalues --   -0.43851  -0.42826  -0.42241  -0.42225  -0.42049
 Alpha  occ. eigenvalues --   -0.41951  -0.41924  -0.40538  -0.40195  -0.40154
 Alpha  occ. eigenvalues --   -0.31476  -0.31465  -0.23629
 Alpha virt. eigenvalues --    0.07462   0.07547   0.08865   0.09297   0.09382
 Alpha virt. eigenvalues --    0.12692   0.12736   0.13120   0.13153   0.14843
 Alpha virt. eigenvalues --    0.14983   0.16311   0.21083   0.21158   0.24201
 Alpha virt. eigenvalues --    0.27547   0.28110   0.28137   0.28628   0.28669
 Alpha virt. eigenvalues --    0.29993   0.33667   0.33726   0.33925   0.36837
 Alpha virt. eigenvalues --    0.37029   0.37206   0.48957   0.49134   0.50533
 Alpha virt. eigenvalues --    0.50716   0.54917   0.54930   0.55009   0.55063
 Alpha virt. eigenvalues --    0.57468   0.57507   0.58274   0.59980   0.61118
 Alpha virt. eigenvalues --    0.61717   0.61740   0.62835   0.62993   0.64889
 Alpha virt. eigenvalues --    0.65528   0.70927   0.71732   0.71855   0.73684
 Alpha virt. eigenvalues --    0.73727   0.74443   0.74627   0.74776   0.75088
 Alpha virt. eigenvalues --    0.75162   0.75239   0.76612   0.76920   0.77797
 Alpha virt. eigenvalues --    0.82016   0.82081   0.82231   0.83421   0.83688
 Alpha virt. eigenvalues --    0.88854   0.88881   0.89403   0.89609   0.94744
 Alpha virt. eigenvalues --    0.94793   0.95118   0.95200   0.95998   0.96139
 Alpha virt. eigenvalues --    0.98105   1.00599   1.00656   1.01312   1.01589
 Alpha virt. eigenvalues --    1.02412   1.02542   1.05271   1.05470   1.05803
 Alpha virt. eigenvalues --    1.08521   1.08970   1.10213   1.10364   1.12739
 Alpha virt. eigenvalues --    1.12924   1.17521   1.18946   1.20370   1.20516
 Alpha virt. eigenvalues --    1.21157   1.25074   1.25261   1.27267   1.35243
 Alpha virt. eigenvalues --    1.38749   1.38986   1.41784   1.41916   1.45045
 Alpha virt. eigenvalues --    1.47126   1.47331   1.47815   1.47991   1.58929
 Alpha virt. eigenvalues --    1.62409   1.68384   1.70721   1.70805   1.70978
 Alpha virt. eigenvalues --    1.71151   1.71261   1.79106   1.79440   1.79647
 Alpha virt. eigenvalues --    1.79680   1.80339   1.81497   1.81553   1.82875
 Alpha virt. eigenvalues --    1.84604   1.85147   1.87655   1.95495   1.95601
 Alpha virt. eigenvalues --    1.95750   2.00372   2.03144   2.03304   2.06366
 Alpha virt. eigenvalues --    2.06650   2.09995   2.10444   2.16183   2.16306
 Alpha virt. eigenvalues --    2.21053   2.23578   2.23715   2.23855   2.29523
 Alpha virt. eigenvalues --    2.30417   2.30644   2.32124   2.35914   2.35923
 Alpha virt. eigenvalues --    2.36500   2.36560   2.36783   2.36888   2.37494
 Alpha virt. eigenvalues --    2.38490   2.38572   2.38761   2.38828   2.39196
 Alpha virt. eigenvalues --    2.40521   2.40688   2.59972   2.65166   2.65499
 Alpha virt. eigenvalues --    2.74260   2.74449   2.95389   2.97481   2.97785
 Alpha virt. eigenvalues --    2.98130   3.01264   3.01322   3.01989   3.05342
 Alpha virt. eigenvalues --    3.07961   3.08079   3.11386   3.11860   3.14802
 Alpha virt. eigenvalues --    3.14912   3.15428   3.26023   3.26310   3.31536
 Alpha virt. eigenvalues --    3.43947   3.44009   3.45275   3.56579   3.59864
 Alpha virt. eigenvalues --    3.59987   3.64649   3.64753   3.78607
          Condensed to atoms (all electrons):
               1          2          3          4          5          6
     1  C    4.963619   0.493552   0.314353  -0.116927   0.317533  -0.116480
     2  C    0.493552   5.549561  -0.115715  -0.007653  -0.117360  -0.007159
     3  C    0.314353  -0.115715   4.961960   0.492622   0.315790  -0.116158
     4  C   -0.116927  -0.007653   0.492622   5.554141  -0.117444  -0.007485
     5  C    0.317533  -0.117360   0.315790  -0.117444   4.964757   0.494506
     6  C   -0.116480  -0.007159  -0.116158  -0.007485   0.494506   5.546853
     7  C    0.011065   0.384330   0.006099  -0.000542  -0.025365   0.002928
     8  N   -0.001039  -0.044247  -0.000069  -0.000001  -0.000588   0.000144
     9  C    0.014932   0.388101  -0.025257   0.003028   0.006927  -0.000514
    10  N   -0.001024  -0.043469  -0.000616   0.000163  -0.000056  -0.000001
    11  C   -0.024487   0.003002   0.013026   0.387468   0.006299  -0.000527
    12  N   -0.000575   0.000148  -0.001076  -0.043882  -0.000069  -0.000001
    13  C    0.005959  -0.000545   0.012083   0.386550  -0.024847   0.002936
    14  N   -0.000073  -0.000002  -0.001081  -0.044159  -0.000585   0.000146
    15  C    0.007343  -0.000513  -0.026560   0.003085   0.014484   0.385466
    16  N   -0.000043  -0.000001  -0.000676   0.000180  -0.000935  -0.043935
    17  C   -0.026670   0.002982   0.006953  -0.000540   0.012978   0.383407
    18  N   -0.000658   0.000166  -0.000049  -0.000001  -0.000918  -0.044032
               7          8          9         10         11         12
     1  C    0.011065  -0.001039   0.014932  -0.001024  -0.024487  -0.000575
     2  C    0.384330  -0.044247   0.388101  -0.043469   0.003002   0.000148
     3  C    0.006099  -0.000069  -0.025257  -0.000616   0.013026  -0.001076
     4  C   -0.000542  -0.000001   0.003028   0.000163   0.387468  -0.043882
     5  C   -0.025365  -0.000588   0.006927  -0.000056   0.006299  -0.000069
     6  C    0.002928   0.000144  -0.000514  -0.000001  -0.000527  -0.000001
     7  C    4.880587   0.925812  -0.055013   0.002704   0.000136   0.000002
     8  N    0.925812   6.152852   0.002483   0.000091   0.000000   0.000000
     9  C   -0.055013   0.002483   4.876124   0.925748  -0.000508   0.000043
    10  N    0.002704   0.000091   0.925748   6.155143   0.000239  -0.000879
    11  C    0.000136   0.000000  -0.000508   0.000239   4.876616   0.926494
    12  N    0.000002   0.000000   0.000043  -0.000879   0.926494   6.153082
    13  C   -0.000017  -0.000000   0.000141   0.000003  -0.054597   0.002607
    14  N   -0.000000  -0.000000   0.000000   0.000000   0.002538   0.000093
    15  C    0.000135   0.000002  -0.000017  -0.000000   0.000142   0.000000
    16  N    0.000000   0.000000  -0.000000  -0.000000   0.000003   0.000000
    17  C   -0.000555  -0.000007   0.000140   0.000000  -0.000017  -0.000000
    18  N    0.000235  -0.000836   0.000003   0.000000  -0.000000  -0.000000
              13         14         15         16         17         18
     1  C    0.005959  -0.000073   0.007343  -0.000043  -0.026670  -0.000658
     2  C   -0.000545  -0.000002  -0.000513  -0.000001   0.002982   0.000166
     3  C    0.012083  -0.001081  -0.026560  -0.000676   0.006953  -0.000049
     4  C    0.386550  -0.044159   0.003085   0.000180  -0.000540  -0.000001
     5  C   -0.024847  -0.000585   0.014484  -0.000935   0.012978  -0.000918
     6  C    0.002936   0.000146   0.385466  -0.043935   0.383407  -0.044032
     7  C   -0.000017  -0.000000   0.000135   0.000000  -0.000555   0.000235
     8  N   -0.000000  -0.000000   0.000002   0.000000  -0.000007  -0.000836
     9  C    0.000141   0.000000  -0.000017  -0.000000   0.000140   0.000003
    10  N    0.000003   0.000000  -0.000000  -0.000000   0.000000   0.000000
    11  C   -0.054597   0.002538   0.000142   0.000003  -0.000017  -0.000000
    12  N    0.002607   0.000093   0.000000   0.000000  -0.000000  -0.000000
    13  C    4.878203   0.926430  -0.000554   0.000322   0.000136   0.000000
    14  N    0.926430   6.152752  -0.000023  -0.000885   0.000002   0.000000
    15  C   -0.000554  -0.000023   4.879124   0.924564  -0.054881   0.002609
    16  N    0.000322  -0.000885   0.924564   6.157060   0.002710   0.000085
    17  C    0.000136   0.000002  -0.054881   0.002710   4.881458   0.924670
    18  N    0.000000   0.000000   0.002609   0.000085   0.924670   6.154792
 Mulliken charges:
               1
     1  C    0.159619
     2  C   -0.485177
     3  C    0.164373
     4  C   -0.488602
     5  C    0.154891
     6  C   -0.480093
     7  C   -0.132542
     8  N   -0.034596
     9  C   -0.136362
    10  N   -0.038046
    11  C   -0.135826
    12  N   -0.035988
    13  C   -0.134810
    14  N   -0.035152
    15  C   -0.134406
    16  N   -0.038450
    17  C   -0.132768
    18  N   -0.036064
 Sum of Mulliken charges =  -2.00000
 Mulliken charges with hydrogens summed into heavy atoms:
               1
     1  C    0.159619
     2  C   -0.485177
     3  C    0.164373
     4  C   -0.488602
     5  C    0.154891
     6  C   -0.480093
     7  C   -0.132542
     8  N   -0.034596
     9  C   -0.136362
    10  N   -0.038046
    11  C   -0.135826
    12  N   -0.035988
    13  C   -0.134810
    14  N   -0.035152
    15  C   -0.134406
    16  N   -0.038450
    17  C   -0.132768
    18  N   -0.036064
 Electronic spatial extent (au):  <R**2>=          39329.4000
 Charge=             -2.0000 electrons
 Dipole moment (field-independent basis, Debye):
    X=             85.6685    Y=             16.4628    Z=             -9.8948  Tot=             87.7953
 Quadrupole moment (field-independent basis, Debye-Ang):
   XX=           -963.9164   YY=           -227.5456   ZZ=           -113.5417
   XY=           -145.9069   XZ=             89.2531   YZ=              7.2569
 Traceless Quadrupole moment (field-independent basis, Debye-Ang):
   XX=           -528.9152   YY=            207.4556   ZZ=            321.4595
   XY=           -145.9069   XZ=             89.2531   YZ=              7.2569
 Octapole moment (field-independent basis, Debye-Ang**2):
  XXX=          12172.0990  YYY=           1140.6454  ZZZ=           -329.6375  XYY=           2030.4527
  XXY=           1567.8721  XXZ=          -1015.2910  XZZ=           1016.5346  YZZ=            175.0104
  YYZ=           -196.7220  XYZ=            -66.7306
 Hexadecapole moment (field-independent basis, Debye-Ang**3):
 XXXX=        -161199.8722 YYYY=          -8692.2073 ZZZZ=           -804.3461 XXXY=         -18804.8086
 XXXZ=          12922.1929 YYYX=         -10161.8294 YYYZ=            766.7824 ZZZX=           2966.4310
 ZZZY=            378.1933 XXYY=         -20022.5920 XXZZ=          -9886.1089 YYZZ=          -1038.7255
 XXYZ=            803.3703 YYXZ=           1781.2659 ZZXY=          -1563.8235
 N-N= 9.656073736077D+02 E-N=-3.784998740057D+03  KE= 7.774822882851D+02
   1 Symmetry operations used in ECPInt.
 ECPInt:  NShTT=    5886 NPrTT=   23670 LenC2=    5404 LenP2D=   14965.
 LDataN:  DoStor=T MaxTD1= 5 Len=  102
 D1PCM: PCM CHGder 1st derivatives, ID1Alg=3 FixD1E=F DoIter=F DoCFld=F I1PDM=0.
 Calling FoFJK, ICntrl=      2127 FMM=F ISym2X=0 I1Cent= 0 IOpClX= 0 NMat=1 NMatS=1 NMatT=0.
 -------------------------------------------------------------------
 Center     Atomic                   Forces (Hartrees/Bohr)
 Number     Number              X              Y              Z
 -------------------------------------------------------------------
      1        6           0.000037760   -0.019952549   -0.001710981
      2        6           0.000395507    0.013436526    0.001547708
      3        6          -0.017274644    0.010156102    0.000738753
      4        6           0.011555368   -0.006361792   -0.000779567
      5        6           0.017613385    0.010371570    0.000888668
      6        6          -0.011667643   -0.006758089   -0.000534459
      7        6           0.007266455   -0.003926966   -0.000254417
      8        7          -0.004379258    0.001834990    0.000129739
      9        6          -0.006783915   -0.003068114   -0.000397115
     10        7           0.004793662    0.002512757    0.000244528
     11        6          -0.006596782   -0.004057055   -0.000413036
     12        7           0.004374850    0.003024892    0.000278918
     13        6          -0.000003044    0.007829633    0.000865975
     14        7          -0.000515032   -0.004986369   -0.000517374
     15        6          -0.000969889    0.006931905    0.000487419
     16        7           0.000006282   -0.005149313   -0.000444704
     17        6           0.006563156   -0.004543883   -0.000374901
     18        7          -0.004416219    0.002705756    0.000244846
 -------------------------------------------------------------------
 Cartesian Forces:  Max     0.019952549 RMS     0.006497817

 GradGradGradGradGradGradGradGradGradGradGradGradGradGradGradGradGradGrad
 Berny optimization.
 Search for a local minimum.
 Step number   1 out of a maximum of    2
 All quantities printed in internal units (Hartrees-Bohrs-Radians)
 Second derivative matrix not updated -- first step.
 ITU=  0
     Eigenvalues ---    0.00128   0.00146   0.00198   0.00300   0.00301
     Eigenvalues ---    0.00817   0.01536   0.01722   0.01986   0.02014
     Eigenvalues ---    0.03003   0.04125   0.05329   0.05356   0.10296
     Eigenvalues ---    0.15172   0.21325   0.21538   0.24394   0.24732
     Eigenvalues ---    0.25049   0.25744   0.25961   0.30111   0.30248
     Eigenvalues ---    0.36070   0.41817   0.48380   0.79345   0.79898
     Eigenvalues ---    0.81964   0.99613   1.00676   1.04646   1.05075
     Eigenvalues ---    1.12205   1.60103   1.60379   2.06266   2.78823
     Eigenvalues ---    2.78895   2.79121   2.84139   2.84199   2.84440
     Eigenvalues ---   37.09111  63.28488  82.60109
 Angle between quadratic step and forces=  74.60 degrees.
 Linear search not attempted -- first point.
 B after Tr=    -0.000262    0.000047   -0.000129
         Rot=    1.000000    0.000006   -0.000002   -0.000003 Ang=   0.00 deg.
 Variable       Old X    -DE/DX   Delta X   Delta X   Delta X     New X
                                 (Linear)    (Quad)   (Total)
    X1      -16.91404   0.00004   0.00000   0.01088   0.01063 -16.90341
    Y1       -1.73148  -0.01995   0.00000  -0.00581  -0.00583  -1.73731
    Z1        2.09024  -0.00171   0.00000   0.00239   0.00235   2.09260
    X2      -16.91443   0.00040   0.00000   0.01313   0.01288 -16.90156
    Y2        0.88993   0.01344   0.00000   0.01712   0.01711   0.90704
    Z2        2.35478   0.00155   0.00000   0.00736   0.00729   2.36207
    X3      -15.59656  -0.01727   0.00000   0.00230   0.00207 -15.59450
    Y3       -3.99702   0.01016   0.00000   0.00480   0.00478  -3.99224
    Z3        1.86181   0.00074   0.00000  -0.00015  -0.00016   1.86164
    X4      -13.31546   0.01156   0.00000   0.02084   0.02061 -13.29485
    Y4       -5.30729  -0.00636   0.00000  -0.00566  -0.00566  -5.31296
    Z4        1.69825  -0.00078   0.00000  -0.00185  -0.00186   1.69639
    X5      -18.22424   0.01761   0.00000   0.01327   0.01304 -18.21120
    Y5       -3.99740   0.01037   0.00000   0.00360   0.00357  -3.99382
    Z5        1.88360   0.00089   0.00000   0.00046   0.00046   1.88406
    X6      -20.50469  -0.01167   0.00000  -0.00975  -0.00998 -20.51467
    Y6       -5.30841  -0.00676   0.00000  -0.00974  -0.00978  -5.31819
    Z6        1.77909  -0.00053   0.00000  -0.00280  -0.00278   1.77631
    X7      -19.21719   0.00727   0.00000   0.01104   0.01077 -19.20642
    Y7        2.25566  -0.00393   0.00000  -0.00256  -0.00259   2.25308
    Z7        2.53240  -0.00025   0.00000   0.00523   0.00515   2.53755
    X8      -21.10733  -0.00438   0.00000  -0.00587  -0.00614 -21.11347
    Y8        3.36377   0.00183   0.00000  -0.02346  -0.02349   3.34028
    Z8        2.68538   0.00013   0.00000   0.00116   0.00108   2.68645
    X9      -14.58424  -0.00678   0.00000   0.00200   0.00174 -14.58250
    Y9        2.20879  -0.00307   0.00000   0.02817   0.02817   2.23696
    Z9        2.49632  -0.00040   0.00000  -0.00172  -0.00182   2.49450
   X10      -12.65315   0.00479   0.00000   0.00074   0.00047 -12.65268
   Y10        3.24767   0.00251   0.00000   0.04037   0.04038   3.28805
   Z10        2.61375   0.00024   0.00000  -0.00871  -0.00883   2.60492
   X11      -10.98325  -0.00660   0.00000   0.01499   0.01475 -10.96849
   Y11       -3.98631  -0.00406   0.00000  -0.00679  -0.00679  -3.99309
   Z11        1.79263  -0.00041   0.00000  -0.00472  -0.00475   1.78788
   X12       -9.08321   0.00437   0.00000   0.01377   0.01353  -9.06968
   Y12       -2.88772   0.00302   0.00000   0.00373   0.00375  -2.88397
   Z12        1.86521   0.00028   0.00000  -0.00514  -0.00520   1.86001
   X13      -13.28744  -0.00000   0.00000   0.00840   0.00819 -13.27926
   Y13       -7.97252   0.00783   0.00000  -0.00052  -0.00053  -7.97304
   Z13        1.39323   0.00087   0.00000   0.01145   0.01147   1.40470
   X14      -13.27650  -0.00052   0.00000  -0.01198  -0.01219 -13.28869
   Y14      -10.15369  -0.00499   0.00000  -0.00603  -0.00604 -10.15972
   Z14        1.13682  -0.00052   0.00000   0.02347   0.02351   1.16033
   X15      -20.48343  -0.00097   0.00000  -0.02598  -0.02619 -20.50963
   Y15       -7.98119   0.00693   0.00000  -0.00480  -0.00484  -7.98603
   Z15        1.58420   0.00049   0.00000  -0.01477  -0.01472   1.56948
   X16      -20.39758   0.00001   0.00000  -0.04295  -0.04316 -20.44073
   Y16      -10.17061  -0.00515   0.00000  -0.00881  -0.00886 -10.17946
   Z16        1.43487  -0.00044   0.00000  -0.02581  -0.02573   1.40914
   X17      -22.82846   0.00656   0.00000  -0.00375  -0.00398 -22.83244
   Y17       -3.97398  -0.00454   0.00000  -0.01286  -0.01292  -3.98690
   Z17        1.87136  -0.00037   0.00000   0.00418   0.00419   1.87554
   X18      -24.70442  -0.00442   0.00000  -0.00681  -0.00705 -24.71147
   Y18       -2.83440   0.00271   0.00000  -0.01038  -0.01044  -2.84484
   Z18        1.94044   0.00024   0.00000   0.01034   0.01034   1.95079
         Item               Value     Threshold  Converged?
 Maximum Force            0.019953     0.000450     NO 
 RMS     Force            0.006498     0.000300     NO 
 Maximum Displacement     0.043155     0.001800     NO 
 RMS     Displacement     0.013762     0.001200     NO 
 Predicted change in Energy=-6.412998D-04
 GradGradGradGradGradGradGradGradGradGradGradGradGradGradGradGradGradGrad

 Unable to Open any file for archive entry.
 1\1\GINC-X10P1N4\Force\RwB97XD\def2SVP\C12N6(2-)\MAYUMIAO\11-Oct-2024\
 0\\# wb97xd def2svp scrf=(smd,solvent=acetonitrile) g09default scf=(xq
 c,maxcycle=64) force guess=read nosymm\\Title Card\\-2,1\C,-8.95052429
 ,-0.91625948,1.10610855\C,-8.95073234,0.47093118,1.24609817\C,-8.25334
 659,-2.11513374,0.98522534\C,-7.04623809,-2.80849817,0.89867379\C,-9.6
 4385263,-2.11533118,0.99675811\C,-10.85061703,-2.80908994,0.94145242\C
 ,-10.16929924,1.19364532,1.34008705\N,-11.16951968,1.78003082,1.421040
 48\C,-7.71764705,1.16884231,1.32099414\N,-6.69575704,1.71859441,1.3831
 3559\C,-5.81208479,-2.10946274,0.94862059\N,-4.80662647,-1.52811514,0.
 98702695\C,-7.03141142,-4.21887461,0.73726789\N,-7.02562155,-5.3730989
 2,0.60157783\C,-10.83936607,-4.22346283,0.83832163\N,-10.79393409,-5.3
 8205341,0.75929946\C,-12.08029903,-2.10294225,0.99027857\N,-13.0730165
 6,-1.49989909,1.02683838\\Version=ES64L-G16RevC.01\HF=-785.0326205\RMS
 D=6.462e-09\RMSF=6.498e-03\Dipole=-0.0792209,-0.0046508,-0.0023378\Qua
 drupole=-393.2354954,154.2381995,238.9972959,-108.478187,66.3574755,5.
 3953446\PG=C01 [X(C12N6)]\\@
 The archive entry for this job was punched.


 EXPERIENCE IS THE FRUIT OF THE TREE OF ERRORS.
 Job cpu time:       0 days  0 hours  8 minutes  9.0 seconds.
 Elapsed time:       0 days  0 hours  0 minutes 18.8 seconds.
 File lengths (MBytes):  RWF=    147 Int=      0 D2E=      0 Chk=      8 Scr=      1
 Normal termination of Gaussian 16 at Fri Oct 11 16:11:08 2024.
