 Entering Gaussian System, Link 0=g16
 Input=JOBS/49_A.gjf
 Output=JOBS/49_A.log
 Initial command:
 /data/app/gaussian/C01-avx2//g16/l1.exe "/tmp/Gau-2560163.inp" -scrdir="/tmp/"
 Entering Link 1 = /data/app/gaussian/C01-avx2//g16/l1.exe PID=   2560164.
  
 Copyright (c) 1988-2019, Gaussian, Inc.  All Rights Reserved.
  
 This is part of the Gaussian(R) 16 program.  It is based on
 the Gaussian(R) 09 system (copyright 2009, Gaussian, Inc.),
 the Gaussian(R) 03 system (copyright 2003, Gaussian, Inc.),
 the Gaussian(R) 98 system (copyright 1998, Gaussian, Inc.),
 the Gaussian(R) 94 system (copyright 1995, Gaussian, Inc.),
 the Gaussian 92(TM) system (copyright 1992, Gaussian, Inc.),
 the Gaussian 90(TM) system (copyright 1990, Gaussian, Inc.),
 the Gaussian 88(TM) system (copyright 1988, Gaussian, Inc.),
 the Gaussian 86(TM) system (copyright 1986, Carnegie Mellon
 University), and the Gaussian 82(TM) system (copyright 1983,
 Carnegie Mellon University). Gaussian is a federally registered
 trademark of Gaussian, Inc.
  
 This software contains proprietary and confidential information,
 including trade secrets, belonging to Gaussian, Inc.
  
 This software is provided under written license and may be
 used, copied, transmitted, or stored only in accord with that
 written license.
  
 The following legend is applicable only to US Government
 contracts under FAR:
  
                    RESTRICTED RIGHTS LEGEND
  
 Use, reproduction and disclosure by the US Government is
 subject to restrictions as set forth in subparagraphs (a)
 and (c) of the Commercial Computer Software - Restricted
 Rights clause in FAR 52.227-19.
  
 Gaussian, Inc.
 340 Quinnipiac St., Bldg. 40, Wallingford CT 06492
  
  
 ---------------------------------------------------------------
 Warning -- This program may not be used in any manner that
 competes with the business of Gaussian, Inc. or will provide
 assistance to any competitor of Gaussian, Inc.  The licensee
 of this program is prohibited from giving any competitor of
 Gaussian, Inc. access to this program.  By using this program,
 the user acknowledges that Gaussian, Inc. is engaged in the
 business of creating and licensing software in the field of
 computational chemistry and represents and warrants to the
 licensee that it is not a competitor of Gaussian, Inc. and that
 it will not use this program in any manner prohibited above.
 ---------------------------------------------------------------
  

 Cite this work as:
 Gaussian 16, Revision C.01,
 M. J. Frisch, G. W. Trucks, H. B. Schlegel, G. E. Scuseria, 
 M. A. Robb, J. R. Cheeseman, G. Scalmani, V. Barone, 
 G. A. Petersson, H. Nakatsuji, X. Li, M. Caricato, A. V. Marenich, 
 J. Bloino, B. G. Janesko, R. Gomperts, B. Mennucci, H. P. Hratchian, 
 J. V. Ortiz, A. F. Izmaylov, J. L. Sonnenberg, D. Williams-Young, 
 F. Ding, F. Lipparini, F. Egidi, J. Goings, B. Peng, A. Petrone, 
 T. Henderson, D. Ranasinghe, V. G. Zakrzewski, J. Gao, N. Rega, 
 G. Zheng, W. Liang, M. Hada, M. Ehara, K. Toyota, R. Fukuda, 
 J. Hasegawa, M. Ishida, T. Nakajima, Y. Honda, O. Kitao, H. Nakai, 
 T. Vreven, K. Throssell, J. A. Montgomery, Jr., J. E. Peralta, 
 F. Ogliaro, M. J. Bearpark, J. J. Heyd, E. N. Brothers, K. N. Kudin, 
 V. N. Staroverov, T. A. Keith, R. Kobayashi, J. Normand, 
 K. Raghavachari, A. P. Rendell, J. C. Burant, S. S. Iyengar, 
 J. Tomasi, M. Cossi, J. M. Millam, M. Klene, C. Adamo, R. Cammi, 
 J. W. Ochterski, R. L. Martin, K. Morokuma, O. Farkas, 
 J. B. Foresman, and D. J. Fox, Gaussian, Inc., Wallingford CT, 2019.
 
 ******************************************
 Gaussian 16:  ES64L-G16RevC.01  3-Jul-2019
                11-Oct-2024 
 ******************************************
 %chk=a.chk
 %nprocshared=28
 Will use up to   28 processors via shared memory.
 %mem=48gb
 ----------------------------------------------------------------------
 # wb97xd def2svp scrf=(smd,solvent=acetonitrile) g09default scf=(xqc,m
 axcycle=64) force guess=read nosymm
 ----------------------------------------------------------------------
 1/10=7,30=1,38=1,158=3,167=1/1,3;
 2/12=2,15=1,17=6,18=5,40=1/2;
 3/5=43,7=101,11=2,25=1,27=10,30=1,70=32201,71=1,72=2,74=-58,75=-4,116=-2,158=3/1,2,3;
 4/5=1,60=-1/1;
 5/5=2,7=64,8=3,13=1,38=6,53=2,87=10/2,8;
 6/7=2,8=2,9=2,10=2,28=1,87=10/1;
 7/29=1,30=1,87=10/1,2,3,16;
 1/10=7,30=1,158=3,167=1/3;
 99//99;
 Using 2006 physical constants.
 ----------
 Title Card
 ----------
 Symbolic Z-matrix:
 Charge = -2 Multiplicity = 1
 6                    -8.95109  -0.91621   1.10623 
 6                    -8.95047   0.4714    1.24661 
 6                    -8.25344  -2.11512   0.98508 
 6                    -7.04611  -2.80845   0.89839 
 6                    -9.64387  -2.1153    0.99675 
 6                    -10.85096  -2.80953   0.94152 
 6                    -10.16851   1.19512   1.34067 
 7                    -11.16979   1.7801    1.42112 
 6                    -7.7171    1.16872   1.32124 
 7                    -6.69541   1.71902   1.38332 
 6                    -5.81214  -2.10925   0.94848 
 7                    -4.80648  -1.52812   0.98671 
 6                    -7.03086  -4.21893   0.73666 
 7                    -7.02598  -5.37341   0.60098 
 6                    -10.84022  -4.22419   0.83864 
 7                    -10.79369  -5.38269   0.76002 
 6                    -12.08047  -2.10317   0.99014 
 7                    -13.07331  -1.5002    1.02624 
 

 GradGradGradGradGradGradGradGradGradGradGradGradGradGradGradGradGradGrad
 Berny optimization.
 Initialization pass.
 Trust Radius=3.00D-01 FncErr=1.00D-07 GrdErr=1.00D-07 EigMax=2.50D+02 EigMin=1.00D-04
 Number of steps in this run=      2 maximum allowed number of steps=      2.
 GradGradGradGradGradGradGradGradGradGradGradGradGradGradGradGradGradGrad

                          Input orientation:                          
 ---------------------------------------------------------------------
 Center     Atomic      Atomic             Coordinates (Angstroms)
 Number     Number       Type             X           Y           Z
 ---------------------------------------------------------------------
      1          6           0       -8.951089   -0.916210    1.106234
      2          6           0       -8.950474    0.471404    1.246608
      3          6           0       -8.253443   -2.115118    0.985080
      4          6           0       -7.046111   -2.808445    0.898394
      5          6           0       -9.643868   -2.115298    0.996749
      6          6           0      -10.850958   -2.809525    0.941523
      7          6           0      -10.168515    1.195124    1.340667
      8          7           0      -11.169786    1.780102    1.421122
      9          6           0       -7.717098    1.168724    1.321237
     10          7           0       -6.695405    1.719016    1.383321
     11          6           0       -5.812141   -2.109245    0.948481
     12          7           0       -4.806481   -1.528116    0.986706
     13          6           0       -7.030862   -4.218935    0.736659
     14          7           0       -7.025975   -5.373405    0.600984
     15          6           0      -10.840222   -4.224187    0.838639
     16          7           0      -10.793687   -5.382692    0.760019
     17          6           0      -12.080466   -2.103170    0.990140
     18          7           0      -13.073313   -1.500200    1.026241
 ---------------------------------------------------------------------
                    Distance matrix (angstroms):
                    1          2          3          4          5
     1  C    0.000000
     2  C    1.394697   0.000000
     3  C    1.392396   2.691532   0.000000
     4  C    2.693083   3.808578   1.394944   0.000000
     5  C    1.389152   2.689657   1.390474   2.690440   0.000000
     6  C    2.687243   3.803868   2.689086   3.805092   1.393580
     7  C    2.448431   1.419944   3.840786   5.096428   3.369336
     8  N    3.505976   2.582342   4.885480   6.191341   4.205075
     9  C    2.432264   1.418816   3.344291   4.055477   3.821326
    10  N    3.479842   2.580806   4.157723   4.566843   4.852302
    11  C    3.361728   4.074036   2.441584   1.419180   3.832036
    12  N    4.191240   4.608504   3.496587   2.581276   4.872905
    13  C    3.838209   5.093549   2.445908   1.419814   3.364630
    14  N    4.881386   6.187271   3.502948   2.582223   4.198244
    15  C    3.818788   5.078008   3.340815   4.050084   2.429747
    16  N    4.844016   6.156675   4.144941   4.548651   3.471885
    17  C    3.348934   4.060919   3.827045   5.084345   2.436638
    18  N    4.164154   4.575324   4.859112   6.168875   3.484295
                    6          7          8          9         10
     6  C    0.000000
     7  C    4.081943   0.000000
     8  N    4.625618   1.162418   0.000000
     9  C    5.078555   2.451635   3.507821   0.000000
    10  N    6.162101   3.512659   4.474957   1.162124   0.000000
    11  C    5.087250   5.481848   6.637377   3.809579   3.952825
    12  N    6.178977   6.024345   7.185031   3.982028   3.777460
    13  C    4.076952   6.286630   7.320356   5.462556   5.982471
    14  N    4.617351   7.319034   8.307614   6.617844   7.143092
    15  C    1.418438   5.483808   6.041471   6.250623   7.266213
    16  N    2.580196   6.632922   7.203063   7.259574   8.223058
    17  C    1.418800   3.828469   4.011843   5.463872   6.615329
    18  N    2.580770   3.975109   3.813099   5.991595   7.153221
                   11         12         13         14         15
    11  C    0.000000
    12  N    1.162121   0.000000
    13  C    2.445596   3.500129   0.000000
    14  N    3.499841   4.456589   1.162425   0.000000
    15  C    5.455882   6.610352   3.810729   3.990697   0.000000
    16  N    5.963789   7.124310   3.938747   3.771078   1.162102
    17  C    6.268467   7.296682   5.480804   6.032724   2.461680
    18  N    7.287085   8.266974   6.632239   7.193946   3.527321
                   16         17         18
    16  N    0.000000
    17  C    3.530442   0.000000
    18  N    4.510134   1.162162   0.000000
 Symmetry turned off by external request.
 Stoichiometry    C12N6(2-)
 Framework group  C1[X(C12N6)]
 Deg. of freedom    48
 Full point group                 C1      NOp   1
 Rotational constants (GHZ):           0.4322408           0.4263846           0.2146904
 Standard basis: def2SVP (5D, 7F)
   252 basis functions,   450 primitive gaussians,   270 cartesian basis functions
    58 alpha electrons       58 beta electrons
       nuclear repulsion energy       965.5145840770 Hartrees.
 NAtoms=   18 NActive=   18 NUniq=   18 SFac= 1.00D+00 NAtFMM=   60 NAOKFM=F Big=F
 Integral buffers will be    131072 words long.
 Raffenetti 2 integral format.
 Two-electron integral symmetry is turned off.
 Nuclear repulsion after empirical dispersion term =      965.5029075027 Hartrees.
 Force PCM accuracy= 1.00D-10.
 ------------------------------------------------------------------------------
 Polarizable Continuum Model (PCM)
 =================================
 Model                : PCM (using non-symmetric T matrix).
 Atomic radii         : SMD-Coulomb.
 Polarization charges : Total charges.
 Charge compensation  : None.
 Solution method      : On-the-fly selection.
 Cavity type          : VdW (van der Waals Surface) (Alpha=1.000).
 Cavity algorithm     : GePol (No added spheres)
                        Default sphere list used, NSphG=   18.
                        Lebedev-Laikov grids with approx.  5.0 points / Ang**2.
                        Smoothing algorithm: York/Karplus (Gamma=1.0000).
                        Polarization charges: spherical gaussians, with
                                              point-specific exponents (IZeta= 3).
                        Self-potential: point-specific (ISelfS= 7).
                        Self-field    : sphere-specific E.n sum rule (ISelfD= 2).
 1st derivatives      : Analytical E(r).r(x)/FMM algorithm (CHGder, D1EAlg=3).
                        Cavity 1st derivative terms included.
 Solvent              : Acetonitrile, Eps=  35.688000 Eps(inf)=   1.806874
 ------------------------------------------------------------------------------
 Spheres list:
 ISph  on   Nord     Re0    Alpha      Xe            Ye            Ze
    1   C      1    1.8500  1.000     -8.951089     -0.916210      1.106234
    2   C      2    1.8500  1.000     -8.950474      0.471404      1.246608
    3   C      3    1.8500  1.000     -8.253443     -2.115118      0.985080
    4   C      4    1.8500  1.000     -7.046111     -2.808445      0.898394
    5   C      5    1.8500  1.000     -9.643868     -2.115298      0.996749
    6   C      6    1.8500  1.000    -10.850958     -2.809525      0.941523
    7   C      7    1.8500  1.000    -10.168515      1.195124      1.340667
    8   N      8    1.8900  1.000    -11.169786      1.780102      1.421122
    9   C      9    1.8500  1.000     -7.717098      1.168724      1.321237
   10   N     10    1.8900  1.000     -6.695405      1.719016      1.383321
   11   C     11    1.8500  1.000     -5.812141     -2.109245      0.948481
   12   N     12    1.8900  1.000     -4.806481     -1.528116      0.986706
   13   C     13    1.8500  1.000     -7.030862     -4.218935      0.736659
   14   N     14    1.8900  1.000     -7.025975     -5.373405      0.600984
   15   C     15    1.8500  1.000    -10.840222     -4.224187      0.838639
   16   N     16    1.8900  1.000    -10.793687     -5.382692      0.760019
   17   C     17    1.8500  1.000    -12.080466     -2.103170      0.990140
   18   N     18    1.8900  1.000    -13.073313     -1.500200      1.026241
 ------------------------------------------------------------------------------
 ------------------------------------------------------------------------------
 Atomic radii for non-electrostatic terms: SMD-CDS.
 ------------------------------------------------------------------------------
 Nuclear repulsion after PCM non-electrostatic terms =      965.5116121740 Hartrees.
 One-electron integrals computed using PRISM.
   1 Symmetry operations used in ECPInt.
 ECPInt:  NShTT=    5886 NPrTT=   23670 LenC2=    5404 LenP2D=   14962.
 LDataN:  DoStor=T MaxTD1= 4 Len=   56
 NBasis=   252 RedAO= T EigKep=  1.95D-04  NBF=   252
 NBsUse=   252 1.00D-06 EigRej= -1.00D+00 NBFU=   252
 Initial guess from the checkpoint file:  "a.chk"
 B after Tr=    -0.000083   -0.000004   -0.000692
         Rot=    1.000000   -0.000019   -0.000024    0.000002 Ang=  -0.00 deg.
 Requested convergence on RMS density matrix=1.00D-08 within  64 cycles.
 Requested convergence on MAX density matrix=1.00D-06.
 Requested convergence on             energy=1.00D-06.
 No special actions if energy rises.
 Inv3:  Mode=1 IEnd=    19263468.
 Iteration    1 A*A^-1 deviation from unit magnitude is 3.11D-15 for   1819.
 Iteration    1 A*A^-1 deviation from orthogonality  is 3.46D-15 for   1689    246.
 Iteration    1 A^-1*A deviation from unit magnitude is 3.22D-15 for    448.
 Iteration    1 A^-1*A deviation from orthogonality  is 1.22D-12 for   2054   2008.
 Error on total polarization charges =  0.02152
 SCF Done:  E(RwB97XD) =  -785.032650806     A.U. after    9 cycles
            NFock=  9  Conv=0.59D-08     -V/T= 2.0097
 SMD-CDS (non-electrostatic) energy       (kcal/mol) =       5.46
 (included in total energy above)
 QCSCF skips out because SCF is already converged.

 **********************************************************************

            Population analysis using the SCF Density.

 **********************************************************************

 Alpha  occ. eigenvalues --  -14.42785 -14.42770 -14.42768 -14.42748 -14.42745
 Alpha  occ. eigenvalues --  -14.42736 -10.35003 -10.34937 -10.34893 -10.33727
 Alpha  occ. eigenvalues --  -10.33707 -10.33704 -10.33680 -10.33678 -10.33667
 Alpha  occ. eigenvalues --  -10.32740 -10.32726 -10.32689  -1.03073  -0.99098
 Alpha  occ. eigenvalues --   -0.99098  -0.98722  -0.98032  -0.98019  -0.97945
 Alpha  occ. eigenvalues --   -0.88197  -0.88170  -0.86092  -0.68792  -0.68724
 Alpha  occ. eigenvalues --   -0.65213  -0.65017  -0.64903  -0.64132  -0.52455
 Alpha  occ. eigenvalues --   -0.47691  -0.47683  -0.46796  -0.46727  -0.45185
 Alpha  occ. eigenvalues --   -0.45071  -0.45067  -0.44534  -0.44219  -0.44167
 Alpha  occ. eigenvalues --   -0.43853  -0.42825  -0.42240  -0.42223  -0.42048
 Alpha  occ. eigenvalues --   -0.41948  -0.41922  -0.40536  -0.40193  -0.40158
 Alpha  occ. eigenvalues --   -0.31475  -0.31460  -0.23635
 Alpha virt. eigenvalues --    0.07450   0.07546   0.08862   0.09292   0.09380
 Alpha virt. eigenvalues --    0.12691   0.12731   0.13114   0.13149   0.14838
 Alpha virt. eigenvalues --    0.14976   0.16304   0.21081   0.21157   0.24195
 Alpha virt. eigenvalues --    0.27546   0.28109   0.28138   0.28617   0.28662
 Alpha virt. eigenvalues --    0.29986   0.33665   0.33724   0.33915   0.36821
 Alpha virt. eigenvalues --    0.37014   0.37196   0.48949   0.49117   0.50533
 Alpha virt. eigenvalues --    0.50716   0.54917   0.54931   0.55006   0.55058
 Alpha virt. eigenvalues --    0.57464   0.57506   0.58265   0.59970   0.61115
 Alpha virt. eigenvalues --    0.61718   0.61740   0.62832   0.62977   0.64882
 Alpha virt. eigenvalues --    0.65526   0.70909   0.71725   0.71851   0.73676
 Alpha virt. eigenvalues --    0.73720   0.74437   0.74620   0.74774   0.75083
 Alpha virt. eigenvalues --    0.75157   0.75234   0.76608   0.76910   0.77780
 Alpha virt. eigenvalues --    0.82002   0.82062   0.82225   0.83422   0.83684
 Alpha virt. eigenvalues --    0.88849   0.88870   0.89397   0.89597   0.94734
 Alpha virt. eigenvalues --    0.94784   0.95115   0.95198   0.96001   0.96139
 Alpha virt. eigenvalues --    0.98096   1.00592   1.00650   1.01309   1.01583
 Alpha virt. eigenvalues --    1.02412   1.02542   1.05255   1.05458   1.05784
 Alpha virt. eigenvalues --    1.08508   1.08948   1.10207   1.10332   1.12719
 Alpha virt. eigenvalues --    1.12918   1.17517   1.18941   1.20357   1.20509
 Alpha virt. eigenvalues --    1.21147   1.25050   1.25252   1.27267   1.35231
 Alpha virt. eigenvalues --    1.38738   1.38967   1.41780   1.41920   1.45043
 Alpha virt. eigenvalues --    1.47130   1.47321   1.47804   1.48000   1.58898
 Alpha virt. eigenvalues --    1.62411   1.68382   1.70718   1.70805   1.70978
 Alpha virt. eigenvalues --    1.71151   1.71260   1.79098   1.79431   1.79642
 Alpha virt. eigenvalues --    1.79672   1.80331   1.81494   1.81544   1.82859
 Alpha virt. eigenvalues --    1.84593   1.85147   1.87645   1.95478   1.95590
 Alpha virt. eigenvalues --    1.95712   2.00370   2.03140   2.03298   2.06372
 Alpha virt. eigenvalues --    2.06633   2.09990   2.10448   2.16177   2.16312
 Alpha virt. eigenvalues --    2.21028   2.23562   2.23698   2.23840   2.29512
 Alpha virt. eigenvalues --    2.30395   2.30616   2.32103   2.35905   2.35922
 Alpha virt. eigenvalues --    2.36496   2.36541   2.36779   2.36890   2.37494
 Alpha virt. eigenvalues --    2.38474   2.38566   2.38735   2.38830   2.39175
 Alpha virt. eigenvalues --    2.40498   2.40678   2.59925   2.65126   2.65465
 Alpha virt. eigenvalues --    2.74203   2.74419   2.95374   2.97479   2.97767
 Alpha virt. eigenvalues --    2.98097   3.01250   3.01280   3.01964   3.05334
 Alpha virt. eigenvalues --    3.07959   3.08059   3.11339   3.11842   3.14770
 Alpha virt. eigenvalues --    3.14888   3.15404   3.25974   3.26266   3.31532
 Alpha virt. eigenvalues --    3.43935   3.43989   3.45232   3.56537   3.59812
 Alpha virt. eigenvalues --    3.59941   3.64636   3.64724   3.78561
          Condensed to atoms (all electrons):
               1          2          3          4          5          6
     1  C    4.962906   0.493310   0.314642  -0.116712   0.317630  -0.116354
     2  C    0.493310   5.549313  -0.115376  -0.007630  -0.117287  -0.007132
     3  C    0.314642  -0.115376   4.960711   0.492654   0.315968  -0.115931
     4  C   -0.116712  -0.007630   0.492654   5.553705  -0.117402  -0.007455
     5  C    0.317630  -0.117287   0.315968  -0.117402   4.964889   0.494435
     6  C   -0.116354  -0.007132  -0.115931  -0.007455   0.494435   5.546606
     7  C    0.010836   0.384374   0.006142  -0.000539  -0.025300   0.002917
     8  N   -0.001027  -0.044227  -0.000067  -0.000001  -0.000589   0.000144
     9  C    0.015049   0.388107  -0.025212   0.003014   0.006890  -0.000511
    10  N   -0.001009  -0.043526  -0.000612   0.000162  -0.000056  -0.000001
    11  C   -0.024412   0.003005   0.013051   0.387549   0.006279  -0.000524
    12  N   -0.000572   0.000148  -0.001073  -0.043903  -0.000069  -0.000001
    13  C    0.005959  -0.000545   0.011915   0.386471  -0.024791   0.002923
    14  N   -0.000072  -0.000001  -0.001078  -0.044123  -0.000585   0.000146
    15  C    0.007365  -0.000509  -0.026462   0.003067   0.014279   0.385390
    16  N   -0.000042  -0.000001  -0.000675   0.000180  -0.000922  -0.043941
    17  C   -0.026626   0.002955   0.006929  -0.000537   0.013059   0.383544
    18  N   -0.000656   0.000164  -0.000049  -0.000001  -0.000908  -0.044111
               7          8          9         10         11         12
     1  C    0.010836  -0.001027   0.015049  -0.001009  -0.024412  -0.000572
     2  C    0.384374  -0.044227   0.388107  -0.043526   0.003005   0.000148
     3  C    0.006142  -0.000067  -0.025212  -0.000612   0.013051  -0.001073
     4  C   -0.000539  -0.000001   0.003014   0.000162   0.387549  -0.043903
     5  C   -0.025300  -0.000589   0.006890  -0.000056   0.006279  -0.000069
     6  C    0.002917   0.000144  -0.000511  -0.000001  -0.000524  -0.000001
     7  C    4.880294   0.925733  -0.054702   0.002700   0.000136   0.000002
     8  N    0.925733   6.153139   0.002491   0.000091   0.000000   0.000000
     9  C   -0.054702   0.002491   4.875434   0.925586  -0.000501   0.000043
    10  N    0.002700   0.000091   0.925586   6.155688   0.000237  -0.000879
    11  C    0.000136   0.000000  -0.000501   0.000237   4.876066   0.926384
    12  N    0.000002   0.000000   0.000043  -0.000879   0.926384   6.153457
    13  C   -0.000017  -0.000000   0.000141   0.000003  -0.054388   0.002607
    14  N   -0.000000  -0.000000   0.000000   0.000000   0.002539   0.000093
    15  C    0.000134   0.000002  -0.000017  -0.000000   0.000142   0.000000
    16  N    0.000000   0.000000  -0.000000  -0.000000   0.000003   0.000000
    17  C   -0.000546   0.000002   0.000139   0.000000  -0.000017  -0.000000
    18  N    0.000228  -0.000833   0.000003   0.000000  -0.000000  -0.000000
              13         14         15         16         17         18
     1  C    0.005959  -0.000072   0.007365  -0.000042  -0.026626  -0.000656
     2  C   -0.000545  -0.000001  -0.000509  -0.000001   0.002955   0.000164
     3  C    0.011915  -0.001078  -0.026462  -0.000675   0.006929  -0.000049
     4  C    0.386471  -0.044123   0.003067   0.000180  -0.000537  -0.000001
     5  C   -0.024791  -0.000585   0.014279  -0.000922   0.013059  -0.000908
     6  C    0.002923   0.000146   0.385390  -0.043941   0.383544  -0.044111
     7  C   -0.000017  -0.000000   0.000134   0.000000  -0.000546   0.000228
     8  N   -0.000000  -0.000000   0.000002   0.000000   0.000002  -0.000833
     9  C    0.000141   0.000000  -0.000017  -0.000000   0.000139   0.000003
    10  N    0.000003   0.000000  -0.000000  -0.000000   0.000000   0.000000
    11  C   -0.054388   0.002539   0.000142   0.000003  -0.000017  -0.000000
    12  N    0.002607   0.000093   0.000000   0.000000  -0.000000  -0.000000
    13  C    4.878059   0.926227  -0.000547   0.000322   0.000136   0.000000
    14  N    0.926227   6.153170  -0.000021  -0.000884   0.000002   0.000000
    15  C   -0.000547  -0.000021   4.878719   0.924698  -0.054622   0.002603
    16  N    0.000322  -0.000884   0.924698   6.156885   0.002707   0.000085
    17  C    0.000136   0.000002  -0.054622   0.002707   4.880930   0.924628
    18  N    0.000000   0.000000   0.002603   0.000085   0.924628   6.155278
 Mulliken charges:
               1
     1  C    0.159784
     2  C   -0.485141
     3  C    0.164524
     4  C   -0.488498
     5  C    0.154479
     6  C   -0.480144
     7  C   -0.132392
     8  N   -0.034856
     9  C   -0.135953
    10  N   -0.038382
    11  C   -0.135548
    12  N   -0.036239
    13  C   -0.134475
    14  N   -0.035413
    15  C   -0.134222
    16  N   -0.038414
    17  C   -0.132681
    18  N   -0.036428
 Sum of Mulliken charges =  -2.00000
 Mulliken charges with hydrogens summed into heavy atoms:
               1
     1  C    0.159784
     2  C   -0.485141
     3  C    0.164524
     4  C   -0.488498
     5  C    0.154479
     6  C   -0.480144
     7  C   -0.132392
     8  N   -0.034856
     9  C   -0.135953
    10  N   -0.038382
    11  C   -0.135548
    12  N   -0.036239
    13  C   -0.134475
    14  N   -0.035413
    15  C   -0.134222
    16  N   -0.038414
    17  C   -0.132681
    18  N   -0.036428
 Electronic spatial extent (au):  <R**2>=          39330.3851
 Charge=             -2.0000 electrons
 Dipole moment (field-independent basis, Debye):
    X=             85.6750    Y=             16.4611    Z=             -9.8941  Tot=             87.8013
 Quadrupole moment (field-independent basis, Debye-Ang):
   XX=           -964.0514   YY=           -227.5526   ZZ=           -113.5452
   XY=           -145.9116   XZ=             89.2542   YZ=              7.2556
 Traceless Quadrupole moment (field-independent basis, Debye-Ang):
   XX=           -529.0017   YY=            207.4971   ZZ=            321.5045
   XY=           -145.9116   XZ=             89.2542   YZ=              7.2556
 Octapole moment (field-independent basis, Debye-Ang**2):
  XXX=          12174.2381  YYY=           1140.7031  ZZZ=           -329.6509  XYY=           2030.5578
  XXY=           1568.0687  XXZ=          -1015.3551  XZZ=           1016.5742  YZZ=            175.0153
  YYZ=           -196.7419  XYZ=            -66.7602
 Hexadecapole moment (field-independent basis, Debye-Ang**3):
 XXXX=        -161231.2190 YYYY=          -8693.7436 ZZZZ=           -804.4358 XXXY=         -18808.1128
 XXXZ=          12923.2743 YYYX=         -10162.7726 YYYZ=            766.7931 ZZZX=           2966.6243
 ZZZY=            378.0998 XXYY=         -20024.0326 XXZZ=          -9886.6014 YYZZ=          -1038.9409
 XXYZ=            803.9158 YYXZ=           1781.6304 ZZXY=          -1563.9792
 N-N= 9.655116121740D+02 E-N=-3.784800040689D+03  KE= 7.774763121726D+02
   1 Symmetry operations used in ECPInt.
 ECPInt:  NShTT=    5886 NPrTT=   23670 LenC2=    5404 LenP2D=   14962.
 LDataN:  DoStor=T MaxTD1= 5 Len=  102
 D1PCM: PCM CHGder 1st derivatives, ID1Alg=3 FixD1E=F DoIter=F DoCFld=F I1PDM=0.
 Calling FoFJK, ICntrl=      2127 FMM=F ISym2X=0 I1Cent= 0 IOpClX= 0 NMat=1 NMatS=1 NMatT=0.
 -------------------------------------------------------------------
 Center     Atomic                   Forces (Hartrees/Bohr)
 Number     Number              X              Y              Z
 -------------------------------------------------------------------
      1        6           0.000301910   -0.019581305   -0.001671295
      2        6           0.000360701    0.013156069    0.001512002
      3        6          -0.017172230    0.010194119    0.000747438
      4        6           0.011391750   -0.006361760   -0.000784254
      5        6           0.017091850    0.009954837    0.000857297
      6        6          -0.011413509   -0.006714511   -0.000530528
      7        6           0.006874496   -0.003979811   -0.000277514
      8        7          -0.004003747    0.001722642    0.000125645
      9        6          -0.006608210   -0.002952842   -0.000372872
     10        7           0.004649382    0.002399011    0.000228552
     11        6          -0.006395300   -0.003968926   -0.000432453
     12        7           0.004237940    0.002963003    0.000288568
     13        6          -0.000127424    0.007374852    0.000843052
     14        7          -0.000473043   -0.004401439   -0.000460703
     15        6          -0.000793010    0.007339369    0.000526727
     16        7          -0.000046131   -0.005310373   -0.000464967
     17        6           0.006437825   -0.004490731   -0.000388924
     18        7          -0.004313253    0.002657793    0.000254229
 -------------------------------------------------------------------
 Cartesian Forces:  Max     0.019581305 RMS     0.006369844

 GradGradGradGradGradGradGradGradGradGradGradGradGradGradGradGradGradGrad
 Berny optimization.
 Search for a local minimum.
 Step number   1 out of a maximum of    2
 All quantities printed in internal units (Hartrees-Bohrs-Radians)
 Second derivative matrix not updated -- first step.
 ITU=  0
     Eigenvalues ---    0.00128   0.00146   0.00197   0.00300   0.00301
     Eigenvalues ---    0.00816   0.01535   0.01722   0.01986   0.02014
     Eigenvalues ---    0.02999   0.04118   0.05329   0.05355   0.10294
     Eigenvalues ---    0.15145   0.21322   0.21522   0.24398   0.24725
     Eigenvalues ---    0.25054   0.25734   0.25958   0.30090   0.30244
     Eigenvalues ---    0.36049   0.41797   0.48370   0.79304   0.79884
     Eigenvalues ---    0.81926   0.99500   1.00617   1.04594   1.05018
     Eigenvalues ---    1.12162   1.59929   1.60335   2.06156   2.78706
     Eigenvalues ---    2.78779   2.78982   2.83962   2.84054   2.84425
     Eigenvalues ---   34.26591  64.37052  90.44092
 Angle between quadratic step and forces=  74.89 degrees.
 Linear search not attempted -- first point.
 B after Tr=    -0.000260    0.000047   -0.000135
         Rot=    1.000000    0.000006   -0.000002   -0.000003 Ang=   0.00 deg.
 Variable       Old X    -DE/DX   Delta X   Delta X   Delta X     New X
                                 (Linear)    (Quad)   (Total)
    X1      -16.91511   0.00030   0.00000   0.01118   0.01094 -16.90417
    Y1       -1.73139  -0.01958   0.00000  -0.00588  -0.00590  -1.73729
    Z1        2.09048  -0.00167   0.00000   0.00230   0.00226   2.09274
    X2      -16.91394   0.00036   0.00000   0.01315   0.01290 -16.90105
    Y2        0.89083   0.01316   0.00000   0.01615   0.01614   0.90696
    Z2        2.35575   0.00151   0.00000   0.00697   0.00690   2.36265
    X3      -15.59675  -0.01717   0.00000   0.00216   0.00192 -15.59482
    Y3       -3.99699   0.01019   0.00000   0.00491   0.00490  -3.99209
    Z3        1.86153   0.00075   0.00000  -0.00005  -0.00007   1.86146
    X4      -13.31522   0.01139   0.00000   0.02030   0.02007 -13.29515
    Y4       -5.30719  -0.00636   0.00000  -0.00526  -0.00527  -5.31246
    Z4        1.69772  -0.00078   0.00000  -0.00162  -0.00163   1.69609
    X5      -18.22427   0.01709   0.00000   0.01302   0.01279 -18.21148
    Y5       -3.99733   0.00995   0.00000   0.00356   0.00353  -3.99380
    Z5        1.88358   0.00086   0.00000   0.00045   0.00045   1.88403
    X6      -20.50534  -0.01141   0.00000  -0.00935  -0.00958 -20.51492
    Y6       -5.30923  -0.00671   0.00000  -0.00905  -0.00909  -5.31832
    Z6        1.77922  -0.00053   0.00000  -0.00283  -0.00280   1.77642
    X7      -19.21571   0.00687   0.00000   0.01059   0.01033 -19.20538
    Y7        2.25846  -0.00398   0.00000  -0.00462  -0.00464   2.25381
    Z7        2.53349  -0.00028   0.00000   0.00472   0.00465   2.53814
    X8      -21.10784  -0.00400   0.00000  -0.00555  -0.00582 -21.11365
    Y8        3.36390   0.00172   0.00000  -0.02490  -0.02493   3.33897
    Z8        2.68553   0.00013   0.00000   0.00080   0.00073   2.68626
    X9      -14.58320  -0.00661   0.00000   0.00202   0.00176 -14.58144
    Y9        2.20857  -0.00295   0.00000   0.02732   0.02732   2.23589
    Z9        2.49678  -0.00037   0.00000  -0.00185  -0.00194   2.49483
   X10      -12.65248   0.00465   0.00000   0.00088   0.00062 -12.65186
   Y10        3.24847   0.00240   0.00000   0.03894   0.03895   3.28742
   Z10        2.61410   0.00023   0.00000  -0.00860  -0.00872   2.60538
   X11      -10.98335  -0.00640   0.00000   0.01470   0.01447 -10.96889
   Y11       -3.98590  -0.00397   0.00000  -0.00647  -0.00646  -3.99236
   Z11        1.79237  -0.00043   0.00000  -0.00509  -0.00513   1.78724
   X12       -9.08293   0.00424   0.00000   0.01331   0.01307  -9.06986
   Y12       -2.88772   0.00296   0.00000   0.00414   0.00416  -2.88356
   Z12        1.86460   0.00029   0.00000  -0.00581  -0.00587   1.85873
   X13      -13.28640  -0.00013   0.00000   0.00718   0.00697 -13.27943
   Y13       -7.97263   0.00737   0.00000   0.00009   0.00008  -7.97255
   Z13        1.39208   0.00084   0.00000   0.01255   0.01256   1.40465
   X14      -13.27717  -0.00047   0.00000  -0.01284  -0.01304 -13.29021
   Y14      -10.15426  -0.00440   0.00000  -0.00500  -0.00501 -10.15927
   Z14        1.13570  -0.00046   0.00000   0.02506   0.02510   1.16080
   X15      -20.48505  -0.00079   0.00000  -0.02454  -0.02475 -20.50980
   Y15       -7.98256   0.00734   0.00000  -0.00345  -0.00350  -7.98605
   Z15        1.58480   0.00053   0.00000  -0.01564  -0.01559   1.56921
   X16      -20.39711  -0.00005   0.00000  -0.04187  -0.04207 -20.43919
   Y16      -10.17181  -0.00531   0.00000  -0.00756  -0.00761 -10.17942
   Z16        1.43623  -0.00046   0.00000  -0.02760  -0.02753   1.40870
   X17      -22.82877   0.00644   0.00000  -0.00354  -0.00378 -22.83255
   Y17       -3.97442  -0.00449   0.00000  -0.01246  -0.01251  -3.98693
   Z17        1.87109  -0.00039   0.00000   0.00492   0.00493   1.87603
   X18      -24.70498  -0.00431   0.00000  -0.00656  -0.00680 -24.71178
   Y18       -2.83497   0.00266   0.00000  -0.01010  -0.01016  -2.84513
   Z18        1.93931   0.00025   0.00000   0.01169   0.01170   1.95101
         Item               Value     Threshold  Converged?
 Maximum Force            0.019581     0.000450     NO 
 RMS     Force            0.006370     0.000300     NO 
 Maximum Displacement     0.042072     0.001800     NO 
 RMS     Displacement     0.013658     0.001200     NO 
 Predicted change in Energy=-6.122378D-04
 GradGradGradGradGradGradGradGradGradGradGradGradGradGradGradGradGradGrad

 Unable to Open any file for archive entry.
 1\1\GINC-X10P1N4\Force\RwB97XD\def2SVP\C12N6(2-)\MAYUMIAO\11-Oct-2024\
 0\\# wb97xd def2svp scrf=(smd,solvent=acetonitrile) g09default scf=(xq
 c,maxcycle=64) force guess=read nosymm\\Title Card\\-2,1\C,-8.95108897
 ,-0.91620987,1.10623352\C,-8.95047384,0.47140434,1.24660818\C,-8.25344
 305,-2.11511756,0.98507973\C,-7.04611064,-2.80844512,0.89839407\C,-9.6
 4386803,-2.11529841,0.99674909\C,-10.8509576,-2.80952537,0.94152253\C,
 -10.16851455,1.19512367,1.34066668\N,-11.16978574,1.78010151,1.4211221
 4\C,-7.71709823,1.1687235,1.32123707\N,-6.69540519,1.71901598,1.383321
 37\C,-5.8121407,-2.1092454,0.94848144\N,-4.80648061,-1.5281158,0.98670
 613\C,-7.03086205,-4.21893499,0.73665918\N,-7.02597549,-5.37340517,0.6
 0098435\C,-10.84022227,-4.22418662,0.83863946\N,-10.79368735,-5.382691
 77,0.76001873\C,-12.08046646,-2.10317022,0.99014018\N,-13.07331322,-1.
 50020016,1.02624108\\Version=ES64L-G16RevC.01\HF=-785.0326508\RMSD=5.8
 86e-09\RMSF=6.370e-03\Dipole=-0.0766583,-0.0053311,-0.0021026\Quadrupo
 le=-393.299785,154.2690482,239.0307367,-108.4817283,66.3583272,5.39435
 21\PG=C01 [X(C12N6)]\\@
 The archive entry for this job was punched.


 IT TAKES GREATER CHARACTER TO CARRY OFF GOOD FORTUNE THAN BAD.
                     FRENCH PROVERB.
 Job cpu time:       0 days  0 hours  7 minutes 38.0 seconds.
 Elapsed time:       0 days  0 hours  0 minutes 17.6 seconds.
 File lengths (MBytes):  RWF=    147 Int=      0 D2E=      0 Chk=      8 Scr=      1
 Normal termination of Gaussian 16 at Fri Oct 11 16:11:51 2024.
