 Entering Gaussian System, Link 0=g16
 Input=JOBS/4_A.gjf
 Output=JOBS/4_A.log
 Initial command:
 /data/app/gaussian/C01-avx2//g16/l1.exe "/tmp/Gau-2518527.inp" -scrdir="/tmp/"
 Entering Link 1 = /data/app/gaussian/C01-avx2//g16/l1.exe PID=   2518528.
  
 Copyright (c) 1988-2019, Gaussian, Inc.  All Rights Reserved.
  
 This is part of the Gaussian(R) 16 program.  It is based on
 the Gaussian(R) 09 system (copyright 2009, Gaussian, Inc.),
 the Gaussian(R) 03 system (copyright 2003, Gaussian, Inc.),
 the Gaussian(R) 98 system (copyright 1998, Gaussian, Inc.),
 the Gaussian(R) 94 system (copyright 1995, Gaussian, Inc.),
 the Gaussian 92(TM) system (copyright 1992, Gaussian, Inc.),
 the Gaussian 90(TM) system (copyright 1990, Gaussian, Inc.),
 the Gaussian 88(TM) system (copyright 1988, Gaussian, Inc.),
 the Gaussian 86(TM) system (copyright 1986, Carnegie Mellon
 University), and the Gaussian 82(TM) system (copyright 1983,
 Carnegie Mellon University). Gaussian is a federally registered
 trademark of Gaussian, Inc.
  
 This software contains proprietary and confidential information,
 including trade secrets, belonging to Gaussian, Inc.
  
 This software is provided under written license and may be
 used, copied, transmitted, or stored only in accord with that
 written license.
  
 The following legend is applicable only to US Government
 contracts under FAR:
  
                    RESTRICTED RIGHTS LEGEND
  
 Use, reproduction and disclosure by the US Government is
 subject to restrictions as set forth in subparagraphs (a)
 and (c) of the Commercial Computer Software - Restricted
 Rights clause in FAR 52.227-19.
  
 Gaussian, Inc.
 340 Quinnipiac St., Bldg. 40, Wallingford CT 06492
  
  
 ---------------------------------------------------------------
 Warning -- This program may not be used in any manner that
 competes with the business of Gaussian, Inc. or will provide
 assistance to any competitor of Gaussian, Inc.  The licensee
 of this program is prohibited from giving any competitor of
 Gaussian, Inc. access to this program.  By using this program,
 the user acknowledges that Gaussian, Inc. is engaged in the
 business of creating and licensing software in the field of
 computational chemistry and represents and warrants to the
 licensee that it is not a competitor of Gaussian, Inc. and that
 it will not use this program in any manner prohibited above.
 ---------------------------------------------------------------
  

 Cite this work as:
 Gaussian 16, Revision C.01,
 M. J. Frisch, G. W. Trucks, H. B. Schlegel, G. E. Scuseria, 
 M. A. Robb, J. R. Cheeseman, G. Scalmani, V. Barone, 
 G. A. Petersson, H. Nakatsuji, X. Li, M. Caricato, A. V. Marenich, 
 J. Bloino, B. G. Janesko, R. Gomperts, B. Mennucci, H. P. Hratchian, 
 J. V. Ortiz, A. F. Izmaylov, J. L. Sonnenberg, D. Williams-Young, 
 F. Ding, F. Lipparini, F. Egidi, J. Goings, B. Peng, A. Petrone, 
 T. Henderson, D. Ranasinghe, V. G. Zakrzewski, J. Gao, N. Rega, 
 G. Zheng, W. Liang, M. Hada, M. Ehara, K. Toyota, R. Fukuda, 
 J. Hasegawa, M. Ishida, T. Nakajima, Y. Honda, O. Kitao, H. Nakai, 
 T. Vreven, K. Throssell, J. A. Montgomery, Jr., J. E. Peralta, 
 F. Ogliaro, M. J. Bearpark, J. J. Heyd, E. N. Brothers, K. N. Kudin, 
 V. N. Staroverov, T. A. Keith, R. Kobayashi, J. Normand, 
 K. Raghavachari, A. P. Rendell, J. C. Burant, S. S. Iyengar, 
 J. Tomasi, M. Cossi, J. M. Millam, M. Klene, C. Adamo, R. Cammi, 
 J. W. Ochterski, R. L. Martin, K. Morokuma, O. Farkas, 
 J. B. Foresman, and D. J. Fox, Gaussian, Inc., Wallingford CT, 2019.
 
 ******************************************
 Gaussian 16:  ES64L-G16RevC.01  3-Jul-2019
                11-Oct-2024 
 ******************************************
 %chk=a.chk
 %nprocshared=28
 Will use up to   28 processors via shared memory.
 %mem=48gb
 ----------------------------------------------------------------------
 # wb97xd def2svp scrf=(smd,solvent=acetonitrile) g09default scf=(xqc,m
 axcycle=64) force guess=read nosymm
 ----------------------------------------------------------------------
 1/10=7,30=1,38=1,158=3,167=1/1,3;
 2/12=2,15=1,17=6,18=5,40=1/2;
 3/5=43,7=101,11=2,25=1,27=10,30=1,70=32201,71=1,72=2,74=-58,75=-4,116=-2,158=3/1,2,3;
 4/5=1,60=-1/1;
 5/5=2,7=64,8=3,13=1,38=6,53=2,87=10/2,8;
 6/7=2,8=2,9=2,10=2,28=1,87=10/1;
 7/29=1,30=1,87=10/1,2,3,16;
 1/10=7,30=1,158=3,167=1/3;
 99//99;
 Using 2006 physical constants.
 ----------
 Title Card
 ----------
 Symbolic Z-matrix:
 Charge = -2 Multiplicity = 1
 6                    -8.9393   -0.96196   1.10644 
 6                    -8.93843   0.53153   1.25471 
 6                    -8.28295  -2.09261   0.98121 
 6                    -6.9828   -2.83751   0.89685 
 6                    -9.59664  -2.09359   0.99745 
 6                    -10.89744  -2.83989   0.93561 
 6                    -10.1462   1.18693   1.3368 
 7                    -11.18005   1.72556   1.40275 
 6                    -7.7297    1.18729   1.3183 
 7                    -6.6953    1.72621   1.37272 
 6                    -5.80799  -2.12183   0.95235 
 7                    -4.82289  -1.49711   1.0006 
 6                    -7.01344  -4.20611   0.75012 
 7                    -7.05931  -5.36639   0.62645 
 6                    -10.86721  -4.21178   0.82089 
 7                    -10.82124  -5.37477   0.72796 
 6                    -12.0721  -2.12448   0.99721 
 7                    -13.05691  -1.49968   1.05038 
 

 GradGradGradGradGradGradGradGradGradGradGradGradGradGradGradGradGradGrad
 Berny optimization.
 Initialization pass.
 Trust Radius=3.00D-01 FncErr=1.00D-07 GrdErr=1.00D-07 EigMax=2.50D+02 EigMin=1.00D-04
 Number of steps in this run=      2 maximum allowed number of steps=      2.
 GradGradGradGradGradGradGradGradGradGradGradGradGradGradGradGradGradGrad

                          Input orientation:                          
 ---------------------------------------------------------------------
 Center     Atomic      Atomic             Coordinates (Angstroms)
 Number     Number       Type             X           Y           Z
 ---------------------------------------------------------------------
      1          6           0       -8.939296   -0.961958    1.106442
      2          6           0       -8.938430    0.531526    1.254711
      3          6           0       -8.282947   -2.092608    0.981212
      4          6           0       -6.982803   -2.837507    0.896854
      5          6           0       -9.596636   -2.093592    0.997454
      6          6           0      -10.897442   -2.839889    0.935611
      7          6           0      -10.146202    1.186930    1.336798
      8          7           0      -11.180045    1.725563    1.402752
      9          6           0       -7.729703    1.187293    1.318300
     10          7           0       -6.695297    1.726212    1.372720
     11          6           0       -5.807991   -2.121832    0.952346
     12          7           0       -4.822891   -1.497114    1.000595
     13          6           0       -7.013439   -4.206106    0.750117
     14          7           0       -7.059307   -5.366394    0.626453
     15          6           0      -10.867209   -4.211782    0.820894
     16          7           0      -10.821243   -5.374765    0.727963
     17          6           0      -12.072104   -2.124476    0.997206
     18          7           0      -13.056912   -1.499680    1.050377
 ---------------------------------------------------------------------
                    Distance matrix (angstroms):
                    1          2          3          4          5
     1  C    0.000000
     2  C    1.500825   0.000000
     3  C    1.313335   2.718555   0.000000
     4  C    2.718359   3.911894   1.500788   0.000000
     5  C    1.313229   2.718577   1.313790   2.719495   0.000000
     6  C    2.718482   3.912287   2.719576   3.914831   1.500959
     7  C    2.475359   1.376592   3.788606   5.137775   3.343502
     8  N    3.511627   2.544107   4.811373   6.220481   4.154202
     9  C    2.475333   1.376624   3.343271   4.115154   3.788481
    10  N    3.511794   2.544179   4.154191   4.597460   4.811393
    11  C    3.342772   4.114775   2.475297   1.376755   3.789019
    12  N    4.152396   4.595391   3.510980   2.544138   4.810867
    13  C    3.789511   5.138614   2.476273   1.376784   3.346162
    14  N    4.812880   6.221838   3.512951   2.544453   4.157754
    15  C    3.789426   5.138809   3.345895   4.121046   2.476340
    16  N    4.812259   6.221473   4.156878   4.604327   3.512603
    17  C    3.343332   4.115892   3.789325   5.139987   2.475660
    18  N    4.152956   4.596677   4.811142   6.221587   3.511273
                    6          7          8          9         10
     6  C    0.000000
     7  C    4.115895   0.000000
     8  N    4.597982   1.167608   0.000000
     9  C    5.138016   2.416569   3.493097   0.000000
    10  N    6.220802   3.492973   4.484849   1.167644   0.000000
    11  C    5.139883   5.469532   6.623011   3.844113   3.971331
    12  N    6.221530   5.971161   7.138683   3.969450   3.746226
    13  C    4.121460   6.264442   7.278134   5.470340   5.973378
    14  N    4.605441   7.278707   8.238870   6.624115   7.141042
    15  C    1.377013   5.471024   5.973985   6.264293   7.277991
    16  N    2.544508   6.624365   7.141340   7.277824   8.237902
    17  C    1.376750   3.845755   3.972787   5.470590   6.624113
    18  N    2.544139   3.971416   3.748198   5.972500   7.140058
                   11         12         13         14         15
    11  C    0.000000
    12  N    1.167486   0.000000
    13  C    2.416237   3.492833   0.000000
    14  N    3.492733   4.484737   1.167761   0.000000
    15  C    5.475478   6.628387   3.854425   3.983850   0.000000
    16  N    5.980352   7.147779   3.983168   3.763315   1.167595
    17  C    6.264274   7.276310   5.475795   5.981273   2.416548
    18  N    7.276230   8.234172   6.628609   7.148598   3.493273
                   16         17         18
    16  N    0.000000
    17  C    3.493068   0.000000
    18  N    4.485360   1.167495   0.000000
 Symmetry turned off by external request.
 Stoichiometry    C12N6(2-)
 Framework group  C1[X(C12N6)]
 Deg. of freedom    48
 Full point group                 C1      NOp   1
 Rotational constants (GHZ):           0.4299504           0.4294968           0.2148767
 Standard basis: def2SVP (5D, 7F)
   252 basis functions,   450 primitive gaussians,   270 cartesian basis functions
    58 alpha electrons       58 beta electrons
       nuclear repulsion energy       966.9177285159 Hartrees.
 NAtoms=   18 NActive=   18 NUniq=   18 SFac= 1.00D+00 NAtFMM=   60 NAOKFM=F Big=F
 Integral buffers will be    131072 words long.
 Raffenetti 2 integral format.
 Two-electron integral symmetry is turned off.
 Nuclear repulsion after empirical dispersion term =      966.9060871421 Hartrees.
 Force PCM accuracy= 1.00D-10.
 ------------------------------------------------------------------------------
 Polarizable Continuum Model (PCM)
 =================================
 Model                : PCM (using non-symmetric T matrix).
 Atomic radii         : SMD-Coulomb.
 Polarization charges : Total charges.
 Charge compensation  : None.
 Solution method      : On-the-fly selection.
 Cavity type          : VdW (van der Waals Surface) (Alpha=1.000).
 Cavity algorithm     : GePol (No added spheres)
                        Default sphere list used, NSphG=   18.
                        Lebedev-Laikov grids with approx.  5.0 points / Ang**2.
                        Smoothing algorithm: York/Karplus (Gamma=1.0000).
                        Polarization charges: spherical gaussians, with
                                              point-specific exponents (IZeta= 3).
                        Self-potential: point-specific (ISelfS= 7).
                        Self-field    : sphere-specific E.n sum rule (ISelfD= 2).
 1st derivatives      : Analytical E(r).r(x)/FMM algorithm (CHGder, D1EAlg=3).
                        Cavity 1st derivative terms included.
 Solvent              : Acetonitrile, Eps=  35.688000 Eps(inf)=   1.806874
 ------------------------------------------------------------------------------
 Spheres list:
 ISph  on   Nord     Re0    Alpha      Xe            Ye            Ze
    1   C      1    1.8500  1.000     -8.939296     -0.961958      1.106442
    2   C      2    1.8500  1.000     -8.938430      0.531526      1.254711
    3   C      3    1.8500  1.000     -8.282947     -2.092608      0.981212
    4   C      4    1.8500  1.000     -6.982803     -2.837507      0.896854
    5   C      5    1.8500  1.000     -9.596636     -2.093592      0.997454
    6   C      6    1.8500  1.000    -10.897442     -2.839889      0.935611
    7   C      7    1.8500  1.000    -10.146202      1.186930      1.336798
    8   N      8    1.8900  1.000    -11.180045      1.725563      1.402752
    9   C      9    1.8500  1.000     -7.729703      1.187293      1.318300
   10   N     10    1.8900  1.000     -6.695297      1.726212      1.372720
   11   C     11    1.8500  1.000     -5.807991     -2.121832      0.952346
   12   N     12    1.8900  1.000     -4.822891     -1.497114      1.000595
   13   C     13    1.8500  1.000     -7.013439     -4.206106      0.750117
   14   N     14    1.8900  1.000     -7.059307     -5.366394      0.626453
   15   C     15    1.8500  1.000    -10.867209     -4.211782      0.820894
   16   N     16    1.8900  1.000    -10.821243     -5.374765      0.727963
   17   C     17    1.8500  1.000    -12.072104     -2.124476      0.997206
   18   N     18    1.8900  1.000    -13.056912     -1.499680      1.050377
 ------------------------------------------------------------------------------
 ------------------------------------------------------------------------------
 Atomic radii for non-electrostatic terms: SMD-CDS.
 ------------------------------------------------------------------------------
 Nuclear repulsion after PCM non-electrostatic terms =      966.9145182505 Hartrees.
 One-electron integrals computed using PRISM.
   1 Symmetry operations used in ECPInt.
 ECPInt:  NShTT=    5886 NPrTT=   23670 LenC2=    5404 LenP2D=   14978.
 LDataN:  DoStor=T MaxTD1= 4 Len=   56
 NBasis=   252 RedAO= T EigKep=  1.77D-04  NBF=   252
 NBsUse=   252 1.00D-06 EigRej= -1.00D+00 NBFU=   252
 Initial guess from the checkpoint file:  "a.chk"
 B after Tr=    -0.000058   -0.000008   -0.000492
         Rot=    1.000000   -0.000011   -0.000016    0.000001 Ang=  -0.00 deg.
 Requested convergence on RMS density matrix=1.00D-08 within  64 cycles.
 Requested convergence on MAX density matrix=1.00D-06.
 Requested convergence on             energy=1.00D-06.
 No special actions if energy rises.
 Inv3:  Mode=1 IEnd=    19202700.
 Iteration    1 A*A^-1 deviation from unit magnitude is 3.55D-15 for   1312.
 Iteration    1 A*A^-1 deviation from orthogonality  is 2.49D-15 for    922    450.
 Iteration    1 A^-1*A deviation from unit magnitude is 3.33D-15 for     87.
 Iteration    1 A^-1*A deviation from orthogonality  is 1.57D-11 for   1215   1186.
 Error on total polarization charges =  0.02155
 SCF Done:  E(RwB97XD) =  -784.998833947     A.U. after   12 cycles
            NFock= 12  Conv=0.58D-08     -V/T= 2.0093
 SMD-CDS (non-electrostatic) energy       (kcal/mol) =       5.29
 (included in total energy above)
 QCSCF skips out because SCF is already converged.

 **********************************************************************

            Population analysis using the SCF Density.

 **********************************************************************

 Alpha  occ. eigenvalues --  -14.42464 -14.42460 -14.42460 -14.42456 -14.42455
 Alpha  occ. eigenvalues --  -14.42452 -10.36242 -10.36094 -10.36086 -10.33414
 Alpha  occ. eigenvalues --  -10.33412 -10.33410 -10.33408 -10.33407 -10.33405
 Alpha  occ. eigenvalues --  -10.32754 -10.32751 -10.32742  -1.08627  -0.98852
 Alpha  occ. eigenvalues --   -0.98850  -0.98770  -0.97580  -0.97579  -0.97497
 Alpha  occ. eigenvalues --   -0.87783  -0.87779  -0.86880  -0.69008  -0.68990
 Alpha  occ. eigenvalues --   -0.66227  -0.65410  -0.65399  -0.63524  -0.54187
 Alpha  occ. eigenvalues --   -0.48428  -0.48419  -0.47872  -0.47868  -0.45300
 Alpha  occ. eigenvalues --   -0.44944  -0.44823  -0.44821  -0.44419  -0.44414
 Alpha  occ. eigenvalues --   -0.44281  -0.42324  -0.41927  -0.41925  -0.41745
 Alpha  occ. eigenvalues --   -0.41580  -0.41567  -0.40235  -0.39716  -0.39705
 Alpha  occ. eigenvalues --   -0.30162  -0.30157  -0.25211
 Alpha virt. eigenvalues --    0.07284   0.07300   0.08163   0.08919   0.08928
 Alpha virt. eigenvalues --    0.12611   0.12616   0.12967   0.13846   0.14727
 Alpha virt. eigenvalues --    0.14737   0.15999   0.21627   0.21637   0.25269
 Alpha virt. eigenvalues --    0.28113   0.28680   0.28697   0.28755   0.28759
 Alpha virt. eigenvalues --    0.31480   0.33247   0.34115   0.34129   0.36966
 Alpha virt. eigenvalues --    0.37430   0.37465   0.47992   0.48010   0.49163
 Alpha virt. eigenvalues --    0.49684   0.54919   0.54934   0.56473   0.56476
 Alpha virt. eigenvalues --    0.57949   0.57956   0.59171   0.59469   0.60090
 Alpha virt. eigenvalues --    0.61777   0.61791   0.61874   0.61884   0.64127
 Alpha virt. eigenvalues --    0.65701   0.67673   0.71743   0.71750   0.72581
 Alpha virt. eigenvalues --    0.72609   0.73856   0.73874   0.74899   0.75002
 Alpha virt. eigenvalues --    0.75035   0.75245   0.76084   0.76119   0.78599
 Alpha virt. eigenvalues --    0.81759   0.82314   0.82386   0.83602   0.83610
 Alpha virt. eigenvalues --    0.88615   0.89230   0.92418   0.92433   0.94431
 Alpha virt. eigenvalues --    0.94486   0.95309   0.95335   0.96472   0.97677
 Alpha virt. eigenvalues --    0.98016   1.00832   1.00845   1.01554   1.01629
 Alpha virt. eigenvalues --    1.02301   1.02305   1.04703   1.06156   1.06206
 Alpha virt. eigenvalues --    1.07104   1.09335   1.11200   1.11201   1.13339
 Alpha virt. eigenvalues --    1.13361   1.19369   1.19782   1.20163   1.20600
 Alpha virt. eigenvalues --    1.20648   1.24816   1.24839   1.29326   1.34804
 Alpha virt. eigenvalues --    1.40131   1.40187   1.42339   1.42375   1.45017
 Alpha virt. eigenvalues --    1.46508   1.46578   1.48019   1.48294   1.50836
 Alpha virt. eigenvalues --    1.63700   1.67014   1.69946   1.69956   1.71190
 Alpha virt. eigenvalues --    1.71316   1.71355   1.78915   1.78949   1.79477
 Alpha virt. eigenvalues --    1.79978   1.80000   1.81847   1.81855   1.81995
 Alpha virt. eigenvalues --    1.86353   1.86369   1.87585   1.92741   1.92755
 Alpha virt. eigenvalues --    1.95303   1.99660   2.05730   2.05748   2.09248
 Alpha virt. eigenvalues --    2.09264   2.10776   2.17847   2.19990   2.23241
 Alpha virt. eigenvalues --    2.23257   2.26012   2.26110   2.26321   2.26985
 Alpha virt. eigenvalues --    2.27034   2.30782   2.33124   2.36080   2.36083
 Alpha virt. eigenvalues --    2.36611   2.36616   2.37242   2.37251   2.38074
 Alpha virt. eigenvalues --    2.38408   2.38960   2.38974   2.39153   2.39893
 Alpha virt. eigenvalues --    2.42061   2.42074   2.56120   2.67600   2.67613
 Alpha virt. eigenvalues --    2.71052   2.71080   2.96717   2.98211   2.98230
 Alpha virt. eigenvalues --    3.00175   3.02015   3.02030   3.03612   3.05752
 Alpha virt. eigenvalues --    3.07586   3.07602   3.10339   3.10356   3.18449
 Alpha virt. eigenvalues --    3.18477   3.18942   3.26975   3.27020   3.33161
 Alpha virt. eigenvalues --    3.44172   3.44192   3.45710   3.61403   3.64113
 Alpha virt. eigenvalues --    3.64126   3.64987   3.65052   3.72823
          Condensed to atoms (all electrons):
               1          2          3          4          5          6
     1  C    4.906902   0.454549   0.339763  -0.075098   0.339784  -0.075137
     2  C    0.454549   5.525371  -0.075072  -0.004723  -0.075141  -0.004717
     3  C    0.339763  -0.075072   4.906411   0.454504   0.340129  -0.075213
     4  C   -0.075098  -0.004723   0.454504   5.525035  -0.075250  -0.004692
     5  C    0.339784  -0.075141   0.340129  -0.075250   4.906983   0.454349
     6  C   -0.075137  -0.004717  -0.075213  -0.004692   0.454349   5.525461
     7  C    0.011482   0.375132   0.008781  -0.000488  -0.028492   0.003559
     8  N   -0.000682  -0.053278  -0.000024  -0.000001  -0.000580   0.000229
     9  C    0.011609   0.374976  -0.028467   0.003567   0.008787  -0.000487
    10  N   -0.000678  -0.053285  -0.000579   0.000229  -0.000024  -0.000001
    11  C   -0.028503   0.003553   0.011604   0.375292   0.008792  -0.000479
    12  N   -0.000584   0.000231  -0.000672  -0.053213  -0.000023  -0.000001
    13  C    0.008798  -0.000484   0.011288   0.375255  -0.028374   0.003503
    14  N   -0.000024  -0.000001  -0.000665  -0.053261  -0.000577   0.000223
    15  C    0.008818  -0.000482  -0.028363   0.003499   0.011371   0.375280
    16  N   -0.000023  -0.000001  -0.000579   0.000224  -0.000658  -0.053261
    17  C   -0.028522   0.003538   0.008797  -0.000478   0.011576   0.375331
    18  N   -0.000586   0.000230  -0.000023  -0.000001  -0.000665  -0.053277
               7          8          9         10         11         12
     1  C    0.011482  -0.000682   0.011609  -0.000678  -0.028503  -0.000584
     2  C    0.375132  -0.053278   0.374976  -0.053285   0.003553   0.000231
     3  C    0.008781  -0.000024  -0.028467  -0.000579   0.011604  -0.000672
     4  C   -0.000488  -0.000001   0.003567   0.000229   0.375292  -0.053213
     5  C   -0.028492  -0.000580   0.008787  -0.000024   0.008792  -0.000023
     6  C    0.003559   0.000229  -0.000487  -0.000001  -0.000479  -0.000001
     7  C    4.894502   0.918598  -0.072932   0.002785   0.000189   0.000004
     8  N    0.918598   6.183174   0.002784   0.000094   0.000000   0.000000
     9  C   -0.072932   0.002784   4.894482   0.918558  -0.000883   0.000132
    10  N    0.002785   0.000094   0.918558   6.183315   0.000119  -0.000894
    11  C    0.000189   0.000000  -0.000883   0.000119   4.893629   0.918666
    12  N    0.000004   0.000000   0.000132  -0.000894   0.918666   6.183109
    13  C   -0.000022  -0.000000   0.000188   0.000004  -0.072472   0.002782
    14  N   -0.000000  -0.000000   0.000000   0.000000   0.002771   0.000094
    15  C    0.000188   0.000004  -0.000022  -0.000000   0.000186   0.000000
    16  N    0.000000   0.000000  -0.000000  -0.000000   0.000004   0.000000
    17  C   -0.000880   0.000119   0.000188   0.000000  -0.000022  -0.000000
    18  N    0.000130  -0.000890   0.000004   0.000000  -0.000000  -0.000000
              13         14         15         16         17         18
     1  C    0.008798  -0.000024   0.008818  -0.000023  -0.028522  -0.000586
     2  C   -0.000484  -0.000001  -0.000482  -0.000001   0.003538   0.000230
     3  C    0.011288  -0.000665  -0.028363  -0.000579   0.008797  -0.000023
     4  C    0.375255  -0.053261   0.003499   0.000224  -0.000478  -0.000001
     5  C   -0.028374  -0.000577   0.011371  -0.000658   0.011576  -0.000665
     6  C    0.003503   0.000223   0.375280  -0.053261   0.375331  -0.053277
     7  C   -0.000022  -0.000000   0.000188   0.000000  -0.000880   0.000130
     8  N   -0.000000  -0.000000   0.000004   0.000000   0.000119  -0.000890
     9  C    0.000188   0.000000  -0.000022  -0.000000   0.000188   0.000004
    10  N    0.000004   0.000000  -0.000000  -0.000000   0.000000   0.000000
    11  C   -0.072472   0.002771   0.000186   0.000004  -0.000022  -0.000000
    12  N    0.002782   0.000094   0.000000   0.000000  -0.000000  -0.000000
    13  C    4.893969   0.918545  -0.000861   0.000120   0.000186   0.000000
    14  N    0.918545   6.183629   0.000117  -0.000867   0.000004   0.000000
    15  C   -0.000861   0.000117   4.893708   0.918746  -0.072338   0.002775
    16  N    0.000120  -0.000867   0.918746   6.183187   0.002771   0.000093
    17  C    0.000186   0.000004  -0.072338   0.002771   4.893493   0.918628
    18  N    0.000000   0.000000   0.002775   0.000093   0.918628   6.183183
 Mulliken charges:
               1
     1  C    0.128133
     2  C   -0.470396
     3  C    0.128383
     4  C   -0.470398
     5  C    0.128014
     6  C   -0.470669
     7  C   -0.112534
     8  N   -0.049547
     9  C   -0.112483
    10  N   -0.049643
    11  C   -0.112445
    12  N   -0.049631
    13  C   -0.112425
    14  N   -0.049987
    15  C   -0.112625
    16  N   -0.049755
    17  C   -0.112391
    18  N   -0.049602
 Sum of Mulliken charges =  -2.00000
 Mulliken charges with hydrogens summed into heavy atoms:
               1
     1  C    0.128133
     2  C   -0.470396
     3  C    0.128383
     4  C   -0.470398
     5  C    0.128014
     6  C   -0.470669
     7  C   -0.112534
     8  N   -0.049547
     9  C   -0.112483
    10  N   -0.049643
    11  C   -0.112445
    12  N   -0.049631
    13  C   -0.112425
    14  N   -0.049987
    15  C   -0.112625
    16  N   -0.049755
    17  C   -0.112391
    18  N   -0.049602
 Electronic spatial extent (au):  <R**2>=          39337.3848
 Charge=             -2.0000 electrons
 Dipole moment (field-independent basis, Debye):
    X=             85.8746    Y=             16.4625    Z=             -9.9029  Tot=             87.9973
 Quadrupole moment (field-independent basis, Debye-Ang):
   XX=           -970.4736   YY=           -230.0243   ZZ=           -113.2041
   XY=           -147.2467   XZ=             89.3880   YZ=              7.0803
 Traceless Quadrupole moment (field-independent basis, Debye-Ang):
   XX=           -532.5729   YY=            207.8764   ZZ=            324.6966
   XY=           -147.2467   XZ=             89.3880   YZ=              7.0803
 Octapole moment (field-independent basis, Debye-Ang**2):
  XXX=          12301.4813  YYY=           1157.8764  ZZZ=           -328.5638  XYY=           2056.7148
  XXY=           1593.4601  XXZ=          -1021.3204  XZZ=           1013.6252  YZZ=            174.2056
  YYZ=           -197.3537  XYZ=            -65.4814
 Hexadecapole moment (field-independent basis, Debye-Ang**3):
 XXXX=        -163298.5761 YYYY=          -8779.5638 ZZZZ=           -800.6071 XXXY=         -19195.8828
 XXXZ=          13058.5578 YYYX=         -10355.7886 YYYZ=            777.5536 ZZZX=           2954.4419
 ZZZY=            376.5906 XXYY=         -20302.1690 XXZZ=          -9869.7555 YYZZ=          -1037.8239
 XXYZ=            799.1539 YYXZ=           1781.8572 ZZXY=          -1560.5040
 N-N= 9.669145182505D+02 E-N=-3.787377897570D+03  KE= 7.777800274826D+02
   1 Symmetry operations used in ECPInt.
 ECPInt:  NShTT=    5886 NPrTT=   23670 LenC2=    5404 LenP2D=   14978.
 LDataN:  DoStor=T MaxTD1= 5 Len=  102
 D1PCM: PCM CHGder 1st derivatives, ID1Alg=3 FixD1E=F DoIter=F DoCFld=F I1PDM=0.
 Calling FoFJK, ICntrl=      2127 FMM=F ISym2X=0 I1Cent= 0 IOpClX= 0 NMat=1 NMatS=1 NMatT=0.
 -------------------------------------------------------------------
 Center     Atomic                   Forces (Hartrees/Bohr)
 Number     Number              X              Y              Z
 -------------------------------------------------------------------
      1        6           0.000135856    0.168564729    0.016172390
      2        6          -0.000007149   -0.083321589   -0.008040105
      3        6           0.146010481   -0.084219171   -0.008966943
      4        6          -0.072509351    0.041575961    0.004402542
      5        6          -0.146197116   -0.084391395   -0.007123814
      6        6           0.072567352    0.041436893    0.003341309
      7        6          -0.029547090    0.016136833    0.001792866
      8        7           0.003301471   -0.001779052    0.000020135
      9        6           0.029573717    0.016168639    0.001661927
     10        7          -0.003351041   -0.001783185   -0.000184490
     11        6           0.028523936    0.017339702    0.001408347
     12        7          -0.002899610   -0.001874194   -0.000239539
     13        6          -0.000827170   -0.033777793   -0.003438585
     14        7           0.000106111    0.004054721    0.000120116
     15        6           0.000810166   -0.033268042   -0.002665617
     16        7          -0.000109266    0.003655081    0.000386660
     17        6          -0.028469849    0.017336826    0.001706766
     18        7           0.002888554   -0.001854966   -0.000353966
 -------------------------------------------------------------------
 Cartesian Forces:  Max     0.168564729 RMS     0.045861540

 GradGradGradGradGradGradGradGradGradGradGradGradGradGradGradGradGradGrad
 Berny optimization.
 Search for a local minimum.
 Step number   1 out of a maximum of    2
 All quantities printed in internal units (Hartrees-Bohrs-Radians)
 Second derivative matrix not updated -- first step.
 ITU=  0
     Eigenvalues ---    0.00065   0.00080   0.00080   0.00303   0.00303
     Eigenvalues ---    0.00946   0.01500   0.01698   0.01976   0.01982
     Eigenvalues ---    0.03969   0.03986   0.05189   0.05216   0.09745
     Eigenvalues ---    0.13903   0.21102   0.21144   0.25199   0.26048
     Eigenvalues ---    0.26164   0.27074   0.28801   0.28822   0.52409
     Eigenvalues ---    0.84978   0.86699   0.87154   1.03172   1.03217
     Eigenvalues ---    1.06549   1.06603   1.16783   1.64494   1.64683
     Eigenvalues ---    2.29480   2.76724   2.76756   2.77018   2.85947
     Eigenvalues ---    2.85968   2.86043 134.24729 140.75303 152.42718
     Eigenvalues ---  175.26776 188.22750 199.13952
 Quadratic step=5.235D-01 exceeds max=3.000D-01 adjusted using Lamda=-9.825D-03.
 Angle between NR and scaled steps=  37.96 degrees.
 Angle between quadratic step and forces=  54.85 degrees.
 Linear search not attempted -- first point.
 B after Tr=     0.000011   -0.000029    0.000064
         Rot=    1.000000    0.000003    0.000003    0.000000 Ang=   0.00 deg.
 Variable       Old X    -DE/DX   Delta X   Delta X   Delta X     New X
                                 (Linear)    (Quad)   (Total)
    X1      -16.89282   0.00014   0.00000   0.00013   0.00013 -16.89269
    Y1       -1.81784   0.16856   0.00000   0.06166   0.06165  -1.75619
    Z1        2.09087   0.01617   0.00000   0.00618   0.00616   2.09703
    X2      -16.89118  -0.00001   0.00000  -0.00011  -0.00011 -16.89130
    Y2        1.00444  -0.08332   0.00000  -0.09856  -0.09857   0.90587
    Z2        2.37106  -0.00804   0.00000  -0.00781  -0.00784   2.36322
    X3      -15.65250   0.14601   0.00000   0.05268   0.05268 -15.59982
    Y3       -3.95446  -0.08422   0.00000  -0.02987  -0.02989  -3.98434
    Z3        1.85422  -0.00897   0.00000  -0.00241  -0.00241   1.85181
    X4      -13.19559  -0.07251   0.00000  -0.08724  -0.08724 -13.28282
    Y4       -5.36211   0.04158   0.00000   0.04960   0.04958  -5.31253
    Z4        1.69481   0.00440   0.00000   0.00399   0.00401   1.69882
    X5      -18.13501  -0.14620   0.00000  -0.05259  -0.05259 -18.18761
    Y5       -3.95632  -0.08439   0.00000  -0.02992  -0.02993  -3.98624
    Z5        1.88491  -0.00712   0.00000  -0.00207  -0.00209   1.88283
    X6      -20.59318   0.07257   0.00000   0.08755   0.08755 -20.50563
    Y6       -5.36661   0.04144   0.00000   0.04962   0.04961  -5.31700
    Z6        1.76805   0.00334   0.00000   0.00480   0.00478   1.77283
    X7      -19.17354  -0.02955   0.00000  -0.04546  -0.04546 -19.21901
    Y7        2.24297   0.01614   0.00000  -0.05696  -0.05697   2.18600
    Z7        2.52618   0.00179   0.00000  -0.00390  -0.00396   2.52223
    X8      -21.12722   0.00330   0.00000  -0.03259  -0.03259 -21.15982
    Y8        3.26084  -0.00178   0.00000  -0.03926  -0.03926   3.22158
    Z8        2.65082   0.00002   0.00000  -0.00211  -0.00218   2.64864
    X9      -14.60702   0.02957   0.00000   0.04485   0.04485 -14.56217
    Y9        2.24366   0.01617   0.00000  -0.05634  -0.05635   2.18731
    Z9        2.49123   0.00166   0.00000  -0.00371  -0.00373   2.48749
   X10      -12.65228  -0.00335   0.00000   0.03183   0.03183 -12.62045
   Y10        3.26207  -0.00178   0.00000  -0.03830  -0.03831   3.22376
   Z10        2.59407  -0.00018   0.00000  -0.00292  -0.00294   2.59112
   X11      -10.97551   0.02852   0.00000  -0.02734  -0.02734 -11.00285
   Y11       -4.00968   0.01734   0.00000   0.06625   0.06624  -3.94345
   Z11        1.79967   0.00141   0.00000   0.00645   0.00647   1.80615
   X12       -9.11394  -0.00290   0.00000  -0.01690  -0.01690  -9.13084
   Y12       -2.82913  -0.00187   0.00000   0.04443   0.04442  -2.78472
   Z12        1.89085  -0.00024   0.00000   0.00588   0.00591   1.89676
   X13      -13.25348  -0.00083   0.00000  -0.07537  -0.07537 -13.32884
   Y13       -7.94839  -0.03378   0.00000  -0.00980  -0.00981  -7.95820
   Z13        1.41752  -0.00344   0.00000  -0.00541  -0.00538   1.41213
   X14      -13.34016   0.00011   0.00000  -0.05456  -0.05456 -13.39472
   Y14      -10.14102   0.00405   0.00000  -0.00695  -0.00696 -10.14798
   Z14        1.18382   0.00012   0.00000  -0.00803  -0.00799   1.17583
   X15      -20.53605   0.00081   0.00000   0.07521   0.07521 -20.46084
   Y15       -7.95912  -0.03327   0.00000  -0.01053  -0.01054  -7.96966
   Z15        1.55127  -0.00267   0.00000   0.00750   0.00750   1.55876
   X16      -20.44919  -0.00011   0.00000   0.05430   0.05430 -20.39489
   Y16      -10.15683   0.00366   0.00000  -0.00866  -0.00867 -10.16551
   Z16        1.37565   0.00039   0.00000   0.01231   0.01231   1.38796
   X17      -22.81297  -0.02847   0.00000   0.02795   0.02795 -22.78502
   Y17       -4.01468   0.01734   0.00000   0.06736   0.06735  -3.94733
   Z17        1.88445   0.00171   0.00000  -0.00055  -0.00059   1.88386
   X18      -24.67399   0.00289   0.00000   0.01768   0.01768 -24.65631
   Y18       -2.83398  -0.00185   0.00000   0.04643   0.04642  -2.78756
   Z18        1.98492  -0.00035   0.00000  -0.00797  -0.00802   1.97690
         Item               Value     Threshold  Converged?
 Maximum Force            0.168565     0.000450     NO 
 RMS     Force            0.045862     0.000300     NO 
 Maximum Displacement     0.098573     0.001800     NO 
 RMS     Displacement     0.040832     0.001200     NO 
 Predicted change in Energy=-2.955408D-02
 GradGradGradGradGradGradGradGradGradGradGradGradGradGradGradGradGradGrad

 Unable to Open any file for archive entry.
 1\1\GINC-X10P1N4\Force\RwB97XD\def2SVP\C12N6(2-)\MAYUMIAO\11-Oct-2024\
 0\\# wb97xd def2svp scrf=(smd,solvent=acetonitrile) g09default scf=(xq
 c,maxcycle=64) force guess=read nosymm\\Title Card\\-2,1\C,-8.93929605
 ,-0.96195756,1.10644196\C,-8.9384296,0.53152583,1.254711\C,-8.28294687
 ,-2.0926083,0.98121216\C,-6.9828031,-2.83750679,0.89685427\C,-9.596636
 24,-2.09359206,0.99745356\C,-10.89744162,-2.83988933,0.93561134\C,-10.
 14620159,1.18693015,1.33679832\N,-11.18004513,1.72556334,1.40275167\C,
 -7.72970335,1.1872929,1.31829979\N,-6.69529656,1.72621232,1.37272011\C
 ,-5.8079912,-2.12183162,0.95234573\N,-4.8228905,-1.4971137,1.00059522\
 C,-7.01343887,-4.20610573,0.75011668\N,-7.05930663,-5.36639403,0.62645
 271\C,-10.86720946,-4.21178248,0.82089439\N,-10.82124278,-5.37476508,0
 .72796267\C,-12.07210389,-2.12447597,0.99720645\N,-13.05691159,-1.4996
 7991,1.05037701\\Version=ES64L-G16RevC.01\HF=-784.9988339\RMSD=5.807e-
 09\RMSF=4.586e-02\Dipole=-0.0004955,-0.0048418,-0.0054668\Quadrupole=-
 395.9549521,154.5509853,241.4039668,-109.474347,66.4577538,5.2640047\P
 G=C01 [X(C12N6)]\\@
 The archive entry for this job was punched.


 NEVER LOSE YOUR IGNORANCE, IT CAN'T BE REPLACED.
   -- ANDY CAPP
 Job cpu time:       0 days  0 hours  9 minutes 10.4 seconds.
 Elapsed time:       0 days  0 hours  0 minutes 20.9 seconds.
 File lengths (MBytes):  RWF=    147 Int=      0 D2E=      0 Chk=      8 Scr=      1
 Normal termination of Gaussian 16 at Fri Oct 11 15:31:31 2024.
