 Entering Gaussian System, Link 0=g16
 Input=JOBS/4_B.gjf
 Output=JOBS/4_B.log
 Initial command:
 /data/app/gaussian/C01-avx2//g16/l1.exe "/tmp/Gau-2518064.inp" -scrdir="/tmp/"
 Entering Link 1 = /data/app/gaussian/C01-avx2//g16/l1.exe PID=   2518065.
  
 Copyright (c) 1988-2019, Gaussian, Inc.  All Rights Reserved.
  
 This is part of the Gaussian(R) 16 program.  It is based on
 the Gaussian(R) 09 system (copyright 2009, Gaussian, Inc.),
 the Gaussian(R) 03 system (copyright 2003, Gaussian, Inc.),
 the Gaussian(R) 98 system (copyright 1998, Gaussian, Inc.),
 the Gaussian(R) 94 system (copyright 1995, Gaussian, Inc.),
 the Gaussian 92(TM) system (copyright 1992, Gaussian, Inc.),
 the Gaussian 90(TM) system (copyright 1990, Gaussian, Inc.),
 the Gaussian 88(TM) system (copyright 1988, Gaussian, Inc.),
 the Gaussian 86(TM) system (copyright 1986, Carnegie Mellon
 University), and the Gaussian 82(TM) system (copyright 1983,
 Carnegie Mellon University). Gaussian is a federally registered
 trademark of Gaussian, Inc.
  
 This software contains proprietary and confidential information,
 including trade secrets, belonging to Gaussian, Inc.
  
 This software is provided under written license and may be
 used, copied, transmitted, or stored only in accord with that
 written license.
  
 The following legend is applicable only to US Government
 contracts under FAR:
  
                    RESTRICTED RIGHTS LEGEND
  
 Use, reproduction and disclosure by the US Government is
 subject to restrictions as set forth in subparagraphs (a)
 and (c) of the Commercial Computer Software - Restricted
 Rights clause in FAR 52.227-19.
  
 Gaussian, Inc.
 340 Quinnipiac St., Bldg. 40, Wallingford CT 06492
  
  
 ---------------------------------------------------------------
 Warning -- This program may not be used in any manner that
 competes with the business of Gaussian, Inc. or will provide
 assistance to any competitor of Gaussian, Inc.  The licensee
 of this program is prohibited from giving any competitor of
 Gaussian, Inc. access to this program.  By using this program,
 the user acknowledges that Gaussian, Inc. is engaged in the
 business of creating and licensing software in the field of
 computational chemistry and represents and warrants to the
 licensee that it is not a competitor of Gaussian, Inc. and that
 it will not use this program in any manner prohibited above.
 ---------------------------------------------------------------
  

 Cite this work as:
 Gaussian 16, Revision C.01,
 M. J. Frisch, G. W. Trucks, H. B. Schlegel, G. E. Scuseria, 
 M. A. Robb, J. R. Cheeseman, G. Scalmani, V. Barone, 
 G. A. Petersson, H. Nakatsuji, X. Li, M. Caricato, A. V. Marenich, 
 J. Bloino, B. G. Janesko, R. Gomperts, B. Mennucci, H. P. Hratchian, 
 J. V. Ortiz, A. F. Izmaylov, J. L. Sonnenberg, D. Williams-Young, 
 F. Ding, F. Lipparini, F. Egidi, J. Goings, B. Peng, A. Petrone, 
 T. Henderson, D. Ranasinghe, V. G. Zakrzewski, J. Gao, N. Rega, 
 G. Zheng, W. Liang, M. Hada, M. Ehara, K. Toyota, R. Fukuda, 
 J. Hasegawa, M. Ishida, T. Nakajima, Y. Honda, O. Kitao, H. Nakai, 
 T. Vreven, K. Throssell, J. A. Montgomery, Jr., J. E. Peralta, 
 F. Ogliaro, M. J. Bearpark, J. J. Heyd, E. N. Brothers, K. N. Kudin, 
 V. N. Staroverov, T. A. Keith, R. Kobayashi, J. Normand, 
 K. Raghavachari, A. P. Rendell, J. C. Burant, S. S. Iyengar, 
 J. Tomasi, M. Cossi, J. M. Millam, M. Klene, C. Adamo, R. Cammi, 
 J. W. Ochterski, R. L. Martin, K. Morokuma, O. Farkas, 
 J. B. Foresman, and D. J. Fox, Gaussian, Inc., Wallingford CT, 2019.
 
 ******************************************
 Gaussian 16:  ES64L-G16RevC.01  3-Jul-2019
                11-Oct-2024 
 ******************************************
 %chk=b.chk
 %nprocshared=28
 Will use up to   28 processors via shared memory.
 %mem=48gb
 ----------------------------------------------------------------------
 # wb97xd def2svp scrf=(smd,solvent=acetonitrile) g09default scf=(xqc,m
 axcycle=64) force guess=read nosymm
 ----------------------------------------------------------------------
 1/10=7,30=1,38=1,158=3,167=1/1,3;
 2/12=2,15=1,17=6,18=5,40=1/2;
 3/5=43,7=101,11=2,25=1,27=10,30=1,70=32201,71=1,72=2,74=-58,75=-4,116=-2,158=3/1,2,3;
 4/5=1,60=-1/1;
 5/5=2,7=64,8=3,13=1,38=6,53=2,87=10/2,8;
 6/7=2,8=2,9=2,10=2,28=1,87=10/1;
 7/29=1,30=1,87=10/1,2,3,16;
 1/10=7,30=1,158=3,167=1/3;
 99//99;
 Using 2006 physical constants.
 ----------
 Title Card
 ----------
 Symbolic Z-matrix:
 Charge = -1 Multiplicity = 2
 6                    -8.9393   -0.96196   1.10644 
 6                    -8.93843   0.53153   1.25471 
 6                    -8.28295  -2.09261   0.98121 
 6                    -6.9828   -2.83751   0.89685 
 6                    -9.59664  -2.09359   0.99745 
 6                    -10.89744  -2.83989   0.93561 
 6                    -10.1462   1.18693   1.3368 
 7                    -11.18005   1.72556   1.40275 
 6                    -7.7297    1.18729   1.3183 
 7                    -6.6953    1.72621   1.37272 
 6                    -5.80799  -2.12183   0.95235 
 7                    -4.82289  -1.49711   1.0006 
 6                    -7.01344  -4.20611   0.75012 
 7                    -7.05931  -5.36639   0.62645 
 6                    -10.86721  -4.21178   0.82089 
 7                    -10.82124  -5.37477   0.72796 
 6                    -12.0721  -2.12448   0.99721 
 7                    -13.05691  -1.49968   1.05038 
 

 GradGradGradGradGradGradGradGradGradGradGradGradGradGradGradGradGradGrad
 Berny optimization.
 Initialization pass.
 Trust Radius=3.00D-01 FncErr=1.00D-07 GrdErr=1.00D-07 EigMax=2.50D+02 EigMin=1.00D-04
 Number of steps in this run=      2 maximum allowed number of steps=      2.
 GradGradGradGradGradGradGradGradGradGradGradGradGradGradGradGradGradGrad

                          Input orientation:                          
 ---------------------------------------------------------------------
 Center     Atomic      Atomic             Coordinates (Angstroms)
 Number     Number       Type             X           Y           Z
 ---------------------------------------------------------------------
      1          6           0       -8.939296   -0.961958    1.106442
      2          6           0       -8.938430    0.531526    1.254711
      3          6           0       -8.282947   -2.092608    0.981212
      4          6           0       -6.982803   -2.837507    0.896854
      5          6           0       -9.596636   -2.093592    0.997454
      6          6           0      -10.897442   -2.839889    0.935611
      7          6           0      -10.146202    1.186930    1.336798
      8          7           0      -11.180045    1.725563    1.402752
      9          6           0       -7.729703    1.187293    1.318300
     10          7           0       -6.695297    1.726212    1.372720
     11          6           0       -5.807991   -2.121832    0.952346
     12          7           0       -4.822891   -1.497114    1.000595
     13          6           0       -7.013439   -4.206106    0.750117
     14          7           0       -7.059307   -5.366394    0.626453
     15          6           0      -10.867209   -4.211782    0.820894
     16          7           0      -10.821243   -5.374765    0.727963
     17          6           0      -12.072104   -2.124476    0.997206
     18          7           0      -13.056912   -1.499680    1.050377
 ---------------------------------------------------------------------
                    Distance matrix (angstroms):
                    1          2          3          4          5
     1  C    0.000000
     2  C    1.500825   0.000000
     3  C    1.313335   2.718555   0.000000
     4  C    2.718359   3.911894   1.500788   0.000000
     5  C    1.313229   2.718577   1.313790   2.719495   0.000000
     6  C    2.718482   3.912287   2.719576   3.914831   1.500959
     7  C    2.475359   1.376592   3.788606   5.137775   3.343502
     8  N    3.511627   2.544107   4.811373   6.220481   4.154202
     9  C    2.475333   1.376624   3.343271   4.115154   3.788481
    10  N    3.511794   2.544179   4.154191   4.597460   4.811393
    11  C    3.342772   4.114775   2.475297   1.376755   3.789019
    12  N    4.152396   4.595391   3.510980   2.544138   4.810867
    13  C    3.789511   5.138614   2.476273   1.376784   3.346162
    14  N    4.812880   6.221838   3.512951   2.544453   4.157754
    15  C    3.789426   5.138809   3.345895   4.121046   2.476340
    16  N    4.812259   6.221473   4.156878   4.604327   3.512603
    17  C    3.343332   4.115892   3.789325   5.139987   2.475660
    18  N    4.152956   4.596677   4.811142   6.221587   3.511273
                    6          7          8          9         10
     6  C    0.000000
     7  C    4.115895   0.000000
     8  N    4.597982   1.167608   0.000000
     9  C    5.138016   2.416569   3.493097   0.000000
    10  N    6.220802   3.492973   4.484849   1.167644   0.000000
    11  C    5.139883   5.469532   6.623011   3.844113   3.971331
    12  N    6.221530   5.971161   7.138683   3.969450   3.746226
    13  C    4.121460   6.264442   7.278134   5.470340   5.973378
    14  N    4.605441   7.278707   8.238870   6.624115   7.141042
    15  C    1.377013   5.471024   5.973985   6.264293   7.277991
    16  N    2.544508   6.624365   7.141340   7.277824   8.237902
    17  C    1.376750   3.845755   3.972787   5.470590   6.624113
    18  N    2.544139   3.971416   3.748198   5.972500   7.140058
                   11         12         13         14         15
    11  C    0.000000
    12  N    1.167486   0.000000
    13  C    2.416237   3.492833   0.000000
    14  N    3.492733   4.484737   1.167761   0.000000
    15  C    5.475478   6.628387   3.854425   3.983850   0.000000
    16  N    5.980352   7.147779   3.983168   3.763315   1.167595
    17  C    6.264274   7.276310   5.475795   5.981273   2.416548
    18  N    7.276230   8.234172   6.628609   7.148598   3.493273
                   16         17         18
    16  N    0.000000
    17  C    3.493068   0.000000
    18  N    4.485360   1.167495   0.000000
 Symmetry turned off by external request.
 Stoichiometry    C12N6(1-,2)
 Framework group  C1[X(C12N6)]
 Deg. of freedom    48
 Full point group                 C1      NOp   1
 Rotational constants (GHZ):           0.4299504           0.4294968           0.2148767
 Standard basis: def2SVP (5D, 7F)
   252 basis functions,   450 primitive gaussians,   270 cartesian basis functions
    58 alpha electrons       57 beta electrons
       nuclear repulsion energy       966.9177285159 Hartrees.
 NAtoms=   18 NActive=   18 NUniq=   18 SFac= 1.00D+00 NAtFMM=   60 NAOKFM=F Big=F
 Integral buffers will be    131072 words long.
 Raffenetti 2 integral format.
 Two-electron integral symmetry is turned off.
 Nuclear repulsion after empirical dispersion term =      966.9060871421 Hartrees.
 Force PCM accuracy= 1.00D-10.
 ------------------------------------------------------------------------------
 Polarizable Continuum Model (PCM)
 =================================
 Model                : PCM (using non-symmetric T matrix).
 Atomic radii         : SMD-Coulomb.
 Polarization charges : Total charges.
 Charge compensation  : None.
 Solution method      : On-the-fly selection.
 Cavity type          : VdW (van der Waals Surface) (Alpha=1.000).
 Cavity algorithm     : GePol (No added spheres)
                        Default sphere list used, NSphG=   18.
                        Lebedev-Laikov grids with approx.  5.0 points / Ang**2.
                        Smoothing algorithm: York/Karplus (Gamma=1.0000).
                        Polarization charges: spherical gaussians, with
                                              point-specific exponents (IZeta= 3).
                        Self-potential: point-specific (ISelfS= 7).
                        Self-field    : sphere-specific E.n sum rule (ISelfD= 2).
 1st derivatives      : Analytical E(r).r(x)/FMM algorithm (CHGder, D1EAlg=3).
                        Cavity 1st derivative terms included.
 Solvent              : Acetonitrile, Eps=  35.688000 Eps(inf)=   1.806874
 ------------------------------------------------------------------------------
 Spheres list:
 ISph  on   Nord     Re0    Alpha      Xe            Ye            Ze
    1   C      1    1.8500  1.000     -8.939296     -0.961958      1.106442
    2   C      2    1.8500  1.000     -8.938430      0.531526      1.254711
    3   C      3    1.8500  1.000     -8.282947     -2.092608      0.981212
    4   C      4    1.8500  1.000     -6.982803     -2.837507      0.896854
    5   C      5    1.8500  1.000     -9.596636     -2.093592      0.997454
    6   C      6    1.8500  1.000    -10.897442     -2.839889      0.935611
    7   C      7    1.8500  1.000    -10.146202      1.186930      1.336798
    8   N      8    1.8900  1.000    -11.180045      1.725563      1.402752
    9   C      9    1.8500  1.000     -7.729703      1.187293      1.318300
   10   N     10    1.8900  1.000     -6.695297      1.726212      1.372720
   11   C     11    1.8500  1.000     -5.807991     -2.121832      0.952346
   12   N     12    1.8900  1.000     -4.822891     -1.497114      1.000595
   13   C     13    1.8500  1.000     -7.013439     -4.206106      0.750117
   14   N     14    1.8900  1.000     -7.059307     -5.366394      0.626453
   15   C     15    1.8500  1.000    -10.867209     -4.211782      0.820894
   16   N     16    1.8900  1.000    -10.821243     -5.374765      0.727963
   17   C     17    1.8500  1.000    -12.072104     -2.124476      0.997206
   18   N     18    1.8900  1.000    -13.056912     -1.499680      1.050377
 ------------------------------------------------------------------------------
 ------------------------------------------------------------------------------
 Atomic radii for non-electrostatic terms: SMD-CDS.
 ------------------------------------------------------------------------------
 Nuclear repulsion after PCM non-electrostatic terms =      966.9145182505 Hartrees.
 One-electron integrals computed using PRISM.
   1 Symmetry operations used in ECPInt.
 ECPInt:  NShTT=    5886 NPrTT=   23670 LenC2=    5404 LenP2D=   14978.
 LDataN:  DoStor=T MaxTD1= 4 Len=   56
 NBasis=   252 RedAO= T EigKep=  1.77D-04  NBF=   252
 NBsUse=   252 1.00D-06 EigRej= -1.00D+00 NBFU=   252
 Initial guess from the checkpoint file:  "b.chk"
 B after Tr=    -0.000058   -0.000008   -0.000492
         Rot=    1.000000   -0.000011   -0.000016    0.000001 Ang=  -0.00 deg.
 Initial guess <Sx>= 0.0000 <Sy>= 0.0000 <Sz>= 0.5000 <S**2>= 0.7914 S= 0.5205
 Requested convergence on RMS density matrix=1.00D-08 within  64 cycles.
 Requested convergence on MAX density matrix=1.00D-06.
 Requested convergence on             energy=1.00D-06.
 No special actions if energy rises.
 Inv3:  Mode=1 IEnd=    19202700.
 Iteration    1 A*A^-1 deviation from unit magnitude is 3.55D-15 for   1312.
 Iteration    1 A*A^-1 deviation from orthogonality  is 2.71D-15 for    922    450.
 Iteration    1 A^-1*A deviation from unit magnitude is 3.33D-15 for     87.
 Iteration    1 A^-1*A deviation from orthogonality  is 2.19D-11 for    714    705.
 Error on total polarization charges =  0.01958
 SCF Done:  E(UwB97XD) =  -784.808547694     A.U. after   20 cycles
            NFock= 20  Conv=0.12D-08     -V/T= 2.0093
 <Sx>= 0.0000 <Sy>= 0.0000 <Sz>= 0.5000 <S**2>= 0.7930 S= 0.5213
 <L.S>=  0.00000000000    
 SMD-CDS (non-electrostatic) energy       (kcal/mol) =       5.29
 (included in total energy above)
 Annihilation of the first spin contaminant:
 S**2 before annihilation     0.7930,   after     0.7516
 QCSCF skips out because SCF is already converged.

 **********************************************************************

            Population analysis using the SCF Density.

 **********************************************************************

 Alpha  occ. eigenvalues --  -14.45807 -14.45804 -14.45802 -14.45799 -14.45797
 Alpha  occ. eigenvalues --  -14.45794 -10.39102 -10.38953 -10.38947 -10.37986
 Alpha  occ. eigenvalues --  -10.37979 -10.37968 -10.35864 -10.35863 -10.35860
 Alpha  occ. eigenvalues --  -10.35859 -10.35858 -10.35857  -1.11678  -1.01856
 Alpha  occ. eigenvalues --   -1.01852  -1.01750  -1.00461  -1.00457  -1.00382
 Alpha  occ. eigenvalues --   -0.91608  -0.91606  -0.90775  -0.72263  -0.72246
 Alpha  occ. eigenvalues --   -0.69809  -0.68837  -0.68827  -0.66848  -0.56965
 Alpha  occ. eigenvalues --   -0.51311  -0.51298  -0.51121  -0.51111  -0.48162
 Alpha  occ. eigenvalues --   -0.47522  -0.47409  -0.47406  -0.47015  -0.47012
 Alpha  occ. eigenvalues --   -0.46903  -0.44768  -0.44704  -0.44702  -0.44540
 Alpha  occ. eigenvalues --   -0.44069  -0.44056  -0.42755  -0.42325  -0.42314
 Alpha  occ. eigenvalues --   -0.34022  -0.34015  -0.29587
 Alpha virt. eigenvalues --    0.04942   0.04957   0.05650   0.06423   0.06432
 Alpha virt. eigenvalues --    0.10010   0.10014   0.10324   0.11300   0.12269
 Alpha virt. eigenvalues --    0.12279   0.14102   0.20013   0.20022   0.22040
 Alpha virt. eigenvalues --    0.25271   0.25282   0.25939   0.27019   0.27026
 Alpha virt. eigenvalues --    0.28937   0.31111   0.31800   0.31816   0.34777
 Alpha virt. eigenvalues --    0.34812   0.35071   0.45619   0.45635   0.47268
 Alpha virt. eigenvalues --    0.48019   0.53260   0.53274   0.54634   0.54638
 Alpha virt. eigenvalues --    0.55653   0.55660   0.56750   0.57120   0.58557
 Alpha virt. eigenvalues --    0.59922   0.59937   0.60323   0.60335   0.62177
 Alpha virt. eigenvalues --    0.64205   0.65459   0.69760   0.69769   0.70450
 Alpha virt. eigenvalues --    0.70474   0.72080   0.72095   0.73190   0.73221
 Alpha virt. eigenvalues --    0.73260   0.73603   0.74298   0.74332   0.76547
 Alpha virt. eigenvalues --    0.79140   0.80242   0.80318   0.81177   0.81191
 Alpha virt. eigenvalues --    0.86415   0.87047   0.90025   0.90043   0.92421
 Alpha virt. eigenvalues --    0.92478   0.93126   0.93155   0.94304   0.95372
 Alpha virt. eigenvalues --    0.95693   0.98644   0.98657   0.99321   0.99366
 Alpha virt. eigenvalues --    1.00139   1.00171   1.02764   1.03832   1.03879
 Alpha virt. eigenvalues --    1.05058   1.06791   1.08509   1.08513   1.10902
 Alpha virt. eigenvalues --    1.10924   1.16647   1.17501   1.17752   1.18252
 Alpha virt. eigenvalues --    1.18297   1.22526   1.22551   1.26028   1.32755
 Alpha virt. eigenvalues --    1.37566   1.37623   1.38885   1.38915   1.41269
 Alpha virt. eigenvalues --    1.42888   1.42934   1.45959   1.46171   1.47828
 Alpha virt. eigenvalues --    1.61315   1.64413   1.67482   1.67492   1.68767
 Alpha virt. eigenvalues --    1.68891   1.68933   1.76011   1.76047   1.77033
 Alpha virt. eigenvalues --    1.77541   1.77565   1.78986   1.79461   1.79472
 Alpha virt. eigenvalues --    1.83758   1.83772   1.85154   1.89979   1.89993
 Alpha virt. eigenvalues --    1.92607   1.97104   2.02245   2.02264   2.06127
 Alpha virt. eigenvalues --    2.06142   2.07324   2.14724   2.16009   2.19536
 Alpha virt. eigenvalues --    2.19553   2.22255   2.22298   2.22765   2.23882
 Alpha virt. eigenvalues --    2.23934   2.27430   2.30032   2.33024   2.33026
 Alpha virt. eigenvalues --    2.33510   2.33514   2.34113   2.34120   2.34890
 Alpha virt. eigenvalues --    2.35245   2.35960   2.35975   2.36156   2.36621
 Alpha virt. eigenvalues --    2.38669   2.38682   2.52813   2.64685   2.64699
 Alpha virt. eigenvalues --    2.67827   2.67854   2.94038   2.95435   2.95453
 Alpha virt. eigenvalues --    2.97289   2.99188   2.99203   3.00771   3.02582
 Alpha virt. eigenvalues --    3.04376   3.04389   3.07370   3.07388   3.15168
 Alpha virt. eigenvalues --    3.15198   3.15660   3.23985   3.24032   3.30197
 Alpha virt. eigenvalues --    3.41111   3.41129   3.42822   3.58385   3.61064
 Alpha virt. eigenvalues --    3.61074   3.61913   3.61980   3.69670
  Beta  occ. eigenvalues --  -14.45580 -14.45578 -14.45575 -14.45572 -14.45571
  Beta  occ. eigenvalues --  -14.45568 -10.39158 -10.39011 -10.39004 -10.37630
  Beta  occ. eigenvalues --  -10.37622 -10.37612 -10.35967 -10.35966 -10.35963
  Beta  occ. eigenvalues --  -10.35962 -10.35961 -10.35959  -1.11456  -1.01451
  Beta  occ. eigenvalues --   -1.01448  -1.01345  -1.00058  -1.00054  -0.99981
  Beta  occ. eigenvalues --   -0.90779  -0.90777  -0.89813  -0.72163  -0.72145
  Beta  occ. eigenvalues --   -0.69553  -0.68709  -0.68698  -0.66761  -0.56638
  Beta  occ. eigenvalues --   -0.51251  -0.51241  -0.49810  -0.49809  -0.47101
  Beta  occ. eigenvalues --   -0.46988  -0.46985  -0.46920  -0.46636  -0.46632
  Beta  occ. eigenvalues --   -0.46483  -0.44654  -0.43901  -0.43889  -0.43569
  Beta  occ. eigenvalues --   -0.43543  -0.43541  -0.42579  -0.42168  -0.42157
  Beta  occ. eigenvalues --   -0.30240  -0.30237
  Beta virt. eigenvalues --   -0.12774   0.05112   0.05128   0.05778   0.06524
  Beta virt. eigenvalues --    0.06533   0.11140   0.11144   0.11169   0.11329
  Beta virt. eigenvalues --    0.12324   0.12333   0.14402   0.20164   0.20174
  Beta virt. eigenvalues --    0.23567   0.26219   0.26789   0.26799   0.27148
  Beta virt. eigenvalues --    0.27154   0.28804   0.31647   0.32405   0.32419
  Beta virt. eigenvalues --    0.34822   0.34858   0.35128   0.45673   0.45688
  Beta virt. eigenvalues --    0.47494   0.48027   0.53163   0.53177   0.54744
  Beta virt. eigenvalues --    0.54747   0.55791   0.55798   0.56878   0.57245
  Beta virt. eigenvalues --    0.58436   0.59926   0.59939   0.60185   0.60196
  Beta virt. eigenvalues --    0.62167   0.64068   0.65838   0.69908   0.69916
  Beta virt. eigenvalues --    0.70531   0.70556   0.72288   0.72304   0.73386
  Beta virt. eigenvalues --    0.73421   0.73459   0.73737   0.74437   0.74469
  Beta virt. eigenvalues --    0.76576   0.80128   0.80220   0.80291   0.81959
  Beta virt. eigenvalues --    0.81966   0.86692   0.87155   0.90102   0.90121
  Beta virt. eigenvalues --    0.92633   0.92686   0.93846   0.93871   0.95015
  Beta virt. eigenvalues --    0.95632   0.96472   0.99334   0.99345   0.99562
  Beta virt. eigenvalues --    0.99610   1.00313   1.00342   1.02920   1.03872
  Beta virt. eigenvalues --    1.03919   1.05106   1.07093   1.08844   1.08847
  Beta virt. eigenvalues --    1.11075   1.11098   1.16893   1.17751   1.18052
  Beta virt. eigenvalues --    1.18497   1.18544   1.22810   1.22835   1.26442
  Beta virt. eigenvalues --    1.32922   1.37762   1.37817   1.39390   1.39421
  Beta virt. eigenvalues --    1.42023   1.43564   1.43612   1.46007   1.46236
  Beta virt. eigenvalues --    1.47973   1.61362   1.64263   1.67254   1.67264
  Beta virt. eigenvalues --    1.68505   1.68633   1.68676   1.76163   1.76197
  Beta virt. eigenvalues --    1.76867   1.77367   1.77391   1.79236   1.79315
  Beta virt. eigenvalues --    1.79330   1.83658   1.83673   1.85041   1.90003
  Beta virt. eigenvalues --    1.90017   1.92677   1.97247   2.02892   2.02911
  Beta virt. eigenvalues --    2.06559   2.06577   2.07954   2.14940   2.17111
  Beta virt. eigenvalues --    2.20294   2.20310   2.23002   2.23281   2.23380
  Beta virt. eigenvalues --    2.24034   2.24080   2.28074   2.30421   2.33809
  Beta virt. eigenvalues --    2.33812   2.34297   2.34302   2.34915   2.34923
  Beta virt. eigenvalues --    2.35598   2.36042   2.36530   2.36545   2.36788
  Beta virt. eigenvalues --    2.37381   2.39253   2.39265   2.53154   2.64708
  Beta virt. eigenvalues --    2.64722   2.68051   2.68078   2.94147   2.95569
  Beta virt. eigenvalues --    2.95588   2.97528   2.99363   2.99378   3.00888
  Beta virt. eigenvalues --    3.03138   3.04931   3.04945   3.07494   3.07512
  Beta virt. eigenvalues --    3.15728   3.15757   3.16217   3.24253   3.24299
  Beta virt. eigenvalues --    3.30405   3.41305   3.41323   3.43005   3.58572
  Beta virt. eigenvalues --    3.61270   3.61280   3.62096   3.62162   3.69823
          Condensed to atoms (all electrons):
               1          2          3          4          5          6
     1  C    4.851293   0.480938   0.344875  -0.066918   0.344946  -0.066946
     2  C    0.480938   5.313124  -0.066903  -0.005467  -0.066966  -0.005460
     3  C    0.344875  -0.066903   4.850935   0.480943   0.345167  -0.067000
     4  C   -0.066918  -0.005467   0.480943   5.312382  -0.067042  -0.005439
     5  C    0.344946  -0.066966   0.345167  -0.067042   4.851665   0.480706
     6  C   -0.066946  -0.005460  -0.067000  -0.005439   0.480706   5.312597
     7  C    0.004537   0.390290   0.007609  -0.000449  -0.025706   0.003188
     8  N   -0.001482  -0.036833  -0.000030  -0.000001  -0.000476   0.000205
     9  C    0.004634   0.390156  -0.025684   0.003195   0.007610  -0.000448
    10  N   -0.001480  -0.036839  -0.000475   0.000205  -0.000030  -0.000001
    11  C   -0.025716   0.003183   0.004633   0.390488   0.007612  -0.000441
    12  N   -0.000480   0.000206  -0.001476  -0.036766  -0.000029  -0.000001
    13  C    0.007618  -0.000446   0.004388   0.390362  -0.025593   0.003141
    14  N   -0.000029  -0.000001  -0.001464  -0.036825  -0.000473   0.000199
    15  C    0.007629  -0.000444  -0.025573   0.003138   0.004455   0.390393
    16  N   -0.000029  -0.000001  -0.000475   0.000200  -0.001460  -0.036806
    17  C   -0.025719   0.003170   0.007614  -0.000441   0.004608   0.390537
    18  N   -0.000481   0.000206  -0.000029  -0.000001  -0.001469  -0.036806
               7          8          9         10         11         12
     1  C    0.004537  -0.001482   0.004634  -0.001480  -0.025716  -0.000480
     2  C    0.390290  -0.036833   0.390156  -0.036839   0.003183   0.000206
     3  C    0.007609  -0.000030  -0.025684  -0.000475   0.004633  -0.001476
     4  C   -0.000449  -0.000001   0.003195   0.000205   0.390488  -0.036766
     5  C   -0.025706  -0.000476   0.007610  -0.000030   0.007612  -0.000029
     6  C    0.003188   0.000205  -0.000448  -0.000001  -0.000441  -0.000001
     7  C    4.857520   0.895791  -0.070840   0.002249   0.000164   0.000003
     8  N    0.895791   6.134410   0.002249   0.000075   0.000000   0.000000
     9  C   -0.070840   0.002249   4.857450   0.895763  -0.000744   0.000152
    10  N    0.002249   0.000075   0.895763   6.134534   0.000141  -0.000777
    11  C    0.000164   0.000000  -0.000744   0.000141   4.856670   0.895845
    12  N    0.000003   0.000000   0.000152  -0.000777   0.895845   6.134411
    13  C   -0.000019  -0.000000   0.000163   0.000003  -0.070411   0.002246
    14  N   -0.000000  -0.000000   0.000000   0.000000   0.002232   0.000075
    15  C    0.000162   0.000003  -0.000019  -0.000000   0.000161   0.000000
    16  N    0.000000   0.000000  -0.000000  -0.000000   0.000003   0.000000
    17  C   -0.000739   0.000142   0.000163   0.000000  -0.000019  -0.000000
    18  N    0.000151  -0.000774   0.000003   0.000000  -0.000000  -0.000000
              13         14         15         16         17         18
     1  C    0.007618  -0.000029   0.007629  -0.000029  -0.025719  -0.000481
     2  C   -0.000446  -0.000001  -0.000444  -0.000001   0.003170   0.000206
     3  C    0.004388  -0.001464  -0.025573  -0.000475   0.007614  -0.000029
     4  C    0.390362  -0.036825   0.003138   0.000200  -0.000441  -0.000001
     5  C   -0.025593  -0.000473   0.004455  -0.001460   0.004608  -0.001469
     6  C    0.003141   0.000199   0.390393  -0.036806   0.390537  -0.036806
     7  C   -0.000019  -0.000000   0.000162   0.000000  -0.000739   0.000151
     8  N   -0.000000  -0.000000   0.000003   0.000000   0.000142  -0.000774
     9  C    0.000163   0.000000  -0.000019  -0.000000   0.000163   0.000003
    10  N    0.000003   0.000000  -0.000000  -0.000000   0.000000   0.000000
    11  C   -0.070411   0.002232   0.000161   0.000003  -0.000019  -0.000000
    12  N    0.002246   0.000075   0.000000   0.000000  -0.000000  -0.000000
    13  C    4.856875   0.895698  -0.000724   0.000142   0.000161   0.000000
    14  N    0.895698   6.134924   0.000140  -0.000754   0.000003   0.000000
    15  C   -0.000724   0.000140   4.856550   0.895880  -0.070263   0.002239
    16  N    0.000142  -0.000754   0.895880   6.134462   0.002232   0.000075
    17  C    0.000161   0.000003  -0.070263   0.002232   4.856529   0.895764
    18  N    0.000000   0.000000   0.002239   0.000075   0.895764   6.134415
          Atomic-Atomic Spin Densities.
               1          2          3          4          5          6
     1  C   -0.074795  -0.050938   0.031166  -0.003452   0.031199  -0.003447
     2  C   -0.050938   0.367194  -0.003440   0.000731  -0.003440   0.000731
     3  C    0.031166  -0.003440  -0.075347  -0.050950   0.031198  -0.003427
     4  C   -0.003452   0.000731  -0.050950   0.367680  -0.003426   0.000725
     5  C    0.031199  -0.003440   0.031198  -0.003426  -0.075480  -0.050981
     6  C   -0.003447   0.000731  -0.003427   0.000725  -0.050981   0.368216
     7  C    0.001477   0.000537  -0.000169  -0.000015   0.000357  -0.000062
     8  N    0.000498  -0.005995   0.000009  -0.000000   0.000009  -0.000025
     9  C    0.001479   0.000534   0.000358  -0.000062  -0.000168  -0.000015
    10  N    0.000498  -0.005997   0.000009  -0.000025   0.000009  -0.000000
    11  C    0.000358  -0.000063   0.001472   0.000517  -0.000167  -0.000015
    12  N    0.000009  -0.000025   0.000499  -0.005997   0.000009  -0.000000
    13  C   -0.000168  -0.000015   0.001480   0.000551   0.000354  -0.000060
    14  N    0.000009  -0.000000   0.000496  -0.005991   0.000009  -0.000025
    15  C   -0.000169  -0.000015   0.000354  -0.000061   0.001478   0.000534
    16  N    0.000009  -0.000000   0.000009  -0.000025   0.000497  -0.005995
    17  C    0.000358  -0.000063  -0.000168  -0.000015   0.001468   0.000524
    18  N    0.000009  -0.000025   0.000009  -0.000000   0.000499  -0.006002
               7          8          9         10         11         12
     1  C    0.001477   0.000498   0.001479   0.000498   0.000358   0.000009
     2  C    0.000537  -0.005995   0.000534  -0.005997  -0.000063  -0.000025
     3  C   -0.000169   0.000009   0.000358   0.000009   0.001472   0.000499
     4  C   -0.000015  -0.000000  -0.000062  -0.000025   0.000517  -0.005997
     5  C    0.000357   0.000009  -0.000168   0.000009  -0.000167   0.000009
     6  C   -0.000062  -0.000025  -0.000015  -0.000000  -0.000015  -0.000000
     7  C   -0.084206  -0.000291   0.000131   0.000220  -0.000003   0.000000
     8  N   -0.000291   0.137181   0.000219   0.000011   0.000000   0.000000
     9  C    0.000131   0.000219  -0.084212  -0.000294   0.000019   0.000024
    10  N    0.000220   0.000011  -0.000294   0.137185   0.000025   0.000054
    11  C   -0.000003   0.000000   0.000019   0.000025  -0.084241  -0.000280
    12  N    0.000000   0.000000   0.000024   0.000054  -0.000280   0.137196
    13  C    0.000000  -0.000000  -0.000003   0.000000   0.000110   0.000218
    14  N   -0.000000  -0.000000   0.000000   0.000000   0.000220   0.000011
    15  C   -0.000003   0.000000   0.000000  -0.000000  -0.000003   0.000000
    16  N    0.000000   0.000000  -0.000000   0.000000   0.000000   0.000000
    17  C    0.000019   0.000024  -0.000003   0.000000   0.000000  -0.000000
    18  N    0.000024   0.000054   0.000000   0.000000  -0.000000  -0.000000
              13         14         15         16         17         18
     1  C   -0.000168   0.000009  -0.000169   0.000009   0.000358   0.000009
     2  C   -0.000015  -0.000000  -0.000015  -0.000000  -0.000063  -0.000025
     3  C    0.001480   0.000496   0.000354   0.000009  -0.000168   0.000009
     4  C    0.000551  -0.005991  -0.000061  -0.000025  -0.000015  -0.000000
     5  C    0.000354   0.000009   0.001478   0.000497   0.001468   0.000499
     6  C   -0.000060  -0.000025   0.000534  -0.005995   0.000524  -0.006002
     7  C    0.000000  -0.000000  -0.000003   0.000000   0.000019   0.000024
     8  N   -0.000000  -0.000000   0.000000   0.000000   0.000024   0.000054
     9  C   -0.000003   0.000000   0.000000  -0.000000  -0.000003   0.000000
    10  N    0.000000   0.000000  -0.000000   0.000000   0.000000   0.000000
    11  C    0.000110   0.000220  -0.000003   0.000000   0.000000  -0.000000
    12  N    0.000218   0.000011   0.000000   0.000000  -0.000000  -0.000000
    13  C   -0.084358  -0.000293   0.000017   0.000024  -0.000003   0.000000
    14  N   -0.000293   0.137411   0.000024   0.000051   0.000000   0.000000
    15  C    0.000017   0.000024  -0.084392  -0.000285   0.000119   0.000219
    16  N    0.000024   0.000051  -0.000285   0.137400   0.000220   0.000011
    17  C   -0.000003   0.000000   0.000119   0.000220  -0.084405  -0.000279
    18  N    0.000000   0.000000   0.000219   0.000011  -0.000279   0.137444
 Mulliken charges and spin densities:
               1          2
     1  C    0.142812  -0.065899
     2  C   -0.361915   0.299709
     3  C    0.142945  -0.066442
     4  C   -0.361564   0.300185
     5  C    0.142476  -0.066576
     6  C   -0.361617   0.300675
     7  C   -0.063911  -0.081983
     8  N    0.006721   0.131694
     9  C   -0.063803  -0.081993
    10  N    0.006632   0.131695
    11  C   -0.063801  -0.082051
    12  N    0.006588   0.131719
    13  C   -0.063605  -0.082146
    14  N    0.006276   0.131921
    15  C   -0.063729  -0.082183
    16  N    0.006529   0.131915
    17  C   -0.063742  -0.082203
    18  N    0.006708   0.131963
 Sum of Mulliken charges =  -1.00000   1.00000
 Mulliken charges and spin densities with hydrogens summed into heavy atoms:
               1          2
     1  C    0.142812  -0.065899
     2  C   -0.361915   0.299709
     3  C    0.142945  -0.066442
     4  C   -0.361564   0.300185
     5  C    0.142476  -0.066576
     6  C   -0.361617   0.300675
     7  C   -0.063911  -0.081983
     8  N    0.006721   0.131694
     9  C   -0.063803  -0.081993
    10  N    0.006632   0.131695
    11  C   -0.063801  -0.082051
    12  N    0.006588   0.131719
    13  C   -0.063605  -0.082146
    14  N    0.006276   0.131921
    15  C   -0.063729  -0.082183
    16  N    0.006529   0.131915
    17  C   -0.063742  -0.082203
    18  N    0.006708   0.131963
 Electronic spatial extent (au):  <R**2>=          38990.0473
 Charge=             -1.0000 electrons
 Dipole moment (field-independent basis, Debye):
    X=             42.9324    Y=              8.2178    Z=             -4.9576  Tot=             43.9920
 Quadrupole moment (field-independent basis, Debye-Ang):
   XX=           -556.5173   YY=           -186.1283   ZZ=           -103.8756
   XY=            -73.5074   XZ=             44.9401   YZ=              1.1583
 Traceless Quadrupole moment (field-independent basis, Debye-Ang):
   XX=           -274.3435   YY=             96.0455   ZZ=            178.2981
   XY=            -73.5074   XZ=             44.9401   YZ=              1.1583
 Octapole moment (field-independent basis, Debye-Ang**2):
  XXX=           8063.4591  YYY=            980.0716  ZZZ=           -310.2325  XYY=           1664.1526
  XXY=            882.7006  XXZ=           -591.1175  XZZ=            929.7843  YZZ=            163.5155
  YYZ=           -160.7642  XYZ=            -11.8969
 Hexadecapole moment (field-independent basis, Debye-Ang**3):
 XXXX=        -117822.2647 YYYY=          -7832.2015 ZZZZ=           -760.5690 XXXY=         -11922.5545
 XXXZ=           8641.9927 YYYX=          -8765.3582 YYYZ=            647.1394 ZZZX=           2789.3473
 ZZZY=            359.6132 XXYY=         -16576.8687 XXZZ=          -9061.4789 YYZZ=           -971.8868
 XXYZ=            272.4219 YYXZ=           1451.7255 ZZXY=          -1463.9516
 N-N= 9.669145182505D+02 E-N=-3.769030848515D+03  KE= 7.775707419199D+02
                          Isotropic Fermi Contact Couplings
        Atom                 a.u.       MegaHertz       Gauss      10(-4) cm-1
     1  C(13)             -0.02134     -23.98877      -8.55979      -8.00179
     2  C(13)              0.05125      57.61980      20.56018      19.21990
     3  C(13)             -0.02147     -24.13261      -8.61112      -8.04977
     4  C(13)              0.05138      57.75657      20.60898      19.26552
     5  C(13)             -0.02150     -24.17483      -8.62618      -8.06385
     6  C(13)              0.05146      57.85291      20.64335      19.29765
     7  C(13)             -0.03371     -37.89839     -13.52309     -12.64154
     8  N(14)              0.03052       9.85972       3.51819       3.28885
     9  C(13)             -0.03371     -37.89904     -13.52332     -12.64176
    10  N(14)              0.03052       9.85978       3.51821       3.28887
    11  C(13)             -0.03375     -37.94254     -13.53884     -12.65627
    12  N(14)              0.03051       9.85910       3.51797       3.28864
    13  C(13)             -0.03380     -37.99815     -13.55868     -12.67482
    14  N(14)              0.03057       9.87677       3.52428       3.29453
    15  C(13)             -0.03383     -38.03272     -13.57102     -12.68635
    16  N(14)              0.03056       9.87470       3.52354       3.29385
    17  C(13)             -0.03381     -38.00634     -13.56161     -12.67755
    18  N(14)              0.03057       9.87767       3.52460       3.29484
 --------------------------------------------------------
       Center         ----  Spin Dipole Couplings  ----
                      3XX-RR        3YY-RR        3ZZ-RR
 --------------------------------------------------------
     1   Atom        0.013037      0.024554     -0.037591
     2   Atom       -0.160431     -0.154789      0.315220
     3   Atom        0.022337      0.015733     -0.038071
     4   Atom       -0.160286     -0.155410      0.315695
     5   Atom        0.022340      0.015652     -0.037991
     6   Atom       -0.160610     -0.157386      0.317995
     7   Atom        0.045493      0.008302     -0.053795
     8   Atom       -0.133335     -0.105963      0.239298
     9   Atom        0.045560      0.008294     -0.053854
    10   Atom       -0.133401     -0.105775      0.239176
    11   Atom        0.039405      0.014493     -0.053899
    12   Atom       -0.130890     -0.108686      0.239576
    13   Atom       -0.003199      0.056576     -0.053377
    14   Atom       -0.100459     -0.138619      0.239077
    15   Atom       -0.003190      0.057076     -0.053885
    16   Atom       -0.100514     -0.140727      0.241241
    17   Atom        0.039471      0.014702     -0.054173
    18   Atom       -0.131208     -0.110115      0.241323
 --------------------------------------------------------
                        XY            XZ            YZ
 --------------------------------------------------------
     1   Atom        0.000114     -0.001103      0.005417
     2   Atom       -0.000401      0.003920     -0.049648
     3   Atom       -0.005240      0.000024      0.005309
     4   Atom       -0.000799      0.005763     -0.049669
     5   Atom        0.005253     -0.000140      0.005800
     6   Atom        0.000140      0.000799     -0.040649
     7   Atom       -0.024421     -0.003501      0.006809
     8   Atom        0.017247      0.005615     -0.036632
     9   Atom        0.024525      0.002143      0.006566
    10   Atom       -0.017698     -0.001160     -0.037340
    11   Atom        0.028150      0.001470      0.006677
    12   Atom       -0.019625      0.004073     -0.035349
    13   Atom        0.003437     -0.000196      0.011789
    14   Atom       -0.001670      0.003396     -0.041302
    15   Atom       -0.003386     -0.000204      0.009234
    16   Atom        0.001333     -0.000395     -0.030098
    17   Atom       -0.028104     -0.002577      0.005800
    18   Atom        0.019067      0.001964     -0.028901
 --------------------------------------------------------


 ---------------------------------------------------------------------------------
              Anisotropic Spin Dipole Couplings in Principal Axis System
 ---------------------------------------------------------------------------------

       Atom             a.u.   MegaHertz   Gauss  10(-4) cm-1        Axes

              Baa    -0.0381    -5.110    -1.824    -1.705  0.0217 -0.0862  0.9960
     1 C(13)  Bbb     0.0131     1.753     0.625     0.585  0.9998  0.0003 -0.0217
              Bcc     0.0250     3.358     1.198     1.120  0.0016  0.9963  0.0862
 
              Baa    -0.1605   -21.533    -7.683    -7.183  0.9998 -0.0161 -0.0099
     2 C(13)  Bbb    -0.1600   -21.467    -7.660    -7.161  0.0170  0.9945  0.1038
              Bcc     0.3204    43.000    15.343    14.343  0.0082 -0.1039  0.9946
 
              Baa    -0.0386    -5.179    -1.848    -1.728 -0.0088 -0.0981  0.9951
     3 C(13)  Bbb     0.0133     1.779     0.635     0.594  0.4978  0.8627  0.0895
              Bcc     0.0253     3.400     1.213     1.134  0.8673 -0.4961 -0.0412
 
              Baa    -0.1607   -21.565    -7.695    -7.193  0.4944  0.8651  0.0842
     4 C(13)  Bbb    -0.1602   -21.503    -7.673    -7.173  0.8691 -0.4907 -0.0617
              Bcc     0.3209    43.068    15.368    14.366  0.0121 -0.1037  0.9945
 
              Baa    -0.0386    -5.182    -1.849    -1.729  0.0115 -0.1074  0.9942
     5 C(13)  Bbb     0.0133     1.782     0.636     0.594 -0.4980  0.8615  0.0988
              Bcc     0.0253     3.400     1.213     1.134  0.8671  0.4962  0.0435
 
              Baa    -0.1610   -21.599    -7.707    -7.205 -0.5107  0.8566  0.0736
     6 C(13)  Bbb    -0.1605   -21.536    -7.685    -7.184  0.8598  0.5090  0.0418
              Bcc     0.3214    43.135    15.392    14.388  0.0016 -0.0846  0.9964
 
              Baa    -0.0545    -7.319    -2.612    -2.441  0.0094 -0.1041  0.9945
     7 C(13)  Bbb    -0.0034    -0.455    -0.162    -0.152  0.4502  0.8885  0.0888
              Bcc     0.0579     7.774     2.774     2.593  0.8929 -0.4469 -0.0552
 
              Baa    -0.1429    -5.511    -1.966    -1.838  0.8812 -0.4691 -0.0579
     8 N(14)  Bbb    -0.1003    -3.868    -1.380    -1.290  0.4726  0.8770  0.0868
              Bcc     0.2432     9.379     3.347     3.128  0.0101 -0.1039  0.9945
 
              Baa    -0.0545    -7.319    -2.612    -2.441  0.0046 -0.1057  0.9944
     9 C(13)  Bbb    -0.0034    -0.456    -0.163    -0.152 -0.4492  0.8882  0.0965
              Bcc     0.0579     7.775     2.774     2.593  0.8934  0.4471  0.0434
 
              Baa    -0.1429    -5.511    -1.966    -1.838  0.8817  0.4693  0.0485
    10 N(14)  Bbb    -0.1003    -3.868    -1.380    -1.290 -0.4718  0.8766  0.0948
              Bcc     0.2432     9.379     3.347     3.128  0.0019 -0.1065  0.9943
 
              Baa    -0.0546    -7.322    -2.613    -2.442  0.0151 -0.1023  0.9946
    11 C(13)  Bbb    -0.0034    -0.454    -0.162    -0.151 -0.5494  0.8303  0.0937
              Bcc     0.0579     7.776     2.775     2.594  0.8354  0.5479  0.0437
 
              Baa    -0.1429    -5.511    -1.967    -1.838  0.8485  0.5277  0.0397
    12 N(14)  Bbb    -0.1003    -3.869    -1.381    -1.291 -0.5289  0.8434  0.0941
              Bcc     0.2432     9.381     3.347     3.129  0.0161 -0.1008  0.9948
 
              Baa    -0.0546    -7.331    -2.616    -2.445  0.0109 -0.1057  0.9943
    13 C(13)  Bbb    -0.0034    -0.454    -0.162    -0.151  0.9984 -0.0540 -0.0166
              Bcc     0.0580     7.785     2.778     2.597  0.0554  0.9929  0.1050
 
              Baa    -0.1431    -5.520    -1.970    -1.841  0.0304  0.9938  0.1071
    14 N(14)  Bbb    -0.1005    -3.874    -1.382    -1.292  0.9995 -0.0291 -0.0135
              Bcc     0.2436     9.394     3.352     3.134  0.0103 -0.1075  0.9942
 
              Baa    -0.0546    -7.333    -2.617    -2.446 -0.0015 -0.0824  0.9966
    15 C(13)  Bbb    -0.0034    -0.453    -0.162    -0.151  0.9985  0.0550  0.0060
              Bcc     0.0580     7.787     2.778     2.597 -0.0553  0.9951  0.0822
 
              Baa    -0.1431    -5.520    -1.970    -1.841 -0.0305  0.9965  0.0780
    16 N(14)  Bbb    -0.1005    -3.875    -1.383    -1.293  0.9995  0.0303  0.0038
              Bcc     0.2436     9.395     3.352     3.134 -0.0014 -0.0781  0.9969
 
              Baa    -0.0547    -7.335    -2.617    -2.447  0.0027 -0.0822  0.9966
    17 C(13)  Bbb    -0.0034    -0.455    -0.162    -0.152  0.5499  0.8325  0.0672
              Bcc     0.0581     7.790     2.780     2.598  0.8352 -0.5478 -0.0475
 
              Baa    -0.1432    -5.522    -1.970    -1.842  0.8483 -0.5277 -0.0440
    18 N(14)  Bbb    -0.1005    -3.877    -1.383    -1.293  0.5296  0.8455  0.0684
              Bcc     0.2437     9.398     3.354     3.135  0.0011 -0.0814  0.9967
 

 ---------------------------------------------------------------------------------

   1 Symmetry operations used in ECPInt.
 ECPInt:  NShTT=    5886 NPrTT=   23670 LenC2=    5404 LenP2D=   14978.
 LDataN:  DoStor=T MaxTD1= 5 Len=  102
 D1PCM: PCM CHGder 1st derivatives, ID1Alg=3 FixD1E=F DoIter=F DoCFld=F I1PDM=0.
 Calling FoFJK, ICntrl=      2127 FMM=F ISym2X=0 I1Cent= 0 IOpClX= 1 NMat=1 NMatS=1 NMatT=0.
 -------------------------------------------------------------------
 Center     Atomic                   Forces (Hartrees/Bohr)
 Number     Number              X              Y              Z
 -------------------------------------------------------------------
      1        6           0.000145400    0.196521723    0.018909115
      2        6          -0.000015137   -0.102006885   -0.009895768
      3        6           0.170317124   -0.098167217   -0.010507176
      4        6          -0.088787350    0.050865039    0.005327372
      5        6          -0.170495451   -0.098315825   -0.008253455
      6        6           0.088845297    0.050721931    0.004117995
      7        6          -0.041036863    0.021909203    0.002548942
      8        7           0.011074153   -0.005830322   -0.000560268
      9        6           0.041081297    0.021947448    0.002211212
     10        7          -0.011141196   -0.005852649   -0.000640726
     11        6           0.039237558    0.024331635    0.001987927
     12        7          -0.010346910   -0.006571737   -0.000531646
     13        6          -0.001489027   -0.046535759   -0.004740568
     14        7           0.000434845    0.012819130    0.001208095
     15        6           0.001446514   -0.046062676   -0.003833297
     16        7          -0.000433529    0.012475939    0.000969462
     17        6          -0.039176602    0.024318348    0.002350957
     18        7           0.010339880   -0.006567326   -0.000668173
 -------------------------------------------------------------------
 Cartesian Forces:  Max     0.196521723 RMS     0.054755691

 GradGradGradGradGradGradGradGradGradGradGradGradGradGradGradGradGradGrad
 Berny optimization.
 Search for a local minimum.
 Step number   1 out of a maximum of    2
 All quantities printed in internal units (Hartrees-Bohrs-Radians)
 Second derivative matrix not updated -- first step.
 ITU=  0
     Eigenvalues ---    0.00065   0.00080   0.00080   0.00303   0.00303
     Eigenvalues ---    0.00946   0.01500   0.01698   0.01976   0.01982
     Eigenvalues ---    0.03969   0.03986   0.05189   0.05216   0.09745
     Eigenvalues ---    0.13903   0.21102   0.21144   0.25199   0.26048
     Eigenvalues ---    0.26164   0.27074   0.28801   0.28822   0.52409
     Eigenvalues ---    0.84978   0.86699   0.87154   1.03172   1.03217
     Eigenvalues ---    1.06549   1.06603   1.16783   1.64494   1.64683
     Eigenvalues ---    2.29480   2.76724   2.76756   2.77018   2.85947
     Eigenvalues ---    2.85968   2.86043 134.24729 140.75303 152.42718
     Eigenvalues ---  175.26776 188.22750 199.13952
 Quadratic step=5.535D-01 exceeds max=3.000D-01 adjusted using Lamda=-3.465D-02.
 Angle between NR and scaled steps=  30.04 degrees.
 Angle between quadratic step and forces=  48.02 degrees.
 Linear search not attempted -- first point.
 B after Tr=     0.000007   -0.000010    0.000043
         Rot=    1.000000    0.000001    0.000002    0.000000 Ang=   0.00 deg.
 Variable       Old X    -DE/DX   Delta X   Delta X   Delta X     New X
                                 (Linear)    (Quad)   (Total)
    X1      -16.89282   0.00015   0.00000   0.00004   0.00004 -16.89278
    Y1       -1.81784   0.19652   0.00000   0.07031   0.07030  -1.74753
    Z1        2.09087   0.01891   0.00000   0.00652   0.00651   2.09738
    X2      -16.89118  -0.00002   0.00000  -0.00005  -0.00005 -16.89123
    Y2        1.00444  -0.10201   0.00000  -0.11715  -0.11715   0.88729
    Z2        2.37106  -0.00990   0.00000  -0.01044  -0.01046   2.36060
    X3      -15.65250   0.17032   0.00000   0.06050   0.06050 -15.59200
    Y3       -3.95446  -0.09817   0.00000  -0.03484  -0.03484  -3.98930
    Z3        1.85422  -0.01051   0.00000  -0.00325  -0.00325   1.85098
    X4      -13.19559  -0.08879   0.00000  -0.10284  -0.10284 -13.29842
    Y4       -5.36211   0.05087   0.00000   0.05866   0.05866  -5.30346
    Z4        1.69481   0.00533   0.00000   0.00494   0.00495   1.69976
    X5      -18.13501  -0.17050   0.00000  -0.06061  -0.06061 -18.19562
    Y5       -3.95632  -0.09832   0.00000  -0.03487  -0.03487  -3.99119
    Z5        1.88491  -0.00825   0.00000  -0.00287  -0.00288   1.88204
    X6      -20.59318   0.08885   0.00000   0.10298   0.10298 -20.49020
    Y6       -5.36661   0.05072   0.00000   0.05854   0.05853  -5.30808
    Z6        1.76805   0.00412   0.00000   0.00499   0.00498   1.77303
    X7      -19.17354  -0.04104   0.00000  -0.04308  -0.04308 -19.21663
    Y7        2.24297   0.02191   0.00000  -0.05512  -0.05512   2.18785
    Z7        2.52618   0.00255   0.00000  -0.00539  -0.00541   2.52077
    X8      -21.12722   0.01107   0.00000  -0.01330  -0.01330 -21.14052
    Y8        3.26084  -0.00583   0.00000  -0.02057  -0.02057   3.24027
    Z8        2.65082  -0.00056   0.00000  -0.00215  -0.00218   2.64863
    X9      -14.60702   0.04108   0.00000   0.04286   0.04286 -14.56416
    Y9        2.24366   0.02195   0.00000  -0.05500  -0.05501   2.18865
    Z9        2.49123   0.00221   0.00000  -0.00491  -0.00492   2.48631
   X10      -12.65228  -0.01114   0.00000   0.01312   0.01312 -12.63916
   Y10        3.26207  -0.00585   0.00000  -0.02038  -0.02038   3.24169
   Z10        2.59407  -0.00064   0.00000  -0.00369  -0.00369   2.59038
   X11      -10.97551   0.03924   0.00000  -0.02721  -0.02721 -11.00272
   Y11       -4.00968   0.02433   0.00000   0.06423   0.06423  -3.94545
   Z11        1.79967   0.00199   0.00000   0.00620   0.00621   1.80589
   X12       -9.11394  -0.01035   0.00000  -0.01127  -0.01127  -9.12521
   Y12       -2.82913  -0.00657   0.00000   0.02056   0.02056  -2.80858
   Z12        1.89085  -0.00053   0.00000   0.00365   0.00367   1.89452
   X13      -13.25348  -0.00149   0.00000  -0.07092  -0.07092 -13.32440
   Y13       -7.94839  -0.04654   0.00000  -0.00927  -0.00927  -7.95766
   Z13        1.41752  -0.00474   0.00000  -0.00070  -0.00068   1.41684
   X14      -13.34016   0.00043   0.00000  -0.02598  -0.02598 -13.36614
   Y14      -10.14102   0.01282   0.00000  -0.00063  -0.00063 -10.14165
   Z14        1.18382   0.00121   0.00000   0.00101   0.00104   1.18486
   X15      -20.53605   0.00145   0.00000   0.07062   0.07062 -20.46543
   Y15       -7.95912  -0.04606   0.00000  -0.00915  -0.00916  -7.96827
   Z15        1.55127  -0.00383   0.00000   0.00059   0.00059   1.55185
   X16      -20.44919  -0.00043   0.00000   0.02602   0.02602 -20.42316
   Y16      -10.15683   0.01248   0.00000  -0.00052  -0.00053 -10.15736
   Z16        1.37565   0.00097   0.00000  -0.00094  -0.00094   1.37471
   X17      -22.81297  -0.03918   0.00000   0.02753   0.02753 -22.78544
   Y17       -4.01468   0.02432   0.00000   0.06440   0.06440  -3.95028
   Z17        1.88445   0.00235   0.00000   0.00507   0.00505   1.88950
   X18      -24.67399   0.01034   0.00000   0.01158   0.01158 -24.66241
   Y18       -2.83398  -0.00657   0.00000   0.02086   0.02086  -2.81313
   Z18        1.98492  -0.00067   0.00000   0.00142   0.00140   1.98632
         Item               Value     Threshold  Converged?
 Maximum Force            0.196522     0.000450     NO 
 RMS     Force            0.054756     0.000300     NO 
 Maximum Displacement     0.117152     0.001800     NO 
 RMS     Displacement     0.040876     0.001200     NO 
 Predicted change in Energy=-4.198747D-02
 GradGradGradGradGradGradGradGradGradGradGradGradGradGradGradGradGradGrad

 Unable to Open any file for archive entry.
 1\1\GINC-X10P1N4\Force\UwB97XD\def2SVP\C12N6(1-,2)\MAYUMIAO\11-Oct-202
 4\0\\# wb97xd def2svp scrf=(smd,solvent=acetonitrile) g09default scf=(
 xqc,maxcycle=64) force guess=read nosymm\\Title Card\\-1,2\C,-8.939296
 05,-0.96195756,1.10644196\C,-8.9384296,0.53152583,1.254711\C,-8.282946
 87,-2.0926083,0.98121216\C,-6.9828031,-2.83750679,0.89685427\C,-9.5966
 3624,-2.09359206,0.99745356\C,-10.89744162,-2.83988933,0.93561134\C,-1
 0.14620159,1.18693015,1.33679832\N,-11.18004513,1.72556334,1.40275167\
 C,-7.72970335,1.1872929,1.31829979\N,-6.69529656,1.72621232,1.37272011
 \C,-5.8079912,-2.12183162,0.95234573\N,-4.8228905,-1.4971137,1.0005952
 2\C,-7.01343887,-4.20610573,0.75011668\N,-7.05930663,-5.36639403,0.626
 45271\C,-10.86720946,-4.21178248,0.82089439\N,-10.82124278,-5.37476508
 ,0.72796267\C,-12.07210389,-2.12447597,0.99720645\N,-13.05691159,-1.49
 967991,1.05037701\\Version=ES64L-G16RevC.01\HF=-784.8085477\S2=0.79295
 2\S2-1=0.\S2A=0.751568\RMSD=1.172e-09\RMSF=5.476e-02\Dipole=-0.0021804
 ,-0.0077184,-0.0051443\Quadrupole=-203.9677145,71.4074535,132.560261,-
 54.6509816,33.4118338,0.8611656\PG=C01 [X(C12N6)]\\@
 The archive entry for this job was punched.


 NEVER LISTEN TO CRITICISM
 OR YOU'LL BE DOIN' EVERYBODY ELSE'S THING BUT BUT YOUR OWN.

                                               -- ANDY CAPP
 Job cpu time:       0 days  0 hours 15 minutes 13.2 seconds.
 Elapsed time:       0 days  0 hours  0 minutes 34.0 seconds.
 File lengths (MBytes):  RWF=    173 Int=      0 D2E=      0 Chk=      9 Scr=      1
 Normal termination of Gaussian 16 at Fri Oct 11 15:31:10 2024.
