 Entering Gaussian System, Link 0=g16
 Input=JOBS/50_B.gjf
 Output=JOBS/50_B.log
 Initial command:
 /data/app/gaussian/C01-avx2//g16/l1.exe "/tmp/Gau-2560624.inp" -scrdir="/tmp/"
 Entering Link 1 = /data/app/gaussian/C01-avx2//g16/l1.exe PID=   2560625.
  
 Copyright (c) 1988-2019, Gaussian, Inc.  All Rights Reserved.
  
 This is part of the Gaussian(R) 16 program.  It is based on
 the Gaussian(R) 09 system (copyright 2009, Gaussian, Inc.),
 the Gaussian(R) 03 system (copyright 2003, Gaussian, Inc.),
 the Gaussian(R) 98 system (copyright 1998, Gaussian, Inc.),
 the Gaussian(R) 94 system (copyright 1995, Gaussian, Inc.),
 the Gaussian 92(TM) system (copyright 1992, Gaussian, Inc.),
 the Gaussian 90(TM) system (copyright 1990, Gaussian, Inc.),
 the Gaussian 88(TM) system (copyright 1988, Gaussian, Inc.),
 the Gaussian 86(TM) system (copyright 1986, Carnegie Mellon
 University), and the Gaussian 82(TM) system (copyright 1983,
 Carnegie Mellon University). Gaussian is a federally registered
 trademark of Gaussian, Inc.
  
 This software contains proprietary and confidential information,
 including trade secrets, belonging to Gaussian, Inc.
  
 This software is provided under written license and may be
 used, copied, transmitted, or stored only in accord with that
 written license.
  
 The following legend is applicable only to US Government
 contracts under FAR:
  
                    RESTRICTED RIGHTS LEGEND
  
 Use, reproduction and disclosure by the US Government is
 subject to restrictions as set forth in subparagraphs (a)
 and (c) of the Commercial Computer Software - Restricted
 Rights clause in FAR 52.227-19.
  
 Gaussian, Inc.
 340 Quinnipiac St., Bldg. 40, Wallingford CT 06492
  
  
 ---------------------------------------------------------------
 Warning -- This program may not be used in any manner that
 competes with the business of Gaussian, Inc. or will provide
 assistance to any competitor of Gaussian, Inc.  The licensee
 of this program is prohibited from giving any competitor of
 Gaussian, Inc. access to this program.  By using this program,
 the user acknowledges that Gaussian, Inc. is engaged in the
 business of creating and licensing software in the field of
 computational chemistry and represents and warrants to the
 licensee that it is not a competitor of Gaussian, Inc. and that
 it will not use this program in any manner prohibited above.
 ---------------------------------------------------------------
  

 Cite this work as:
 Gaussian 16, Revision C.01,
 M. J. Frisch, G. W. Trucks, H. B. Schlegel, G. E. Scuseria, 
 M. A. Robb, J. R. Cheeseman, G. Scalmani, V. Barone, 
 G. A. Petersson, H. Nakatsuji, X. Li, M. Caricato, A. V. Marenich, 
 J. Bloino, B. G. Janesko, R. Gomperts, B. Mennucci, H. P. Hratchian, 
 J. V. Ortiz, A. F. Izmaylov, J. L. Sonnenberg, D. Williams-Young, 
 F. Ding, F. Lipparini, F. Egidi, J. Goings, B. Peng, A. Petrone, 
 T. Henderson, D. Ranasinghe, V. G. Zakrzewski, J. Gao, N. Rega, 
 G. Zheng, W. Liang, M. Hada, M. Ehara, K. Toyota, R. Fukuda, 
 J. Hasegawa, M. Ishida, T. Nakajima, Y. Honda, O. Kitao, H. Nakai, 
 T. Vreven, K. Throssell, J. A. Montgomery, Jr., J. E. Peralta, 
 F. Ogliaro, M. J. Bearpark, J. J. Heyd, E. N. Brothers, K. N. Kudin, 
 V. N. Staroverov, T. A. Keith, R. Kobayashi, J. Normand, 
 K. Raghavachari, A. P. Rendell, J. C. Burant, S. S. Iyengar, 
 J. Tomasi, M. Cossi, J. M. Millam, M. Klene, C. Adamo, R. Cammi, 
 J. W. Ochterski, R. L. Martin, K. Morokuma, O. Farkas, 
 J. B. Foresman, and D. J. Fox, Gaussian, Inc., Wallingford CT, 2019.
 
 ******************************************
 Gaussian 16:  ES64L-G16RevC.01  3-Jul-2019
                11-Oct-2024 
 ******************************************
 %chk=b.chk
 %nprocshared=28
 Will use up to   28 processors via shared memory.
 %mem=48gb
 ----------------------------------------------------------------------
 # wb97xd def2svp scrf=(smd,solvent=acetonitrile) g09default scf=(xqc,m
 axcycle=64) force guess=read nosymm
 ----------------------------------------------------------------------
 1/10=7,30=1,38=1,158=3,167=1/1,3;
 2/12=2,15=1,17=6,18=5,40=1/2;
 3/5=43,7=101,11=2,25=1,27=10,30=1,70=32201,71=1,72=2,74=-58,75=-4,116=-2,158=3/1,2,3;
 4/5=1,60=-1/1;
 5/5=2,7=64,8=3,13=1,38=6,53=2,87=10/2,8;
 6/7=2,8=2,9=2,10=2,28=1,87=10/1;
 7/29=1,30=1,87=10/1,2,3,16;
 1/10=7,30=1,158=3,167=1/3;
 99//99;
 Using 2006 physical constants.
 ----------
 Title Card
 ----------
 Symbolic Z-matrix:
 Charge = -1 Multiplicity = 2
 6                    -8.95124  -0.91622   1.10629 
 6                    -8.95035   0.47143   1.24693 
 6                    -8.25367  -2.1149    0.98499 
 6                    -7.0463   -2.80837   0.89818 
 6                    -9.64404  -2.11546   0.99672 
 6                    -10.85097  -2.80978   0.94158 
 6                    -10.16815   1.19562   1.341 
 7                    -11.1696   1.78013   1.42117 
 6                    -7.71662   1.16831   1.32137 
 7                    -6.69534   1.71925   1.38343 
 6                    -5.81252  -2.1089    0.94838 
 7                    -4.80643  -1.52822   0.98652 
 6                    -7.0309   -4.21888   0.73631 
 7                    -7.02621  -5.3732    0.60066 
 6                    -10.84036  -4.22435   0.83887 
 7                    -10.79352  -5.38299   0.7605 
 6                    -12.08026  -2.10319   0.99005 
 7                    -13.07341  -1.50044   1.02585 
 

 GradGradGradGradGradGradGradGradGradGradGradGradGradGradGradGradGradGrad
 Berny optimization.
 Initialization pass.
 Trust Radius=3.00D-01 FncErr=1.00D-07 GrdErr=1.00D-07 EigMax=2.50D+02 EigMin=1.00D-04
 Number of steps in this run=      2 maximum allowed number of steps=      2.
 GradGradGradGradGradGradGradGradGradGradGradGradGradGradGradGradGradGrad

                          Input orientation:                          
 ---------------------------------------------------------------------
 Center     Atomic      Atomic             Coordinates (Angstroms)
 Number     Number       Type             X           Y           Z
 ---------------------------------------------------------------------
      1          6           0       -8.951240   -0.916220    1.106294
      2          6           0       -8.950354    0.471431    1.246929
      3          6           0       -8.253672   -2.114899    0.984993
      4          6           0       -7.046296   -2.808366    0.898179
      5          6           0       -9.644044   -2.115459    0.996723
      6          6           0      -10.850966   -2.809779    0.941576
      7          6           0      -10.168152    1.195624    1.341003
      8          7           0      -11.169595    1.780127    1.421168
      9          6           0       -7.716618    1.168308    1.321372
     10          7           0       -6.695342    1.719245    1.383435
     11          6           0       -5.812518   -2.108903    0.948376
     12          7           0       -4.806429   -1.528225    0.986519
     13          6           0       -7.030897   -4.218882    0.736308
     14          7           0       -7.026212   -5.373204    0.600660
     15          6           0      -10.840359   -4.224352    0.838872
     16          7           0      -10.793523   -5.382991    0.760495
     17          6           0      -12.080262   -2.103191    0.990054
     18          7           0      -13.073414   -1.500443    1.025850
 ---------------------------------------------------------------------
                    Distance matrix (angstroms):
                    1          2          3          4          5
     1  C    0.000000
     2  C    1.394759   0.000000
     3  C    1.392173   2.691297   0.000000
     4  C    2.693017   3.808429   1.395060   0.000000
     5  C    1.389302   2.689946   1.390421   2.690377   0.000000
     6  C    2.687314   3.804195   2.688991   3.804917   1.393478
     7  C    2.448642   1.419978   3.840773   5.096471   3.369939
     8  N    3.505786   2.582262   4.885087   6.191073   4.205122
     9  C    2.432242   1.418902   3.343804   4.054918   3.821451
    10  N    3.480166   2.580843   4.157861   4.567046   4.852767
    11  C    3.361399   4.073484   2.441437   1.419147   3.831837
    12  N    4.191461   4.608530   3.496809   2.581389   4.873137
    13  C    3.838252   5.093533   2.446174   1.419857   3.364630
    14  N    4.881199   6.187062   3.502988   2.582114   4.197954
    15  C    3.818903   5.078287   3.340971   4.050117   2.429715
    16  N    4.844133   6.156959   4.145077   4.548556   3.471868
    17  C    3.348611   4.060910   3.826611   5.083948   2.436258
    18  N    4.164146   4.575673   4.858923   6.168720   3.484203
                    6          7          8          9         10
     6  C    0.000000
     7  C    4.082772   0.000000
     8  N    4.625880   1.162307   0.000000
     9  C    5.078735   2.451765   3.508181   0.000000
    10  N    6.162508   3.512320   4.474826   1.162062   0.000000
    11  C    5.086967   5.481387   6.636743   3.808521   3.952641
    12  N    6.179063   6.024374   7.184984   3.981534   3.777777
    13  C    4.076840   6.286883   7.320243   5.462080   5.982702
    14  N    4.616938   7.319112   8.307286   6.617209   7.143182
    15  C    1.418336   5.484536   6.041624   6.250707   7.266640
    16  N    2.580215   6.633721   7.203344   7.259575   8.223436
    17  C    1.418727   3.829035   4.011898   5.463869   6.615371
    18  N    2.580841   3.976009   3.813521   5.992063   7.153605
                   11         12         13         14         15
    11  C    0.000000
    12  N    1.162263   0.000000
    13  C    2.445697   3.500071   0.000000
    14  N    3.499946   4.456477   1.162275   0.000000
    15  C    5.455850   6.610538   3.810846   3.990529   0.000000
    16  N    5.963670   7.124296   3.938665   3.770713   1.162231
    17  C    6.267886   7.296523   5.480567   6.032250   2.461613
    18  N    7.286758   8.267125   6.632175   7.193589   3.527205
                   16         17         18
    16  N    0.000000
    17  C    3.530649   0.000000
    18  N    4.510265   1.162298   0.000000
 Symmetry turned off by external request.
 Stoichiometry    C12N6(1-,2)
 Framework group  C1[X(C12N6)]
 Deg. of freedom    48
 Full point group                 C1      NOp   1
 Rotational constants (GHZ):           0.4322084           0.4264147           0.2146906
 Standard basis: def2SVP (5D, 7F)
   252 basis functions,   450 primitive gaussians,   270 cartesian basis functions
    58 alpha electrons       57 beta electrons
       nuclear repulsion energy       965.5142574959 Hartrees.
 NAtoms=   18 NActive=   18 NUniq=   18 SFac= 1.00D+00 NAtFMM=   60 NAOKFM=F Big=F
 Integral buffers will be    131072 words long.
 Raffenetti 2 integral format.
 Two-electron integral symmetry is turned off.
 Nuclear repulsion after empirical dispersion term =      965.5025808900 Hartrees.
 Force PCM accuracy= 1.00D-10.
 ------------------------------------------------------------------------------
 Polarizable Continuum Model (PCM)
 =================================
 Model                : PCM (using non-symmetric T matrix).
 Atomic radii         : SMD-Coulomb.
 Polarization charges : Total charges.
 Charge compensation  : None.
 Solution method      : On-the-fly selection.
 Cavity type          : VdW (van der Waals Surface) (Alpha=1.000).
 Cavity algorithm     : GePol (No added spheres)
                        Default sphere list used, NSphG=   18.
                        Lebedev-Laikov grids with approx.  5.0 points / Ang**2.
                        Smoothing algorithm: York/Karplus (Gamma=1.0000).
                        Polarization charges: spherical gaussians, with
                                              point-specific exponents (IZeta= 3).
                        Self-potential: point-specific (ISelfS= 7).
                        Self-field    : sphere-specific E.n sum rule (ISelfD= 2).
 1st derivatives      : Analytical E(r).r(x)/FMM algorithm (CHGder, D1EAlg=3).
                        Cavity 1st derivative terms included.
 Solvent              : Acetonitrile, Eps=  35.688000 Eps(inf)=   1.806874
 ------------------------------------------------------------------------------
 Spheres list:
 ISph  on   Nord     Re0    Alpha      Xe            Ye            Ze
    1   C      1    1.8500  1.000     -8.951240     -0.916220      1.106294
    2   C      2    1.8500  1.000     -8.950354      0.471431      1.246929
    3   C      3    1.8500  1.000     -8.253672     -2.114899      0.984993
    4   C      4    1.8500  1.000     -7.046296     -2.808366      0.898179
    5   C      5    1.8500  1.000     -9.644044     -2.115459      0.996723
    6   C      6    1.8500  1.000    -10.850966     -2.809779      0.941576
    7   C      7    1.8500  1.000    -10.168152      1.195624      1.341003
    8   N      8    1.8900  1.000    -11.169595      1.780127      1.421168
    9   C      9    1.8500  1.000     -7.716618      1.168308      1.321372
   10   N     10    1.8900  1.000     -6.695342      1.719245      1.383435
   11   C     11    1.8500  1.000     -5.812518     -2.108903      0.948376
   12   N     12    1.8900  1.000     -4.806429     -1.528225      0.986519
   13   C     13    1.8500  1.000     -7.030897     -4.218882      0.736308
   14   N     14    1.8900  1.000     -7.026212     -5.373204      0.600660
   15   C     15    1.8500  1.000    -10.840359     -4.224352      0.838872
   16   N     16    1.8900  1.000    -10.793523     -5.382991      0.760495
   17   C     17    1.8500  1.000    -12.080262     -2.103191      0.990054
   18   N     18    1.8900  1.000    -13.073414     -1.500443      1.025850
 ------------------------------------------------------------------------------
 ------------------------------------------------------------------------------
 Atomic radii for non-electrostatic terms: SMD-CDS.
 ------------------------------------------------------------------------------
 Nuclear repulsion after PCM non-electrostatic terms =      965.5112861256 Hartrees.
 One-electron integrals computed using PRISM.
   1 Symmetry operations used in ECPInt.
 ECPInt:  NShTT=    5886 NPrTT=   23670 LenC2=    5404 LenP2D=   14962.
 LDataN:  DoStor=T MaxTD1= 4 Len=   56
 NBasis=   252 RedAO= T EigKep=  1.95D-04  NBF=   252
 NBsUse=   252 1.00D-06 EigRej= -1.00D+00 NBFU=   252
 Initial guess from the checkpoint file:  "b.chk"
 B after Tr=    -0.000043   -0.000033   -0.000447
         Rot=    1.000000   -0.000012   -0.000015    0.000002 Ang=  -0.00 deg.
 Initial guess <Sx>= 0.0000 <Sy>= 0.0000 <Sz>= 0.5000 <S**2>= 0.7872 S= 0.5184
 Requested convergence on RMS density matrix=1.00D-08 within  64 cycles.
 Requested convergence on MAX density matrix=1.00D-06.
 Requested convergence on             energy=1.00D-06.
 No special actions if energy rises.
 Inv3:  Mode=1 IEnd=    19248267.
 Iteration    1 A*A^-1 deviation from unit magnitude is 3.77D-15 for    478.
 Iteration    1 A*A^-1 deviation from orthogonality  is 2.95D-15 for    722    478.
 Iteration    1 A^-1*A deviation from unit magnitude is 3.44D-15 for   2358.
 Iteration    1 A^-1*A deviation from orthogonality  is 7.58D-13 for   1003    976.
 Error on total polarization charges =  0.01950
 SCF Done:  E(UwB97XD) =  -784.860560126     A.U. after   12 cycles
            NFock= 12  Conv=0.76D-08     -V/T= 2.0098
 <Sx>= 0.0000 <Sy>= 0.0000 <Sz>= 0.5000 <S**2>= 0.7872 S= 0.5184
 <L.S>=  0.00000000000    
 SMD-CDS (non-electrostatic) energy       (kcal/mol) =       5.46
 (included in total energy above)
 Annihilation of the first spin contaminant:
 S**2 before annihilation     0.7872,   after     0.7511
 QCSCF skips out because SCF is already converged.

 **********************************************************************

            Population analysis using the SCF Density.

 **********************************************************************

 Alpha  occ. eigenvalues --  -14.45950 -14.45938 -14.45934 -14.45917 -14.45914
 Alpha  occ. eigenvalues --  -14.45898 -10.38265 -10.38201 -10.38161 -10.38059
 Alpha  occ. eigenvalues --  -10.38044 -10.38005 -10.36126 -10.36110 -10.36104
 Alpha  occ. eigenvalues --  -10.36085 -10.36083 -10.36067  -1.06717  -1.01955
 Alpha  occ. eigenvalues --   -1.01952  -1.01573  -1.00742  -1.00733  -1.00662
 Alpha  occ. eigenvalues --   -0.92070  -0.92040  -0.90112  -0.72254  -0.72193
 Alpha  occ. eigenvalues --   -0.68784  -0.68583  -0.68492  -0.67739  -0.55734
 Alpha  occ. eigenvalues --   -0.50896  -0.50886  -0.49772  -0.49700  -0.47621
 Alpha  occ. eigenvalues --   -0.47513  -0.47510  -0.47017  -0.46788  -0.46750
 Alpha  occ. eigenvalues --   -0.46640  -0.45184  -0.44859  -0.44845  -0.44683
 Alpha  occ. eigenvalues --   -0.44383  -0.44358  -0.42946  -0.42763  -0.42735
 Alpha  occ. eigenvalues --   -0.35263  -0.35250  -0.28014
 Alpha virt. eigenvalues --    0.04775   0.04863   0.06465   0.06862   0.06949
 Alpha virt. eigenvalues --    0.10204   0.10247   0.10527   0.10624   0.12402
 Alpha virt. eigenvalues --    0.12553   0.14487   0.19337   0.19403   0.20962
 Alpha virt. eigenvalues --    0.24836   0.25066   0.25104   0.26252   0.26317
 Alpha virt. eigenvalues --    0.27800   0.31572   0.31593   0.31601   0.33862
 Alpha virt. eigenvalues --    0.34033   0.35258   0.46455   0.46651   0.48586
 Alpha virt. eigenvalues --    0.48976   0.53211   0.53255   0.53292   0.53312
 Alpha virt. eigenvalues --    0.55024   0.55069   0.56064   0.57295   0.59459
 Alpha virt. eigenvalues --    0.60174   0.60193   0.60951   0.61110   0.62722
 Alpha virt. eigenvalues --    0.64062   0.68404   0.69636   0.69764   0.71682
 Alpha virt. eigenvalues --    0.71758   0.72753   0.72847   0.73123   0.73329
 Alpha virt. eigenvalues --    0.73412   0.73542   0.74555   0.74884   0.75725
 Alpha virt. eigenvalues --    0.79557   0.79822   0.79903   0.80956   0.81228
 Alpha virt. eigenvalues --    0.86533   0.86667   0.86909   0.87205   0.92817
 Alpha virt. eigenvalues --    0.92867   0.93062   0.93155   0.93842   0.94090
 Alpha virt. eigenvalues --    0.95847   0.98488   0.98541   0.99117   0.99348
 Alpha virt. eigenvalues --    1.00191   1.00299   1.02905   1.03232   1.03388
 Alpha virt. eigenvalues --    1.05860   1.06768   1.07488   1.07645   1.10422
 Alpha virt. eigenvalues --    1.10621   1.14908   1.16438   1.17993   1.18143
 Alpha virt. eigenvalues --    1.18936   1.22824   1.23099   1.23587   1.33283
 Alpha virt. eigenvalues --    1.36145   1.36359   1.38103   1.38230   1.41293
 Alpha virt. eigenvalues --    1.43563   1.43610   1.45583   1.45842   1.55738
 Alpha virt. eigenvalues --    1.60020   1.65867   1.68305   1.68391   1.68602
 Alpha virt. eigenvalues --    1.68760   1.68871   1.76412   1.76586   1.76701
 Alpha virt. eigenvalues --    1.77226   1.77852   1.79099   1.79172   1.79844
 Alpha virt. eigenvalues --    1.81887   1.82444   1.85217   1.92726   1.92857
 Alpha virt. eigenvalues --    1.92914   1.97784   1.99636   1.99797   2.03294
 Alpha virt. eigenvalues --    2.03547   2.06187   2.07195   2.12554   2.12713
 Alpha virt. eigenvalues --    2.17471   2.19508   2.19856   2.20015   2.26055
 Alpha virt. eigenvalues --    2.26846   2.27042   2.28730   2.33025   2.33039
 Alpha virt. eigenvalues --    2.33499   2.33569   2.33864   2.33964   2.34462
 Alpha virt. eigenvalues --    2.35413   2.35501   2.35675   2.35944   2.36095
 Alpha virt. eigenvalues --    2.37326   2.37413   2.56322   2.61966   2.62290
 Alpha virt. eigenvalues --    2.70525   2.70729   2.92704   2.94762   2.95020
 Alpha virt. eigenvalues --    2.95300   2.98494   2.98515   2.99153   3.02283
 Alpha virt. eigenvalues --    3.04785   3.04888   3.08253   3.08740   3.11628
 Alpha virt. eigenvalues --    3.11740   3.12255   3.23025   3.23331   3.28579
 Alpha virt. eigenvalues --    3.40730   3.40768   3.42360   3.53643   3.56856
 Alpha virt. eigenvalues --    3.56962   3.61598   3.61687   3.75250
  Beta  occ. eigenvalues --  -14.45757 -14.45745 -14.45741 -14.45724 -14.45722
  Beta  occ. eigenvalues --  -14.45706 -10.38302 -10.38239 -10.38197 -10.37707
  Beta  occ. eigenvalues --  -10.37692 -10.37654 -10.36218 -10.36202 -10.36196
  Beta  occ. eigenvalues --  -10.36177 -10.36175 -10.36158  -1.06324  -1.01603
  Beta  occ. eigenvalues --   -1.01601  -1.01218  -1.00411  -1.00402  -1.00331
  Beta  occ. eigenvalues --   -0.91307  -0.91274  -0.89136  -0.72123  -0.72058
  Beta  occ. eigenvalues --   -0.68569  -0.68369  -0.68230  -0.67581  -0.54966
  Beta  occ. eigenvalues --   -0.49690  -0.49598  -0.49587  -0.49553  -0.47261
  Beta  occ. eigenvalues --   -0.47154  -0.47150  -0.46658  -0.46505  -0.46468
  Beta  occ. eigenvalues --   -0.45479  -0.45081  -0.44238  -0.44214  -0.43924
  Beta  occ. eigenvalues --   -0.43908  -0.43877  -0.42801  -0.42622  -0.42595
  Beta  occ. eigenvalues --   -0.32257  -0.32240
  Beta virt. eigenvalues --   -0.10726   0.05467   0.05551   0.06576   0.06961
  Beta virt. eigenvalues --    0.07046   0.10525   0.11239   0.11283   0.11400
  Beta virt. eigenvalues --    0.12447   0.12596   0.14742   0.19533   0.19598
  Beta virt. eigenvalues --    0.22533   0.24753   0.26413   0.26445   0.26661
  Beta virt. eigenvalues --    0.26712   0.28008   0.32051   0.32105   0.32251
  Beta virt. eigenvalues --    0.33948   0.34142   0.35337   0.46578   0.46770
  Beta virt. eigenvalues --    0.48729   0.49044   0.53160   0.53176   0.53359
  Beta virt. eigenvalues --    0.53417   0.55179   0.55234   0.56214   0.57461
  Beta virt. eigenvalues --    0.59387   0.60060   0.60079   0.60965   0.61127
  Beta virt. eigenvalues --    0.62859   0.63930   0.68730   0.69799   0.69920
  Beta virt. eigenvalues --    0.71812   0.71886   0.72889   0.72990   0.73301
  Beta virt. eigenvalues --    0.73521   0.73605   0.73669   0.74690   0.75015
  Beta virt. eigenvalues --    0.75748   0.79828   0.79906   0.80527   0.81704
  Beta virt. eigenvalues --    0.81961   0.86769   0.86789   0.87036   0.87311
  Beta virt. eigenvalues --    0.92997   0.93048   0.93674   0.93751   0.94072
  Beta virt. eigenvalues --    0.94695   0.96559   0.99105   0.99133   0.99358
  Beta virt. eigenvalues --    0.99583   1.00333   1.00440   1.03041   1.03376
  Beta virt. eigenvalues --    1.03526   1.06180   1.06824   1.07811   1.07959
  Beta virt. eigenvalues --    1.10549   1.10749   1.15124   1.16773   1.18239
  Beta virt. eigenvalues --    1.18393   1.19215   1.23062   1.23308   1.24132
  Beta virt. eigenvalues --    1.33434   1.36333   1.36548   1.38662   1.38796
  Beta virt. eigenvalues --    1.42057   1.44267   1.44327   1.45665   1.45923
  Beta virt. eigenvalues --    1.55795   1.60055   1.65702   1.68086   1.68172
  Beta virt. eigenvalues --    1.68379   1.68545   1.68656   1.76533   1.76574
  Beta virt. eigenvalues --    1.76768   1.77088   1.77744   1.78996   1.79060
  Beta virt. eigenvalues --    1.80092   1.81820   1.82378   1.85126   1.92768
  Beta virt. eigenvalues --    1.92878   1.93049   1.97957   2.00228   2.00389
  Beta virt. eigenvalues --    2.03642   2.03898   2.06984   2.07349   2.13075
  Beta virt. eigenvalues --    2.13221   2.17747   2.20604   2.20824   2.20978
  Beta virt. eigenvalues --    2.26590   2.27439   2.27629   2.29220   2.33705
  Beta virt. eigenvalues --    2.33718   2.34161   2.34242   2.34551   2.34650
  Beta virt. eigenvalues --    2.35122   2.35877   2.36133   2.36176   2.36470
  Beta virt. eigenvalues --    2.36539   2.38056   2.38166   2.56785   2.62039
  Beta virt. eigenvalues --    2.62366   2.70949   2.71154   2.92795   2.94894
  Beta virt. eigenvalues --    2.95166   2.95486   2.98659   2.98679   2.99274
  Beta virt. eigenvalues --    3.02786   3.05308   3.05413   3.08412   3.08899
  Beta virt. eigenvalues --    3.12132   3.12243   3.12755   3.23269   3.23576
  Beta virt. eigenvalues --    3.28770   3.40932   3.40971   3.42553   3.53824
  Beta virt. eigenvalues --    3.57038   3.57144   3.61792   3.61881   3.75404
          Condensed to atoms (all electrons):
               1          2          3          4          5          6
     1  C    4.913215   0.541897   0.296181  -0.104192   0.298137  -0.103974
     2  C    0.541897   5.327682  -0.103034  -0.008473  -0.104688  -0.008018
     3  C    0.296181  -0.103034   4.911278   0.540793   0.297108  -0.103637
     4  C   -0.104192  -0.008473   0.540793   5.331917  -0.104780  -0.008293
     5  C    0.298137  -0.104688   0.297108  -0.104780   4.916081   0.543768
     6  C   -0.103974  -0.008018  -0.103637  -0.008293   0.543768   5.324122
     7  C    0.005592   0.390707   0.005409  -0.000494  -0.022583   0.002498
     8  N   -0.001718  -0.029076  -0.000066  -0.000001  -0.000481   0.000122
     9  C    0.009419   0.394248  -0.022533   0.002602   0.006046  -0.000468
    10  N   -0.001741  -0.028465  -0.000496   0.000143  -0.000057  -0.000001
    11  C   -0.021795   0.002587   0.007805   0.393819   0.005551  -0.000477
    12  N   -0.000461   0.000126  -0.001760  -0.028873  -0.000067  -0.000001
    13  C    0.005274  -0.000498   0.006689   0.392619  -0.022153   0.002495
    14  N   -0.000069  -0.000001  -0.001757  -0.029042  -0.000477   0.000122
    15  C    0.006440  -0.000467  -0.023591   0.002659   0.008543   0.391428
    16  N   -0.000045  -0.000001  -0.000550   0.000162  -0.001686  -0.028700
    17  C   -0.023753   0.002547   0.006022  -0.000493   0.007559   0.389960
    18  N   -0.000535   0.000145  -0.000052  -0.000001  -0.001660  -0.028856
               7          8          9         10         11         12
     1  C    0.005592  -0.001718   0.009419  -0.001741  -0.021795  -0.000461
     2  C    0.390707  -0.029076   0.394248  -0.028465   0.002587   0.000126
     3  C    0.005409  -0.000066  -0.022533  -0.000496   0.007805  -0.001760
     4  C   -0.000494  -0.000001   0.002602   0.000143   0.393819  -0.028873
     5  C   -0.022583  -0.000481   0.006046  -0.000057   0.005551  -0.000067
     6  C    0.002498   0.000122  -0.000468  -0.000001  -0.000477  -0.000001
     7  C    4.845819   0.907252  -0.052759   0.002085   0.000115   0.000002
     8  N    0.907252   6.104451   0.001880   0.000067   0.000000   0.000000
     9  C   -0.052759   0.001880   4.841860   0.907162  -0.000391   0.000091
    10  N    0.002085   0.000067   0.907162   6.107124   0.000261  -0.000760
    11  C    0.000115   0.000000  -0.000391   0.000261   4.842541   0.907614
    12  N    0.000002   0.000000   0.000091  -0.000760   0.907614   6.105530
    13  C   -0.000014  -0.000000   0.000120   0.000002  -0.052840   0.001961
    14  N   -0.000000  -0.000000   0.000000   0.000000   0.001894   0.000068
    15  C    0.000113   0.000002  -0.000014  -0.000000   0.000121   0.000000
    16  N    0.000000   0.000000  -0.000000  -0.000000   0.000002   0.000000
    17  C   -0.000423   0.000055   0.000118   0.000000  -0.000014  -0.000000
    18  N    0.000254  -0.000722   0.000002   0.000000  -0.000000  -0.000000
              13         14         15         16         17         18
     1  C    0.005274  -0.000069   0.006440  -0.000045  -0.023753  -0.000535
     2  C   -0.000498  -0.000001  -0.000467  -0.000001   0.002547   0.000145
     3  C    0.006689  -0.001757  -0.023591  -0.000550   0.006022  -0.000052
     4  C    0.392619  -0.029042   0.002659   0.000162  -0.000493  -0.000001
     5  C   -0.022153  -0.000477   0.008543  -0.001686   0.007559  -0.001660
     6  C    0.002495   0.000122   0.391428  -0.028700   0.389960  -0.028856
     7  C   -0.000014  -0.000000   0.000113   0.000000  -0.000423   0.000254
     8  N   -0.000000  -0.000000   0.000002   0.000000   0.000055  -0.000722
     9  C    0.000120   0.000000  -0.000014  -0.000000   0.000118   0.000002
    10  N    0.000002   0.000000  -0.000000  -0.000000   0.000000   0.000000
    11  C   -0.052840   0.001894   0.000121   0.000002  -0.000014  -0.000000
    12  N    0.001961   0.000068   0.000000   0.000000  -0.000000  -0.000000
    13  C    4.844311   0.907772  -0.000430   0.000339   0.000114   0.000000
    14  N    0.907772   6.104357   0.000031  -0.000766   0.000002   0.000000
    15  C   -0.000430   0.000031   4.844403   0.906165  -0.051955   0.002057
    16  N    0.000339  -0.000766   0.906165   6.108282   0.002162   0.000065
    17  C    0.000114   0.000002  -0.051955   0.002162   4.846019   0.906009
    18  N    0.000000   0.000000   0.002057   0.000065   0.906009   6.107007
          Atomic-Atomic Spin Densities.
               1          2          3          4          5          6
     1  C   -0.047847  -0.066356   0.036071  -0.005912   0.036152  -0.005910
     2  C   -0.066356   0.383365  -0.005938   0.000971  -0.005893   0.000991
     3  C    0.036071  -0.005938  -0.047981  -0.066432   0.036078  -0.005921
     4  C   -0.005912   0.000971  -0.066432   0.383566  -0.005940   0.000989
     5  C    0.036152  -0.005893   0.036078  -0.005940  -0.047286  -0.066389
     6  C   -0.005910   0.000991  -0.005921   0.000989  -0.066389   0.382909
     7  C    0.000433   0.004991  -0.000136  -0.000014   0.000380  -0.000066
     8  N    0.000496  -0.005390   0.000009  -0.000000   0.000033  -0.000025
     9  C    0.000423   0.004866   0.000375  -0.000073  -0.000157  -0.000015
    10  N    0.000539  -0.005424   0.000036  -0.000030   0.000010  -0.000000
    11  C    0.000361  -0.000069   0.000464   0.004909  -0.000147  -0.000014
    12  N    0.000033  -0.000026   0.000511  -0.005405   0.000009  -0.000000
    13  C   -0.000139  -0.000014   0.000400   0.004935   0.000370  -0.000069
    14  N    0.000009  -0.000000   0.000500  -0.005378   0.000033  -0.000026
    15  C   -0.000155  -0.000015   0.000384  -0.000075   0.000426   0.004899
    16  N    0.000010  -0.000000   0.000037  -0.000032   0.000555  -0.005451
    17  C    0.000399  -0.000071  -0.000147  -0.000015   0.000409   0.004987
    18  N    0.000036  -0.000030   0.000010  -0.000000   0.000531  -0.005449
               7          8          9         10         11         12
     1  C    0.000433   0.000496   0.000423   0.000539   0.000361   0.000033
     2  C    0.004991  -0.005390   0.004866  -0.005424  -0.000069  -0.000026
     3  C   -0.000136   0.000009   0.000375   0.000036   0.000464   0.000511
     4  C   -0.000014  -0.000000  -0.000073  -0.000030   0.004909  -0.005405
     5  C    0.000380   0.000033  -0.000157   0.000010  -0.000147   0.000009
     6  C   -0.000066  -0.000025  -0.000015  -0.000000  -0.000014  -0.000000
     7  C   -0.076349  -0.001637  -0.000332   0.000135  -0.000003   0.000000
     8  N   -0.001637   0.118268   0.000153   0.000010  -0.000000   0.000000
     9  C   -0.000332   0.000153  -0.075866  -0.001582   0.000016   0.000016
    10  N    0.000135   0.000010  -0.001582   0.117789   0.000015   0.000039
    11  C   -0.000003  -0.000000   0.000016   0.000015  -0.076143  -0.001601
    12  N    0.000000   0.000000   0.000016   0.000039  -0.001601   0.118271
    13  C    0.000000  -0.000000  -0.000003   0.000000  -0.000335   0.000150
    14  N   -0.000000   0.000000  -0.000000   0.000000   0.000153   0.000011
    15  C   -0.000003   0.000000   0.000000  -0.000000  -0.000003  -0.000000
    16  N   -0.000000   0.000000  -0.000000   0.000000   0.000000   0.000000
    17  C    0.000016   0.000015  -0.000003  -0.000000   0.000000  -0.000000
    18  N    0.000014   0.000035   0.000000   0.000000  -0.000000   0.000000
              13         14         15         16         17         18
     1  C   -0.000139   0.000009  -0.000155   0.000010   0.000399   0.000036
     2  C   -0.000014  -0.000000  -0.000015  -0.000000  -0.000071  -0.000030
     3  C    0.000400   0.000500   0.000384   0.000037  -0.000147   0.000010
     4  C    0.004935  -0.005378  -0.000075  -0.000032  -0.000015  -0.000000
     5  C    0.000370   0.000033   0.000426   0.000555   0.000409   0.000531
     6  C   -0.000069  -0.000026   0.004899  -0.005451   0.004987  -0.005449
     7  C    0.000000  -0.000000  -0.000003  -0.000000   0.000016   0.000014
     8  N   -0.000000   0.000000   0.000000   0.000000   0.000015   0.000035
     9  C   -0.000003  -0.000000   0.000000  -0.000000  -0.000003   0.000000
    10  N    0.000000   0.000000  -0.000000   0.000000  -0.000000   0.000000
    11  C   -0.000335   0.000153  -0.000003   0.000000   0.000000  -0.000000
    12  N    0.000150   0.000011  -0.000000   0.000000  -0.000000   0.000000
    13  C   -0.076235  -0.001605   0.000017   0.000015  -0.000003  -0.000000
    14  N   -0.001605   0.118129   0.000016   0.000040   0.000000   0.000000
    15  C    0.000017   0.000016  -0.075926  -0.001589  -0.000330   0.000136
    16  N    0.000015   0.000040  -0.001589   0.117815   0.000125   0.000009
    17  C   -0.000003   0.000000  -0.000330   0.000125  -0.076147  -0.001628
    18  N   -0.000000   0.000000   0.000136   0.000009  -0.001628   0.118091
 Mulliken charges and spin densities:
               1          2
     1  C    0.182128  -0.051359
     2  C   -0.377220   0.305957
     3  C    0.186190  -0.051681
     4  C   -0.380071   0.306065
     5  C    0.175840  -0.050827
     6  C   -0.372089   0.305441
     7  C   -0.083572  -0.072570
     8  N    0.018234   0.111966
     9  C   -0.087383  -0.072183
    10  N    0.014676   0.111536
    11  C   -0.086792  -0.072397
    12  N    0.016530   0.112009
    13  C   -0.085762  -0.072515
    14  N    0.017866   0.111881
    15  C   -0.085505  -0.072218
    16  N    0.014572   0.111532
    17  C   -0.083930  -0.072391
    18  N    0.016288   0.111754
 Sum of Mulliken charges =  -1.00000   1.00000
 Mulliken charges and spin densities with hydrogens summed into heavy atoms:
               1          2
     1  C    0.182128  -0.051359
     2  C   -0.377220   0.305957
     3  C    0.186190  -0.051681
     4  C   -0.380071   0.306065
     5  C    0.175840  -0.050827
     6  C   -0.372089   0.305441
     7  C   -0.083572  -0.072570
     8  N    0.018234   0.111966
     9  C   -0.087383  -0.072183
    10  N    0.014676   0.111536
    11  C   -0.086792  -0.072397
    12  N    0.016530   0.112009
    13  C   -0.085762  -0.072515
    14  N    0.017866   0.111881
    15  C   -0.085505  -0.072218
    16  N    0.014572   0.111532
    17  C   -0.083930  -0.072391
    18  N    0.016288   0.111754
 Electronic spatial extent (au):  <R**2>=          38985.0770
 Charge=             -1.0000 electrons
 Dipole moment (field-independent basis, Debye):
    X=             42.7368    Y=              8.2253    Z=             -4.9491  Tot=             43.8016
 Quadrupole moment (field-independent basis, Debye-Ang):
   XX=           -551.5845   YY=           -184.9897   ZZ=           -104.1313
   XY=            -72.4468   XZ=             44.7817   YZ=              1.2121
 Traceless Quadrupole moment (field-independent basis, Debye-Ang):
   XX=           -271.3494   YY=             95.2455   ZZ=            176.1039
   XY=            -72.4468   XZ=             44.7817   YZ=              1.2121
 Octapole moment (field-independent basis, Debye-Ang**2):
  XXX=           7975.3731  YYY=            970.4874  ZZZ=           -311.0535  XYY=           1650.4731
  XXY=            863.4193  XXZ=           -586.3096  XZZ=            931.9241  YZZ=            163.9475
  YYZ=           -160.8914  XYZ=            -12.1249
 Hexadecapole moment (field-independent basis, Debye-Ang**3):
 XXXX=        -116471.0417 YYYY=          -7792.2535 ZZZZ=           -763.6321 XXXY=         -11641.4667
 XXXZ=           8544.1749 YYYX=          -8645.1196 YYYZ=            640.7741 ZZZX=           2799.0471
 ZZZY=            360.0201 XXYY=         -16424.2377 XXZZ=          -9073.5458 YYZZ=           -973.9559
 XXYZ=            269.8674 YYXZ=           1457.4602 ZZXY=          -1464.2250
 N-N= 9.655112861256D+02 E-N=-3.766323703842D+03  KE= 7.772675555514D+02
                          Isotropic Fermi Contact Couplings
        Atom                 a.u.       MegaHertz       Gauss      10(-4) cm-1
     1  C(13)             -0.01770     -19.89671      -7.09964      -6.63683
     2  C(13)              0.05030      56.54963      20.17831      18.86293
     3  C(13)             -0.01778     -19.98882      -7.13251      -6.66755
     4  C(13)              0.05034      56.58662      20.19151      18.87527
     5  C(13)             -0.01758     -19.76829      -7.05382      -6.59399
     6  C(13)              0.05005      56.26675      20.07737      18.76857
     7  C(13)             -0.03260     -36.64807     -13.07694     -12.22448
     8  N(14)              0.02601       8.40439       2.99890       2.80340
     9  C(13)             -0.03247     -36.50701     -13.02661     -12.17743
    10  N(14)              0.02589       8.36421       2.98456       2.79000
    11  C(13)             -0.03255     -36.59669     -13.05861     -12.20734
    12  N(14)              0.02600       8.40144       2.99784       2.80242
    13  C(13)             -0.03259     -36.64052     -13.07425     -12.22196
    14  N(14)              0.02597       8.39249       2.99465       2.79943
    15  C(13)             -0.03247     -36.50203     -13.02483     -12.17577
    16  N(14)              0.02590       8.36817       2.98597       2.79132
    17  C(13)             -0.03250     -36.53941     -13.03817     -12.18823
    18  N(14)              0.02597       8.38962       2.99362       2.79848
 --------------------------------------------------------
       Center         ----  Spin Dipole Couplings  ----
                      3XX-RR        3YY-RR        3ZZ-RR
 --------------------------------------------------------
     1   Atom        0.000954      0.023531     -0.024485
     2   Atom       -0.159907     -0.156719      0.316627
     3   Atom        0.018373      0.006412     -0.024784
     4   Atom       -0.161707     -0.154786      0.316493
     5   Atom        0.017853      0.005908     -0.023761
     6   Atom       -0.161484     -0.157617      0.319101
     7   Atom        0.036930      0.009312     -0.046242
     8   Atom       -0.112501     -0.091801      0.204302
     9   Atom        0.038100      0.007964     -0.046064
    10   Atom       -0.113200     -0.090337      0.203537
    11   Atom        0.035758      0.010595     -0.046353
    12   Atom       -0.112884     -0.091818      0.204702
    13   Atom       -0.002721      0.048408     -0.045687
    14   Atom       -0.086234     -0.116993      0.203227
    15   Atom       -0.002697      0.048913     -0.046215
    16   Atom       -0.085995     -0.119913      0.205908
    17   Atom        0.035113      0.011421     -0.046534
    18   Atom       -0.112107     -0.094283      0.206390
 --------------------------------------------------------
                        XY            XZ            YZ
 --------------------------------------------------------
     1   Atom        0.000261     -0.002574      0.004017
     2   Atom       -0.000263      0.003171     -0.051961
     3   Atom       -0.009986      0.000142      0.003815
     4   Atom        0.000207      0.008309     -0.052701
     5   Atom        0.009916      0.000264      0.004011
     6   Atom       -0.000924     -0.000734     -0.035597
     7   Atom       -0.022270     -0.003391      0.006279
     8   Atom        0.014830      0.007604     -0.033728
     9   Atom        0.021478      0.002258      0.006087
    10   Atom       -0.014737     -0.001981     -0.033679
    11   Atom        0.023213      0.000674      0.005724
    12   Atom       -0.016036      0.006221     -0.031657
    13   Atom        0.000745     -0.000441      0.010779
    14   Atom       -0.000186      0.003828     -0.039153
    15   Atom       -0.002285      0.000064      0.006843
    16   Atom        0.001444     -0.001357     -0.021448
    17   Atom       -0.023403     -0.001447      0.004054
    18   Atom        0.015849     -0.001326     -0.020320
 --------------------------------------------------------


 ---------------------------------------------------------------------------------
              Anisotropic Spin Dipole Couplings in Principal Axis System
 ---------------------------------------------------------------------------------

       Atom             a.u.   MegaHertz   Gauss  10(-4) cm-1        Axes

              Baa    -0.0251    -3.365    -1.201    -1.122  0.0989 -0.0825  0.9917
     1 C(13)  Bbb     0.0012     0.162     0.058     0.054  0.9951  0.0061 -0.0987
              Bcc     0.0239     3.202     1.143     1.068  0.0021  0.9966  0.0827
 
              Baa    -0.1624   -21.787    -7.774    -7.267 -0.0330  0.9936  0.1080
     2 C(13)  Bbb    -0.1599   -21.461    -7.658    -7.158  0.9994  0.0336 -0.0030
              Bcc     0.3223    43.247    15.432    14.426  0.0066 -0.1078  0.9941
 
              Baa    -0.0253    -3.393    -1.211    -1.132 -0.0329 -0.1296  0.9910
     3 C(13)  Bbb     0.0012     0.160     0.057     0.053  0.4976  0.8578  0.1287
              Bcc     0.0241     3.233     1.154     1.079  0.8668 -0.4973 -0.0363
 
              Baa    -0.1625   -21.807    -7.781    -7.274  0.8616 -0.5027 -0.0703
     4 C(13)  Bbb    -0.1599   -21.464    -7.659    -7.159  0.5073  0.8575  0.0860
              Bcc     0.3225    43.270    15.440    14.433  0.0170 -0.1097  0.9938
 
              Baa    -0.0243    -3.264    -1.165    -1.089  0.0267 -0.1401  0.9898
     5 C(13)  Bbb     0.0008     0.102     0.036     0.034 -0.4988  0.8562  0.1347
              Bcc     0.0236     3.161     1.128     1.055  0.8663  0.4973  0.0470
 
              Baa    -0.1620   -21.742    -7.758    -7.252  0.8751  0.4826  0.0370
     6 C(13)  Bbb    -0.1597   -21.433    -7.648    -7.149 -0.4840  0.8727  0.0641
              Bcc     0.3217    43.175    15.406    14.402 -0.0014 -0.0741  0.9973
 
              Baa    -0.0470    -6.301    -2.248    -2.102  0.0120 -0.1062  0.9943
     7 C(13)  Bbb    -0.0027    -0.369    -0.132    -0.123  0.4932  0.8656  0.0865
              Bcc     0.0497     6.670     2.380     2.225  0.8698 -0.4893 -0.0628
 
              Baa    -0.1219    -4.700    -1.677    -1.568  0.8599 -0.5054 -0.0723
     8 N(14)  Bbb    -0.0863    -3.330    -1.188    -1.111  0.5102  0.8557  0.0860
              Bcc     0.2082     8.030     2.865     2.679  0.0184 -0.1108  0.9937
 
              Baa    -0.0467    -6.272    -2.238    -2.092  0.0017 -0.1113  0.9938
     9 C(13)  Bbb    -0.0028    -0.372    -0.133    -0.124 -0.4672  0.8786  0.0992
              Bcc     0.0495     6.644     2.371     2.216  0.8842  0.4645  0.0505
 
              Baa    -0.1213    -4.679    -1.670    -1.561  0.8774  0.4767  0.0548
    10 N(14)  Bbb    -0.0860    -3.318    -1.184    -1.107 -0.4798  0.8719  0.0981
              Bcc     0.2073     7.997     2.854     2.667 -0.0010 -0.1124  0.9937
 
              Baa    -0.0470    -6.301    -2.249    -2.102  0.0222 -0.1078  0.9939
    11 C(13)  Bbb    -0.0027    -0.369    -0.132    -0.123 -0.5148  0.8510  0.1038
              Bcc     0.0497     6.670     2.380     2.225  0.8570  0.5140  0.0366
 
              Baa    -0.1218    -4.699    -1.677    -1.567  0.8674  0.4967  0.0316
    12 N(14)  Bbb    -0.0864    -3.332    -1.189    -1.111 -0.4971  0.8614  0.1043
              Bcc     0.2082     8.031     2.866     2.679  0.0246 -0.1062  0.9940
 
              Baa    -0.0469    -6.295    -2.246    -2.100  0.0118 -0.1124  0.9936
    13 C(13)  Bbb    -0.0027    -0.366    -0.130    -0.122  0.9998 -0.0118 -0.0132
              Bcc     0.0496     6.661     2.377     2.222  0.0132  0.9936  0.1123
 
              Baa    -0.1217    -4.694    -1.675    -1.566 -0.0077  0.9928  0.1197
    14 N(14)  Bbb    -0.0863    -3.328    -1.187    -1.110  0.9999  0.0092 -0.0120
              Bcc     0.2080     8.022     2.862     2.676  0.0130 -0.1196  0.9927
 
              Baa    -0.0467    -6.268    -2.236    -2.091 -0.0052 -0.0715  0.9974
    15 C(13)  Bbb    -0.0028    -0.375    -0.134    -0.125  0.9990  0.0431  0.0082
              Bcc     0.0495     6.643     2.370     2.216 -0.0435  0.9965  0.0712
 
              Baa    -0.1214    -4.681    -1.670    -1.561 -0.0382  0.9971  0.0652
    16 N(14)  Bbb    -0.0860    -3.315    -1.183    -1.106  0.9993  0.0378  0.0074
              Bcc     0.2073     7.996     2.853     2.667 -0.0049 -0.0654  0.9978
 
              Baa    -0.0468    -6.282    -2.242    -2.096 -0.0025 -0.0704  0.9975
    17 C(13)  Bbb    -0.0028    -0.375    -0.134    -0.125  0.5260  0.8483  0.0612
              Bcc     0.0496     6.658     2.376     2.221  0.8505 -0.5248 -0.0349
 
              Baa    -0.1216    -4.691    -1.674    -1.565  0.8556 -0.5169 -0.0286
    18 N(14)  Bbb    -0.0861    -3.322    -1.185    -1.108  0.5177  0.8534  0.0616
              Bcc     0.2078     8.013     2.859     2.673 -0.0075 -0.0675  0.9977
 

 ---------------------------------------------------------------------------------

   1 Symmetry operations used in ECPInt.
 ECPInt:  NShTT=    5886 NPrTT=   23670 LenC2=    5404 LenP2D=   14962.
 LDataN:  DoStor=T MaxTD1= 5 Len=  102
 D1PCM: PCM CHGder 1st derivatives, ID1Alg=3 FixD1E=F DoIter=F DoCFld=F I1PDM=0.
 Calling FoFJK, ICntrl=      2127 FMM=F ISym2X=0 I1Cent= 0 IOpClX= 1 NMat=1 NMatS=1 NMatT=0.
 -------------------------------------------------------------------
 Center     Atomic                   Forces (Hartrees/Bohr)
 Number     Number              X              Y              Z
 -------------------------------------------------------------------
      1        6           0.000126576    0.021700062    0.002120863
      2        6           0.000416939   -0.014418156   -0.001049778
      3        6           0.018713292   -0.010631734   -0.001247841
      4        6          -0.012555094    0.007432451    0.000570757
      5        6          -0.018605471   -0.010544672   -0.000913574
      6        6           0.012517270    0.007070498    0.000578093
      7        6          -0.007027764    0.003179703    0.000482772
      8        7           0.004661256   -0.003051594   -0.000517221
      9        6           0.007474770    0.003882259    0.000416611
     10        7          -0.004227099   -0.002253643   -0.000335299
     11        6           0.007264130    0.004820202    0.000224098
     12        7          -0.004772865   -0.002434977   -0.000026713
     13        6          -0.000903575   -0.008027343   -0.000739293
     14        7          -0.000306900    0.005388987    0.000675111
     15        6           0.000439478   -0.008836133   -0.000723606
     16        7          -0.000594464    0.005172470    0.000231027
     17        6          -0.007223949    0.004469965    0.000317937
     18        7           0.004603471   -0.002918344   -0.000063941
 -------------------------------------------------------------------
 Cartesian Forces:  Max     0.021700062 RMS     0.006966913

 GradGradGradGradGradGradGradGradGradGradGradGradGradGradGradGradGradGrad
 Berny optimization.
 Search for a local minimum.
 Step number   1 out of a maximum of    2
 All quantities printed in internal units (Hartrees-Bohrs-Radians)
 Second derivative matrix not updated -- first step.
 ITU=  0
     Eigenvalues ---    0.00128   0.00146   0.00197   0.00300   0.00301
     Eigenvalues ---    0.00816   0.01536   0.01722   0.01987   0.02015
     Eigenvalues ---    0.02999   0.04115   0.05330   0.05356   0.10294
     Eigenvalues ---    0.15139   0.21330   0.21520   0.24398   0.24721
     Eigenvalues ---    0.25062   0.25735   0.25965   0.30081   0.30248
     Eigenvalues ---    0.36051   0.41798   0.48372   0.79293   0.79861
     Eigenvalues ---    0.81895   0.99500   1.00644   1.04580   1.05017
     Eigenvalues ---    1.12163   1.59943   1.60296   2.06158   2.78667
     Eigenvalues ---    2.78777   2.78980   2.83962   2.84137   2.84280
     Eigenvalues ---   33.63502  66.89878 100.38742
 Angle between quadratic step and forces=  79.15 degrees.
 Linear search not attempted -- first point.
 B after Tr=    -0.000210    0.000038   -0.000013
         Rot=    1.000000    0.000004    0.000001   -0.000002 Ang=   0.00 deg.
 Variable       Old X    -DE/DX   Delta X   Delta X   Delta X     New X
                                 (Linear)    (Quad)   (Total)
    X1      -16.91539   0.00013   0.00000   0.00919   0.00898 -16.90641
    Y1       -1.73140   0.02170   0.00000   0.00631   0.00630  -1.72511
    Z1        2.09059   0.00212   0.00000   0.00508   0.00504   2.09563
    X2      -16.91372   0.00042   0.00000   0.01326   0.01304 -16.90068
    Y2        0.89088  -0.01442   0.00000  -0.02106  -0.02107   0.86981
    Z2        2.35635  -0.00105   0.00000   0.00426   0.00420   2.36055
    X3      -15.59718   0.01871   0.00000   0.01165   0.01146 -15.58573
    Y3       -3.99658  -0.01063   0.00000  -0.00208  -0.00209  -3.99867
    Z3        1.86137  -0.00125   0.00000  -0.00100  -0.00102   1.86035
    X4      -13.31557  -0.01256   0.00000  -0.01222  -0.01242 -13.32799
    Y4       -5.30704   0.00743   0.00000   0.01439   0.01439  -5.29265
    Z4        1.69731   0.00057   0.00000  -0.00213  -0.00213   1.69518
    X5      -18.22460  -0.01861   0.00000   0.00002  -0.00018 -18.22478
    Y5       -3.99764  -0.01054   0.00000  -0.00346  -0.00348  -4.00112
    Z5        1.88353  -0.00091   0.00000   0.00111   0.00109   1.88462
    X6      -20.50535   0.01252   0.00000   0.02047   0.02027 -20.48508
    Y6       -5.30971   0.00707   0.00000   0.00796   0.00793  -5.30178
    Z6        1.77932   0.00058   0.00000   0.00072   0.00070   1.78002
    X7      -19.21502  -0.00703   0.00000  -0.00158  -0.00181 -19.21683
    Y7        2.25940   0.00318   0.00000  -0.03354  -0.03355   2.22585
    Z7        2.53413   0.00048   0.00000  -0.01748  -0.01755   2.51658
    X8      -21.10748   0.00466   0.00000  -0.00921  -0.00944 -21.11691
    Y8        3.36395  -0.00305   0.00000  -0.05254  -0.05256   3.31139
    Z8        2.68562  -0.00052   0.00000  -0.03827  -0.03836   2.64726
    X9      -14.58230   0.00747   0.00000   0.01790   0.01768 -14.56462
    Y9        2.20778   0.00388   0.00000  -0.01166  -0.01166   2.19612
    Z9        2.49703   0.00042   0.00000   0.00157   0.00151   2.49854
   X10      -12.65236  -0.00423   0.00000   0.01209   0.01186 -12.64050
   Y10        3.24890  -0.00225   0.00000  -0.00860  -0.00859   3.24031
   Z10        2.61431  -0.00034   0.00000  -0.00106  -0.00113   2.61319
   X11      -10.98407   0.00726   0.00000  -0.00975  -0.00995 -10.99402
   Y11       -3.98525   0.00482   0.00000   0.02608   0.02609  -3.95915
   Z11        1.79217   0.00022   0.00000  -0.00348  -0.00349   1.78868
   X12       -9.08283  -0.00477   0.00000  -0.01973  -0.01994  -9.10277
   Y12       -2.88793  -0.00243   0.00000   0.03485   0.03487  -2.85306
   Z12        1.86425  -0.00003   0.00000  -0.00269  -0.00270   1.86155
   X13      -13.28647  -0.00090   0.00000  -0.02762  -0.02780 -13.31428
   Y13       -7.97253  -0.00803   0.00000   0.00551   0.00550  -7.96703
   Z13        1.39142  -0.00074   0.00000   0.01985   0.01986   1.41128
   X14      -13.27762  -0.00031   0.00000  -0.04573  -0.04590 -13.32352
   Y14      -10.15388   0.00539   0.00000   0.00732   0.00732 -10.14657
   Z14        1.13508   0.00068   0.00000   0.04061   0.04065   1.17573
   X15      -20.48531   0.00044   0.00000   0.01178   0.01159 -20.47371
   Y15       -7.98287  -0.00884   0.00000   0.00171   0.00169  -7.98118
   Z15        1.58524  -0.00072   0.00000  -0.03346  -0.03346   1.55178
   X16      -20.39680  -0.00059   0.00000  -0.00300  -0.00317 -20.39997
   Y16      -10.17238   0.00517   0.00000   0.00719   0.00716 -10.16521
   Z16        1.43713   0.00023   0.00000  -0.06228  -0.06227   1.37486
   X17      -22.82839  -0.00722   0.00000   0.01606   0.01586 -22.81253
   Y17       -3.97445   0.00447   0.00000   0.01253   0.01250  -3.96196
   Z17        1.87093   0.00032   0.00000   0.03170   0.03166   1.90259
   X18      -24.70517   0.00460   0.00000   0.02007   0.01986 -24.68531
   Y18       -2.83543  -0.00292   0.00000   0.00929   0.00925  -2.82618
   Z18        1.93858  -0.00006   0.00000   0.05745   0.05740   1.99597
         Item               Value     Threshold  Converged?
 Maximum Force            0.021700     0.000450     NO 
 RMS     Force            0.006967     0.000300     NO 
 Maximum Displacement     0.062269     0.001800     NO 
 RMS     Displacement     0.021942     0.001200     NO 
 Predicted change in Energy=-7.770387D-04
 GradGradGradGradGradGradGradGradGradGradGradGradGradGradGradGradGradGrad

 Unable to Open any file for archive entry.
 1\1\GINC-X10P1N4\Force\UwB97XD\def2SVP\C12N6(1-,2)\MAYUMIAO\11-Oct-202
 4\0\\# wb97xd def2svp scrf=(smd,solvent=acetonitrile) g09default scf=(
 xqc,maxcycle=64) force guess=read nosymm\\Title Card\\-1,2\C,-8.951239
 52,-0.91621991,1.10629389\C,-8.95035394,0.47143083,1.24692892\C,-8.253
 67245,-2.11489889,0.98499274\C,-7.04629607,-2.80836604,0.89817878\C,-9
 .64404417,-2.11545915,0.99672302\C,-10.8509656,-2.80977857,0.94157558\
 C,-10.16815221,1.19562387,1.34100327\N,-11.16959531,1.78012661,1.42116
 803\C,-7.71661843,1.16830759,1.32137241\N,-6.69534228,1.71924536,1.383
 43454\C,-5.81251774,-2.10890267,0.94837569\N,-4.80642919,-1.52822452,0
 .98651892\C,-7.03089746,-4.21888162,0.73630772\N,-7.02621171,-5.373203
 9,0.60065979\C,-10.8403589,-4.22435151,0.83887185\N,-10.79352283,-5.38
 299083,0.7604954\C,-12.08026217,-2.10319079,0.99005399\N,-13.07341399,
 -1.50044333,1.02585037\\Version=ES64L-G16RevC.01\HF=-784.8605601\S2=0.
 787193\S2-1=0.\S2A=0.751136\RMSD=7.566e-09\RMSF=6.967e-03\Dipole=-0.07
 79411,-0.0047349,-0.0018673\Quadrupole=-201.7416148,70.8126952,130.928
 9195,-53.8624216,33.294072,0.90114\PG=C01 [X(C12N6)]\\@
 The archive entry for this job was punched.


  DISAPPOINTMENT IS THE NURSE OF WISDOM.               
                              SIR BOYLE ROCHE                 
 Job cpu time:       0 days  0 hours 10 minutes 12.1 seconds.
 Elapsed time:       0 days  0 hours  0 minutes 23.2 seconds.
 File lengths (MBytes):  RWF=    173 Int=      0 D2E=      0 Chk=      9 Scr=      1
 Normal termination of Gaussian 16 at Fri Oct 11 16:12:14 2024.
