 Entering Gaussian System, Link 0=g16
 Input=JOBS/51_B.gjf
 Output=JOBS/51_B.log
 Initial command:
 /data/app/gaussian/C01-avx2//g16/l1.exe "/tmp/Gau-2561549.inp" -scrdir="/tmp/"
 Entering Link 1 = /data/app/gaussian/C01-avx2//g16/l1.exe PID=   2561550.
  
 Copyright (c) 1988-2019, Gaussian, Inc.  All Rights Reserved.
  
 This is part of the Gaussian(R) 16 program.  It is based on
 the Gaussian(R) 09 system (copyright 2009, Gaussian, Inc.),
 the Gaussian(R) 03 system (copyright 2003, Gaussian, Inc.),
 the Gaussian(R) 98 system (copyright 1998, Gaussian, Inc.),
 the Gaussian(R) 94 system (copyright 1995, Gaussian, Inc.),
 the Gaussian 92(TM) system (copyright 1992, Gaussian, Inc.),
 the Gaussian 90(TM) system (copyright 1990, Gaussian, Inc.),
 the Gaussian 88(TM) system (copyright 1988, Gaussian, Inc.),
 the Gaussian 86(TM) system (copyright 1986, Carnegie Mellon
 University), and the Gaussian 82(TM) system (copyright 1983,
 Carnegie Mellon University). Gaussian is a federally registered
 trademark of Gaussian, Inc.
  
 This software contains proprietary and confidential information,
 including trade secrets, belonging to Gaussian, Inc.
  
 This software is provided under written license and may be
 used, copied, transmitted, or stored only in accord with that
 written license.
  
 The following legend is applicable only to US Government
 contracts under FAR:
  
                    RESTRICTED RIGHTS LEGEND
  
 Use, reproduction and disclosure by the US Government is
 subject to restrictions as set forth in subparagraphs (a)
 and (c) of the Commercial Computer Software - Restricted
 Rights clause in FAR 52.227-19.
  
 Gaussian, Inc.
 340 Quinnipiac St., Bldg. 40, Wallingford CT 06492
  
  
 ---------------------------------------------------------------
 Warning -- This program may not be used in any manner that
 competes with the business of Gaussian, Inc. or will provide
 assistance to any competitor of Gaussian, Inc.  The licensee
 of this program is prohibited from giving any competitor of
 Gaussian, Inc. access to this program.  By using this program,
 the user acknowledges that Gaussian, Inc. is engaged in the
 business of creating and licensing software in the field of
 computational chemistry and represents and warrants to the
 licensee that it is not a competitor of Gaussian, Inc. and that
 it will not use this program in any manner prohibited above.
 ---------------------------------------------------------------
  

 Cite this work as:
 Gaussian 16, Revision C.01,
 M. J. Frisch, G. W. Trucks, H. B. Schlegel, G. E. Scuseria, 
 M. A. Robb, J. R. Cheeseman, G. Scalmani, V. Barone, 
 G. A. Petersson, H. Nakatsuji, X. Li, M. Caricato, A. V. Marenich, 
 J. Bloino, B. G. Janesko, R. Gomperts, B. Mennucci, H. P. Hratchian, 
 J. V. Ortiz, A. F. Izmaylov, J. L. Sonnenberg, D. Williams-Young, 
 F. Ding, F. Lipparini, F. Egidi, J. Goings, B. Peng, A. Petrone, 
 T. Henderson, D. Ranasinghe, V. G. Zakrzewski, J. Gao, N. Rega, 
 G. Zheng, W. Liang, M. Hada, M. Ehara, K. Toyota, R. Fukuda, 
 J. Hasegawa, M. Ishida, T. Nakajima, Y. Honda, O. Kitao, H. Nakai, 
 T. Vreven, K. Throssell, J. A. Montgomery, Jr., J. E. Peralta, 
 F. Ogliaro, M. J. Bearpark, J. J. Heyd, E. N. Brothers, K. N. Kudin, 
 V. N. Staroverov, T. A. Keith, R. Kobayashi, J. Normand, 
 K. Raghavachari, A. P. Rendell, J. C. Burant, S. S. Iyengar, 
 J. Tomasi, M. Cossi, J. M. Millam, M. Klene, C. Adamo, R. Cammi, 
 J. W. Ochterski, R. L. Martin, K. Morokuma, O. Farkas, 
 J. B. Foresman, and D. J. Fox, Gaussian, Inc., Wallingford CT, 2019.
 
 ******************************************
 Gaussian 16:  ES64L-G16RevC.01  3-Jul-2019
                11-Oct-2024 
 ******************************************
 %chk=b.chk
 %nprocshared=28
 Will use up to   28 processors via shared memory.
 %mem=48gb
 ----------------------------------------------------------------------
 # wb97xd def2svp scrf=(smd,solvent=acetonitrile) g09default scf=(xqc,m
 axcycle=64) force guess=read nosymm
 ----------------------------------------------------------------------
 1/10=7,30=1,38=1,158=3,167=1/1,3;
 2/12=2,15=1,17=6,18=5,40=1/2;
 3/5=43,7=101,11=2,25=1,27=10,30=1,70=32201,71=1,72=2,74=-58,75=-4,116=-2,158=3/1,2,3;
 4/5=1,60=-1/1;
 5/5=2,7=64,8=3,13=1,38=6,53=2,87=10/2,8;
 6/7=2,8=2,9=2,10=2,28=1,87=10/1;
 7/29=1,30=1,87=10/1,2,3,16;
 1/10=7,30=1,158=3,167=1/3;
 99//99;
 Using 2006 physical constants.
 ----------
 Title Card
 ----------
 Symbolic Z-matrix:
 Charge = -1 Multiplicity = 2
 6                    -8.95113  -0.91615   1.10638 
 6                    -8.95019   0.47151   1.24706 
 6                    -8.25376  -2.11475   0.98488 
 6                    -7.04626  -2.80834   0.89812 
 6                    -9.64401  -2.11539   0.99674 
 6                    -10.85107  -2.80993   0.94158 
 6                    -10.16794   1.19545   1.34107 
 7                    -11.16941   1.77993   1.42112 
 6                    -7.71668   1.16851   1.3214 
 7                    -6.69526   1.71919   1.38343 
 6                    -5.81241  -2.10898   0.94828 
 7                    -4.80657  -1.52806   0.98655 
 6                    -7.03105  -4.21872   0.73632 
 7                    -7.02632  -5.37307   0.60064 
 6                    -10.84046  -4.22438   0.83891 
 7                    -10.79367  -5.38309   0.76051 
 6                    -12.08037  -2.1034    0.98998 
 7                    -13.07333  -1.50051   1.02584 
 

 GradGradGradGradGradGradGradGradGradGradGradGradGradGradGradGradGradGrad
 Berny optimization.
 Initialization pass.
 Trust Radius=3.00D-01 FncErr=1.00D-07 GrdErr=1.00D-07 EigMax=2.50D+02 EigMin=1.00D-04
 Number of steps in this run=      2 maximum allowed number of steps=      2.
 GradGradGradGradGradGradGradGradGradGradGradGradGradGradGradGradGradGrad

                          Input orientation:                          
 ---------------------------------------------------------------------
 Center     Atomic      Atomic             Coordinates (Angstroms)
 Number     Number       Type             X           Y           Z
 ---------------------------------------------------------------------
      1          6           0       -8.951127   -0.916150    1.106380
      2          6           0       -8.950188    0.471514    1.247059
      3          6           0       -8.253760   -2.114752    0.984881
      4          6           0       -7.046260   -2.808345    0.898115
      5          6           0       -9.644008   -2.115394    0.996736
      6          6           0      -10.851067   -2.809928    0.941580
      7          6           0      -10.167945    1.195451    1.341070
      8          7           0      -11.169409    1.779926    1.421117
      9          6           0       -7.716678    1.168513    1.321402
     10          7           0       -6.695262    1.719194    1.383427
     11          6           0       -5.812409   -2.108975    0.948285
     12          7           0       -4.806572   -1.528063    0.986552
     13          6           0       -7.031054   -4.218722    0.736320
     14          7           0       -7.026325   -5.373070    0.600638
     15          6           0      -10.840456   -4.224378    0.838913
     16          7           0      -10.793674   -5.383087    0.760508
     17          6           0      -12.080375   -2.103400    0.989979
     18          7           0      -13.073326   -1.500509    1.025842
 ---------------------------------------------------------------------
                    Distance matrix (angstroms):
                    1          2          3          4          5
     1  C    0.000000
     2  C    1.394777   0.000000
     3  C    1.392023   2.691193   0.000000
     4  C    2.693008   3.808435   1.395226   0.000000
     5  C    1.389350   2.690007   1.390299   2.690391   0.000000
     6  C    2.687625   3.804539   2.689080   3.805056   1.393704
     7  C    2.448384   1.419808   3.840366   5.096225   3.369684
     8  N    3.505519   2.582088   4.884652   6.190809   4.204814
     9  C    2.432266   1.418761   3.343879   4.055124   3.821525
    10  N    3.480046   2.580696   4.157751   4.566983   4.852700
    11  C    3.361454   4.073555   2.441632   1.419163   3.831911
    12  N    4.191196   4.608224   3.496757   2.581306   4.872971
    13  C    3.838047   5.093353   2.446116   1.419709   3.364421
    14  N    4.881063   6.186944   3.502982   2.581997   4.197810
    15  C    3.819094   5.078494   3.341082   4.050257   2.429858
    16  N    4.844392   6.157233   4.145301   4.548774   3.472082
    17  C    3.348926   4.061322   3.826635   5.084063   2.436406
    18  N    4.164191   4.575814   4.858723   6.168653   3.484129
                    6          7          8          9         10
     6  C    0.000000
     7  C    4.082806   0.000000
     8  N    4.625803   1.162303   0.000000
     9  C    5.079041   2.451494   3.507865   0.000000
    10  N    6.162701   3.512211   4.474718   1.162062   0.000000
    11  C    5.087185   5.481259   6.636608   3.808856   3.952677
    12  N    6.179087   6.023913   7.184520   3.981502   3.777477
    13  C    4.076681   6.286420   7.319747   5.462115   5.982503
    14  N    4.616773   7.318708   8.306845   6.617280   7.143008
    15  C    1.418211   5.484431   6.041427   6.250925   7.266717
    16  N    2.580160   6.633683   7.203217   7.259887   8.223588
    17  C    1.418704   3.829239   4.011977   5.464166   6.615623
    18  N    2.580720   3.976029   3.813449   5.992054   7.153604
                   11         12         13         14         15
    11  C    0.000000
    12  N    1.162166   0.000000
    13  C    2.445620   3.500083   0.000000
    14  N    3.499824   4.456491   1.162305   0.000000
    15  C    5.456019   6.610572   3.810787   3.990471   0.000000
    16  N    5.963897   7.124443   3.938735   3.770753   1.162300
    17  C    6.268107   7.296522   5.480380   6.032060   2.461457
    18  N    7.286780   8.266893   6.631859   7.193313   3.527055
                   16         17         18
    16  N    0.000000
    17  C    3.530524   0.000000
    18  N    4.510170   1.162203   0.000000
 Symmetry turned off by external request.
 Stoichiometry    C12N6(1-,2)
 Framework group  C1[X(C12N6)]
 Deg. of freedom    48
 Full point group                 C1      NOp   1
 Rotational constants (GHZ):           0.4321842           0.4264541           0.2146946
 Standard basis: def2SVP (5D, 7F)
   252 basis functions,   450 primitive gaussians,   270 cartesian basis functions
    58 alpha electrons       57 beta electrons
       nuclear repulsion energy       965.5254210026 Hartrees.
 NAtoms=   18 NActive=   18 NUniq=   18 SFac= 1.00D+00 NAtFMM=   60 NAOKFM=F Big=F
 Integral buffers will be    131072 words long.
 Raffenetti 2 integral format.
 Two-electron integral symmetry is turned off.
 Nuclear repulsion after empirical dispersion term =      965.5137444441 Hartrees.
 Force PCM accuracy= 1.00D-10.
 ------------------------------------------------------------------------------
 Polarizable Continuum Model (PCM)
 =================================
 Model                : PCM (using non-symmetric T matrix).
 Atomic radii         : SMD-Coulomb.
 Polarization charges : Total charges.
 Charge compensation  : None.
 Solution method      : On-the-fly selection.
 Cavity type          : VdW (van der Waals Surface) (Alpha=1.000).
 Cavity algorithm     : GePol (No added spheres)
                        Default sphere list used, NSphG=   18.
                        Lebedev-Laikov grids with approx.  5.0 points / Ang**2.
                        Smoothing algorithm: York/Karplus (Gamma=1.0000).
                        Polarization charges: spherical gaussians, with
                                              point-specific exponents (IZeta= 3).
                        Self-potential: point-specific (ISelfS= 7).
                        Self-field    : sphere-specific E.n sum rule (ISelfD= 2).
 1st derivatives      : Analytical E(r).r(x)/FMM algorithm (CHGder, D1EAlg=3).
                        Cavity 1st derivative terms included.
 Solvent              : Acetonitrile, Eps=  35.688000 Eps(inf)=   1.806874
 ------------------------------------------------------------------------------
 Spheres list:
 ISph  on   Nord     Re0    Alpha      Xe            Ye            Ze
    1   C      1    1.8500  1.000     -8.951127     -0.916150      1.106380
    2   C      2    1.8500  1.000     -8.950188      0.471514      1.247059
    3   C      3    1.8500  1.000     -8.253760     -2.114752      0.984881
    4   C      4    1.8500  1.000     -7.046260     -2.808345      0.898115
    5   C      5    1.8500  1.000     -9.644008     -2.115394      0.996736
    6   C      6    1.8500  1.000    -10.851067     -2.809928      0.941580
    7   C      7    1.8500  1.000    -10.167945      1.195451      1.341070
    8   N      8    1.8900  1.000    -11.169409      1.779926      1.421117
    9   C      9    1.8500  1.000     -7.716678      1.168513      1.321402
   10   N     10    1.8900  1.000     -6.695262      1.719194      1.383427
   11   C     11    1.8500  1.000     -5.812409     -2.108975      0.948285
   12   N     12    1.8900  1.000     -4.806572     -1.528063      0.986552
   13   C     13    1.8500  1.000     -7.031054     -4.218722      0.736320
   14   N     14    1.8900  1.000     -7.026325     -5.373070      0.600638
   15   C     15    1.8500  1.000    -10.840456     -4.224378      0.838913
   16   N     16    1.8900  1.000    -10.793674     -5.383087      0.760508
   17   C     17    1.8500  1.000    -12.080375     -2.103400      0.989979
   18   N     18    1.8900  1.000    -13.073326     -1.500509      1.025842
 ------------------------------------------------------------------------------
 ------------------------------------------------------------------------------
 Atomic radii for non-electrostatic terms: SMD-CDS.
 ------------------------------------------------------------------------------
 Nuclear repulsion after PCM non-electrostatic terms =      965.5224485653 Hartrees.
 One-electron integrals computed using PRISM.
   1 Symmetry operations used in ECPInt.
 ECPInt:  NShTT=    5886 NPrTT=   23670 LenC2=    5404 LenP2D=   14962.
 LDataN:  DoStor=T MaxTD1= 4 Len=   56
 NBasis=   252 RedAO= T EigKep=  1.95D-04  NBF=   252
 NBsUse=   252 1.00D-06 EigRej= -1.00D+00 NBFU=   252
 Initial guess from the checkpoint file:  "b.chk"
 B after Tr=    -0.000008   -0.000003   -0.000065
         Rot=    1.000000   -0.000003   -0.000003    0.000000 Ang=  -0.00 deg.
 Initial guess <Sx>= 0.0000 <Sy>= 0.0000 <Sz>= 0.5000 <S**2>= 0.7872 S= 0.5184
 Requested convergence on RMS density matrix=1.00D-08 within  64 cycles.
 Requested convergence on MAX density matrix=1.00D-06.
 Requested convergence on             energy=1.00D-06.
 No special actions if energy rises.
 Inv3:  Mode=1 IEnd=    19248267.
 Iteration    1 A*A^-1 deviation from unit magnitude is 3.33D-15 for    245.
 Iteration    1 A*A^-1 deviation from orthogonality  is 2.80D-15 for   1868    302.
 Iteration    1 A^-1*A deviation from unit magnitude is 3.55D-15 for   1125.
 Iteration    1 A^-1*A deviation from orthogonality  is 5.27D-13 for   2011   2007.
 Error on total polarization charges =  0.01950
 SCF Done:  E(UwB97XD) =  -784.860547682     A.U. after   11 cycles
            NFock= 11  Conv=0.67D-08     -V/T= 2.0098
 <Sx>= 0.0000 <Sy>= 0.0000 <Sz>= 0.5000 <S**2>= 0.7872 S= 0.5184
 <L.S>=  0.00000000000    
 SMD-CDS (non-electrostatic) energy       (kcal/mol) =       5.46
 (included in total energy above)
 Annihilation of the first spin contaminant:
 S**2 before annihilation     0.7872,   after     0.7511
 QCSCF skips out because SCF is already converged.

 **********************************************************************

            Population analysis using the SCF Density.

 **********************************************************************

 Alpha  occ. eigenvalues --  -14.45948 -14.45935 -14.45934 -14.45916 -14.45915
 Alpha  occ. eigenvalues --  -14.45898 -10.38266 -10.38202 -10.38164 -10.38059
 Alpha  occ. eigenvalues --  -10.38041 -10.38006 -10.36123 -10.36108 -10.36103
 Alpha  occ. eigenvalues --  -10.36084 -10.36082 -10.36066  -1.06721  -1.01956
 Alpha  occ. eigenvalues --   -1.01953  -1.01574  -1.00742  -1.00734  -1.00662
 Alpha  occ. eigenvalues --   -0.92070  -0.92041  -0.90114  -0.72255  -0.72194
 Alpha  occ. eigenvalues --   -0.68784  -0.68585  -0.68494  -0.67739  -0.55735
 Alpha  occ. eigenvalues --   -0.50897  -0.50888  -0.49771  -0.49704  -0.47621
 Alpha  occ. eigenvalues --   -0.47513  -0.47510  -0.47017  -0.46788  -0.46752
 Alpha  occ. eigenvalues --   -0.46642  -0.45184  -0.44859  -0.44845  -0.44684
 Alpha  occ. eigenvalues --   -0.44382  -0.44359  -0.42946  -0.42764  -0.42735
 Alpha  occ. eigenvalues --   -0.35261  -0.35249  -0.28016
 Alpha virt. eigenvalues --    0.04777   0.04860   0.06466   0.06863   0.06949
 Alpha virt. eigenvalues --    0.10205   0.10248   0.10528   0.10625   0.12403
 Alpha virt. eigenvalues --    0.12553   0.14487   0.19339   0.19404   0.20965
 Alpha virt. eigenvalues --    0.24842   0.25068   0.25106   0.26255   0.26319
 Alpha virt. eigenvalues --    0.27799   0.31573   0.31591   0.31602   0.33868
 Alpha virt. eigenvalues --    0.34028   0.35258   0.46454   0.46650   0.48585
 Alpha virt. eigenvalues --    0.48976   0.53212   0.53255   0.53293   0.53316
 Alpha virt. eigenvalues --    0.55028   0.55073   0.56065   0.57297   0.59458
 Alpha virt. eigenvalues --    0.60173   0.60194   0.60950   0.61108   0.62723
 Alpha virt. eigenvalues --    0.64062   0.68400   0.69637   0.69762   0.71682
 Alpha virt. eigenvalues --    0.71756   0.72751   0.72846   0.73123   0.73329
 Alpha virt. eigenvalues --    0.73412   0.73543   0.74555   0.74884   0.75725
 Alpha virt. eigenvalues --    0.79557   0.79822   0.79902   0.80959   0.81228
 Alpha virt. eigenvalues --    0.86533   0.86671   0.86913   0.87204   0.92816
 Alpha virt. eigenvalues --    0.92867   0.93062   0.93156   0.93845   0.94092
 Alpha virt. eigenvalues --    0.95846   0.98489   0.98540   0.99118   0.99349
 Alpha virt. eigenvalues --    1.00192   1.00301   1.02906   1.03230   1.03387
 Alpha virt. eigenvalues --    1.05864   1.06759   1.07493   1.07652   1.10426
 Alpha virt. eigenvalues --    1.10622   1.14916   1.16444   1.17993   1.18146
 Alpha virt. eigenvalues --    1.18933   1.22822   1.23096   1.23591   1.33279
 Alpha virt. eigenvalues --    1.36152   1.36360   1.38104   1.38227   1.41294
 Alpha virt. eigenvalues --    1.43564   1.43608   1.45584   1.45847   1.55727
 Alpha virt. eigenvalues --    1.60026   1.65865   1.68304   1.68390   1.68601
 Alpha virt. eigenvalues --    1.68761   1.68870   1.76415   1.76583   1.76704
 Alpha virt. eigenvalues --    1.77227   1.77853   1.79099   1.79172   1.79843
 Alpha virt. eigenvalues --    1.81895   1.82445   1.85219   1.92720   1.92849
 Alpha virt. eigenvalues --    1.92916   1.97783   1.99641   1.99804   2.03300
 Alpha virt. eigenvalues --    2.03548   2.06191   2.07205   2.12568   2.12725
 Alpha virt. eigenvalues --    2.17479   2.19506   2.19861   2.20019   2.26062
 Alpha virt. eigenvalues --    2.26845   2.27034   2.28731   2.33026   2.33039
 Alpha virt. eigenvalues --    2.33497   2.33571   2.33867   2.33967   2.34465
 Alpha virt. eigenvalues --    2.35415   2.35508   2.35683   2.35945   2.36097
 Alpha virt. eigenvalues --    2.37328   2.37412   2.56315   2.61967   2.62293
 Alpha virt. eigenvalues --    2.70526   2.70716   2.92707   2.94764   2.95030
 Alpha virt. eigenvalues --    2.95307   2.98498   2.98519   2.99158   3.02291
 Alpha virt. eigenvalues --    3.04791   3.04896   3.08259   3.08735   3.11637
 Alpha virt. eigenvalues --    3.11749   3.12261   3.23027   3.23334   3.28595
 Alpha virt. eigenvalues --    3.40743   3.40775   3.42363   3.53652   3.56866
 Alpha virt. eigenvalues --    3.56968   3.61606   3.61695   3.75250
  Beta  occ. eigenvalues --  -14.45755 -14.45743 -14.45741 -14.45724 -14.45722
  Beta  occ. eigenvalues --  -14.45706 -10.38303 -10.38240 -10.38200 -10.37707
  Beta  occ. eigenvalues --  -10.37689 -10.37655 -10.36216 -10.36200 -10.36195
  Beta  occ. eigenvalues --  -10.36176 -10.36175 -10.36157  -1.06328  -1.01604
  Beta  occ. eigenvalues --   -1.01601  -1.01220  -1.00411  -1.00402  -1.00332
  Beta  occ. eigenvalues --   -0.91306  -0.91274  -0.89138  -0.72123  -0.72059
  Beta  occ. eigenvalues --   -0.68569  -0.68371  -0.68232  -0.67581  -0.54967
  Beta  occ. eigenvalues --   -0.49691  -0.49600  -0.49589  -0.49555  -0.47261
  Beta  occ. eigenvalues --   -0.47153  -0.47150  -0.46657  -0.46505  -0.46470
  Beta  occ. eigenvalues --   -0.45481  -0.45081  -0.44237  -0.44214  -0.43924
  Beta  occ. eigenvalues --   -0.43908  -0.43877  -0.42801  -0.42623  -0.42595
  Beta  occ. eigenvalues --   -0.32253  -0.32237
  Beta virt. eigenvalues --   -0.10729   0.05468   0.05548   0.06577   0.06962
  Beta virt. eigenvalues --    0.07046   0.10527   0.11241   0.11284   0.11401
  Beta virt. eigenvalues --    0.12448   0.12597   0.14741   0.19535   0.19599
  Beta virt. eigenvalues --    0.22536   0.24761   0.26416   0.26448   0.26663
  Beta virt. eigenvalues --    0.26712   0.28007   0.32053   0.32108   0.32249
  Beta virt. eigenvalues --    0.33953   0.34138   0.35337   0.46577   0.46769
  Beta virt. eigenvalues --    0.48728   0.49044   0.53160   0.53176   0.53360
  Beta virt. eigenvalues --    0.53420   0.55183   0.55238   0.56215   0.57463
  Beta virt. eigenvalues --    0.59386   0.60059   0.60080   0.60964   0.61125
  Beta virt. eigenvalues --    0.62860   0.63930   0.68725   0.69800   0.69918
  Beta virt. eigenvalues --    0.71812   0.71884   0.72887   0.72989   0.73301
  Beta virt. eigenvalues --    0.73521   0.73605   0.73669   0.74690   0.75016
  Beta virt. eigenvalues --    0.75748   0.79828   0.79905   0.80527   0.81706
  Beta virt. eigenvalues --    0.81960   0.86773   0.86789   0.87040   0.87310
  Beta virt. eigenvalues --    0.92997   0.93047   0.93675   0.93752   0.94075
  Beta virt. eigenvalues --    0.94697   0.96559   0.99106   0.99133   0.99359
  Beta virt. eigenvalues --    0.99583   1.00334   1.00442   1.03041   1.03374
  Beta virt. eigenvalues --    1.03525   1.06184   1.06815   1.07815   1.07966
  Beta virt. eigenvalues --    1.10553   1.10750   1.15133   1.16779   1.18239
  Beta virt. eigenvalues --    1.18396   1.19212   1.23061   1.23305   1.24134
  Beta virt. eigenvalues --    1.33431   1.36340   1.36548   1.38663   1.38794
  Beta virt. eigenvalues --    1.42058   1.44269   1.44325   1.45665   1.45928
  Beta virt. eigenvalues --    1.55784   1.60062   1.65700   1.68085   1.68170
  Beta virt. eigenvalues --    1.68379   1.68545   1.68655   1.76537   1.76577
  Beta virt. eigenvalues --    1.76765   1.77089   1.77744   1.78996   1.79060
  Beta virt. eigenvalues --    1.80092   1.81827   1.82379   1.85128   1.92764
  Beta virt. eigenvalues --    1.92870   1.93049   1.97956   2.00233   2.00396
  Beta virt. eigenvalues --    2.03647   2.03899   2.06987   2.07359   2.13089
  Beta virt. eigenvalues --    2.13233   2.17755   2.20603   2.20829   2.20983
  Beta virt. eigenvalues --    2.26598   2.27437   2.27621   2.29221   2.33707
  Beta virt. eigenvalues --    2.33718   2.34159   2.34244   2.34554   2.34653
  Beta virt. eigenvalues --    2.35125   2.35888   2.36134   2.36179   2.36473
  Beta virt. eigenvalues --    2.36541   2.38059   2.38165   2.56778   2.62041
  Beta virt. eigenvalues --    2.62369   2.70950   2.71140   2.92797   2.94897
  Beta virt. eigenvalues --    2.95175   2.95494   2.98662   2.98684   2.99279
  Beta virt. eigenvalues --    3.02793   3.05314   3.05421   3.08418   3.08894
  Beta virt. eigenvalues --    3.12141   3.12252   3.12762   3.23271   3.23579
  Beta virt. eigenvalues --    3.28786   3.40946   3.40977   3.42555   3.53833
  Beta virt. eigenvalues --    3.57048   3.57150   3.61800   3.61889   3.75403
          Condensed to atoms (all electrons):
               1          2          3          4          5          6
     1  C    4.913040   0.541894   0.296145  -0.104153   0.298177  -0.103860
     2  C    0.541894   5.327807  -0.103087  -0.008470  -0.104666  -0.008016
     3  C    0.296145  -0.103087   4.911442   0.540709   0.297217  -0.103557
     4  C   -0.104153  -0.008470   0.540709   5.331807  -0.104702  -0.008282
     5  C    0.298177  -0.104666   0.297217  -0.104702   4.915984   0.543640
     6  C   -0.103860  -0.008016  -0.103557  -0.008282   0.543640   5.324035
     7  C    0.005648   0.390729   0.005413  -0.000494  -0.022597   0.002497
     8  N   -0.001718  -0.029103  -0.000066  -0.000001  -0.000482   0.000122
     9  C    0.009372   0.394222  -0.022562   0.002602   0.006052  -0.000468
    10  N   -0.001741  -0.028484  -0.000497   0.000143  -0.000057  -0.000001
    11  C   -0.021801   0.002586   0.007767   0.393779   0.005560  -0.000477
    12  N   -0.000462   0.000126  -0.001757  -0.028870  -0.000067  -0.000001
    13  C    0.005273  -0.000498   0.006729   0.392673  -0.022160   0.002497
    14  N   -0.000069  -0.000001  -0.001755  -0.029069  -0.000476   0.000122
    15  C    0.006433  -0.000467  -0.023598   0.002660   0.008535   0.391457
    16  N   -0.000045  -0.000001  -0.000550   0.000162  -0.001684  -0.028725
    17  C   -0.023735   0.002547   0.006030  -0.000493   0.007543   0.389962
    18  N   -0.000535   0.000145  -0.000052  -0.000001  -0.001657  -0.028864
               7          8          9         10         11         12
     1  C    0.005648  -0.001718   0.009372  -0.001741  -0.021801  -0.000462
     2  C    0.390729  -0.029103   0.394222  -0.028484   0.002586   0.000126
     3  C    0.005413  -0.000066  -0.022562  -0.000497   0.007767  -0.001757
     4  C   -0.000494  -0.000001   0.002602   0.000143   0.393779  -0.028870
     5  C   -0.022597  -0.000482   0.006052  -0.000057   0.005560  -0.000067
     6  C    0.002497   0.000122  -0.000468  -0.000001  -0.000477  -0.000001
     7  C    4.845807   0.907240  -0.052781   0.002088   0.000115   0.000002
     8  N    0.907240   6.104532   0.001884   0.000067   0.000000   0.000000
     9  C   -0.052781   0.001884   4.841952   0.907156  -0.000393   0.000091
    10  N    0.002088   0.000067   0.907156   6.107093   0.000261  -0.000760
    11  C    0.000115   0.000000  -0.000393   0.000261   4.842532   0.907729
    12  N    0.000002   0.000000   0.000091  -0.000760   0.907729   6.105267
    13  C   -0.000014  -0.000000   0.000120   0.000002  -0.052842   0.001962
    14  N   -0.000000  -0.000000   0.000000   0.000000   0.001894   0.000068
    15  C    0.000113   0.000002  -0.000014  -0.000000   0.000121   0.000000
    16  N    0.000000   0.000000  -0.000000  -0.000000   0.000002   0.000000
    17  C   -0.000423   0.000055   0.000118   0.000000  -0.000014  -0.000000
    18  N    0.000254  -0.000722   0.000002   0.000000  -0.000000  -0.000000
              13         14         15         16         17         18
     1  C    0.005273  -0.000069   0.006433  -0.000045  -0.023735  -0.000535
     2  C   -0.000498  -0.000001  -0.000467  -0.000001   0.002547   0.000145
     3  C    0.006729  -0.001755  -0.023598  -0.000550   0.006030  -0.000052
     4  C    0.392673  -0.029069   0.002660   0.000162  -0.000493  -0.000001
     5  C   -0.022160  -0.000476   0.008535  -0.001684   0.007543  -0.001657
     6  C    0.002497   0.000122   0.391457  -0.028725   0.389962  -0.028864
     7  C   -0.000014  -0.000000   0.000113   0.000000  -0.000423   0.000254
     8  N   -0.000000  -0.000000   0.000002   0.000000   0.000055  -0.000722
     9  C    0.000120   0.000000  -0.000014  -0.000000   0.000118   0.000002
    10  N    0.000002   0.000000  -0.000000  -0.000000   0.000000   0.000000
    11  C   -0.052842   0.001894   0.000121   0.000002  -0.000014  -0.000000
    12  N    0.001962   0.000068   0.000000   0.000000  -0.000000  -0.000000
    13  C    4.844264   0.907705  -0.000430   0.000339   0.000114   0.000000
    14  N    0.907705   6.104539   0.000031  -0.000765   0.000002   0.000000
    15  C   -0.000430   0.000031   4.844375   0.906071  -0.051940   0.002059
    16  N    0.000339  -0.000765   0.906071   6.108498   0.002160   0.000065
    17  C    0.000114   0.000002  -0.051940   0.002160   4.845902   0.906122
    18  N    0.000000   0.000000   0.002059   0.000065   0.906122   6.106821
          Atomic-Atomic Spin Densities.
               1          2          3          4          5          6
     1  C   -0.047889  -0.066330   0.036064  -0.005910   0.036137  -0.005904
     2  C   -0.066330   0.383219  -0.005936   0.000971  -0.005891   0.000990
     3  C    0.036064  -0.005936  -0.048033  -0.066422   0.036080  -0.005915
     4  C   -0.005910   0.000971  -0.066422   0.383670  -0.005937   0.000989
     5  C    0.036137  -0.005891   0.036080  -0.005937  -0.047349  -0.066369
     6  C   -0.005904   0.000990  -0.005915   0.000989  -0.066369   0.382913
     7  C    0.000437   0.004987  -0.000136  -0.000014   0.000380  -0.000066
     8  N    0.000496  -0.005392   0.000009  -0.000000   0.000033  -0.000025
     9  C    0.000426   0.004860   0.000374  -0.000073  -0.000157  -0.000015
    10  N    0.000539  -0.005425   0.000036  -0.000030   0.000010  -0.000000
    11  C    0.000361  -0.000069   0.000464   0.004897  -0.000147  -0.000014
    12  N    0.000033  -0.000026   0.000511  -0.005406   0.000009  -0.000000
    13  C   -0.000139  -0.000014   0.000404   0.004934   0.000370  -0.000069
    14  N    0.000009  -0.000000   0.000500  -0.005382   0.000033  -0.000026
    15  C   -0.000155  -0.000015   0.000384  -0.000075   0.000429   0.004898
    16  N    0.000010  -0.000000   0.000037  -0.000032   0.000555  -0.005453
    17  C    0.000398  -0.000071  -0.000147  -0.000015   0.000412   0.004975
    18  N    0.000036  -0.000029   0.000010  -0.000000   0.000531  -0.005449
               7          8          9         10         11         12
     1  C    0.000437   0.000496   0.000426   0.000539   0.000361   0.000033
     2  C    0.004987  -0.005392   0.004860  -0.005425  -0.000069  -0.000026
     3  C   -0.000136   0.000009   0.000374   0.000036   0.000464   0.000511
     4  C   -0.000014  -0.000000  -0.000073  -0.000030   0.004897  -0.005406
     5  C    0.000380   0.000033  -0.000157   0.000010  -0.000147   0.000009
     6  C   -0.000066  -0.000025  -0.000015  -0.000000  -0.000014  -0.000000
     7  C   -0.076339  -0.001635  -0.000332   0.000135  -0.000003   0.000000
     8  N   -0.001635   0.118280   0.000153   0.000010  -0.000000   0.000000
     9  C   -0.000332   0.000153  -0.075869  -0.001580   0.000016   0.000016
    10  N    0.000135   0.000010  -0.001580   0.117804   0.000015   0.000039
    11  C   -0.000003  -0.000000   0.000016   0.000015  -0.076135  -0.001595
    12  N    0.000000   0.000000   0.000016   0.000039  -0.001595   0.118247
    13  C    0.000000  -0.000000  -0.000003   0.000000  -0.000335   0.000150
    14  N   -0.000000   0.000000  -0.000000   0.000000   0.000153   0.000011
    15  C   -0.000003   0.000000   0.000000  -0.000000  -0.000003  -0.000000
    16  N   -0.000000   0.000000  -0.000000   0.000000   0.000000   0.000000
    17  C    0.000016   0.000015  -0.000003  -0.000000   0.000000  -0.000000
    18  N    0.000014   0.000035   0.000000   0.000000  -0.000000   0.000000
              13         14         15         16         17         18
     1  C   -0.000139   0.000009  -0.000155   0.000010   0.000398   0.000036
     2  C   -0.000014  -0.000000  -0.000015  -0.000000  -0.000071  -0.000029
     3  C    0.000404   0.000500   0.000384   0.000037  -0.000147   0.000010
     4  C    0.004934  -0.005382  -0.000075  -0.000032  -0.000015  -0.000000
     5  C    0.000370   0.000033   0.000429   0.000555   0.000412   0.000531
     6  C   -0.000069  -0.000026   0.004898  -0.005453   0.004975  -0.005449
     7  C    0.000000  -0.000000  -0.000003  -0.000000   0.000016   0.000014
     8  N   -0.000000   0.000000   0.000000   0.000000   0.000015   0.000035
     9  C   -0.000003  -0.000000   0.000000  -0.000000  -0.000003   0.000000
    10  N    0.000000   0.000000  -0.000000   0.000000  -0.000000   0.000000
    11  C   -0.000335   0.000153  -0.000003   0.000000   0.000000  -0.000000
    12  N    0.000150   0.000011  -0.000000   0.000000  -0.000000   0.000000
    13  C   -0.076292  -0.001605   0.000017   0.000015  -0.000003  -0.000000
    14  N   -0.001605   0.118246   0.000016   0.000040   0.000000   0.000000
    15  C    0.000017   0.000016  -0.075979  -0.001591  -0.000331   0.000136
    16  N    0.000015   0.000040  -0.001591   0.117919   0.000125   0.000009
    17  C   -0.000003   0.000000  -0.000331   0.000125  -0.076118  -0.001622
    18  N   -0.000000   0.000000   0.000136   0.000009  -0.001622   0.118048
 Mulliken charges and spin densities:
               1          2
     1  C    0.182138  -0.051381
     2  C   -0.377263   0.305828
     3  C    0.186029  -0.051717
     4  C   -0.380001   0.306166
     5  C    0.175838  -0.050870
     6  C   -0.372080   0.305459
     7  C   -0.083595  -0.072558
     8  N    0.018190   0.111978
     9  C   -0.087355  -0.072186
    10  N    0.014729   0.111552
    11  C   -0.086820  -0.072396
    12  N    0.016671   0.111989
    13  C   -0.085735  -0.072571
    14  N    0.017775   0.111995
    15  C   -0.085407  -0.072271
    16  N    0.014474   0.111633
    17  C   -0.083951  -0.072368
    18  N    0.016363   0.111717
 Sum of Mulliken charges =  -1.00000   1.00000
 Mulliken charges and spin densities with hydrogens summed into heavy atoms:
               1          2
     1  C    0.182138  -0.051381
     2  C   -0.377263   0.305828
     3  C    0.186029  -0.051717
     4  C   -0.380001   0.306166
     5  C    0.175838  -0.050870
     6  C   -0.372080   0.305459
     7  C   -0.083595  -0.072558
     8  N    0.018190   0.111978
     9  C   -0.087355  -0.072186
    10  N    0.014729   0.111552
    11  C   -0.086820  -0.072396
    12  N    0.016671   0.111989
    13  C   -0.085735  -0.072571
    14  N    0.017775   0.111995
    15  C   -0.085407  -0.072271
    16  N    0.014474   0.111633
    17  C   -0.083951  -0.072368
    18  N    0.016363   0.111717
 Electronic spatial extent (au):  <R**2>=          38985.0137
 Charge=             -1.0000 electrons
 Dipole moment (field-independent basis, Debye):
    X=             42.7377    Y=              8.2261    Z=             -4.9491  Tot=             43.8027
 Quadrupole moment (field-independent basis, Debye-Ang):
   XX=           -551.5967   YY=           -184.9938   ZZ=           -104.1301
   XY=            -72.4582   XZ=             44.7814   YZ=              1.2130
 Traceless Quadrupole moment (field-independent basis, Debye-Ang):
   XX=           -271.3564   YY=             95.2464   ZZ=            176.1101
   XY=            -72.4582   XZ=             44.7814   YZ=              1.2130
 Octapole moment (field-independent basis, Debye-Ang**2):
  XXX=           7975.4855  YYY=            970.5284  ZZZ=           -311.0494  XYY=           1650.5290
  XXY=            863.5531  XXZ=           -586.3061  XZZ=            931.9140  YZZ=            163.9503
  YYZ=           -160.8921  XYZ=            -12.1376
 Hexadecapole moment (field-independent basis, Debye-Ang**3):
 XXXX=        -116471.6689 YYYY=          -7792.3922 ZZZZ=           -763.6244 XXXY=         -11643.0649
 XXXZ=           8544.0984 YYYX=          -8645.7306 YYYZ=            640.8015 ZZZX=           2799.0081
 ZZZY=            360.0192 XXYY=         -16424.8670 XXZZ=          -9073.4394 YYZZ=           -973.9534
 XXYZ=            270.0162 YYXZ=           1457.4797 ZZXY=          -1464.2946
 N-N= 9.655224485653D+02 E-N=-3.766346896274D+03  KE= 7.772687306958D+02
                          Isotropic Fermi Contact Couplings
        Atom                 a.u.       MegaHertz       Gauss      10(-4) cm-1
     1  C(13)             -0.01770     -19.89975      -7.10072      -6.63784
     2  C(13)              0.05027      56.51865      20.16726      18.85259
     3  C(13)             -0.01779     -19.99804      -7.13580      -6.67063
     4  C(13)              0.05035      56.60807      20.19917      18.88242
     5  C(13)             -0.01759     -19.77949      -7.05781      -6.59773
     6  C(13)              0.05006      56.27794      20.08137      18.77230
     7  C(13)             -0.03259     -36.63666     -13.07287     -12.22067
     8  N(14)              0.02601       8.40550       2.99929       2.80377
     9  C(13)             -0.03247     -36.49806     -13.02342     -12.17444
    10  N(14)              0.02589       8.36568       2.98508       2.79049
    11  C(13)             -0.03256     -36.59887     -13.05938     -12.20807
    12  N(14)              0.02600       8.39916       2.99703       2.80166
    13  C(13)             -0.03261     -36.65828     -13.08058     -12.22788
    14  N(14)              0.02600       8.40122       2.99777       2.80235
    15  C(13)             -0.03248     -36.51488     -13.02942     -12.18005
    16  N(14)              0.02592       8.37604       2.98878       2.79395
    17  C(13)             -0.03250     -36.53285     -13.03583     -12.18605
    18  N(14)              0.02595       8.38606       2.99236       2.79729
 --------------------------------------------------------
       Center         ----  Spin Dipole Couplings  ----
                      3XX-RR        3YY-RR        3ZZ-RR
 --------------------------------------------------------
     1   Atom        0.000983      0.023550     -0.024533
     2   Atom       -0.159844     -0.156659      0.316503
     3   Atom        0.018380      0.006426     -0.024806
     4   Atom       -0.161767     -0.154849      0.316616
     5   Atom        0.017867      0.005931     -0.023798
     6   Atom       -0.161499     -0.157639      0.319138
     7   Atom        0.036939      0.009307     -0.046246
     8   Atom       -0.112515     -0.091816      0.204331
     9   Atom        0.038106      0.007964     -0.046070
    10   Atom       -0.113224     -0.090341      0.203566
    11   Atom        0.035751      0.010598     -0.046348
    12   Atom       -0.112862     -0.091820      0.204682
    13   Atom       -0.002725      0.048455     -0.045730
    14   Atom       -0.086319     -0.117107      0.203426
    15   Atom       -0.002699      0.048954     -0.046255
    16   Atom       -0.086065     -0.120019      0.206083
    17   Atom        0.035101      0.011421     -0.046522
    18   Atom       -0.112067     -0.094267      0.206335
 --------------------------------------------------------
                        XY            XZ            YZ
 --------------------------------------------------------
     1   Atom        0.000261     -0.002566      0.004015
     2   Atom       -0.000268      0.003196     -0.051941
     3   Atom       -0.009980      0.000155      0.003817
     4   Atom        0.000207      0.008315     -0.052692
     5   Atom        0.009908      0.000264      0.004010
     6   Atom       -0.000922     -0.000758     -0.035582
     7   Atom       -0.022270     -0.003389      0.006278
     8   Atom        0.014834      0.007568     -0.033709
     9   Atom        0.021481      0.002254      0.006087
    10   Atom       -0.014734     -0.001978     -0.033688
    11   Atom        0.023212      0.000678      0.005723
    12   Atom       -0.016030      0.006184     -0.031654
    13   Atom        0.000750     -0.000442      0.010788
    14   Atom       -0.000184      0.003833     -0.039203
    15   Atom       -0.002286      0.000067      0.006849
    16   Atom        0.001445     -0.001380     -0.021474
    17   Atom       -0.023399     -0.001449      0.004051
    18   Atom        0.015840     -0.001304     -0.020311
 --------------------------------------------------------


 ---------------------------------------------------------------------------------
              Anisotropic Spin Dipole Couplings in Principal Axis System
 ---------------------------------------------------------------------------------

       Atom             a.u.   MegaHertz   Gauss  10(-4) cm-1        Axes

              Baa    -0.0251    -3.371    -1.203    -1.124  0.0983 -0.0823  0.9917
     1 C(13)  Bbb     0.0012     0.166     0.059     0.055  0.9952  0.0060 -0.0981
              Bcc     0.0239     3.205     1.144     1.069  0.0021  0.9966  0.0825
 
              Baa    -0.1623   -21.779    -7.771    -7.265 -0.0320  0.9936  0.1080
     2 C(13)  Bbb    -0.1599   -21.452    -7.655    -7.156  0.9995  0.0326 -0.0032
              Bcc     0.3222    43.231    15.426    14.420  0.0067 -0.1078  0.9941
 
              Baa    -0.0253    -3.396    -1.212    -1.133 -0.0331 -0.1296  0.9910
     3 C(13)  Bbb     0.0012     0.163     0.058     0.054  0.4975  0.8578  0.1288
              Bcc     0.0241     3.234     1.154     1.079  0.8668 -0.4973 -0.0361
 
              Baa    -0.1626   -21.815    -7.784    -7.277  0.8616 -0.5027 -0.0702
     4 C(13)  Bbb    -0.1600   -21.472    -7.662    -7.162  0.5073  0.8575  0.0859
              Bcc     0.3226    43.286    15.446    14.439  0.0170 -0.1097  0.9938
 
              Baa    -0.0244    -3.269    -1.166    -1.090  0.0266 -0.1398  0.9898
     5 C(13)  Bbb     0.0008     0.106     0.038     0.035 -0.4988  0.8562  0.1343
              Bcc     0.0236     3.163     1.129     1.055  0.8663  0.4973  0.0469
 
              Baa    -0.1620   -21.744    -7.759    -7.253  0.8747  0.4833  0.0371
     6 C(13)  Bbb    -0.1597   -21.435    -7.649    -7.150 -0.4847  0.8723  0.0640
              Bcc     0.3218    43.180    15.408    14.403 -0.0014 -0.0740  0.9973
 
              Baa    -0.0470    -6.301    -2.248    -2.102  0.0120 -0.1062  0.9943
     7 C(13)  Bbb    -0.0028    -0.369    -0.132    -0.123  0.4931  0.8657  0.0865
              Bcc     0.0497     6.670     2.380     2.225  0.8699 -0.4892 -0.0627
 
              Baa    -0.1219    -4.700    -1.677    -1.568  0.8599 -0.5054 -0.0722
     8 N(14)  Bbb    -0.0864    -3.331    -1.188    -1.111  0.5102  0.8558  0.0860
              Bcc     0.2082     8.031     2.866     2.679  0.0183 -0.1107  0.9937
 
              Baa    -0.0467    -6.273    -2.238    -2.092  0.0018 -0.1113  0.9938
     9 C(13)  Bbb    -0.0028    -0.372    -0.133    -0.124 -0.4672  0.8786  0.0992
              Bcc     0.0495     6.645     2.371     2.217  0.8842  0.4645  0.0504
 
              Baa    -0.1213    -4.680    -1.670    -1.561  0.8775  0.4765  0.0547
    10 N(14)  Bbb    -0.0860    -3.318    -1.184    -1.107 -0.4796  0.8720  0.0982
              Bcc     0.2074     7.998     2.854     2.668 -0.0010 -0.1124  0.9937
 
              Baa    -0.0470    -6.301    -2.248    -2.102  0.0221 -0.1078  0.9939
    11 C(13)  Bbb    -0.0027    -0.369    -0.132    -0.123 -0.5149  0.8510  0.1037
              Bcc     0.0497     6.670     2.380     2.225  0.8570  0.5141  0.0367
 
              Baa    -0.1218    -4.698    -1.676    -1.567  0.8672  0.4969  0.0317
    12 N(14)  Bbb    -0.0864    -3.332    -1.189    -1.111 -0.4973  0.8613  0.1042
              Bcc     0.2082     8.030     2.865     2.679  0.0244 -0.1062  0.9940
 
              Baa    -0.0470    -6.301    -2.248    -2.102  0.0118 -0.1124  0.9936
    13 C(13)  Bbb    -0.0027    -0.366    -0.131    -0.122  0.9998 -0.0119 -0.0132
              Bcc     0.0497     6.667     2.379     2.224  0.0133  0.9936  0.1123
 
              Baa    -0.1218    -4.699    -1.677    -1.567 -0.0078  0.9928  0.1197
    14 N(14)  Bbb    -0.0864    -3.331    -1.189    -1.111  0.9999  0.0093 -0.0120
              Bcc     0.2082     8.030     2.865     2.678  0.0130 -0.1196  0.9927
 
              Baa    -0.0467    -6.273    -2.238    -2.092 -0.0052 -0.0715  0.9974
    15 C(13)  Bbb    -0.0028    -0.375    -0.134    -0.125  0.9990  0.0430  0.0083
              Bcc     0.0495     6.648     2.372     2.218 -0.0435  0.9965  0.0712
 
              Baa    -0.1215    -4.685    -1.672    -1.563 -0.0381  0.9971  0.0652
    16 N(14)  Bbb    -0.0860    -3.318    -1.184    -1.107  0.9993  0.0377  0.0075
              Bcc     0.2075     8.003     2.856     2.669 -0.0050 -0.0654  0.9978
 
              Baa    -0.0468    -6.281    -2.241    -2.095 -0.0025 -0.0704  0.9975
    17 C(13)  Bbb    -0.0028    -0.375    -0.134    -0.125  0.5261  0.8483  0.0612
              Bcc     0.0496     6.656     2.375     2.220  0.8504 -0.5249 -0.0349
 
              Baa    -0.1216    -4.690    -1.673    -1.564  0.8555 -0.5171 -0.0286
    18 N(14)  Bbb    -0.0861    -3.321    -1.185    -1.108  0.5178  0.8533  0.0616
              Bcc     0.2077     8.011     2.859     2.672 -0.0074 -0.0675  0.9977
 

 ---------------------------------------------------------------------------------

   1 Symmetry operations used in ECPInt.
 ECPInt:  NShTT=    5886 NPrTT=   23670 LenC2=    5404 LenP2D=   14962.
 LDataN:  DoStor=T MaxTD1= 5 Len=  102
 D1PCM: PCM CHGder 1st derivatives, ID1Alg=3 FixD1E=F DoIter=F DoCFld=F I1PDM=0.
 Calling FoFJK, ICntrl=      2127 FMM=F ISym2X=0 I1Cent= 0 IOpClX= 1 NMat=1 NMatS=1 NMatT=0.
 -------------------------------------------------------------------
 Center     Atomic                   Forces (Hartrees/Bohr)
 Number     Number              X              Y              Z
 -------------------------------------------------------------------
      1        6           0.000063875    0.021765362    0.002112004
      2        6           0.000397054   -0.014527233   -0.001066957
      3        6           0.018963456   -0.010779768   -0.001239745
      4        6          -0.012651184    0.007565563    0.000577074
      5        6          -0.018815773   -0.010608726   -0.000919872
      6        6           0.012674135    0.007232487    0.000587335
      7        6          -0.007131703    0.003254098    0.000488658
      8        7           0.004643155   -0.003046241   -0.000512392
      9        6           0.007588647    0.003884588    0.000424660
     10        7          -0.004228793   -0.002232323   -0.000336631
     11        6           0.007029889    0.004730499    0.000230648
     12        7          -0.004564276   -0.002333919   -0.000026035
     13        6          -0.000884991   -0.008182403   -0.000765826
     14        7          -0.000314681    0.005442783    0.000685616
     15        6           0.000461274   -0.009065213   -0.000746184
     16        7          -0.000600042    0.005321527    0.000243776
     17        6          -0.007033028    0.004389287    0.000327382
     18        7           0.004402987   -0.002810368   -0.000063511
 -------------------------------------------------------------------
 Cartesian Forces:  Max     0.021765362 RMS     0.007017575

 GradGradGradGradGradGradGradGradGradGradGradGradGradGradGradGradGradGrad
 Berny optimization.
 Search for a local minimum.
 Step number   1 out of a maximum of    2
 All quantities printed in internal units (Hartrees-Bohrs-Radians)
 Second derivative matrix not updated -- first step.
 ITU=  0
     Eigenvalues ---    0.00128   0.00145   0.00197   0.00300   0.00301
     Eigenvalues ---    0.00816   0.01536   0.01722   0.01987   0.02015
     Eigenvalues ---    0.02998   0.04116   0.05330   0.05356   0.10294
     Eigenvalues ---    0.15138   0.21330   0.21521   0.24400   0.24725
     Eigenvalues ---    0.25059   0.25737   0.25964   0.30084   0.30248
     Eigenvalues ---    0.36055   0.41798   0.48378   0.79325   0.79878
     Eigenvalues ---    0.81920   0.99493   1.00642   1.04595   1.05020
     Eigenvalues ---    1.12174   1.59939   1.60279   2.06158   2.78694
     Eigenvalues ---    2.78810   2.79012   2.84015   2.84164   2.84309
     Eigenvalues ---   33.75642  65.76970  96.43455
 Angle between quadratic step and forces=  79.11 degrees.
 Linear search not attempted -- first point.
 B after Tr=    -0.000211    0.000041   -0.000015
         Rot=    1.000000    0.000003    0.000001   -0.000002 Ang=   0.00 deg.
 Variable       Old X    -DE/DX   Delta X   Delta X   Delta X     New X
                                 (Linear)    (Quad)   (Total)
    X1      -16.91518   0.00006   0.00000   0.00909   0.00888 -16.90630
    Y1       -1.73127   0.02177   0.00000   0.00621   0.00620  -1.72507
    Z1        2.09076   0.00211   0.00000   0.00491   0.00487   2.09563
    X2      -16.91340   0.00040   0.00000   0.01298   0.01276 -16.90065
    Y2        0.89103  -0.01453   0.00000  -0.02116  -0.02117   0.86987
    Z2        2.35660  -0.00107   0.00000   0.00400   0.00395   2.36055
    X3      -15.59735   0.01896   0.00000   0.01180   0.01160 -15.58575
    Y3       -3.99630  -0.01078   0.00000  -0.00231  -0.00231  -3.99861
    Z3        1.86116  -0.00124   0.00000  -0.00103  -0.00105   1.86011
    X4      -13.31550  -0.01265   0.00000  -0.01234  -0.01253 -13.32804
    Y4       -5.30700   0.00757   0.00000   0.01425   0.01425  -5.29275
    Z4        1.69719   0.00058   0.00000  -0.00206  -0.00206   1.69513
    X5      -18.22453  -0.01882   0.00000   0.00002  -0.00018 -18.22471
    Y5       -3.99752  -0.01061   0.00000  -0.00354  -0.00356  -4.00107
    Z5        1.88356  -0.00092   0.00000   0.00103   0.00101   1.88456
    X6      -20.50555   0.01267   0.00000   0.02078   0.02058 -20.48496
    Y6       -5.30999   0.00723   0.00000   0.00821   0.00819  -5.30181
    Z6        1.77933   0.00059   0.00000   0.00069   0.00067   1.78000
    X7      -19.21463  -0.00713   0.00000  -0.00212  -0.00234 -19.21697
    Y7        2.25907   0.00325   0.00000  -0.03344  -0.03345   2.22562
    Z7        2.53425   0.00049   0.00000  -0.01744  -0.01751   2.51675
    X8      -21.10712   0.00464   0.00000  -0.00977  -0.00999 -21.11712
    Y8        3.36357  -0.00305   0.00000  -0.05250  -0.05252   3.31106
    Z8        2.68552  -0.00051   0.00000  -0.03797  -0.03805   2.64747
    X9      -14.58241   0.00759   0.00000   0.01795   0.01773 -14.56468
    Y9        2.20817   0.00388   0.00000  -0.01183  -0.01182   2.19635
    Z9        2.49709   0.00042   0.00000   0.00125   0.00119   2.49828
   X10      -12.65221  -0.00423   0.00000   0.01207   0.01184 -12.64037
   Y10        3.24881  -0.00223   0.00000  -0.00861  -0.00860   3.24021
   Z10        2.61430  -0.00034   0.00000  -0.00147  -0.00153   2.61277
   X11      -10.98386   0.00703   0.00000  -0.00999  -0.01019 -10.99405
   Y11       -3.98539   0.00473   0.00000   0.02606   0.02607  -3.95932
   Z11        1.79200   0.00023   0.00000  -0.00317  -0.00318   1.78882
   X12       -9.08311  -0.00456   0.00000  -0.01974  -0.01994  -9.10305
   Y12       -2.88762  -0.00233   0.00000   0.03477   0.03479  -2.85283
   Z12        1.86431  -0.00003   0.00000  -0.00226  -0.00227   1.86204
   X13      -13.28677  -0.00088   0.00000  -0.02761  -0.02779 -13.31456
   Y13       -7.97223  -0.00818   0.00000   0.00513   0.00513  -7.96710
   Z13        1.39144  -0.00077   0.00000   0.01984   0.01985   1.41129
   X14      -13.27783  -0.00031   0.00000  -0.04575  -0.04592 -13.32375
   Y14      -10.15363   0.00544   0.00000   0.00699   0.00699 -10.14664
   Z14        1.13504   0.00069   0.00000   0.04064   0.04067   1.17571
   X15      -20.48549   0.00046   0.00000   0.01216   0.01197 -20.47352
   Y15       -7.98292  -0.00907   0.00000   0.00180   0.00177  -7.98115
   Z15        1.58532  -0.00075   0.00000  -0.03369  -0.03369   1.55162
   X16      -20.39709  -0.00060   0.00000  -0.00256  -0.00273 -20.39982
   Y16      -10.17256   0.00532   0.00000   0.00741   0.00738 -10.16518
   Z16        1.43715   0.00024   0.00000  -0.06267  -0.06265   1.37450
   X17      -22.82860  -0.00703   0.00000   0.01642   0.01622 -22.81238
   Y17       -3.97485   0.00439   0.00000   0.01296   0.01292  -3.96193
   Z17        1.87079   0.00033   0.00000   0.03193   0.03190   1.90269
   X18      -24.70501   0.00440   0.00000   0.02026   0.02005 -24.68495
   Y18       -2.83555  -0.00281   0.00000   0.00977   0.00973  -2.82582
   Z18        1.93856  -0.00006   0.00000   0.05792   0.05788   1.99644
         Item               Value     Threshold  Converged?
 Maximum Force            0.021765     0.000450     NO 
 RMS     Force            0.007018     0.000300     NO 
 Maximum Displacement     0.062650     0.001800     NO 
 RMS     Displacement     0.022010     0.001200     NO 
 Predicted change in Energy=-7.881925D-04
 GradGradGradGradGradGradGradGradGradGradGradGradGradGradGradGradGradGrad

 Unable to Open any file for archive entry.
 1\1\GINC-X10P1N4\Force\UwB97XD\def2SVP\C12N6(1-,2)\MAYUMIAO\11-Oct-202
 4\0\\# wb97xd def2svp scrf=(smd,solvent=acetonitrile) g09default scf=(
 xqc,maxcycle=64) force guess=read nosymm\\Title Card\\-1,2\C,-8.951126
 56,-0.91615026,1.10638047\C,-8.95018823,0.47151368,1.24705889\C,-8.253
 75998,-2.1147516,0.98488095\C,-7.04625977,-2.80834471,0.89811501\C,-9.
 6440079,-2.11539416,0.9967358\C,-10.85106709,-2.80992815,0.94157969\C,
 -10.16794472,1.19545076,1.34106997\N,-11.16940873,1.77992564,1.421117\
 C,-7.71667791,1.16851271,1.32140245\N,-6.69526198,1.71919358,1.3834273
 1\C,-5.81240903,-2.10897504,0.94828482\N,-4.80657239,-1.52806331,0.986
 55244\C,-7.03105441,-4.21872209,0.7363204\N,-7.02632485,-5.37307028,0.
 60063776\C,-10.84045572,-4.22437838,0.83891316\N,-10.79367385,-5.38308
 698,0.76050827\C,-12.08037486,-2.10340017,0.98997881\N,-13.07332598,-1
 .50050868,1.02584172\\Version=ES64L-G16RevC.01\HF=-784.8605477\S2=0.78
 7207\S2-1=0.\S2A=0.751137\RMSD=6.748e-09\RMSF=7.018e-03\Dipole=-0.0775
 738,-0.0044367,-0.001844\Quadrupole=-201.7468794,70.8133445,130.933535
 ,-53.8708978,33.2938703,0.9018145\PG=C01 [X(C12N6)]\\@
 The archive entry for this job was punched.


 EDUCATION IS NOT TRAINING BUT RATHER THE PROCESS THAT EQUIPS YOU TO
 ENTERTAIN YOURSELF, A FRIEND, OR AN IDEA.  -- WALLACE STERLING
 Job cpu time:       0 days  0 hours  9 minutes 24.8 seconds.
 Elapsed time:       0 days  0 hours  0 minutes 21.5 seconds.
 File lengths (MBytes):  RWF=    173 Int=      0 D2E=      0 Chk=      9 Scr=      1
 Normal termination of Gaussian 16 at Fri Oct 11 16:12:55 2024.
