 Entering Gaussian System, Link 0=g16
 Input=JOBS/54_A.gjf
 Output=JOBS/54_A.log
 Initial command:
 /data/app/gaussian/C01-avx2//g16/l1.exe "/tmp/Gau-2564786.inp" -scrdir="/tmp/"
 Entering Link 1 = /data/app/gaussian/C01-avx2//g16/l1.exe PID=   2564787.
  
 Copyright (c) 1988-2019, Gaussian, Inc.  All Rights Reserved.
  
 This is part of the Gaussian(R) 16 program.  It is based on
 the Gaussian(R) 09 system (copyright 2009, Gaussian, Inc.),
 the Gaussian(R) 03 system (copyright 2003, Gaussian, Inc.),
 the Gaussian(R) 98 system (copyright 1998, Gaussian, Inc.),
 the Gaussian(R) 94 system (copyright 1995, Gaussian, Inc.),
 the Gaussian 92(TM) system (copyright 1992, Gaussian, Inc.),
 the Gaussian 90(TM) system (copyright 1990, Gaussian, Inc.),
 the Gaussian 88(TM) system (copyright 1988, Gaussian, Inc.),
 the Gaussian 86(TM) system (copyright 1986, Carnegie Mellon
 University), and the Gaussian 82(TM) system (copyright 1983,
 Carnegie Mellon University). Gaussian is a federally registered
 trademark of Gaussian, Inc.
  
 This software contains proprietary and confidential information,
 including trade secrets, belonging to Gaussian, Inc.
  
 This software is provided under written license and may be
 used, copied, transmitted, or stored only in accord with that
 written license.
  
 The following legend is applicable only to US Government
 contracts under FAR:
  
                    RESTRICTED RIGHTS LEGEND
  
 Use, reproduction and disclosure by the US Government is
 subject to restrictions as set forth in subparagraphs (a)
 and (c) of the Commercial Computer Software - Restricted
 Rights clause in FAR 52.227-19.
  
 Gaussian, Inc.
 340 Quinnipiac St., Bldg. 40, Wallingford CT 06492
  
  
 ---------------------------------------------------------------
 Warning -- This program may not be used in any manner that
 competes with the business of Gaussian, Inc. or will provide
 assistance to any competitor of Gaussian, Inc.  The licensee
 of this program is prohibited from giving any competitor of
 Gaussian, Inc. access to this program.  By using this program,
 the user acknowledges that Gaussian, Inc. is engaged in the
 business of creating and licensing software in the field of
 computational chemistry and represents and warrants to the
 licensee that it is not a competitor of Gaussian, Inc. and that
 it will not use this program in any manner prohibited above.
 ---------------------------------------------------------------
  

 Cite this work as:
 Gaussian 16, Revision C.01,
 M. J. Frisch, G. W. Trucks, H. B. Schlegel, G. E. Scuseria, 
 M. A. Robb, J. R. Cheeseman, G. Scalmani, V. Barone, 
 G. A. Petersson, H. Nakatsuji, X. Li, M. Caricato, A. V. Marenich, 
 J. Bloino, B. G. Janesko, R. Gomperts, B. Mennucci, H. P. Hratchian, 
 J. V. Ortiz, A. F. Izmaylov, J. L. Sonnenberg, D. Williams-Young, 
 F. Ding, F. Lipparini, F. Egidi, J. Goings, B. Peng, A. Petrone, 
 T. Henderson, D. Ranasinghe, V. G. Zakrzewski, J. Gao, N. Rega, 
 G. Zheng, W. Liang, M. Hada, M. Ehara, K. Toyota, R. Fukuda, 
 J. Hasegawa, M. Ishida, T. Nakajima, Y. Honda, O. Kitao, H. Nakai, 
 T. Vreven, K. Throssell, J. A. Montgomery, Jr., J. E. Peralta, 
 F. Ogliaro, M. J. Bearpark, J. J. Heyd, E. N. Brothers, K. N. Kudin, 
 V. N. Staroverov, T. A. Keith, R. Kobayashi, J. Normand, 
 K. Raghavachari, A. P. Rendell, J. C. Burant, S. S. Iyengar, 
 J. Tomasi, M. Cossi, J. M. Millam, M. Klene, C. Adamo, R. Cammi, 
 J. W. Ochterski, R. L. Martin, K. Morokuma, O. Farkas, 
 J. B. Foresman, and D. J. Fox, Gaussian, Inc., Wallingford CT, 2019.
 
 ******************************************
 Gaussian 16:  ES64L-G16RevC.01  3-Jul-2019
                11-Oct-2024 
 ******************************************
 %chk=a.chk
 %nprocshared=28
 Will use up to   28 processors via shared memory.
 %mem=48gb
 ----------------------------------------------------------------------
 # wb97xd def2svp scrf=(smd,solvent=acetonitrile) g09default scf=(xqc,m
 axcycle=64) force guess=read nosymm
 ----------------------------------------------------------------------
 1/10=7,30=1,38=1,158=3,167=1/1,3;
 2/12=2,15=1,17=6,18=5,40=1/2;
 3/5=43,7=101,11=2,25=1,27=10,30=1,70=32201,71=1,72=2,74=-58,75=-4,116=-2,158=3/1,2,3;
 4/5=1,60=-1/1;
 5/5=2,7=64,8=3,13=1,38=6,53=2,87=10/2,8;
 6/7=2,8=2,9=2,10=2,28=1,87=10/1;
 7/29=1,30=1,87=10/1,2,3,16;
 1/10=7,30=1,158=3,167=1/3;
 99//99;
 Using 2006 physical constants.
 ----------
 Title Card
 ----------
 Symbolic Z-matrix:
 Charge = -2 Multiplicity = 1
 6                    -8.95187  -0.91553   1.10709 
 6                    -8.94829   0.47108   1.2493 
 6                    -8.25421  -2.1142    0.98389 
 6                    -7.04754  -2.80679   0.89663 
 6                    -9.64497  -2.11558   0.99666 
 6                    -10.8507  -2.81098   0.94187 
 6                    -10.16563   1.19613   1.34288 
 7                    -11.16805   1.77891   1.42103 
 6                    -7.71408   1.16772   1.32232 
 7                    -6.69385   1.72047   1.38383 
 6                    -5.81352  -2.10714   0.94731 
 7                    -4.80706  -1.52747   0.98598 
 6                    -7.03266  -4.21762   0.73483 
 7                    -7.02854  -5.37173   0.59912 
 6                    -10.84117  -4.22633   0.83999 
 7                    -10.79391  -5.38492   0.76261 
 6                    -12.08029  -2.10431   0.98935 
 7                    -13.07354  -1.50188   1.02412 
 

 GradGradGradGradGradGradGradGradGradGradGradGradGradGradGradGradGradGrad
 Berny optimization.
 Initialization pass.
 Trust Radius=3.00D-01 FncErr=1.00D-07 GrdErr=1.00D-07 EigMax=2.50D+02 EigMin=1.00D-04
 Number of steps in this run=      2 maximum allowed number of steps=      2.
 GradGradGradGradGradGradGradGradGradGradGradGradGradGradGradGradGradGrad

                          Input orientation:                          
 ---------------------------------------------------------------------
 Center     Atomic      Atomic             Coordinates (Angstroms)
 Number     Number       Type             X           Y           Z
 ---------------------------------------------------------------------
      1          6           0       -8.951872   -0.915533    1.107092
      2          6           0       -8.948292    0.471083    1.249304
      3          6           0       -8.254209   -2.114198    0.983893
      4          6           0       -7.047541   -2.806788    0.896631
      5          6           0       -9.644971   -2.115584    0.996661
      6          6           0      -10.850699   -2.810983    0.941868
      7          6           0      -10.165625    1.196130    1.342876
      8          7           0      -11.168053    1.778912    1.421029
      9          6           0       -7.714084    1.167721    1.322320
     10          7           0       -6.693852    1.720465    1.383830
     11          6           0       -5.813519   -2.107136    0.947311
     12          7           0       -4.807060   -1.527474    0.985983
     13          6           0       -7.032663   -4.217621    0.734826
     14          7           0       -7.028542   -5.371732    0.599118
     15          6           0      -10.841167   -4.226333    0.839986
     16          7           0      -10.793914   -5.384918    0.762612
     17          6           0      -12.080295   -2.104311    0.989348
     18          7           0      -13.073535   -1.501880    1.024116
 ---------------------------------------------------------------------
                    Distance matrix (angstroms):
                    1          2          3          4          5
     1  C    0.000000
     2  C    1.393894   0.000000
     3  C    1.392375   2.689957   0.000000
     4  C    2.692139   3.805479   1.394039   0.000000
     5  C    1.390217   2.690732   1.390821   2.689686   0.000000
     6  C    2.688043   3.805999   2.688686   3.803430   1.392969
     7  C    2.447021   1.419982   3.839355   5.093617   3.370222
     8  N    3.502863   2.582101   4.882404   6.187265   4.203209
     9  C    2.432774   1.419121   3.343240   4.052432   3.822887
    10  N    3.481914   2.580998   4.159243   4.567108   4.855335
    11  C    3.360760   4.070039   2.440975   1.419468   3.831779
    12  N    4.191492   4.605798   3.496725   2.581546   4.873538
    13  C    3.837411   5.090998   2.445117   1.420159   3.363223
    14  N    4.880055   6.184389   3.501691   2.582211   4.195979
    15  C    3.821279   5.080967   3.342779   4.050915   2.431191
    16  N    4.846358   6.159215   4.146887   4.549729   3.473239
    17  C    3.348744   4.063210   3.826102   5.082390   2.435361
    18  N    4.163988   4.578310   4.858235   6.166980   3.483165
                    6          7          8          9         10
     6  C    0.000000
     7  C    4.084983   0.000000
     8  N    4.625737   1.162155   0.000000
     9  C    5.080667   2.451791   3.509017   0.000000
    10  N    6.165122   3.511383   4.474738   1.161974   0.000000
    11  C    5.086120   5.478035   6.633009   3.804927   3.951717
    12  N    6.178585   6.021595   7.182178   3.978440   3.777218
    13  C    4.074174   6.284415   7.316469   5.459980   5.983048
    14  N    4.613437   7.316507   8.303180   6.614940   7.143322
    15  C    1.419044   5.487472   6.042137   6.253567   7.270515
    16  N    2.580794   6.636387   7.203745   7.261935   8.226961
    17  C    1.418994   3.831952   4.012225   5.466339   6.618028
    18  N    2.580991   3.979549   3.814708   5.994949   7.156344
                   11         12         13         14         15
    11  C    0.000000
    12  N    1.162095   0.000000
    13  C    2.446550   3.500468   0.000000
    14  N    3.500729   4.456789   1.162070   0.000000
    15  C    5.457083   6.611777   3.809965   3.988241   0.000000
    16  N    5.965090   7.125461   3.938320   3.768943   1.162127
    17  C    6.266918   7.296074   5.478088   6.028974   2.461854
    18  N    7.285607   8.266603   6.629561   7.190154   3.527041
                   16         17         18
    16  N    0.000000
    17  C    3.531085   0.000000
    18  N    4.510325   1.162178   0.000000
 Symmetry turned off by external request.
 Stoichiometry    C12N6(2-)
 Framework group  C1[X(C12N6)]
 Deg. of freedom    48
 Full point group                 C1      NOp   1
 Rotational constants (GHZ):           0.4318617           0.4268333           0.2147136
 Standard basis: def2SVP (5D, 7F)
   252 basis functions,   450 primitive gaussians,   270 cartesian basis functions
    58 alpha electrons       58 beta electrons
       nuclear repulsion energy       965.5511268395 Hartrees.
 NAtoms=   18 NActive=   18 NUniq=   18 SFac= 1.00D+00 NAtFMM=   60 NAOKFM=F Big=F
 Integral buffers will be    131072 words long.
 Raffenetti 2 integral format.
 Two-electron integral symmetry is turned off.
 Nuclear repulsion after empirical dispersion term =      965.5394482864 Hartrees.
 Force PCM accuracy= 1.00D-10.
 ------------------------------------------------------------------------------
 Polarizable Continuum Model (PCM)
 =================================
 Model                : PCM (using non-symmetric T matrix).
 Atomic radii         : SMD-Coulomb.
 Polarization charges : Total charges.
 Charge compensation  : None.
 Solution method      : On-the-fly selection.
 Cavity type          : VdW (van der Waals Surface) (Alpha=1.000).
 Cavity algorithm     : GePol (No added spheres)
                        Default sphere list used, NSphG=   18.
                        Lebedev-Laikov grids with approx.  5.0 points / Ang**2.
                        Smoothing algorithm: York/Karplus (Gamma=1.0000).
                        Polarization charges: spherical gaussians, with
                                              point-specific exponents (IZeta= 3).
                        Self-potential: point-specific (ISelfS= 7).
                        Self-field    : sphere-specific E.n sum rule (ISelfD= 2).
 1st derivatives      : Analytical E(r).r(x)/FMM algorithm (CHGder, D1EAlg=3).
                        Cavity 1st derivative terms included.
 Solvent              : Acetonitrile, Eps=  35.688000 Eps(inf)=   1.806874
 ------------------------------------------------------------------------------
 Spheres list:
 ISph  on   Nord     Re0    Alpha      Xe            Ye            Ze
    1   C      1    1.8500  1.000     -8.951872     -0.915533      1.107092
    2   C      2    1.8500  1.000     -8.948292      0.471083      1.249304
    3   C      3    1.8500  1.000     -8.254209     -2.114198      0.983893
    4   C      4    1.8500  1.000     -7.047541     -2.806788      0.896631
    5   C      5    1.8500  1.000     -9.644971     -2.115584      0.996661
    6   C      6    1.8500  1.000    -10.850699     -2.810983      0.941868
    7   C      7    1.8500  1.000    -10.165625      1.196130      1.342876
    8   N      8    1.8900  1.000    -11.168053      1.778912      1.421029
    9   C      9    1.8500  1.000     -7.714084      1.167721      1.322320
   10   N     10    1.8900  1.000     -6.693852      1.720465      1.383830
   11   C     11    1.8500  1.000     -5.813519     -2.107136      0.947311
   12   N     12    1.8900  1.000     -4.807060     -1.527474      0.985983
   13   C     13    1.8500  1.000     -7.032663     -4.217621      0.734826
   14   N     14    1.8900  1.000     -7.028542     -5.371732      0.599118
   15   C     15    1.8500  1.000    -10.841167     -4.226333      0.839986
   16   N     16    1.8900  1.000    -10.793914     -5.384918      0.762612
   17   C     17    1.8500  1.000    -12.080295     -2.104311      0.989348
   18   N     18    1.8900  1.000    -13.073535     -1.501880      1.024116
 ------------------------------------------------------------------------------
 ------------------------------------------------------------------------------
 Atomic radii for non-electrostatic terms: SMD-CDS.
 ------------------------------------------------------------------------------
 Nuclear repulsion after PCM non-electrostatic terms =      965.5481534734 Hartrees.
 One-electron integrals computed using PRISM.
   1 Symmetry operations used in ECPInt.
 ECPInt:  NShTT=    5886 NPrTT=   23670 LenC2=    5404 LenP2D=   14964.
 LDataN:  DoStor=T MaxTD1= 4 Len=   56
 NBasis=   252 RedAO= T EigKep=  1.95D-04  NBF=   252
 NBsUse=   252 1.00D-06 EigRej= -1.00D+00 NBFU=   252
 Initial guess from the checkpoint file:  "a.chk"
 B after Tr=    -0.000069   -0.000003   -0.000577
         Rot=    1.000000   -0.000020   -0.000021    0.000002 Ang=  -0.00 deg.
 Requested convergence on RMS density matrix=1.00D-08 within  64 cycles.
 Requested convergence on MAX density matrix=1.00D-06.
 Requested convergence on             energy=1.00D-06.
 No special actions if energy rises.
 Inv3:  Mode=1 IEnd=    19263468.
 Iteration    1 A*A^-1 deviation from unit magnitude is 3.11D-15 for    562.
 Iteration    1 A*A^-1 deviation from orthogonality  is 2.77D-15 for   1469    953.
 Iteration    1 A^-1*A deviation from unit magnitude is 2.89D-15 for    580.
 Iteration    1 A^-1*A deviation from orthogonality  is 6.67D-13 for    984    977.
 Error on total polarization charges =  0.02151
 SCF Done:  E(RwB97XD) =  -785.032584839     A.U. after    9 cycles
            NFock=  9  Conv=0.58D-08     -V/T= 2.0097
 SMD-CDS (non-electrostatic) energy       (kcal/mol) =       5.46
 (included in total energy above)
 QCSCF skips out because SCF is already converged.

 **********************************************************************

            Population analysis using the SCF Density.

 **********************************************************************

 Alpha  occ. eigenvalues --  -14.42778 -14.42768 -14.42763 -14.42755 -14.42747
 Alpha  occ. eigenvalues --  -14.42738 -10.34984 -10.34920 -10.34891 -10.33718
 Alpha  occ. eigenvalues --  -10.33704 -10.33698 -10.33689 -10.33680 -10.33669
 Alpha  occ. eigenvalues --  -10.32732 -10.32721 -10.32694  -1.03043  -0.99105
 Alpha  occ. eigenvalues --   -0.99100  -0.98722  -0.98035  -0.98028  -0.97951
 Alpha  occ. eigenvalues --   -0.88202  -0.88173  -0.86084  -0.68784  -0.68728
 Alpha  occ. eigenvalues --   -0.65199  -0.65026  -0.64895  -0.64134  -0.52448
 Alpha  occ. eigenvalues --   -0.47691  -0.47683  -0.46782  -0.46721  -0.45187
 Alpha  occ. eigenvalues --   -0.45073  -0.45068  -0.44536  -0.44214  -0.44164
 Alpha  occ. eigenvalues --   -0.43844  -0.42830  -0.42242  -0.42229  -0.42052
 Alpha  occ. eigenvalues --   -0.41951  -0.41928  -0.40541  -0.40193  -0.40163
 Alpha  occ. eigenvalues --   -0.31482  -0.31473  -0.23621
 Alpha virt. eigenvalues --    0.07468   0.07540   0.08866   0.09305   0.09379
 Alpha virt. eigenvalues --    0.12695   0.12734   0.13109   0.13154   0.14843
 Alpha virt. eigenvalues --    0.14982   0.16305   0.21084   0.21149   0.24193
 Alpha virt. eigenvalues --    0.27522   0.28106   0.28133   0.28630   0.28665
 Alpha virt. eigenvalues --    0.29992   0.33658   0.33721   0.33927   0.36858
 Alpha virt. eigenvalues --    0.36960   0.37210   0.48970   0.49126   0.50540
 Alpha virt. eigenvalues --    0.50721   0.54912   0.54936   0.54990   0.55050
 Alpha virt. eigenvalues --    0.57453   0.57511   0.58261   0.59970   0.61123
 Alpha virt. eigenvalues --    0.61716   0.61738   0.62868   0.62958   0.64893
 Alpha virt. eigenvalues --    0.65525   0.70942   0.71739   0.71841   0.73688
 Alpha virt. eigenvalues --    0.73722   0.74436   0.74629   0.74775   0.75078
 Alpha virt. eigenvalues --    0.75164   0.75245   0.76618   0.76917   0.77782
 Alpha virt. eigenvalues --    0.81995   0.82079   0.82231   0.83441   0.83667
 Alpha virt. eigenvalues --    0.88860   0.88895   0.89378   0.89566   0.94732
 Alpha virt. eigenvalues --    0.94797   0.95113   0.95202   0.95987   0.96141
 Alpha virt. eigenvalues --    0.98101   1.00598   1.00649   1.01321   1.01582
 Alpha virt. eigenvalues --    1.02421   1.02550   1.05267   1.05490   1.05766
 Alpha virt. eigenvalues --    1.08506   1.08981   1.10215   1.10331   1.12749
 Alpha virt. eigenvalues --    1.12917   1.17515   1.18941   1.20338   1.20531
 Alpha virt. eigenvalues --    1.21158   1.25043   1.25282   1.27269   1.35235
 Alpha virt. eigenvalues --    1.38781   1.38931   1.41785   1.41906   1.45050
 Alpha virt. eigenvalues --    1.47168   1.47300   1.47794   1.48025   1.58955
 Alpha virt. eigenvalues --    1.62394   1.68388   1.70723   1.70798   1.70972
 Alpha virt. eigenvalues --    1.71151   1.71252   1.79084   1.79472   1.79629
 Alpha virt. eigenvalues --    1.79669   1.80335   1.81492   1.81538   1.82867
 Alpha virt. eigenvalues --    1.84607   1.85129   1.87650   1.95483   1.95627
 Alpha virt. eigenvalues --    1.95741   2.00382   2.03120   2.03297   2.06427
 Alpha virt. eigenvalues --    2.06565   2.09984   2.10399   2.16116   2.16285
 Alpha virt. eigenvalues --    2.21011   2.23586   2.23701   2.23820   2.29506
 Alpha virt. eigenvalues --    2.30473   2.30616   2.32106   2.35914   2.35921
 Alpha virt. eigenvalues --    2.36506   2.36546   2.36781   2.36889   2.37494
 Alpha virt. eigenvalues --    2.38486   2.38568   2.38734   2.38859   2.39153
 Alpha virt. eigenvalues --    2.40521   2.40673   2.59972   2.65121   2.65472
 Alpha virt. eigenvalues --    2.74267   2.74432   2.95378   2.97512   2.97766
 Alpha virt. eigenvalues --    2.98089   3.01273   3.01289   3.01974   3.05339
 Alpha virt. eigenvalues --    3.07970   3.08070   3.11381   3.11860   3.14783
 Alpha virt. eigenvalues --    3.14875   3.15381   3.25963   3.26307   3.31526
 Alpha virt. eigenvalues --    3.43956   3.43989   3.45250   3.56534   3.59857
 Alpha virt. eigenvalues --    3.59889   3.64663   3.64740   3.78620
          Condensed to atoms (all electrons):
               1          2          3          4          5          6
     1  C    4.963351   0.493284   0.314365  -0.117016   0.317417  -0.116715
     2  C    0.493284   5.550341  -0.115790  -0.007647  -0.117604  -0.007212
     3  C    0.314365  -0.115790   4.961191   0.493055   0.316169  -0.116319
     4  C   -0.117016  -0.007647   0.493055   5.553485  -0.117669  -0.007481
     5  C    0.317417  -0.117604   0.316169  -0.117669   4.965301   0.494507
     6  C   -0.116715  -0.007212  -0.116319  -0.007481   0.494507   5.547781
     7  C    0.010814   0.384836   0.006272  -0.000539  -0.025212   0.002905
     8  N   -0.001034  -0.044129  -0.000065  -0.000001  -0.000594   0.000144
     9  C    0.015208   0.387784  -0.025379   0.003022   0.006762  -0.000514
    10  N   -0.001015  -0.043517  -0.000612   0.000161  -0.000058  -0.000001
    11  C   -0.024466   0.003058   0.013172   0.387578   0.006242  -0.000526
    12  N   -0.000569   0.000150  -0.001082  -0.043816  -0.000070  -0.000001
    13  C    0.005977  -0.000552   0.011914   0.386619  -0.024793   0.002932
    14  N   -0.000072  -0.000002  -0.001092  -0.043985  -0.000586   0.000147
    15  C    0.007334  -0.000505  -0.026430   0.003059   0.013883   0.385097
    16  N   -0.000041  -0.000001  -0.000678   0.000180  -0.000924  -0.043881
    17  C   -0.026540   0.002911   0.006901  -0.000537   0.013347   0.383843
    18  N   -0.000658   0.000160  -0.000050  -0.000001  -0.000913  -0.044152
               7          8          9         10         11         12
     1  C    0.010814  -0.001034   0.015208  -0.001015  -0.024466  -0.000569
     2  C    0.384836  -0.044129   0.387784  -0.043517   0.003058   0.000150
     3  C    0.006272  -0.000065  -0.025379  -0.000612   0.013172  -0.001082
     4  C   -0.000539  -0.000001   0.003022   0.000161   0.387578  -0.043816
     5  C   -0.025212  -0.000594   0.006762  -0.000058   0.006242  -0.000070
     6  C    0.002905   0.000144  -0.000514  -0.000001  -0.000526  -0.000001
     7  C    4.880191   0.926162  -0.054705   0.002677   0.000137   0.000002
     8  N    0.926162   6.152282   0.002518   0.000091   0.000000   0.000000
     9  C   -0.054705   0.002518   4.875606   0.925549  -0.000508   0.000047
    10  N    0.002677   0.000091   0.925549   6.155260   0.000225  -0.000883
    11  C    0.000137   0.000000  -0.000508   0.000225   4.876412   0.926304
    12  N    0.000002   0.000000   0.000047  -0.000883   0.926304   6.153394
    13  C   -0.000017  -0.000000   0.000142   0.000003  -0.054597   0.002598
    14  N   -0.000000  -0.000000   0.000000   0.000000   0.002539   0.000093
    15  C    0.000133   0.000002  -0.000017  -0.000000   0.000141   0.000000
    16  N    0.000000   0.000000  -0.000000  -0.000000   0.000003   0.000000
    17  C   -0.000535   0.000017   0.000138   0.000000  -0.000017  -0.000000
    18  N    0.000216  -0.000828   0.000003   0.000000  -0.000000  -0.000000
              13         14         15         16         17         18
     1  C    0.005977  -0.000072   0.007334  -0.000041  -0.026540  -0.000658
     2  C   -0.000552  -0.000002  -0.000505  -0.000001   0.002911   0.000160
     3  C    0.011914  -0.001092  -0.026430  -0.000678   0.006901  -0.000050
     4  C    0.386619  -0.043985   0.003059   0.000180  -0.000537  -0.000001
     5  C   -0.024793  -0.000586   0.013883  -0.000924   0.013347  -0.000913
     6  C    0.002932   0.000147   0.385097  -0.043881   0.383843  -0.044152
     7  C   -0.000017  -0.000000   0.000133   0.000000  -0.000535   0.000216
     8  N   -0.000000  -0.000000   0.000002   0.000000   0.000017  -0.000828
     9  C    0.000142   0.000000  -0.000017  -0.000000   0.000138   0.000003
    10  N    0.000003   0.000000  -0.000000  -0.000000   0.000000   0.000000
    11  C   -0.054597   0.002539   0.000141   0.000003  -0.000017  -0.000000
    12  N    0.002598   0.000093   0.000000   0.000000  -0.000000  -0.000000
    13  C    4.878272   0.926597  -0.000549   0.000321   0.000136   0.000000
    14  N    0.926597   6.152053  -0.000018  -0.000888   0.000002   0.000000
    15  C   -0.000549  -0.000018   4.878861   0.924699  -0.054361   0.002607
    16  N    0.000321  -0.000888   0.924699   6.156499   0.002694   0.000085
    17  C    0.000136   0.000002  -0.054361   0.002694   4.880376   0.924724
    18  N    0.000000   0.000000   0.002607   0.000085   0.924724   6.155650
 Mulliken charges:
               1
     1  C    0.160376
     2  C   -0.485565
     3  C    0.164457
     4  C   -0.488467
     5  C    0.154794
     6  C   -0.480552
     7  C   -0.133338
     8  N   -0.034564
     9  C   -0.135658
    10  N   -0.037880
    11  C   -0.135697
    12  N   -0.036168
    13  C   -0.135003
    14  N   -0.034790
    15  C   -0.133935
    16  N   -0.038068
    17  C   -0.133100
    18  N   -0.036841
 Sum of Mulliken charges =  -2.00000
 Mulliken charges with hydrogens summed into heavy atoms:
               1
     1  C    0.160376
     2  C   -0.485565
     3  C    0.164457
     4  C   -0.488467
     5  C    0.154794
     6  C   -0.480552
     7  C   -0.133338
     8  N   -0.034564
     9  C   -0.135658
    10  N   -0.037880
    11  C   -0.135697
    12  N   -0.036168
    13  C   -0.135003
    14  N   -0.034790
    15  C   -0.133935
    16  N   -0.038068
    17  C   -0.133100
    18  N   -0.036841
 Electronic spatial extent (au):  <R**2>=          39330.0091
 Charge=             -2.0000 electrons
 Dipole moment (field-independent basis, Debye):
    X=             85.6805    Y=             16.4610    Z=             -9.8917  Tot=             87.8064
 Quadrupole moment (field-independent basis, Debye-Ang):
   XX=           -964.1231   YY=           -227.5175   ZZ=           -113.5392
   XY=           -145.9831   XZ=             89.2327   YZ=              7.2644
 Traceless Quadrupole moment (field-independent basis, Debye-Ang):
   XX=           -529.0632   YY=            207.5425   ZZ=            321.5207
   XY=           -145.9831   XZ=             89.2327   YZ=              7.2644
 Octapole moment (field-independent basis, Debye-Ang**2):
  XXX=          12174.9187  YYY=           1140.5000  ZZZ=           -329.6405  XYY=           2030.4881
  XXY=           1569.2861  XXZ=          -1015.0427  XZZ=           1016.5061  YZZ=            175.0362
  YYZ=           -196.7720  XYZ=            -66.9827
 Hexadecapole moment (field-independent basis, Debye-Ang**3):
 XXXX=        -161235.6689 YYYY=          -8692.9132 ZZZZ=           -804.5973 XXXY=         -18826.2037
 XXXZ=          12918.2153 YYYX=         -10164.8360 YYYZ=            766.7565 ZZZX=           2966.6441
 ZZZY=            377.8442 XXYY=         -20024.8250 XXZZ=          -9885.4688 YYZZ=          -1039.0556
 XXYZ=            806.9780 YYXZ=           1782.5250 ZZXY=          -1564.9025
 N-N= 9.655481534734D+02 E-N=-3.784879826234D+03  KE= 7.774790948198D+02
   1 Symmetry operations used in ECPInt.
 ECPInt:  NShTT=    5886 NPrTT=   23670 LenC2=    5404 LenP2D=   14964.
 LDataN:  DoStor=T MaxTD1= 5 Len=  102
 D1PCM: PCM CHGder 1st derivatives, ID1Alg=3 FixD1E=F DoIter=F DoCFld=F I1PDM=0.
 Calling FoFJK, ICntrl=      2127 FMM=F ISym2X=0 I1Cent= 0 IOpClX= 0 NMat=1 NMatS=1 NMatT=0.
 -------------------------------------------------------------------
 Center     Atomic                   Forces (Hartrees/Bohr)
 Number     Number              X              Y              Z
 -------------------------------------------------------------------
      1        6           0.000134682   -0.020923029   -0.001831453
      2        6           0.000377614    0.013925692    0.001511038
      3        6          -0.018110144    0.010442475    0.000897379
      4        6           0.012155182   -0.006762858   -0.000839342
      5        6           0.018293865    0.010737668    0.000916393
      6        6          -0.012175513   -0.007065513   -0.000575702
      7        6           0.007281164   -0.004374309   -0.000419419
      8        7          -0.004480374    0.002122011    0.000243305
      9        6          -0.007180925   -0.003099632   -0.000307244
     10        7           0.004985833    0.002458826    0.000212781
     11        6          -0.006513416   -0.004314917   -0.000458407
     12        7           0.004244640    0.003053218    0.000290538
     13        6          -0.000035494    0.008423820    0.000936171
     14        7          -0.000469246   -0.005214689   -0.000540455
     15        6          -0.000494359    0.007754590    0.000555743
     16        7          -0.000128493   -0.005208480   -0.000476018
     17        6           0.006366013   -0.004621335   -0.000380845
     18        7          -0.004251031    0.002666461    0.000265537
 -------------------------------------------------------------------
 Cartesian Forces:  Max     0.020923029 RMS     0.006765311

 GradGradGradGradGradGradGradGradGradGradGradGradGradGradGradGradGradGrad
 Berny optimization.
 Search for a local minimum.
 Step number   1 out of a maximum of    2
 All quantities printed in internal units (Hartrees-Bohrs-Radians)
 Second derivative matrix not updated -- first step.
 ITU=  0
     Eigenvalues ---    0.00128   0.00146   0.00198   0.00300   0.00301
     Eigenvalues ---    0.00817   0.01537   0.01722   0.01989   0.02016
     Eigenvalues ---    0.03001   0.04114   0.05335   0.05362   0.10301
     Eigenvalues ---    0.15158   0.21338   0.21509   0.24393   0.24699
     Eigenvalues ---    0.25068   0.25739   0.25965   0.30082   0.30280
     Eigenvalues ---    0.36055   0.41812   0.48346   0.79209   0.79729
     Eigenvalues ---    0.81795   0.99418   1.00787   1.04612   1.04958
     Eigenvalues ---    1.12150   1.59967   1.60398   2.06136   2.78765
     Eigenvalues ---    2.78947   2.79144   2.84142   2.84253   2.84340
     Eigenvalues ---   31.34488  67.67456 125.41192
 Angle between quadratic step and forces=  75.18 degrees.
 Linear search not attempted -- first point.
 B after Tr=    -0.000267    0.000056   -0.000164
         Rot=    1.000000    0.000003   -0.000004   -0.000003 Ang=   0.00 deg.
 Variable       Old X    -DE/DX   Delta X   Delta X   Delta X     New X
                                 (Linear)    (Quad)   (Total)
    X1      -16.91659   0.00013   0.00000   0.01160   0.01136 -16.90523
    Y1       -1.73011  -0.02092   0.00000  -0.00669  -0.00671  -1.73682
    Z1        2.09210  -0.00183   0.00000   0.00127   0.00125   2.09335
    X2      -16.90982   0.00038   0.00000   0.01086   0.01060 -16.89922
    Y2        0.89022   0.01393   0.00000   0.01689   0.01687   0.90709
    Z2        2.36084   0.00151   0.00000   0.00470   0.00467   2.36551
    X3      -15.59820  -0.01811   0.00000   0.00292   0.00269 -15.59551
    Y3       -3.99525   0.01044   0.00000   0.00404   0.00403  -3.99123
    Z3        1.85929   0.00090   0.00000   0.00035   0.00033   1.85962
    X4      -13.31792   0.01216   0.00000   0.02237   0.02214 -13.29578
    Y4       -5.30406  -0.00676   0.00000  -0.00753  -0.00753  -5.31159
    Z4        1.69439  -0.00084   0.00000  -0.00043  -0.00046   1.69393
    X5      -18.22635   0.01829   0.00000   0.01428   0.01405 -18.21231
    Y5       -3.99787   0.01074   0.00000   0.00422   0.00419  -3.99368
    Z5        1.88342   0.00092   0.00000   0.00027   0.00027   1.88369
    X6      -20.50485  -0.01218   0.00000  -0.00995  -0.01017 -20.51502
    Y6       -5.31199  -0.00707   0.00000  -0.00703  -0.00707  -5.31906
    Z6        1.77987  -0.00058   0.00000  -0.00304  -0.00301   1.77686
    X7      -19.21025   0.00728   0.00000   0.00766   0.00740 -19.20284
    Y7        2.26036  -0.00437   0.00000  -0.00471  -0.00473   2.25562
    Z7        2.53767  -0.00042   0.00000   0.00310   0.00308   2.54075
    X8      -21.10456  -0.00448   0.00000  -0.00810  -0.00836 -21.11292
    Y8        3.36166   0.00212   0.00000  -0.02371  -0.02375   3.33791
    Z8        2.68536   0.00024   0.00000   0.00084   0.00083   2.68619
    X9      -14.57751  -0.00718   0.00000  -0.00132  -0.00157 -14.57908
    Y9        2.20667  -0.00310   0.00000   0.02857   0.02857   2.23524
    Z9        2.49882  -0.00031   0.00000  -0.00270  -0.00276   2.49607
   X10      -12.64955   0.00499   0.00000  -0.00167  -0.00193 -12.65148
   Y10        3.25121   0.00246   0.00000   0.03904   0.03905   3.29026
   Z10        2.61506   0.00021   0.00000  -0.00798  -0.00806   2.60700
   X11      -10.98596  -0.00651   0.00000   0.01700   0.01677 -10.96919
   Y11       -3.98191  -0.00431   0.00000  -0.01010  -0.01009  -3.99200
   Z11        1.79016  -0.00046   0.00000  -0.00552  -0.00557   1.78459
   X12       -9.08403   0.00424   0.00000   0.01544   0.01520  -9.06883
   Y12       -2.88651   0.00305   0.00000   0.00101   0.00103  -2.88548
   Z12        1.86324   0.00029   0.00000  -0.00760  -0.00768   1.85556
   X13      -13.28981  -0.00004   0.00000   0.00975   0.00953 -13.28027
   Y13       -7.97015   0.00842   0.00000  -0.00179  -0.00179  -7.97194
   Z13        1.38862   0.00094   0.00000   0.01531   0.01530   1.40392
   X14      -13.28202  -0.00047   0.00000  -0.00978  -0.00999 -13.29200
   Y14      -10.15110  -0.00521   0.00000  -0.00767  -0.00768 -10.15878
   Z14        1.13217  -0.00054   0.00000   0.02927   0.02927   1.16144
   X15      -20.48684  -0.00049   0.00000  -0.02369  -0.02391 -20.51075
   Y15       -7.98661   0.00775   0.00000   0.00005   0.00001  -7.98660
   Z15        1.58734   0.00056   0.00000  -0.01935  -0.01931   1.56804
   X16      -20.39754  -0.00013   0.00000  -0.04143  -0.04164 -20.43918
   Y16      -10.17602  -0.00521   0.00000  -0.00380  -0.00384 -10.17986
   Z16        1.44113  -0.00048   0.00000  -0.03455  -0.03449   1.40664
   X17      -22.82845   0.00637   0.00000  -0.00438  -0.00461 -22.83306
   Y17       -3.97657  -0.00462   0.00000  -0.01135  -0.01140  -3.98797
   Z17        1.86960  -0.00038   0.00000   0.00830   0.00834   1.87794
   X18      -24.70540  -0.00425   0.00000  -0.00732  -0.00755 -24.71296
   Y18       -2.83814   0.00267   0.00000  -0.00908  -0.00914  -2.84728
   Z18        1.93530   0.00027   0.00000   0.01794   0.01799   1.95329
         Item               Value     Threshold  Converged?
 Maximum Force            0.020923     0.000450     NO 
 RMS     Force            0.006765     0.000300     NO 
 Maximum Displacement     0.041639     0.001800     NO 
 RMS     Displacement     0.014466     0.001200     NO 
 Predicted change in Energy=-6.760655D-04
 GradGradGradGradGradGradGradGradGradGradGradGradGradGradGradGradGradGrad

 Unable to Open any file for archive entry.
 1\1\GINC-X10P1N4\Force\RwB97XD\def2SVP\C12N6(2-)\MAYUMIAO\11-Oct-2024\
 0\\# wb97xd def2svp scrf=(smd,solvent=acetonitrile) g09default scf=(xq
 c,maxcycle=64) force guess=read nosymm\\Title Card\\-2,1\C,-8.95187163
 ,-0.91553305,1.10709212\C,-8.94829213,0.47108318,1.24930377\C,-8.25420
 947,-2.11419754,0.98389251\C,-7.04754077,-2.80678756,0.89663121\C,-9.6
 4497123,-2.11558398,0.99666115\C,-10.85069915,-2.81098263,0.94186779\C
 ,-10.16562501,1.19612987,1.34287619\N,-11.16805318,1.7789116,1.4210291
 1\C,-7.71408432,1.16772073,1.32232049\N,-6.69385196,1.72046511,1.38383
 015\C,-5.813519,-2.10713608,0.94731087\N,-4.80705993,-1.52747369,0.985
 98284\C,-7.03266298,-4.21762057,0.73482591\N,-7.02854189,-5.37173173,0
 .59911819\C,-10.84116666,-4.22633252,0.83998599\N,-10.79391439,-5.3849
 1756,0.76261246\C,-12.08029491,-2.10431094,0.98934787\N,-13.0735353,-1
 .50188009,1.02411629\\Version=ES64L-G16RevC.01\HF=-785.0325848\RMSD=5.
 789e-09\RMSF=6.765e-03\Dipole=-0.0745002,-0.0054449,-0.0012065\Quadrup
 ole=-393.3455259,154.3027417,239.0427841,-108.5348776,66.3423527,5.400
 9227\PG=C01 [X(C12N6)]\\@
 The archive entry for this job was punched.


 IT IS NOT EASY TO DESCRIBE
     THE SEA WITH THE MOUTH

                   -- KOKYU
 Job cpu time:       0 days  0 hours  7 minutes 32.9 seconds.
 Elapsed time:       0 days  0 hours  0 minutes 17.4 seconds.
 File lengths (MBytes):  RWF=    147 Int=      0 D2E=      0 Chk=      8 Scr=      1
 Normal termination of Gaussian 16 at Fri Oct 11 16:15:17 2024.
