 Entering Gaussian System, Link 0=g16
 Input=JOBS/55_A.gjf
 Output=JOBS/55_A.log
 Initial command:
 /data/app/gaussian/C01-avx2//g16/l1.exe "/tmp/Gau-2565709.inp" -scrdir="/tmp/"
 Entering Link 1 = /data/app/gaussian/C01-avx2//g16/l1.exe PID=   2565710.
  
 Copyright (c) 1988-2019, Gaussian, Inc.  All Rights Reserved.
  
 This is part of the Gaussian(R) 16 program.  It is based on
 the Gaussian(R) 09 system (copyright 2009, Gaussian, Inc.),
 the Gaussian(R) 03 system (copyright 2003, Gaussian, Inc.),
 the Gaussian(R) 98 system (copyright 1998, Gaussian, Inc.),
 the Gaussian(R) 94 system (copyright 1995, Gaussian, Inc.),
 the Gaussian 92(TM) system (copyright 1992, Gaussian, Inc.),
 the Gaussian 90(TM) system (copyright 1990, Gaussian, Inc.),
 the Gaussian 88(TM) system (copyright 1988, Gaussian, Inc.),
 the Gaussian 86(TM) system (copyright 1986, Carnegie Mellon
 University), and the Gaussian 82(TM) system (copyright 1983,
 Carnegie Mellon University). Gaussian is a federally registered
 trademark of Gaussian, Inc.
  
 This software contains proprietary and confidential information,
 including trade secrets, belonging to Gaussian, Inc.
  
 This software is provided under written license and may be
 used, copied, transmitted, or stored only in accord with that
 written license.
  
 The following legend is applicable only to US Government
 contracts under FAR:
  
                    RESTRICTED RIGHTS LEGEND
  
 Use, reproduction and disclosure by the US Government is
 subject to restrictions as set forth in subparagraphs (a)
 and (c) of the Commercial Computer Software - Restricted
 Rights clause in FAR 52.227-19.
  
 Gaussian, Inc.
 340 Quinnipiac St., Bldg. 40, Wallingford CT 06492
  
  
 ---------------------------------------------------------------
 Warning -- This program may not be used in any manner that
 competes with the business of Gaussian, Inc. or will provide
 assistance to any competitor of Gaussian, Inc.  The licensee
 of this program is prohibited from giving any competitor of
 Gaussian, Inc. access to this program.  By using this program,
 the user acknowledges that Gaussian, Inc. is engaged in the
 business of creating and licensing software in the field of
 computational chemistry and represents and warrants to the
 licensee that it is not a competitor of Gaussian, Inc. and that
 it will not use this program in any manner prohibited above.
 ---------------------------------------------------------------
  

 Cite this work as:
 Gaussian 16, Revision C.01,
 M. J. Frisch, G. W. Trucks, H. B. Schlegel, G. E. Scuseria, 
 M. A. Robb, J. R. Cheeseman, G. Scalmani, V. Barone, 
 G. A. Petersson, H. Nakatsuji, X. Li, M. Caricato, A. V. Marenich, 
 J. Bloino, B. G. Janesko, R. Gomperts, B. Mennucci, H. P. Hratchian, 
 J. V. Ortiz, A. F. Izmaylov, J. L. Sonnenberg, D. Williams-Young, 
 F. Ding, F. Lipparini, F. Egidi, J. Goings, B. Peng, A. Petrone, 
 T. Henderson, D. Ranasinghe, V. G. Zakrzewski, J. Gao, N. Rega, 
 G. Zheng, W. Liang, M. Hada, M. Ehara, K. Toyota, R. Fukuda, 
 J. Hasegawa, M. Ishida, T. Nakajima, Y. Honda, O. Kitao, H. Nakai, 
 T. Vreven, K. Throssell, J. A. Montgomery, Jr., J. E. Peralta, 
 F. Ogliaro, M. J. Bearpark, J. J. Heyd, E. N. Brothers, K. N. Kudin, 
 V. N. Staroverov, T. A. Keith, R. Kobayashi, J. Normand, 
 K. Raghavachari, A. P. Rendell, J. C. Burant, S. S. Iyengar, 
 J. Tomasi, M. Cossi, J. M. Millam, M. Klene, C. Adamo, R. Cammi, 
 J. W. Ochterski, R. L. Martin, K. Morokuma, O. Farkas, 
 J. B. Foresman, and D. J. Fox, Gaussian, Inc., Wallingford CT, 2019.
 
 ******************************************
 Gaussian 16:  ES64L-G16RevC.01  3-Jul-2019
                11-Oct-2024 
 ******************************************
 %chk=a.chk
 %nprocshared=28
 Will use up to   28 processors via shared memory.
 %mem=48gb
 ----------------------------------------------------------------------
 # wb97xd def2svp scrf=(smd,solvent=acetonitrile) g09default scf=(xqc,m
 axcycle=64) force guess=read nosymm
 ----------------------------------------------------------------------
 1/10=7,30=1,38=1,158=3,167=1/1,3;
 2/12=2,15=1,17=6,18=5,40=1/2;
 3/5=43,7=101,11=2,25=1,27=10,30=1,70=32201,71=1,72=2,74=-58,75=-4,116=-2,158=3/1,2,3;
 4/5=1,60=-1/1;
 5/5=2,7=64,8=3,13=1,38=6,53=2,87=10/2,8;
 6/7=2,8=2,9=2,10=2,28=1,87=10/1;
 7/29=1,30=1,87=10/1,2,3,16;
 1/10=7,30=1,158=3,167=1/3;
 99//99;
 Using 2006 physical constants.
 ----------
 Title Card
 ----------
 Symbolic Z-matrix:
 Charge = -2 Multiplicity = 1
 6                    -8.95185  -0.91542   1.10728 
 6                    -8.94776   0.471     1.24977 
 6                    -8.25424  -2.1141    0.98364 
 6                    -7.04769  -2.80642   0.89631 
 6                    -9.64507  -2.11545   0.99667 
 6                    -10.85065  -2.81121   0.9419 
 6                    -10.16516   1.19581   1.34316 
 7                    -11.16772   1.77842   1.42093 
 6                    -7.7137    1.16796   1.32253 
 7                    -6.69343   1.72061   1.38383 
 6                    -5.81354  -2.10694   0.94706 
 7                    -4.80732  -1.52705   0.986 
 6                    -7.03318  -4.21723   0.73467 
 7                    -7.02914  -5.37142   0.59896 
 6                    -10.84123  -4.22666   0.84012 
 7                    -10.79428  -5.38523   0.76282 
 6                    -12.08046  -2.10472   0.98921 
 7                    -13.07348  -1.50212   1.02395 
 

 GradGradGradGradGradGradGradGradGradGradGradGradGradGradGradGradGradGrad
 Berny optimization.
 Initialization pass.
 Trust Radius=3.00D-01 FncErr=1.00D-07 GrdErr=1.00D-07 EigMax=2.50D+02 EigMin=1.00D-04
 Number of steps in this run=      2 maximum allowed number of steps=      2.
 GradGradGradGradGradGradGradGradGradGradGradGradGradGradGradGradGradGrad

                          Input orientation:                          
 ---------------------------------------------------------------------
 Center     Atomic      Atomic             Coordinates (Angstroms)
 Number     Number       Type             X           Y           Z
 ---------------------------------------------------------------------
      1          6           0       -8.951846   -0.915421    1.107282
      2          6           0       -8.947763    0.470996    1.249768
      3          6           0       -8.254237   -2.114096    0.983644
      4          6           0       -7.047693   -2.806415    0.896309
      5          6           0       -9.645067   -2.115455    0.996666
      6          6           0      -10.850650   -2.811209    0.941897
      7          6           0      -10.165164    1.195810    1.343157
      8          7           0      -11.167721    1.778415    1.420934
      9          6           0       -7.713701    1.167955    1.322525
     10          7           0       -6.693429    1.720612    1.383828
     11          6           0       -5.813535   -2.106939    0.947062
     12          7           0       -4.807316   -1.527050    0.986004
     13          6           0       -7.033182   -4.217231    0.734674
     14          7           0       -7.029139   -5.371415    0.598963
     15          6           0      -10.841230   -4.226663    0.840117
     16          7           0      -10.794276   -5.385232    0.762816
     17          6           0      -12.080463   -2.104716    0.989212
     18          7           0      -13.073480   -1.502122    1.023947
 ---------------------------------------------------------------------
                    Distance matrix (angstroms):
                    1          2          3          4          5
     1  C    0.000000
     2  C    1.393726   0.000000
     3  C    1.392395   2.689702   0.000000
     4  C    2.691870   3.804816   1.393801   0.000000
     5  C    1.390278   2.690729   1.390892   2.689582   0.000000
     6  C    2.688275   3.806393   2.688693   3.803233   1.393019
     7  C    2.446441   1.419908   3.838797   5.092750   3.369723
     8  N    3.502176   2.582025   4.881726   6.186318   4.202464
     9  C    2.433062   1.419139   3.343483   4.052265   3.823237
    10  N    3.482183   2.580995   4.159478   4.566964   4.855664
    11  C    3.360711   4.069492   2.440986   1.419503   3.831862
    12  N    4.191172   4.604896   3.496554   2.581494   4.873415
    13  C    3.836932   5.090227   2.444614   1.420118   3.362743
    14  N    4.879659   6.183723   3.501282   2.582244   4.195536
    15  C    3.821711   5.081440   3.343064   4.051072   2.431566
    16  N    4.846897   6.159719   4.147397   4.550275   3.473731
    17  C    3.349121   4.063987   3.826242   5.082301   2.435431
    18  N    4.164016   4.578834   4.858110   6.166650   3.482949
                    6          7          8          9         10
     6  C    0.000000
     7  C    4.084985   0.000000
     8  N    4.625436   1.162153   0.000000
     9  C    5.081247   2.451708   3.508931   0.000000
    10  N    6.165646   3.511412   4.474819   1.161956   0.000000
    11  C    5.086113   5.477382   6.632332   3.804804   3.951598
    12  N    6.178422   6.020636   7.181227   3.977861   3.776639
    13  C    4.073438   6.283356   7.315267   5.459753   5.982877
    14  N    4.612614   7.315526   8.302022   6.614797   7.143219
    15  C    1.419140   5.487561   6.041929   6.254284   7.271173
    16  N    2.580861   6.636467   7.203500   7.262746   8.227735
    17  C    1.419088   3.832378   4.012255   5.467183   6.618837
    18  N    2.580971   3.979828   3.814635   5.995472   7.156855
                   11         12         13         14         15
    11  C    0.000000
    12  N    1.162009   0.000000
    13  C    2.446626   3.500674   0.000000
    14  N    3.500810   4.457067   1.162143   0.000000
    15  C    5.457324   6.611907   3.809519   3.987562   0.000000
    16  N    5.965646   7.125944   3.938381   3.768726   1.162093
    17  C    6.267070   7.296052   5.477458   6.028224   2.461826
    18  N    7.285500   8.266288   6.628777   7.189304   3.527018
                   16         17         18
    16  N    0.000000
    17  C    3.530908   0.000000
    18  N    4.510155   1.162070   0.000000
 Symmetry turned off by external request.
 Stoichiometry    C12N6(2-)
 Framework group  C1[X(C12N6)]
 Deg. of freedom    48
 Full point group                 C1      NOp   1
 Rotational constants (GHZ):           0.4317807           0.4269499           0.2147233
 Standard basis: def2SVP (5D, 7F)
   252 basis functions,   450 primitive gaussians,   270 cartesian basis functions
    58 alpha electrons       58 beta electrons
       nuclear repulsion energy       965.5686609852 Hartrees.
 NAtoms=   18 NActive=   18 NUniq=   18 SFac= 1.00D+00 NAtFMM=   60 NAOKFM=F Big=F
 Integral buffers will be    131072 words long.
 Raffenetti 2 integral format.
 Two-electron integral symmetry is turned off.
 Nuclear repulsion after empirical dispersion term =      965.5569817654 Hartrees.
 Force PCM accuracy= 1.00D-10.
 ------------------------------------------------------------------------------
 Polarizable Continuum Model (PCM)
 =================================
 Model                : PCM (using non-symmetric T matrix).
 Atomic radii         : SMD-Coulomb.
 Polarization charges : Total charges.
 Charge compensation  : None.
 Solution method      : On-the-fly selection.
 Cavity type          : VdW (van der Waals Surface) (Alpha=1.000).
 Cavity algorithm     : GePol (No added spheres)
                        Default sphere list used, NSphG=   18.
                        Lebedev-Laikov grids with approx.  5.0 points / Ang**2.
                        Smoothing algorithm: York/Karplus (Gamma=1.0000).
                        Polarization charges: spherical gaussians, with
                                              point-specific exponents (IZeta= 3).
                        Self-potential: point-specific (ISelfS= 7).
                        Self-field    : sphere-specific E.n sum rule (ISelfD= 2).
 1st derivatives      : Analytical E(r).r(x)/FMM algorithm (CHGder, D1EAlg=3).
                        Cavity 1st derivative terms included.
 Solvent              : Acetonitrile, Eps=  35.688000 Eps(inf)=   1.806874
 ------------------------------------------------------------------------------
 Spheres list:
 ISph  on   Nord     Re0    Alpha      Xe            Ye            Ze
    1   C      1    1.8500  1.000     -8.951846     -0.915421      1.107282
    2   C      2    1.8500  1.000     -8.947763      0.470996      1.249768
    3   C      3    1.8500  1.000     -8.254237     -2.114096      0.983644
    4   C      4    1.8500  1.000     -7.047693     -2.806415      0.896309
    5   C      5    1.8500  1.000     -9.645067     -2.115455      0.996666
    6   C      6    1.8500  1.000    -10.850650     -2.811209      0.941897
    7   C      7    1.8500  1.000    -10.165164      1.195810      1.343157
    8   N      8    1.8900  1.000    -11.167721      1.778415      1.420934
    9   C      9    1.8500  1.000     -7.713701      1.167955      1.322525
   10   N     10    1.8900  1.000     -6.693429      1.720612      1.383828
   11   C     11    1.8500  1.000     -5.813535     -2.106939      0.947062
   12   N     12    1.8900  1.000     -4.807316     -1.527050      0.986004
   13   C     13    1.8500  1.000     -7.033182     -4.217231      0.734674
   14   N     14    1.8900  1.000     -7.029139     -5.371415      0.598963
   15   C     15    1.8500  1.000    -10.841230     -4.226663      0.840117
   16   N     16    1.8900  1.000    -10.794276     -5.385232      0.762816
   17   C     17    1.8500  1.000    -12.080463     -2.104716      0.989212
   18   N     18    1.8900  1.000    -13.073480     -1.502122      1.023947
 ------------------------------------------------------------------------------
 ------------------------------------------------------------------------------
 Atomic radii for non-electrostatic terms: SMD-CDS.
 ------------------------------------------------------------------------------
 Nuclear repulsion after PCM non-electrostatic terms =      965.5656861033 Hartrees.
 One-electron integrals computed using PRISM.
   1 Symmetry operations used in ECPInt.
 ECPInt:  NShTT=    5886 NPrTT=   23670 LenC2=    5404 LenP2D=   14964.
 LDataN:  DoStor=T MaxTD1= 4 Len=   56
 NBasis=   252 RedAO= T EigKep=  1.95D-04  NBF=   252
 NBsUse=   252 1.00D-06 EigRej= -1.00D+00 NBFU=   252
 Initial guess from the checkpoint file:  "a.chk"
 B after Tr=    -0.000046   -0.000019   -0.000372
         Rot=    1.000000   -0.000015   -0.000014    0.000002 Ang=  -0.00 deg.
 Requested convergence on RMS density matrix=1.00D-08 within  64 cycles.
 Requested convergence on MAX density matrix=1.00D-06.
 Requested convergence on             energy=1.00D-06.
 No special actions if energy rises.
 Inv3:  Mode=1 IEnd=    19263468.
 Iteration    1 A*A^-1 deviation from unit magnitude is 3.11D-15 for   2426.
 Iteration    1 A*A^-1 deviation from orthogonality  is 2.59D-15 for   1065    431.
 Iteration    1 A^-1*A deviation from unit magnitude is 3.00D-15 for   1465.
 Iteration    1 A^-1*A deviation from orthogonality  is 1.44D-12 for   2054   2008.
 Error on total polarization charges =  0.02151
 SCF Done:  E(RwB97XD) =  -785.032577654     A.U. after    8 cycles
            NFock=  8  Conv=0.59D-08     -V/T= 2.0097
 SMD-CDS (non-electrostatic) energy       (kcal/mol) =       5.46
 (included in total energy above)
 QCSCF skips out because SCF is already converged.

 **********************************************************************

            Population analysis using the SCF Density.

 **********************************************************************

 Alpha  occ. eigenvalues --  -14.42777 -14.42765 -14.42764 -14.42755 -14.42748
 Alpha  occ. eigenvalues --  -14.42739 -10.34982 -10.34916 -10.34891 -10.33716
 Alpha  occ. eigenvalues --  -10.33702 -10.33698 -10.33689 -10.33680 -10.33670
 Alpha  occ. eigenvalues --  -10.32730 -10.32718 -10.32695  -1.03040  -0.99105
 Alpha  occ. eigenvalues --   -0.99101  -0.98722  -0.98037  -0.98028  -0.97953
 Alpha  occ. eigenvalues --   -0.88201  -0.88176  -0.86083  -0.68785  -0.68728
 Alpha  occ. eigenvalues --   -0.65194  -0.65030  -0.64894  -0.64136  -0.52448
 Alpha  occ. eigenvalues --   -0.47691  -0.47684  -0.46782  -0.46718  -0.45187
 Alpha  occ. eigenvalues --   -0.45072  -0.45068  -0.44535  -0.44213  -0.44164
 Alpha  occ. eigenvalues --   -0.43844  -0.42831  -0.42243  -0.42229  -0.42053
 Alpha  occ. eigenvalues --   -0.41951  -0.41929  -0.40541  -0.40192  -0.40165
 Alpha  occ. eigenvalues --   -0.31484  -0.31473  -0.23619
 Alpha virt. eigenvalues --    0.07470   0.07540   0.08868   0.09307   0.09381
 Alpha virt. eigenvalues --    0.12698   0.12734   0.13108   0.13155   0.14845
 Alpha virt. eigenvalues --    0.14982   0.16306   0.21085   0.21147   0.24193
 Alpha virt. eigenvalues --    0.27523   0.28107   0.28133   0.28632   0.28667
 Alpha virt. eigenvalues --    0.29992   0.33656   0.33721   0.33928   0.36865
 Alpha virt. eigenvalues --    0.36951   0.37212   0.48976   0.49125   0.50541
 Alpha virt. eigenvalues --    0.50723   0.54911   0.54936   0.54986   0.55051
 Alpha virt. eigenvalues --    0.57454   0.57514   0.58260   0.59971   0.61124
 Alpha virt. eigenvalues --    0.61715   0.61739   0.62873   0.62955   0.64896
 Alpha virt. eigenvalues --    0.65525   0.70947   0.71742   0.71839   0.73690
 Alpha virt. eigenvalues --    0.73723   0.74435   0.74629   0.74775   0.75078
 Alpha virt. eigenvalues --    0.75165   0.75247   0.76621   0.76918   0.77783
 Alpha virt. eigenvalues --    0.81994   0.82080   0.82232   0.83448   0.83662
 Alpha virt. eigenvalues --    0.88860   0.88904   0.89376   0.89562   0.94731
 Alpha virt. eigenvalues --    0.94798   0.95112   0.95203   0.95986   0.96142
 Alpha virt. eigenvalues --    0.98101   1.00601   1.00647   1.01324   1.01583
 Alpha virt. eigenvalues --    1.02424   1.02555   1.05271   1.05493   1.05764
 Alpha virt. eigenvalues --    1.08508   1.08979   1.10219   1.10331   1.12750
 Alpha virt. eigenvalues --    1.12920   1.17521   1.18944   1.20334   1.20535
 Alpha virt. eigenvalues --    1.21159   1.25042   1.25283   1.27271   1.35232
 Alpha virt. eigenvalues --    1.38792   1.38925   1.41786   1.41904   1.45053
 Alpha virt. eigenvalues --    1.47173   1.47297   1.47800   1.48025   1.58963
 Alpha virt. eigenvalues --    1.62394   1.68388   1.70723   1.70798   1.70971
 Alpha virt. eigenvalues --    1.71153   1.71249   1.79085   1.79479   1.79626
 Alpha virt. eigenvalues --    1.79668   1.80338   1.81494   1.81534   1.82869
 Alpha virt. eigenvalues --    1.84617   1.85125   1.87654   1.95482   1.95629
 Alpha virt. eigenvalues --    1.95747   2.00384   2.03119   2.03299   2.06435
 Alpha virt. eigenvalues --    2.06555   2.09986   2.10392   2.16114   2.16280
 Alpha virt. eigenvalues --    2.21009   2.23595   2.23699   2.23816   2.29512
 Alpha virt. eigenvalues --    2.30487   2.30617   2.32107   2.35914   2.35922
 Alpha virt. eigenvalues --    2.36505   2.36548   2.36783   2.36892   2.37498
 Alpha virt. eigenvalues --    2.38487   2.38574   2.38740   2.38863   2.39150
 Alpha virt. eigenvalues --    2.40529   2.40672   2.59978   2.65118   2.65478
 Alpha virt. eigenvalues --    2.74278   2.74434   2.95379   2.97517   2.97775
 Alpha virt. eigenvalues --    2.98089   3.01275   3.01292   3.01977   3.05345
 Alpha virt. eigenvalues --    3.07980   3.08074   3.11389   3.11868   3.14783
 Alpha virt. eigenvalues --    3.14876   3.15379   3.25963   3.26308   3.31537
 Alpha virt. eigenvalues --    3.43962   3.44006   3.45252   3.56532   3.59857
 Alpha virt. eigenvalues --    3.59882   3.64678   3.64744   3.78636
          Condensed to atoms (all electrons):
               1          2          3          4          5          6
     1  C    4.963462   0.493337   0.314346  -0.117135   0.317368  -0.116744
     2  C    0.493337   5.550651  -0.115893  -0.007652  -0.117721  -0.007227
     3  C    0.314346  -0.115893   4.961065   0.493182   0.316211  -0.116297
     4  C   -0.117135  -0.007652   0.493182   5.553573  -0.117758  -0.007487
     5  C    0.317368  -0.117721   0.316211  -0.117758   4.965544   0.494400
     6  C   -0.116744  -0.007227  -0.116297  -0.007487   0.494400   5.547977
     7  C    0.010920   0.384917   0.006280  -0.000539  -0.025224   0.002903
     8  N   -0.001036  -0.044149  -0.000066  -0.000001  -0.000596   0.000144
     9  C    0.015124   0.387669  -0.025406   0.003021   0.006759  -0.000514
    10  N   -0.001014  -0.043521  -0.000614   0.000161  -0.000058  -0.000001
    11  C   -0.024493   0.003061   0.013109   0.387510   0.006244  -0.000527
    12  N   -0.000571   0.000151  -0.001084  -0.043795  -0.000070  -0.000001
    13  C    0.005977  -0.000553   0.011995   0.386651  -0.024806   0.002940
    14  N   -0.000072  -0.000002  -0.001094  -0.043987  -0.000586   0.000147
    15  C    0.007315  -0.000505  -0.026420   0.003055   0.013877   0.385089
    16  N   -0.000041  -0.000001  -0.000677   0.000179  -0.000921  -0.043884
    17  C   -0.026510   0.002905   0.006908  -0.000536   0.013332   0.383920
    18  N   -0.000659   0.000160  -0.000050  -0.000001  -0.000910  -0.044153
               7          8          9         10         11         12
     1  C    0.010920  -0.001036   0.015124  -0.001014  -0.024493  -0.000571
     2  C    0.384917  -0.044149   0.387669  -0.043521   0.003061   0.000151
     3  C    0.006280  -0.000066  -0.025406  -0.000614   0.013109  -0.001084
     4  C   -0.000539  -0.000001   0.003021   0.000161   0.387510  -0.043795
     5  C   -0.025224  -0.000596   0.006759  -0.000058   0.006244  -0.000070
     6  C    0.002903   0.000144  -0.000514  -0.000001  -0.000527  -0.000001
     7  C    4.880139   0.926170  -0.054690   0.002676   0.000137   0.000002
     8  N    0.926170   6.152409   0.002525   0.000091   0.000000   0.000000
     9  C   -0.054690   0.002525   4.875743   0.925556  -0.000512   0.000048
    10  N    0.002676   0.000091   0.925556   6.155100   0.000224  -0.000883
    11  C    0.000137   0.000000  -0.000512   0.000224   4.876528   0.926385
    12  N    0.000002   0.000000   0.000048  -0.000883   0.926385   6.153059
    13  C   -0.000017  -0.000000   0.000142   0.000003  -0.054611   0.002599
    14  N   -0.000000  -0.000000   0.000000   0.000000   0.002543   0.000093
    15  C    0.000133   0.000002  -0.000017  -0.000000   0.000141   0.000000
    16  N    0.000000   0.000000  -0.000000  -0.000000   0.000003   0.000000
    17  C   -0.000533   0.000018   0.000138   0.000000  -0.000017  -0.000000
    18  N    0.000216  -0.000828   0.000003   0.000000  -0.000000  -0.000000
              13         14         15         16         17         18
     1  C    0.005977  -0.000072   0.007315  -0.000041  -0.026510  -0.000659
     2  C   -0.000553  -0.000002  -0.000505  -0.000001   0.002905   0.000160
     3  C    0.011995  -0.001094  -0.026420  -0.000677   0.006908  -0.000050
     4  C    0.386651  -0.043987   0.003055   0.000179  -0.000536  -0.000001
     5  C   -0.024806  -0.000586   0.013877  -0.000921   0.013332  -0.000910
     6  C    0.002940   0.000147   0.385089  -0.043884   0.383920  -0.044153
     7  C   -0.000017  -0.000000   0.000133   0.000000  -0.000533   0.000216
     8  N   -0.000000  -0.000000   0.000002   0.000000   0.000018  -0.000828
     9  C    0.000142   0.000000  -0.000017  -0.000000   0.000138   0.000003
    10  N    0.000003   0.000000  -0.000000  -0.000000   0.000000   0.000000
    11  C   -0.054611   0.002543   0.000141   0.000003  -0.000017  -0.000000
    12  N    0.002599   0.000093   0.000000   0.000000  -0.000000  -0.000000
    13  C    4.878300   0.926498  -0.000548   0.000319   0.000136   0.000000
    14  N    0.926498   6.152328  -0.000017  -0.000888   0.000002   0.000000
    15  C   -0.000548  -0.000017   4.878733   0.924729  -0.054272   0.002607
    16  N    0.000319  -0.000888   0.924729   6.156437   0.002690   0.000085
    17  C    0.000136   0.000002  -0.054272   0.002690   4.880192   0.924878
    18  N    0.000000   0.000000   0.002607   0.000085   0.924878   6.155431
 Mulliken charges:
               1
     1  C    0.160425
     2  C   -0.485628
     3  C    0.164505
     4  C   -0.488441
     5  C    0.154912
     6  C   -0.480682
     7  C   -0.133488
     8  N   -0.034683
     9  C   -0.135590
    10  N   -0.037718
    11  C   -0.135727
    12  N   -0.035933
    13  C   -0.135024
    14  N   -0.034967
    15  C   -0.133902
    16  N   -0.038028
    17  C   -0.133252
    18  N   -0.036779
 Sum of Mulliken charges =  -2.00000
 Mulliken charges with hydrogens summed into heavy atoms:
               1
     1  C    0.160425
     2  C   -0.485628
     3  C    0.164505
     4  C   -0.488441
     5  C    0.154912
     6  C   -0.480682
     7  C   -0.133488
     8  N   -0.034683
     9  C   -0.135590
    10  N   -0.037718
    11  C   -0.135727
    12  N   -0.035933
    13  C   -0.135024
    14  N   -0.034967
    15  C   -0.133902
    16  N   -0.038028
    17  C   -0.133252
    18  N   -0.036779
 Electronic spatial extent (au):  <R**2>=          39329.8992
 Charge=             -2.0000 electrons
 Dipole moment (field-independent basis, Debye):
    X=             85.6852    Y=             16.4621    Z=             -9.8914  Tot=             87.8111
 Quadrupole moment (field-independent basis, Debye-Ang):
   XX=           -964.1937   YY=           -227.5174   ZZ=           -113.5377
   XY=           -146.0182   XZ=             89.2328   YZ=              7.2668
 Traceless Quadrupole moment (field-independent basis, Debye-Ang):
   XX=           -529.1108   YY=            207.5656   ZZ=            321.5452
   XY=           -146.0182   XZ=             89.2328   YZ=              7.2668
 Octapole moment (field-independent basis, Debye-Ang**2):
  XXX=          12175.7521  YYY=           1140.5282  ZZZ=           -329.6362  XYY=           2030.5745
  XXY=           1569.7904  XXZ=          -1015.0513  XZZ=           1016.4955  YZZ=            175.0420
  YYZ=           -196.7719  XYZ=            -67.0323
 Hexadecapole moment (field-independent basis, Debye-Ang**3):
 XXXX=        -161244.4258 YYYY=          -8692.8950 ZZZZ=           -804.6102 XXXY=         -18832.8480
 XXXZ=          12918.2161 YYYX=         -10166.0529 YYYZ=            766.7823 ZZZX=           2966.6172
 ZZZY=            377.8161 XXYY=         -20026.2182 XXZZ=          -9885.3419 YYZZ=          -1039.0400
 XXYZ=            807.6405 YYXZ=           1782.6165 ZZXY=          -1565.1154
 N-N= 9.655656861033D+02 E-N=-3.784916902867D+03  KE= 7.774802379537D+02
   1 Symmetry operations used in ECPInt.
 ECPInt:  NShTT=    5886 NPrTT=   23670 LenC2=    5404 LenP2D=   14964.
 LDataN:  DoStor=T MaxTD1= 5 Len=  102
 D1PCM: PCM CHGder 1st derivatives, ID1Alg=3 FixD1E=F DoIter=F DoCFld=F I1PDM=0.
 Calling FoFJK, ICntrl=      2127 FMM=F ISym2X=0 I1Cent= 0 IOpClX= 0 NMat=1 NMatS=1 NMatT=0.
 -------------------------------------------------------------------
 Center     Atomic                   Forces (Hartrees/Bohr)
 Number     Number              X              Y              Z
 -------------------------------------------------------------------
      1        6           0.000190972   -0.021117281   -0.001866752
      2        6           0.000333696    0.014067371    0.001512773
      3        6          -0.018307869    0.010592396    0.000944149
      4        6           0.012290175   -0.006879466   -0.000852039
      5        6           0.018354160    0.010713185    0.000910751
      6        6          -0.012243607   -0.007075021   -0.000579802
      7        6           0.007234181   -0.004299278   -0.000421805
      8        7          -0.004492236    0.002122912    0.000253265
      9        6          -0.007200505   -0.003197058   -0.000306017
     10        7           0.005009185    0.002493769    0.000213895
     11        6          -0.006719165   -0.004385522   -0.000447683
     12        7           0.004419318    0.003132680    0.000287047
     13        6           0.000026442    0.008203466    0.000890079
     14        7          -0.000482706   -0.005043296   -0.000512050
     15        6          -0.000466159    0.007921365    0.000559647
     16        7          -0.000124327   -0.005287692   -0.000479837
     17        6           0.006657732   -0.004747383   -0.000372991
     18        7          -0.004479286    0.002784853    0.000267370
 -------------------------------------------------------------------
 Cartesian Forces:  Max     0.021117281 RMS     0.006822573

 GradGradGradGradGradGradGradGradGradGradGradGradGradGradGradGradGradGrad
 Berny optimization.
 Search for a local minimum.
 Step number   1 out of a maximum of    2
 All quantities printed in internal units (Hartrees-Bohrs-Radians)
 Second derivative matrix not updated -- first step.
 ITU=  0
     Eigenvalues ---    0.00129   0.00146   0.00198   0.00300   0.00301
     Eigenvalues ---    0.00817   0.01537   0.01722   0.01989   0.02015
     Eigenvalues ---    0.03002   0.04115   0.05335   0.05362   0.10303
     Eigenvalues ---    0.15166   0.21337   0.21509   0.24393   0.24700
     Eigenvalues ---    0.25064   0.25739   0.25960   0.30089   0.30282
     Eigenvalues ---    0.36052   0.41813   0.48344   0.79220   0.79729
     Eigenvalues ---    0.81812   0.99412   1.00820   1.04631   1.04957
     Eigenvalues ---    1.12154   1.59974   1.60445   2.06151   2.78838
     Eigenvalues ---    2.78958   2.79162   2.84154   2.84275   2.84406
     Eigenvalues ---   31.61046  65.55883 120.77648
 Angle between quadratic step and forces=  75.13 degrees.
 Linear search not attempted -- first point.
 B after Tr=    -0.000266    0.000061   -0.000171
         Rot=    1.000000    0.000002   -0.000004   -0.000003 Ang=   0.00 deg.
 Variable       Old X    -DE/DX   Delta X   Delta X   Delta X     New X
                                 (Linear)    (Quad)   (Total)
    X1      -16.91654   0.00019   0.00000   0.01146   0.01122 -16.90532
    Y1       -1.72990  -0.02112   0.00000  -0.00681  -0.00683  -1.73673
    Z1        2.09246  -0.00187   0.00000   0.00104   0.00103   2.09349
    X2      -16.90882   0.00033   0.00000   0.01020   0.00995 -16.89888
    Y2        0.89005   0.01407   0.00000   0.01711   0.01709   0.90715
    Z2        2.36172   0.00151   0.00000   0.00427   0.00425   2.36597
    X3      -15.59825  -0.01831   0.00000   0.00284   0.00261 -15.59564
    Y3       -3.99506   0.01059   0.00000   0.00390   0.00389  -3.99117
    Z3        1.85882   0.00094   0.00000   0.00043   0.00041   1.85923
    X4      -13.31821   0.01229   0.00000   0.02254   0.02232 -13.29589
    Y4       -5.30336  -0.00688   0.00000  -0.00812  -0.00812  -5.31147
    Z4        1.69378  -0.00085   0.00000  -0.00020  -0.00023   1.69355
    X5      -18.22654   0.01835   0.00000   0.01430   0.01407 -18.21246
    Y5       -3.99763   0.01071   0.00000   0.00415   0.00412  -3.99351
    Z5        1.88342   0.00091   0.00000   0.00019   0.00020   1.88363
    X6      -20.50476  -0.01224   0.00000  -0.00998  -0.01020 -20.51496
    Y6       -5.31242  -0.00708   0.00000  -0.00677  -0.00680  -5.31922
    Z6        1.77993  -0.00058   0.00000  -0.00309  -0.00306   1.77687
    X7      -19.20938   0.00723   0.00000   0.00706   0.00680 -19.20258
    Y7        2.25975  -0.00430   0.00000  -0.00403  -0.00405   2.25570
    Z7        2.53820  -0.00042   0.00000   0.00301   0.00300   2.54120
    X8      -21.10393  -0.00449   0.00000  -0.00856  -0.00882 -21.11275
    Y8        3.36072   0.00212   0.00000  -0.02282  -0.02286   3.33786
    Z8        2.68518   0.00025   0.00000   0.00117   0.00117   2.68635
    X9      -14.57678  -0.00720   0.00000  -0.00178  -0.00204 -14.57882
    Y9        2.20712  -0.00320   0.00000   0.02830   0.02829   2.23541
    Z9        2.49921  -0.00031   0.00000  -0.00301  -0.00306   2.49615
   X10      -12.64875   0.00501   0.00000  -0.00209  -0.00235 -12.65110
   Y10        3.25149   0.00249   0.00000   0.03874   0.03874   3.29023
   Z10        2.61506   0.00021   0.00000  -0.00823  -0.00830   2.60676
   X11      -10.98599  -0.00672   0.00000   0.01702   0.01679 -10.96920
   Y11       -3.98154  -0.00439   0.00000  -0.01051  -0.01050  -3.99204
   Z11        1.78969  -0.00045   0.00000  -0.00527  -0.00533   1.78436
   X12       -9.08451   0.00442   0.00000   0.01568   0.01545  -9.06907
   Y12       -2.88571   0.00313   0.00000   0.00051   0.00053  -2.88518
   Z12        1.86328   0.00029   0.00000  -0.00749  -0.00757   1.85571
   X13      -13.29079   0.00003   0.00000   0.01045   0.01024 -13.28055
   Y13       -7.96941   0.00820   0.00000  -0.00247  -0.00247  -7.97188
   Z13        1.38833   0.00089   0.00000   0.01543   0.01541   1.40374
   X14      -13.28315  -0.00048   0.00000  -0.00889  -0.00909 -13.29224
   Y14      -10.15050  -0.00504   0.00000  -0.00823  -0.00823 -10.15874
   Z14        1.13188  -0.00051   0.00000   0.02948   0.02947   1.16135
   X15      -20.48696  -0.00047   0.00000  -0.02348  -0.02370 -20.51065
   Y15       -7.98724   0.00792   0.00000   0.00055   0.00051  -7.98672
   Z15        1.58759   0.00056   0.00000  -0.01978  -0.01973   1.56786
   X16      -20.39823  -0.00012   0.00000  -0.04097  -0.04118 -20.43940
   Y16      -10.17661  -0.00529   0.00000  -0.00333  -0.00336 -10.17998
   Z16        1.44151  -0.00048   0.00000  -0.03529  -0.03524   1.40627
   X17      -22.82877   0.00666   0.00000  -0.00420  -0.00443 -22.83320
   Y17       -3.97734  -0.00475   0.00000  -0.01103  -0.01108  -3.98841
   Z17        1.86934  -0.00037   0.00000   0.00870   0.00875   1.87808
   X18      -24.70530  -0.00448   0.00000  -0.00739  -0.00763 -24.71292
   Y18       -2.83860   0.00278   0.00000  -0.00882  -0.00887  -2.84747
   Z18        1.93498   0.00027   0.00000   0.01876   0.01882   1.95380
         Item               Value     Threshold  Converged?
 Maximum Force            0.021117     0.000450     NO 
 RMS     Force            0.006823     0.000300     NO 
 Maximum Displacement     0.041176     0.001800     NO 
 RMS     Displacement     0.014466     0.001200     NO 
 Predicted change in Energy=-6.836567D-04
 GradGradGradGradGradGradGradGradGradGradGradGradGradGradGradGradGradGrad

 Unable to Open any file for archive entry.
 1\1\GINC-X10P1N4\Force\RwB97XD\def2SVP\C12N6(2-)\MAYUMIAO\11-Oct-2024\
 0\\# wb97xd def2svp scrf=(smd,solvent=acetonitrile) g09default scf=(xq
 c,maxcycle=64) force guess=read nosymm\\Title Card\\-2,1\C,-8.95184585
 ,-0.91542131,1.1072821\C,-8.94776343,0.47099573,1.24976801\C,-8.254236
 73,-2.11409561,0.98364358\C,-7.04769336,-2.8064155,0.89630949\C,-9.645
 06724,-2.11545484,0.99666558\C,-10.85065,-2.81120906,0.94189728\C,-10.
 1651636,1.19580974,1.34315713\N,-11.16772089,1.77841503,1.42093368\C,-
 7.71370103,1.16795537,1.3225252\N,-6.69342916,1.72061249,1.38382781\C,
 -5.81353545,-2.10693907,0.9470618\N,-4.80731609,-1.52705032,0.98600366
 \C,-7.03318242,-4.21723069,0.73467445\N,-7.0291394,-5.37141546,0.59896
 286\C,-10.84123016,-4.22666335,0.84011748\N,-10.79427649,-5.38523185,0
 .7628156\C,-12.08046307,-2.10471634,0.98921196\N,-13.07347956,-1.50212
 239,1.02394725\\Version=ES64L-G16RevC.01\HF=-785.0325777\RMSD=5.940e-0
 9\RMSF=6.823e-03\Dipole=-0.0726789,-0.0050072,-0.0010894\Quadrupole=-3
 93.3809378,154.3199131,239.0610248,-108.5609547,66.3423918,5.4026774\P
 G=C01 [X(C12N6)]\\@
 The archive entry for this job was punched.


                                                                                    A
                                                                                  AA
                                                                                 AAA
                                                                                AAAA
                                                                               AAAAA
                                                                              AAAAAA   KKKKKKKK
                                                                             AAAAAAA   KKKKKKKK
                                                                            AAAAAAAA   KKKKKKKK
                                       ZZZZZZZZZZZZZZZZZZZZ                AAAA  AAA   KKKKKKKK
                                       ZZZZZZZZZZZZZZZZZZZ                AAAA   AAA   KKKKKKKK          K
                                       ZZZZZZZZZZZZZZZZZZ                AAAA    AAA   KKKKKKKK         KKK
                                       ZZZZZZZZZZZZZZZZZ                AAAA     AAA   KKKKKKKK        KKKKK
                                       ZZZZZZZZZZZZZZZZ                AAAA      AAA   KKKKKKKK       KKKKKKK
                                                ZZZZZZ                AAAA       AAA   KKKKKKKK      KKKKKKK
                                               ZZZZZZ                AAAA        AAA   KKKKKKKK     KKKKKKK
                                              ZZZZZZ                AAAA         AAA   KKKKKKKK    KKKKKKK
                                             ZZZZZZ                AAAA          AAA   KKKKKKKK   KKKKKKK
                                            ZZZZZZ                AAAAAAAAAAAAAAAAAA   KKKKKKKK  KKKKKKK
                                           ZZZZZZ                AAAAAAAAAAAAAAAAAAA   KKKKKKKK KKKKKKK
                                          ZZZZZZ                AAAAAAAAAAAAAAAAAAAA   KKKKKKKKKKKKKKK
                                         ZZZZZZ                AAAAAAAAAAAAAAAAAAAAA   KKKKKKKKKKKKKK
                                        ZZZZZZ                AAAAAA        AAAAAAAA   KKKKKKKKKKKKK
                                       ZZZZZZ                AAAAAA         AAAAAAAA   KKKKKKKKKKKK
                                      ZZZZZZ                AAAAAA          AAAAAAAA   KKKKKKKKKKK
                                     ZZZZZZ                AAAAAA           AAAAAAAA   KKKKKKKKKKKK
                                    ZZZZZZ                AAAAAA            AAAAAAAA   KKKKKKKKKKKKK
                                   ZZZZZZ                AAAAAA             AAAAAAAA   KKKKKKKKKKKKKK
                                  ZZZZZZ                AAAAAA              AAAAAAAA   KKKKKKKKKKKKKKK
                                 ZZZZZZ                AAAAAA               AAAAAAAA   KKKKK KKKKKKKKKK
                                ZZZZZZ                AAAAAA                AAAAAAAA   KKKKK  KKKKKKKKKK
                               ZZZZZZ                AAAAAA                            KKKKK   KKKKKKKKKK
                              ZZZZZZ                AAAAAA                             KKKKK    KKKKKKKKKK
                             ZZZZZZ                                                    KKKKK     KKKKKKKKKK
                            ZZZZZZ                                                     KKKKK      KKKKKKKKKK
                           ZZZZZZ                                                      KKKKK       KKKKKKKKKK
                          ZZZZZZ                                                       KKKKK        KKKKKKKKKK
                         ZZZZZZZZZZZZZZZZZZZZZZZZZZZZZZZZZZZZZZZZ                      KKKKK         KKKKKKKKKK
                        ZZZZZZZZZZZZZZZZZZZZZZZZZZZZZZZZZZZZZZZZZ                      KKKKK          KKKKKKKKKK
                       ZZZZZZZZZZZZZZZZZZZZZZZZZZZZZZZZZZZZZZZZZZ                      KKKKK           KKKKKKKKKK
                       ZZZZZZZZZZZZZZZZZZZZZZZZZZZZZZZZZZZZZZZZZZ                      KKKKK            KKKKKKKKKK
                       ZZZZZZZZZZZZZZZZZZZZZZZZZZZZZZZZZZZZZZZZZZ                      KKKKK             KKKKKKKKKK
                       ZZZZZZZZZZZZZZZZZZZZZZZZZZZZZZZZZZZZZZZZZZ                      KKKKK              KKKKKKKKKK
                       ZZZZZZZZZZZZZZZZZZZZZZZZZZZZZZZZZZZZZZZZZZ                      KKKKK               KKKKKKKKKK
                       ZZZZZZZZZZZZZZZZZZZZZZZZZZZZZZZZZZZZZZZZZZ                      KKKKK                KKKKKKKKKK
                       ZZZZZZZZZZZZZZZZZZZZZZZZZZZZZZZZZZZZZZZZZZ                      KKKKK
                                                                                       KKKKK
                                                                                          (J.P.)
 Job cpu time:       0 days  0 hours  7 minutes 39.6 seconds.
 Elapsed time:       0 days  0 hours  0 minutes 17.7 seconds.
 File lengths (MBytes):  RWF=    147 Int=      0 D2E=      0 Chk=      8 Scr=      1
 Normal termination of Gaussian 16 at Fri Oct 11 16:15:58 2024.
