 Entering Gaussian System, Link 0=g16
 Input=JOBS/55_B.gjf
 Output=JOBS/55_B.log
 Initial command:
 /data/app/gaussian/C01-avx2//g16/l1.exe "/tmp/Gau-2565248.inp" -scrdir="/tmp/"
 Entering Link 1 = /data/app/gaussian/C01-avx2//g16/l1.exe PID=   2565249.
  
 Copyright (c) 1988-2019, Gaussian, Inc.  All Rights Reserved.
  
 This is part of the Gaussian(R) 16 program.  It is based on
 the Gaussian(R) 09 system (copyright 2009, Gaussian, Inc.),
 the Gaussian(R) 03 system (copyright 2003, Gaussian, Inc.),
 the Gaussian(R) 98 system (copyright 1998, Gaussian, Inc.),
 the Gaussian(R) 94 system (copyright 1995, Gaussian, Inc.),
 the Gaussian 92(TM) system (copyright 1992, Gaussian, Inc.),
 the Gaussian 90(TM) system (copyright 1990, Gaussian, Inc.),
 the Gaussian 88(TM) system (copyright 1988, Gaussian, Inc.),
 the Gaussian 86(TM) system (copyright 1986, Carnegie Mellon
 University), and the Gaussian 82(TM) system (copyright 1983,
 Carnegie Mellon University). Gaussian is a federally registered
 trademark of Gaussian, Inc.
  
 This software contains proprietary and confidential information,
 including trade secrets, belonging to Gaussian, Inc.
  
 This software is provided under written license and may be
 used, copied, transmitted, or stored only in accord with that
 written license.
  
 The following legend is applicable only to US Government
 contracts under FAR:
  
                    RESTRICTED RIGHTS LEGEND
  
 Use, reproduction and disclosure by the US Government is
 subject to restrictions as set forth in subparagraphs (a)
 and (c) of the Commercial Computer Software - Restricted
 Rights clause in FAR 52.227-19.
  
 Gaussian, Inc.
 340 Quinnipiac St., Bldg. 40, Wallingford CT 06492
  
  
 ---------------------------------------------------------------
 Warning -- This program may not be used in any manner that
 competes with the business of Gaussian, Inc. or will provide
 assistance to any competitor of Gaussian, Inc.  The licensee
 of this program is prohibited from giving any competitor of
 Gaussian, Inc. access to this program.  By using this program,
 the user acknowledges that Gaussian, Inc. is engaged in the
 business of creating and licensing software in the field of
 computational chemistry and represents and warrants to the
 licensee that it is not a competitor of Gaussian, Inc. and that
 it will not use this program in any manner prohibited above.
 ---------------------------------------------------------------
  

 Cite this work as:
 Gaussian 16, Revision C.01,
 M. J. Frisch, G. W. Trucks, H. B. Schlegel, G. E. Scuseria, 
 M. A. Robb, J. R. Cheeseman, G. Scalmani, V. Barone, 
 G. A. Petersson, H. Nakatsuji, X. Li, M. Caricato, A. V. Marenich, 
 J. Bloino, B. G. Janesko, R. Gomperts, B. Mennucci, H. P. Hratchian, 
 J. V. Ortiz, A. F. Izmaylov, J. L. Sonnenberg, D. Williams-Young, 
 F. Ding, F. Lipparini, F. Egidi, J. Goings, B. Peng, A. Petrone, 
 T. Henderson, D. Ranasinghe, V. G. Zakrzewski, J. Gao, N. Rega, 
 G. Zheng, W. Liang, M. Hada, M. Ehara, K. Toyota, R. Fukuda, 
 J. Hasegawa, M. Ishida, T. Nakajima, Y. Honda, O. Kitao, H. Nakai, 
 T. Vreven, K. Throssell, J. A. Montgomery, Jr., J. E. Peralta, 
 F. Ogliaro, M. J. Bearpark, J. J. Heyd, E. N. Brothers, K. N. Kudin, 
 V. N. Staroverov, T. A. Keith, R. Kobayashi, J. Normand, 
 K. Raghavachari, A. P. Rendell, J. C. Burant, S. S. Iyengar, 
 J. Tomasi, M. Cossi, J. M. Millam, M. Klene, C. Adamo, R. Cammi, 
 J. W. Ochterski, R. L. Martin, K. Morokuma, O. Farkas, 
 J. B. Foresman, and D. J. Fox, Gaussian, Inc., Wallingford CT, 2019.
 
 ******************************************
 Gaussian 16:  ES64L-G16RevC.01  3-Jul-2019
                11-Oct-2024 
 ******************************************
 %chk=b.chk
 %nprocshared=28
 Will use up to   28 processors via shared memory.
 %mem=48gb
 ----------------------------------------------------------------------
 # wb97xd def2svp scrf=(smd,solvent=acetonitrile) g09default scf=(xqc,m
 axcycle=64) force guess=read nosymm
 ----------------------------------------------------------------------
 1/10=7,30=1,38=1,158=3,167=1/1,3;
 2/12=2,15=1,17=6,18=5,40=1/2;
 3/5=43,7=101,11=2,25=1,27=10,30=1,70=32201,71=1,72=2,74=-58,75=-4,116=-2,158=3/1,2,3;
 4/5=1,60=-1/1;
 5/5=2,7=64,8=3,13=1,38=6,53=2,87=10/2,8;
 6/7=2,8=2,9=2,10=2,28=1,87=10/1;
 7/29=1,30=1,87=10/1,2,3,16;
 1/10=7,30=1,158=3,167=1/3;
 99//99;
 Using 2006 physical constants.
 ----------
 Title Card
 ----------
 Symbolic Z-matrix:
 Charge = -1 Multiplicity = 2
 6                    -8.95185  -0.91542   1.10728 
 6                    -8.94776   0.471     1.24977 
 6                    -8.25424  -2.1141    0.98364 
 6                    -7.04769  -2.80642   0.89631 
 6                    -9.64507  -2.11545   0.99667 
 6                    -10.85065  -2.81121   0.9419 
 6                    -10.16516   1.19581   1.34316 
 7                    -11.16772   1.77842   1.42093 
 6                    -7.7137    1.16796   1.32253 
 7                    -6.69343   1.72061   1.38383 
 6                    -5.81354  -2.10694   0.94706 
 7                    -4.80732  -1.52705   0.986 
 6                    -7.03318  -4.21723   0.73467 
 7                    -7.02914  -5.37142   0.59896 
 6                    -10.84123  -4.22666   0.84012 
 7                    -10.79428  -5.38523   0.76282 
 6                    -12.08046  -2.10472   0.98921 
 7                    -13.07348  -1.50212   1.02395 
 

 GradGradGradGradGradGradGradGradGradGradGradGradGradGradGradGradGradGrad
 Berny optimization.
 Initialization pass.
 Trust Radius=3.00D-01 FncErr=1.00D-07 GrdErr=1.00D-07 EigMax=2.50D+02 EigMin=1.00D-04
 Number of steps in this run=      2 maximum allowed number of steps=      2.
 GradGradGradGradGradGradGradGradGradGradGradGradGradGradGradGradGradGrad

                          Input orientation:                          
 ---------------------------------------------------------------------
 Center     Atomic      Atomic             Coordinates (Angstroms)
 Number     Number       Type             X           Y           Z
 ---------------------------------------------------------------------
      1          6           0       -8.951846   -0.915421    1.107282
      2          6           0       -8.947763    0.470996    1.249768
      3          6           0       -8.254237   -2.114096    0.983644
      4          6           0       -7.047693   -2.806415    0.896309
      5          6           0       -9.645067   -2.115455    0.996666
      6          6           0      -10.850650   -2.811209    0.941897
      7          6           0      -10.165164    1.195810    1.343157
      8          7           0      -11.167721    1.778415    1.420934
      9          6           0       -7.713701    1.167955    1.322525
     10          7           0       -6.693429    1.720612    1.383828
     11          6           0       -5.813535   -2.106939    0.947062
     12          7           0       -4.807316   -1.527050    0.986004
     13          6           0       -7.033182   -4.217231    0.734674
     14          7           0       -7.029139   -5.371415    0.598963
     15          6           0      -10.841230   -4.226663    0.840117
     16          7           0      -10.794276   -5.385232    0.762816
     17          6           0      -12.080463   -2.104716    0.989212
     18          7           0      -13.073480   -1.502122    1.023947
 ---------------------------------------------------------------------
                    Distance matrix (angstroms):
                    1          2          3          4          5
     1  C    0.000000
     2  C    1.393726   0.000000
     3  C    1.392395   2.689702   0.000000
     4  C    2.691870   3.804816   1.393801   0.000000
     5  C    1.390278   2.690729   1.390892   2.689582   0.000000
     6  C    2.688275   3.806393   2.688693   3.803233   1.393019
     7  C    2.446441   1.419908   3.838797   5.092750   3.369723
     8  N    3.502176   2.582025   4.881726   6.186318   4.202464
     9  C    2.433062   1.419139   3.343483   4.052265   3.823237
    10  N    3.482183   2.580995   4.159478   4.566964   4.855664
    11  C    3.360711   4.069492   2.440986   1.419503   3.831862
    12  N    4.191172   4.604896   3.496554   2.581494   4.873415
    13  C    3.836932   5.090227   2.444614   1.420118   3.362743
    14  N    4.879659   6.183723   3.501282   2.582244   4.195536
    15  C    3.821711   5.081440   3.343064   4.051072   2.431566
    16  N    4.846897   6.159719   4.147397   4.550275   3.473731
    17  C    3.349121   4.063987   3.826242   5.082301   2.435431
    18  N    4.164016   4.578834   4.858110   6.166650   3.482949
                    6          7          8          9         10
     6  C    0.000000
     7  C    4.084985   0.000000
     8  N    4.625436   1.162153   0.000000
     9  C    5.081247   2.451708   3.508931   0.000000
    10  N    6.165646   3.511412   4.474819   1.161956   0.000000
    11  C    5.086113   5.477382   6.632332   3.804804   3.951598
    12  N    6.178422   6.020636   7.181227   3.977861   3.776639
    13  C    4.073438   6.283356   7.315267   5.459753   5.982877
    14  N    4.612614   7.315526   8.302022   6.614797   7.143219
    15  C    1.419140   5.487561   6.041929   6.254284   7.271173
    16  N    2.580861   6.636467   7.203500   7.262746   8.227735
    17  C    1.419088   3.832378   4.012255   5.467183   6.618837
    18  N    2.580971   3.979828   3.814635   5.995472   7.156855
                   11         12         13         14         15
    11  C    0.000000
    12  N    1.162009   0.000000
    13  C    2.446626   3.500674   0.000000
    14  N    3.500810   4.457067   1.162143   0.000000
    15  C    5.457324   6.611907   3.809519   3.987562   0.000000
    16  N    5.965646   7.125944   3.938381   3.768726   1.162093
    17  C    6.267070   7.296052   5.477458   6.028224   2.461826
    18  N    7.285500   8.266288   6.628777   7.189304   3.527018
                   16         17         18
    16  N    0.000000
    17  C    3.530908   0.000000
    18  N    4.510155   1.162070   0.000000
 Symmetry turned off by external request.
 Stoichiometry    C12N6(1-,2)
 Framework group  C1[X(C12N6)]
 Deg. of freedom    48
 Full point group                 C1      NOp   1
 Rotational constants (GHZ):           0.4317807           0.4269499           0.2147233
 Standard basis: def2SVP (5D, 7F)
   252 basis functions,   450 primitive gaussians,   270 cartesian basis functions
    58 alpha electrons       57 beta electrons
       nuclear repulsion energy       965.5686609852 Hartrees.
 NAtoms=   18 NActive=   18 NUniq=   18 SFac= 1.00D+00 NAtFMM=   60 NAOKFM=F Big=F
 Integral buffers will be    131072 words long.
 Raffenetti 2 integral format.
 Two-electron integral symmetry is turned off.
 Nuclear repulsion after empirical dispersion term =      965.5569817654 Hartrees.
 Force PCM accuracy= 1.00D-10.
 ------------------------------------------------------------------------------
 Polarizable Continuum Model (PCM)
 =================================
 Model                : PCM (using non-symmetric T matrix).
 Atomic radii         : SMD-Coulomb.
 Polarization charges : Total charges.
 Charge compensation  : None.
 Solution method      : On-the-fly selection.
 Cavity type          : VdW (van der Waals Surface) (Alpha=1.000).
 Cavity algorithm     : GePol (No added spheres)
                        Default sphere list used, NSphG=   18.
                        Lebedev-Laikov grids with approx.  5.0 points / Ang**2.
                        Smoothing algorithm: York/Karplus (Gamma=1.0000).
                        Polarization charges: spherical gaussians, with
                                              point-specific exponents (IZeta= 3).
                        Self-potential: point-specific (ISelfS= 7).
                        Self-field    : sphere-specific E.n sum rule (ISelfD= 2).
 1st derivatives      : Analytical E(r).r(x)/FMM algorithm (CHGder, D1EAlg=3).
                        Cavity 1st derivative terms included.
 Solvent              : Acetonitrile, Eps=  35.688000 Eps(inf)=   1.806874
 ------------------------------------------------------------------------------
 Spheres list:
 ISph  on   Nord     Re0    Alpha      Xe            Ye            Ze
    1   C      1    1.8500  1.000     -8.951846     -0.915421      1.107282
    2   C      2    1.8500  1.000     -8.947763      0.470996      1.249768
    3   C      3    1.8500  1.000     -8.254237     -2.114096      0.983644
    4   C      4    1.8500  1.000     -7.047693     -2.806415      0.896309
    5   C      5    1.8500  1.000     -9.645067     -2.115455      0.996666
    6   C      6    1.8500  1.000    -10.850650     -2.811209      0.941897
    7   C      7    1.8500  1.000    -10.165164      1.195810      1.343157
    8   N      8    1.8900  1.000    -11.167721      1.778415      1.420934
    9   C      9    1.8500  1.000     -7.713701      1.167955      1.322525
   10   N     10    1.8900  1.000     -6.693429      1.720612      1.383828
   11   C     11    1.8500  1.000     -5.813535     -2.106939      0.947062
   12   N     12    1.8900  1.000     -4.807316     -1.527050      0.986004
   13   C     13    1.8500  1.000     -7.033182     -4.217231      0.734674
   14   N     14    1.8900  1.000     -7.029139     -5.371415      0.598963
   15   C     15    1.8500  1.000    -10.841230     -4.226663      0.840117
   16   N     16    1.8900  1.000    -10.794276     -5.385232      0.762816
   17   C     17    1.8500  1.000    -12.080463     -2.104716      0.989212
   18   N     18    1.8900  1.000    -13.073480     -1.502122      1.023947
 ------------------------------------------------------------------------------
 ------------------------------------------------------------------------------
 Atomic radii for non-electrostatic terms: SMD-CDS.
 ------------------------------------------------------------------------------
 Nuclear repulsion after PCM non-electrostatic terms =      965.5656861033 Hartrees.
 One-electron integrals computed using PRISM.
   1 Symmetry operations used in ECPInt.
 ECPInt:  NShTT=    5886 NPrTT=   23670 LenC2=    5404 LenP2D=   14964.
 LDataN:  DoStor=T MaxTD1= 4 Len=   56
 NBasis=   252 RedAO= T EigKep=  1.95D-04  NBF=   252
 NBsUse=   252 1.00D-06 EigRej= -1.00D+00 NBFU=   252
 Initial guess from the checkpoint file:  "b.chk"
 B after Tr=    -0.000046   -0.000019   -0.000372
         Rot=    1.000000   -0.000015   -0.000014    0.000002 Ang=  -0.00 deg.
 Initial guess <Sx>= 0.0000 <Sy>= 0.0000 <Sz>= 0.5000 <S**2>= 0.7871 S= 0.5184
 Requested convergence on RMS density matrix=1.00D-08 within  64 cycles.
 Requested convergence on MAX density matrix=1.00D-06.
 Requested convergence on             energy=1.00D-06.
 No special actions if energy rises.
 Inv3:  Mode=1 IEnd=    19263468.
 Iteration    1 A*A^-1 deviation from unit magnitude is 3.11D-15 for    244.
 Iteration    1 A*A^-1 deviation from orthogonality  is 2.47D-15 for    705    239.
 Iteration    1 A^-1*A deviation from unit magnitude is 2.89D-15 for   1700.
 Iteration    1 A^-1*A deviation from orthogonality  is 1.25D-12 for   1076   1065.
 Error on total polarization charges =  0.01950
 SCF Done:  E(UwB97XD) =  -784.860675094     A.U. after   12 cycles
            NFock= 12  Conv=0.59D-08     -V/T= 2.0098
 <Sx>= 0.0000 <Sy>= 0.0000 <Sz>= 0.5000 <S**2>= 0.7871 S= 0.5184
 <L.S>=  0.00000000000    
 SMD-CDS (non-electrostatic) energy       (kcal/mol) =       5.46
 (included in total energy above)
 Annihilation of the first spin contaminant:
 S**2 before annihilation     0.7871,   after     0.7511
 QCSCF skips out because SCF is already converged.

 **********************************************************************

            Population analysis using the SCF Density.

 **********************************************************************

 Alpha  occ. eigenvalues --  -14.45941 -14.45931 -14.45929 -14.45920 -14.45912
 Alpha  occ. eigenvalues --  -14.45901 -10.38249 -10.38185 -10.38163 -10.38047
 Alpha  occ. eigenvalues --  -10.38036 -10.38015 -10.36115 -10.36103 -10.36099
 Alpha  occ. eigenvalues --  -10.36091 -10.36081 -10.36070  -1.06687  -1.01959
 Alpha  occ. eigenvalues --   -1.01956  -1.01573  -1.00749  -1.00739  -1.00668
 Alpha  occ. eigenvalues --   -0.92074  -0.92048  -0.90105  -0.72252  -0.72197
 Alpha  occ. eigenvalues --   -0.68765  -0.68597  -0.68482  -0.67746  -0.55730
 Alpha  occ. eigenvalues --   -0.50896  -0.50887  -0.49761  -0.49687  -0.47621
 Alpha  occ. eigenvalues --   -0.47513  -0.47509  -0.47017  -0.46784  -0.46746
 Alpha  occ. eigenvalues --   -0.46631  -0.45190  -0.44863  -0.44848  -0.44687
 Alpha  occ. eigenvalues --   -0.44386  -0.44364  -0.42950  -0.42764  -0.42743
 Alpha  occ. eigenvalues --   -0.35272  -0.35264  -0.27996
 Alpha virt. eigenvalues --    0.04789   0.04856   0.06473   0.06876   0.06954
 Alpha virt. eigenvalues --    0.10214   0.10251   0.10520   0.10632   0.12409
 Alpha virt. eigenvalues --    0.12558   0.14491   0.19343   0.19390   0.20961
 Alpha virt. eigenvalues --    0.24809   0.25078   0.25113   0.26251   0.26311
 Alpha virt. eigenvalues --    0.27806   0.31560   0.31602   0.31608   0.33896
 Alpha virt. eigenvalues --    0.33979   0.35266   0.46487   0.46656   0.48594
 Alpha virt. eigenvalues --    0.48984   0.53199   0.53256   0.53279   0.53309
 Alpha virt. eigenvalues --    0.55009   0.55081   0.56057   0.57298   0.59467
 Alpha virt. eigenvalues --    0.60170   0.60193   0.60989   0.61090   0.62735
 Alpha virt. eigenvalues --    0.64061   0.68439   0.69651   0.69750   0.71707
 Alpha virt. eigenvalues --    0.71761   0.72749   0.72858   0.73125   0.73332
 Alpha virt. eigenvalues --    0.73417   0.73545   0.74566   0.74889   0.75727
 Alpha virt. eigenvalues --    0.79563   0.79808   0.79921   0.80983   0.81207
 Alpha virt. eigenvalues --    0.86538   0.86697   0.86892   0.87174   0.92814
 Alpha virt. eigenvalues --    0.92881   0.93062   0.93160   0.93829   0.94095
 Alpha virt. eigenvalues --    0.95852   0.98497   0.98539   0.99145   0.99341
 Alpha virt. eigenvalues --    1.00212   1.00306   1.02930   1.03210   1.03404
 Alpha virt. eigenvalues --    1.05860   1.06794   1.07500   1.07644   1.10448
 Alpha virt. eigenvalues --    1.10631   1.14918   1.16444   1.17972   1.18166
 Alpha virt. eigenvalues --    1.18946   1.22806   1.23125   1.23600   1.33281
 Alpha virt. eigenvalues --    1.36195   1.36322   1.38102   1.38216   1.41301
 Alpha virt. eigenvalues --    1.43577   1.43631   1.45556   1.45872   1.55803
 Alpha virt. eigenvalues --    1.60004   1.65875   1.68309   1.68387   1.68594
 Alpha virt. eigenvalues --    1.68764   1.68859   1.76466   1.76558   1.76692
 Alpha virt. eigenvalues --    1.77218   1.77862   1.79104   1.79158   1.79852
 Alpha virt. eigenvalues --    1.81911   1.82419   1.85228   1.92724   1.92887
 Alpha virt. eigenvalues --    1.92956   1.97795   1.99617   1.99796   2.03346
 Alpha virt. eigenvalues --    2.03472   2.06183   2.07135   2.12496   2.12675
 Alpha virt. eigenvalues --    2.17447   2.19548   2.19854   2.19989   2.26059
 Alpha virt. eigenvalues --    2.26936   2.27048   2.28731   2.33035   2.33044
 Alpha virt. eigenvalues --    2.33507   2.33578   2.33871   2.33972   2.34470
 Alpha virt. eigenvalues --    2.35428   2.35520   2.35692   2.35957   2.36070
 Alpha virt. eigenvalues --    2.37355   2.37412   2.56370   2.61948   2.62302
 Alpha virt. eigenvalues --    2.70589   2.70743   2.92707   2.94796   2.95034
 Alpha virt. eigenvalues --    2.95300   2.98517   2.98528   2.99167   3.02300
 Alpha virt. eigenvalues --    3.04814   3.04906   3.08298   3.08773   3.11637
 Alpha virt. eigenvalues --    3.11730   3.12233   3.23015   3.23365   3.28593
 Alpha virt. eigenvalues --    3.40754   3.40802   3.42377   3.53634   3.56886
 Alpha virt. eigenvalues --    3.56909   3.61647   3.61712   3.75329
  Beta  occ. eigenvalues --  -14.45749 -14.45738 -14.45736 -14.45728 -14.45720
  Beta  occ. eigenvalues --  -14.45710 -10.38285 -10.38222 -10.38199 -10.37696
  Beta  occ. eigenvalues --  -10.37684 -10.37663 -10.36207 -10.36195 -10.36191
  Beta  occ. eigenvalues --  -10.36183 -10.36173 -10.36162  -1.06292  -1.01608
  Beta  occ. eigenvalues --   -1.01605  -1.01219  -1.00419  -1.00408  -1.00338
  Beta  occ. eigenvalues --   -0.91310  -0.91283  -0.89129  -0.72120  -0.72061
  Beta  occ. eigenvalues --   -0.68549  -0.68382  -0.68220  -0.67587  -0.54958
  Beta  occ. eigenvalues --   -0.49686  -0.49596  -0.49580  -0.49542  -0.47261
  Beta  occ. eigenvalues --   -0.47154  -0.47150  -0.46658  -0.46502  -0.46466
  Beta  occ. eigenvalues --   -0.45470  -0.45087  -0.44241  -0.44220  -0.43930
  Beta  occ. eigenvalues --   -0.43913  -0.43883  -0.42805  -0.42623  -0.42603
  Beta  occ. eigenvalues --   -0.32274  -0.32258
  Beta virt. eigenvalues --   -0.10705   0.05485   0.05551   0.06584   0.06975
  Beta virt. eigenvalues --    0.07051   0.10519   0.11249   0.11286   0.11408
  Beta virt. eigenvalues --    0.12454   0.12601   0.14745   0.19538   0.19587
  Beta virt. eigenvalues --    0.22532   0.24732   0.26410   0.26441   0.26674
  Beta virt. eigenvalues --    0.26717   0.28014   0.32041   0.32104   0.32264
  Beta virt. eigenvalues --    0.33986   0.34087   0.35345   0.46610   0.46775
  Beta virt. eigenvalues --    0.48735   0.49052   0.53155   0.53180   0.53337
  Beta virt. eigenvalues --    0.53413   0.55164   0.55247   0.56207   0.57464
  Beta virt. eigenvalues --    0.59396   0.60056   0.60079   0.61003   0.61107
  Beta virt. eigenvalues --    0.62875   0.63930   0.68764   0.69814   0.69907
  Beta virt. eigenvalues --    0.71838   0.71890   0.72885   0.73000   0.73302
  Beta virt. eigenvalues --    0.73523   0.73610   0.73672   0.74700   0.75021
  Beta virt. eigenvalues --    0.75749   0.79817   0.79923   0.80534   0.81730
  Beta virt. eigenvalues --    0.81938   0.86792   0.86803   0.87017   0.87280
  Beta virt. eigenvalues --    0.92995   0.93060   0.93671   0.93757   0.94059
  Beta virt. eigenvalues --    0.94698   0.96564   0.99113   0.99137   0.99379
  Beta virt. eigenvalues --    0.99576   1.00353   1.00447   1.03066   1.03355
  Beta virt. eigenvalues --    1.03542   1.06180   1.06848   1.07823   1.07959
  Beta virt. eigenvalues --    1.10575   1.10758   1.15134   1.16779   1.18217
  Beta virt. eigenvalues --    1.18416   1.19227   1.23050   1.23333   1.24140
  Beta virt. eigenvalues --    1.33432   1.36383   1.36508   1.38664   1.38782
  Beta virt. eigenvalues --    1.42066   1.44292   1.44338   1.45639   1.45952
  Beta virt. eigenvalues --    1.55859   1.60039   1.65710   1.68091   1.68168
  Beta virt. eigenvalues --    1.68372   1.68549   1.68645   1.76520   1.76629
  Beta virt. eigenvalues --    1.76745   1.77081   1.77753   1.79000   1.79046
  Beta virt. eigenvalues --    1.80102   1.81844   1.82354   1.85137   1.92778
  Beta virt. eigenvalues --    1.92910   1.93078   1.97968   2.00209   2.00388
  Beta virt. eigenvalues --    2.03695   2.03822   2.06979   2.07290   2.13015
  Beta virt. eigenvalues --    2.13181   2.17722   2.20645   2.20821   2.20953
  Beta virt. eigenvalues --    2.26594   2.27528   2.27638   2.29221   2.33713
  Beta virt. eigenvalues --    2.33722   2.34169   2.34248   2.34557   2.34657
  Beta virt. eigenvalues --    2.35129   2.35913   2.36137   2.36171   2.36467
  Beta virt. eigenvalues --    2.36541   2.38085   2.38164   2.56833   2.62022
  Beta virt. eigenvalues --    2.62379   2.71015   2.71169   2.92797   2.94928
  Beta virt. eigenvalues --    2.95183   2.95483   2.98680   2.98693   2.99287
  Beta virt. eigenvalues --    3.02802   3.05337   3.05430   3.08457   3.08932
  Beta virt. eigenvalues --    3.12140   3.12233   3.12733   3.23259   3.23609
  Beta virt. eigenvalues --    3.28784   3.40956   3.41005   3.42569   3.53815
  Beta virt. eigenvalues --    3.57068   3.57090   3.61841   3.61906   3.75483
          Condensed to atoms (all electrons):
               1          2          3          4          5          6
     1  C    4.913625   0.542284   0.295684  -0.104609   0.297696  -0.104281
     2  C    0.542284   5.328838  -0.103509  -0.008503  -0.105141  -0.008106
     3  C    0.295684  -0.103509   4.911471   0.541612   0.297080  -0.103904
     4  C   -0.104609  -0.008503   0.541612   5.332021  -0.105166  -0.008329
     5  C    0.297696  -0.105141   0.297080  -0.105166   4.916899   0.543827
     6  C   -0.104281  -0.008106  -0.103904  -0.008329   0.543827   5.325197
     7  C    0.005761   0.391121   0.005508  -0.000494  -0.022535   0.002488
     8  N   -0.001730  -0.029022  -0.000065  -0.000001  -0.000486   0.000122
     9  C    0.009403   0.393829  -0.022687   0.002601   0.005949  -0.000471
    10  N   -0.001744  -0.028450  -0.000498   0.000142  -0.000058  -0.000001
    11  C   -0.021861   0.002625   0.007803   0.393656   0.005531  -0.000481
    12  N   -0.000462   0.000128  -0.001770  -0.028774  -0.000068  -0.000001
    13  C    0.005284  -0.000504   0.006832   0.392713  -0.022171   0.002513
    14  N   -0.000070  -0.000001  -0.001773  -0.028948  -0.000477   0.000124
    15  C    0.006388  -0.000464  -0.023530   0.002641   0.008257   0.391107
    16  N   -0.000045  -0.000001  -0.000552   0.000161  -0.001677  -0.028644
    17  C   -0.023634   0.002506   0.006009  -0.000492   0.007761   0.390279
    18  N   -0.000537   0.000142  -0.000052  -0.000001  -0.001659  -0.028879
               7          8          9         10         11         12
     1  C    0.005761  -0.001730   0.009403  -0.001744  -0.021861  -0.000462
     2  C    0.391121  -0.029022   0.393829  -0.028450   0.002625   0.000128
     3  C    0.005508  -0.000065  -0.022687  -0.000498   0.007803  -0.001770
     4  C   -0.000494  -0.000001   0.002601   0.000142   0.393656  -0.028774
     5  C   -0.022535  -0.000486   0.005949  -0.000058   0.005531  -0.000068
     6  C    0.002488   0.000122  -0.000471  -0.000001  -0.000481  -0.000001
     7  C    4.845660   0.907558  -0.052707   0.002066   0.000116   0.000002
     8  N    0.907558   6.104135   0.001914   0.000067   0.000000   0.000000
     9  C   -0.052707   0.001914   4.842159   0.907118  -0.000400   0.000095
    10  N    0.002066   0.000067   0.907118   6.106602   0.000252  -0.000763
    11  C    0.000116   0.000000  -0.000400   0.000252   4.842893   0.907831
    12  N    0.000002   0.000000   0.000095  -0.000763   0.907831   6.104742
    13  C   -0.000014  -0.000000   0.000121   0.000002  -0.052955   0.001956
    14  N   -0.000000  -0.000000   0.000000   0.000000   0.001901   0.000068
    15  C    0.000112   0.000002  -0.000014  -0.000000   0.000120   0.000000
    16  N    0.000000   0.000000  -0.000000  -0.000000   0.000002   0.000000
    17  C   -0.000413   0.000067   0.000117   0.000000  -0.000014  -0.000000
    18  N    0.000245  -0.000718   0.000002   0.000000  -0.000000  -0.000000
              13         14         15         16         17         18
     1  C    0.005284  -0.000070   0.006388  -0.000045  -0.023634  -0.000537
     2  C   -0.000504  -0.000001  -0.000464  -0.000001   0.002506   0.000142
     3  C    0.006832  -0.001773  -0.023530  -0.000552   0.006009  -0.000052
     4  C    0.392713  -0.028948   0.002641   0.000161  -0.000492  -0.000001
     5  C   -0.022171  -0.000477   0.008257  -0.001677   0.007761  -0.001659
     6  C    0.002513   0.000124   0.391107  -0.028644   0.390279  -0.028879
     7  C   -0.000014  -0.000000   0.000112   0.000000  -0.000413   0.000245
     8  N   -0.000000  -0.000000   0.000002   0.000000   0.000067  -0.000718
     9  C    0.000121   0.000000  -0.000014  -0.000000   0.000117   0.000002
    10  N    0.000002   0.000000  -0.000000  -0.000000   0.000000   0.000000
    11  C   -0.052955   0.001901   0.000120   0.000002  -0.000014  -0.000000
    12  N    0.001956   0.000068   0.000000   0.000000  -0.000000  -0.000000
    13  C    4.844507   0.907926  -0.000429   0.000335   0.000114   0.000000
    14  N    0.907926   6.104047   0.000036  -0.000768   0.000002   0.000000
    15  C   -0.000429   0.000036   4.844154   0.906371  -0.051579   0.002058
    16  N    0.000335  -0.000768   0.906371   6.107626   0.002142   0.000064
    17  C    0.000114   0.000002  -0.051579   0.002142   4.845252   0.906425
    18  N    0.000000   0.000000   0.002058   0.000064   0.906425   6.106800
          Atomic-Atomic Spin Densities.
               1          2          3          4          5          6
     1  C   -0.047439  -0.066491   0.036082  -0.005938   0.036202  -0.005938
     2  C   -0.066491   0.383297  -0.005962   0.000980  -0.005922   0.000987
     3  C    0.036082  -0.005962  -0.047555  -0.066499   0.036108  -0.005934
     4  C   -0.005938   0.000980  -0.066499   0.383249  -0.005967   0.000994
     5  C    0.036202  -0.005922   0.036108  -0.005967  -0.047047  -0.066561
     6  C   -0.005938   0.000987  -0.005934   0.000994  -0.066561   0.383462
     7  C    0.000438   0.005022  -0.000136  -0.000014   0.000372  -0.000066
     8  N    0.000501  -0.005390   0.000009  -0.000000   0.000033  -0.000025
     9  C    0.000391   0.004909   0.000381  -0.000073  -0.000155  -0.000015
    10  N    0.000535  -0.005424   0.000036  -0.000030   0.000010  -0.000000
    11  C    0.000366  -0.000070   0.000442   0.004943  -0.000148  -0.000014
    12  N    0.000034  -0.000026   0.000510  -0.005396   0.000009  -0.000000
    13  C   -0.000141  -0.000014   0.000387   0.004971   0.000372  -0.000068
    14  N    0.000009  -0.000000   0.000502  -0.005371   0.000033  -0.000026
    15  C   -0.000153  -0.000015   0.000385  -0.000075   0.000400   0.004934
    16  N    0.000010  -0.000000   0.000037  -0.000032   0.000553  -0.005443
    17  C    0.000393  -0.000071  -0.000146  -0.000015   0.000406   0.005028
    18  N    0.000036  -0.000029   0.000010  -0.000000   0.000533  -0.005448
               7          8          9         10         11         12
     1  C    0.000438   0.000501   0.000391   0.000535   0.000366   0.000034
     2  C    0.005022  -0.005390   0.004909  -0.005424  -0.000070  -0.000026
     3  C   -0.000136   0.000009   0.000381   0.000036   0.000442   0.000510
     4  C   -0.000014  -0.000000  -0.000073  -0.000030   0.004943  -0.005396
     5  C    0.000372   0.000033  -0.000155   0.000010  -0.000148   0.000009
     6  C   -0.000066  -0.000025  -0.000015  -0.000000  -0.000014  -0.000000
     7  C   -0.076178  -0.001642  -0.000334   0.000137  -0.000003   0.000000
     8  N   -0.001642   0.118081   0.000150   0.000010  -0.000000   0.000000
     9  C   -0.000334   0.000150  -0.075813  -0.001596   0.000017   0.000016
    10  N    0.000137   0.000010  -0.001596   0.117664   0.000015   0.000039
    11  C   -0.000003  -0.000000   0.000017   0.000015  -0.075929  -0.001607
    12  N    0.000000   0.000000   0.000016   0.000039  -0.001607   0.117882
    13  C    0.000000  -0.000000  -0.000003   0.000000  -0.000331   0.000149
    14  N   -0.000000   0.000000  -0.000000   0.000000   0.000151   0.000010
    15  C   -0.000003   0.000000   0.000000  -0.000000  -0.000003  -0.000000
    16  N   -0.000000   0.000000  -0.000000   0.000000   0.000000   0.000000
    17  C    0.000016   0.000015  -0.000003  -0.000000   0.000000  -0.000000
    18  N    0.000014   0.000034   0.000000   0.000000  -0.000000   0.000000
              13         14         15         16         17         18
     1  C   -0.000141   0.000009  -0.000153   0.000010   0.000393   0.000036
     2  C   -0.000014  -0.000000  -0.000015  -0.000000  -0.000071  -0.000029
     3  C    0.000387   0.000502   0.000385   0.000037  -0.000146   0.000010
     4  C    0.004971  -0.005371  -0.000075  -0.000032  -0.000015  -0.000000
     5  C    0.000372   0.000033   0.000400   0.000553   0.000406   0.000533
     6  C   -0.000068  -0.000026   0.004934  -0.005443   0.005028  -0.005448
     7  C    0.000000  -0.000000  -0.000003  -0.000000   0.000016   0.000014
     8  N   -0.000000   0.000000   0.000000   0.000000   0.000015   0.000034
     9  C   -0.000003  -0.000000   0.000000  -0.000000  -0.000003   0.000000
    10  N    0.000000   0.000000  -0.000000   0.000000  -0.000000   0.000000
    11  C   -0.000331   0.000151  -0.000003   0.000000   0.000000  -0.000000
    12  N    0.000149   0.000010  -0.000000   0.000000  -0.000000   0.000000
    13  C   -0.076029  -0.001613   0.000017   0.000015  -0.000003  -0.000000
    14  N   -0.001613   0.117794   0.000016   0.000040   0.000000   0.000000
    15  C    0.000017   0.000016  -0.075922  -0.001601  -0.000340   0.000135
    16  N    0.000015   0.000040  -0.001601   0.117665   0.000124   0.000009
    17  C   -0.000003   0.000000  -0.000340   0.000124  -0.076044  -0.001633
    18  N   -0.000000   0.000000   0.000135   0.000009  -0.001633   0.117938
 Mulliken charges and spin densities:
               1          2
     1  C    0.182847  -0.051105
     2  C   -0.377771   0.305780
     3  C    0.186342  -0.051344
     4  C   -0.380231   0.305727
     5  C    0.176437  -0.050769
     6  C   -0.372560   0.305867
     7  C   -0.084475  -0.072378
     8  N    0.018157   0.111775
     9  C   -0.087030  -0.072130
    10  N    0.015263   0.111395
    11  C   -0.087019  -0.072172
    12  N    0.017015   0.111621
    13  C   -0.086229  -0.072291
    14  N    0.017934   0.111545
    15  C   -0.085231  -0.072225
    16  N    0.014986   0.111376
    17  C   -0.084544  -0.072272
    18  N    0.016110   0.111598
 Sum of Mulliken charges =  -1.00000   1.00000
 Mulliken charges and spin densities with hydrogens summed into heavy atoms:
               1          2
     1  C    0.182847  -0.051105
     2  C   -0.377771   0.305780
     3  C    0.186342  -0.051344
     4  C   -0.380231   0.305727
     5  C    0.176437  -0.050769
     6  C   -0.372560   0.305867
     7  C   -0.084475  -0.072378
     8  N    0.018157   0.111775
     9  C   -0.087030  -0.072130
    10  N    0.015263   0.111395
    11  C   -0.087019  -0.072172
    12  N    0.017015   0.111621
    13  C   -0.086229  -0.072291
    14  N    0.017934   0.111545
    15  C   -0.085231  -0.072225
    16  N    0.014986   0.111376
    17  C   -0.084544  -0.072272
    18  N    0.016110   0.111598
 Electronic spatial extent (au):  <R**2>=          38984.5801
 Charge=             -1.0000 electrons
 Dipole moment (field-independent basis, Debye):
    X=             42.7443    Y=              8.2259    Z=             -4.9457  Tot=             43.8086
 Quadrupole moment (field-independent basis, Debye-Ang):
   XX=           -551.6934   YY=           -184.9701   ZZ=           -104.1193
   XY=            -72.5015   XZ=             44.7490   YZ=              1.2271
 Traceless Quadrupole moment (field-independent basis, Debye-Ang):
   XX=           -271.4325   YY=             95.2908   ZZ=            176.1416
   XY=            -72.5015   XZ=             44.7490   YZ=              1.2271
 Octapole moment (field-independent basis, Debye-Ang**2):
  XXX=           7976.5926  YYY=            970.4073  ZZZ=           -311.0242  XYY=           1650.4508
  XXY=            864.2726  XXZ=           -585.9098  XZZ=            931.8009  YZZ=            163.9796
  YYZ=           -160.9238  XYZ=            -12.3493
 Hexadecapole moment (field-independent basis, Debye-Ang**3):
 XXXX=        -116482.2332 YYYY=          -7791.8436 ZZZZ=           -763.7319 XXXY=         -11654.4522
 XXXZ=           8538.7372 YYYX=          -8647.9158 YYYZ=            640.7959 ZZZX=           2798.8680
 ZZZY=            359.7993 XXYY=         -16424.7254 XXZZ=          -9071.9564 YYZZ=           -974.0292
 XXYZ=            272.5234 YYXZ=           1458.1396 ZZXY=          -1465.2285
 N-N= 9.655656861033D+02 E-N=-3.766439670877D+03  KE= 7.772717262175D+02
                          Isotropic Fermi Contact Couplings
        Atom                 a.u.       MegaHertz       Gauss      10(-4) cm-1
     1  C(13)             -0.01765     -19.83693      -7.07831      -6.61689
     2  C(13)              0.05022      56.45349      20.14401      18.83086
     3  C(13)             -0.01770     -19.89660      -7.09960      -6.63679
     4  C(13)              0.05022      56.46047      20.14650      18.83319
     5  C(13)             -0.01758     -19.76499      -7.05264      -6.59289
     6  C(13)              0.05013      56.35236      20.10792      18.79712
     7  C(13)             -0.03256     -36.59888     -13.05939     -12.20807
     8  N(14)              0.02596       8.38930       2.99351       2.79837
     9  C(13)             -0.03245     -36.48142     -13.01748     -12.16889
    10  N(14)              0.02586       8.35469       2.98116       2.78683
    11  C(13)             -0.03249     -36.52032     -13.03136     -12.18187
    12  N(14)              0.02591       8.37200       2.98734       2.79260
    13  C(13)             -0.03253     -36.56966     -13.04896     -12.19833
    14  N(14)              0.02590       8.36727       2.98565       2.79102
    15  C(13)             -0.03249     -36.52934     -13.03458     -12.18488
    16  N(14)              0.02586       8.35574       2.98154       2.78718
    17  C(13)             -0.03250     -36.53930     -13.03813     -12.18820
    18  N(14)              0.02592       8.37585       2.98871       2.79388
 --------------------------------------------------------
       Center         ----  Spin Dipole Couplings  ----
                      3XX-RR        3YY-RR        3ZZ-RR
 --------------------------------------------------------
     1   Atom        0.000787      0.023471     -0.024258
     2   Atom       -0.159787     -0.156549      0.316336
     3   Atom        0.018275      0.006235     -0.024510
     4   Atom       -0.161496     -0.154557      0.316053
     5   Atom        0.017779      0.005822     -0.023601
     6   Atom       -0.161668     -0.157874      0.319542
     7   Atom        0.036894      0.009260     -0.046155
     8   Atom       -0.112411     -0.091658      0.204069
     9   Atom        0.038014      0.007982     -0.045996
    10   Atom       -0.113024     -0.090272      0.203295
    11   Atom        0.035649      0.010532     -0.046181
    12   Atom       -0.112536     -0.091466      0.204002
    13   Atom       -0.002718      0.048260     -0.045542
    14   Atom       -0.085995     -0.116643      0.202638
    15   Atom       -0.002696      0.048860     -0.046164
    16   Atom       -0.085884     -0.119801      0.205685
    17   Atom        0.035076      0.011399     -0.046475
    18   Atom       -0.111951     -0.094229      0.206180
 --------------------------------------------------------
                        XY            XZ            YZ
 --------------------------------------------------------
     1   Atom        0.000318     -0.002626      0.003984
     2   Atom       -0.000323      0.003484     -0.052220
     3   Atom       -0.010025      0.000243      0.003857
     4   Atom        0.000190      0.008416     -0.052713
     5   Atom        0.009983      0.000235      0.004017
     6   Atom       -0.000932     -0.000877     -0.035289
     7   Atom       -0.022228     -0.003306      0.006249
     8   Atom        0.014840      0.006826     -0.033404
     9   Atom        0.021482      0.002170      0.006089
    10   Atom       -0.014791     -0.001543     -0.033754
    11   Atom        0.023125      0.000695      0.005738
    12   Atom       -0.015941      0.005976     -0.031793
    13   Atom        0.000778     -0.000450      0.010743
    14   Atom       -0.000217      0.003882     -0.039047
    15   Atom       -0.002248      0.000096      0.006769
    16   Atom        0.001459     -0.001529     -0.021076
    17   Atom       -0.023374     -0.001413      0.003975
    18   Atom        0.015817     -0.001486     -0.019878
 --------------------------------------------------------


 ---------------------------------------------------------------------------------
              Anisotropic Spin Dipole Couplings in Principal Axis System
 ---------------------------------------------------------------------------------

       Atom             a.u.   MegaHertz   Gauss  10(-4) cm-1        Axes

              Baa    -0.0249    -3.336    -1.190    -1.113  0.1025 -0.0824  0.9913
     1 C(13)  Bbb     0.0011     0.142     0.051     0.047  0.9947  0.0041 -0.1025
              Bcc     0.0238     3.194     1.140     1.065  0.0044  0.9966  0.0824
 
              Baa    -0.1622   -21.772    -7.769    -7.262 -0.0235  0.9938  0.1086
     2 C(13)  Bbb    -0.1598   -21.445    -7.652    -7.153  0.9997  0.0241 -0.0047
              Bcc     0.3221    43.217    15.421    14.416  0.0073 -0.1085  0.9941
 
              Baa    -0.0250    -3.360    -1.199    -1.121 -0.0365 -0.1339  0.9903
     3 C(13)  Bbb     0.0010     0.139     0.049     0.046  0.4967  0.8575  0.1342
              Bcc     0.0240     3.222     1.150     1.075  0.8672 -0.4968 -0.0352
 
              Baa    -0.1623   -21.778    -7.771    -7.264  0.8628 -0.5006 -0.0703
     4 C(13)  Bbb    -0.1597   -21.435    -7.649    -7.150  0.5053  0.8587  0.0862
              Bcc     0.3220    43.213    15.420    14.414  0.0173 -0.1099  0.9938
 
              Baa    -0.0242    -3.243    -1.157    -1.082  0.0282 -0.1419  0.9895
     5 C(13)  Bbb     0.0006     0.085     0.030     0.028 -0.4998  0.8553  0.1369
              Bcc     0.0235     3.159     1.127     1.054  0.8657  0.4984  0.0468
 
              Baa    -0.1622   -21.770    -7.768    -7.262  0.8709  0.4900  0.0375
     6 C(13)  Bbb    -0.1599   -21.458    -7.657    -7.158 -0.4914  0.8687  0.0630
              Bcc     0.3221    43.228    15.425    14.419 -0.0017 -0.0733  0.9973
 
              Baa    -0.0469    -6.288    -2.244    -2.097  0.0110 -0.1063  0.9943
     7 C(13)  Bbb    -0.0028    -0.370    -0.132    -0.123  0.4926  0.8659  0.0871
              Bcc     0.0496     6.658     2.376     2.221  0.8702 -0.4889 -0.0619
 
              Baa    -0.1216    -4.692    -1.674    -1.565  0.8610 -0.5037 -0.0697
     8 N(14)  Bbb    -0.0862    -3.326    -1.187    -1.109  0.5083  0.8568  0.0866
              Bcc     0.2079     8.017     2.861     2.674  0.0161 -0.1100  0.9938
 
              Baa    -0.0467    -6.263    -2.235    -2.089  0.0029 -0.1119  0.9937
     9 C(13)  Bbb    -0.0028    -0.372    -0.133    -0.124 -0.4679  0.8781  0.1002
              Bcc     0.0494     6.635     2.367     2.213  0.8838  0.4652  0.0498
 
              Baa    -0.1212    -4.674    -1.668    -1.559  0.8766  0.4782  0.0539
    10 N(14)  Bbb    -0.0859    -3.314    -1.183    -1.106 -0.4813  0.8710  0.0991
              Bcc     0.2071     7.988     2.850     2.665  0.0004 -0.1128  0.9936
 
              Baa    -0.0468    -6.279    -2.240    -2.094  0.0220 -0.1084  0.9939
    11 C(13)  Bbb    -0.0027    -0.368    -0.131    -0.123 -0.5145  0.8511  0.1042
              Bcc     0.0495     6.647     2.372     2.217  0.8572  0.5137  0.0370
 
              Baa    -0.1214    -4.683    -1.671    -1.562  0.8676  0.4961  0.0325
    12 N(14)  Bbb    -0.0861    -3.322    -1.185    -1.108 -0.4966  0.8616  0.1046
              Bcc     0.2076     8.005     2.857     2.670  0.0239 -0.1070  0.9940
 
              Baa    -0.0468    -6.275    -2.239    -2.093  0.0121 -0.1124  0.9936
    13 C(13)  Bbb    -0.0027    -0.365    -0.130    -0.122  0.9998 -0.0124 -0.0136
              Bcc     0.0495     6.640     2.369     2.215  0.0138  0.9936  0.1123
 
              Baa    -0.1214    -4.680    -1.670    -1.561 -0.0070  0.9928  0.1197
    14 N(14)  Bbb    -0.0860    -3.319    -1.184    -1.107  0.9999  0.0086 -0.0123
              Bcc     0.2074     7.999     2.854     2.668  0.0132 -0.1196  0.9927
 
              Baa    -0.0466    -6.259    -2.233    -2.088 -0.0058 -0.0708  0.9975
    15 C(13)  Bbb    -0.0028    -0.374    -0.134    -0.125  0.9991  0.0423  0.0088
              Bcc     0.0494     6.634     2.367     2.213 -0.0428  0.9966  0.0705
 
              Baa    -0.1212    -4.675    -1.668    -1.559 -0.0384  0.9972  0.0641
    16 N(14)  Bbb    -0.0858    -3.311    -1.181    -1.104  0.9992  0.0380  0.0080
              Bcc     0.2071     7.986     2.849     2.664 -0.0055 -0.0644  0.9979
 
              Baa    -0.0467    -6.273    -2.238    -2.092 -0.0025 -0.0692  0.9976
    17 C(13)  Bbb    -0.0028    -0.376    -0.134    -0.125  0.5258  0.8485  0.0602
              Bcc     0.0496     6.649     2.373     2.218  0.8506 -0.5247 -0.0342
 
              Baa    -0.1215    -4.684    -1.672    -1.563  0.8556 -0.5170 -0.0275
    18 N(14)  Bbb    -0.0860    -3.319    -1.184    -1.107  0.5176  0.8534  0.0607
              Bcc     0.2075     8.003     2.856     2.670 -0.0079 -0.0661  0.9978
 

 ---------------------------------------------------------------------------------

   1 Symmetry operations used in ECPInt.
 ECPInt:  NShTT=    5886 NPrTT=   23670 LenC2=    5404 LenP2D=   14964.
 LDataN:  DoStor=T MaxTD1= 5 Len=  102
 D1PCM: PCM CHGder 1st derivatives, ID1Alg=3 FixD1E=F DoIter=F DoCFld=F I1PDM=0.
 Calling FoFJK, ICntrl=      2127 FMM=F ISym2X=0 I1Cent= 0 IOpClX= 1 NMat=1 NMatS=1 NMatT=0.
 -------------------------------------------------------------------
 Center     Atomic                   Forces (Hartrees/Bohr)
 Number     Number              X              Y              Z
 -------------------------------------------------------------------
      1        6           0.000217610    0.020170873    0.001947490
      2        6           0.000242596   -0.013556720   -0.001116950
      3        6           0.017519185   -0.010020042   -0.001048704
      4        6          -0.011660513    0.006853047    0.000522115
      5        6          -0.017535602   -0.010009777   -0.000859507
      6        6           0.011774095    0.006713215    0.000516154
      7        6          -0.006912099    0.003073865    0.000401369
      8        7           0.004400627   -0.002802481   -0.000413331
      9        6           0.007135247    0.003659716    0.000482265
     10        7          -0.004020315   -0.002205268   -0.000347459
     11        6           0.006615665    0.004331748    0.000210364
     12        7          -0.004302887   -0.002132467   -0.000027510
     13        6          -0.000735595   -0.007608722   -0.000753037
     14        7          -0.000322949    0.005106938    0.000663086
     15        6           0.000715450   -0.007911547   -0.000672332
     16        7          -0.000644245    0.004904288    0.000202257
     17        6          -0.006645786    0.004085490    0.000339966
     18        7           0.004159514   -0.002652157   -0.000046235
 -------------------------------------------------------------------
 Cartesian Forces:  Max     0.020170873 RMS     0.006519087

 GradGradGradGradGradGradGradGradGradGradGradGradGradGradGradGradGradGrad
 Berny optimization.
 Search for a local minimum.
 Step number   1 out of a maximum of    2
 All quantities printed in internal units (Hartrees-Bohrs-Radians)
 Second derivative matrix not updated -- first step.
 ITU=  0
     Eigenvalues ---    0.00129   0.00146   0.00198   0.00300   0.00301
     Eigenvalues ---    0.00817   0.01537   0.01722   0.01989   0.02015
     Eigenvalues ---    0.03002   0.04115   0.05335   0.05362   0.10303
     Eigenvalues ---    0.15166   0.21337   0.21509   0.24393   0.24700
     Eigenvalues ---    0.25064   0.25739   0.25960   0.30089   0.30282
     Eigenvalues ---    0.36052   0.41813   0.48344   0.79220   0.79729
     Eigenvalues ---    0.81812   0.99412   1.00820   1.04631   1.04957
     Eigenvalues ---    1.12154   1.59974   1.60445   2.06151   2.78838
     Eigenvalues ---    2.78958   2.79162   2.84154   2.84275   2.84406
     Eigenvalues ---   31.61046  65.55883 120.77648
 Angle between quadratic step and forces=  79.94 degrees.
 Linear search not attempted -- first point.
 B after Tr=    -0.000212    0.000056   -0.000046
         Rot=    1.000000   -0.000000   -0.000001   -0.000002 Ang=  -0.00 deg.
 Variable       Old X    -DE/DX   Delta X   Delta X   Delta X     New X
                                 (Linear)    (Quad)   (Total)
    X1      -16.91654   0.00022   0.00000   0.00910   0.00890 -16.90763
    Y1       -1.72990   0.02017   0.00000   0.00541   0.00540  -1.72449
    Z1        2.09246   0.00195   0.00000   0.00341   0.00340   2.09586
    X2      -16.90882   0.00024   0.00000   0.01031   0.01010 -16.89872
    Y2        0.89005  -0.01356   0.00000  -0.01991  -0.01992   0.87014
    Z2        2.36172  -0.00112   0.00000   0.00104   0.00103   2.36275
    X3      -15.59825   0.01752   0.00000   0.01180   0.01161 -15.58664
    Y3       -3.99506  -0.01002   0.00000  -0.00290  -0.00290  -3.99796
    Z3        1.85882  -0.00105   0.00000  -0.00061  -0.00063   1.85819
    X4      -13.31821  -0.01166   0.00000  -0.01032  -0.01051 -13.32872
    Y4       -5.30336   0.00685   0.00000   0.01160   0.01161  -5.29175
    Z4        1.69378   0.00052   0.00000  -0.00053  -0.00055   1.69323
    X5      -18.22654  -0.01754   0.00000   0.00078   0.00059 -18.22595
    Y5       -3.99763  -0.01001   0.00000  -0.00314  -0.00316  -4.00079
    Z5        1.88342  -0.00086   0.00000   0.00062   0.00061   1.88404
    X6      -20.50476   0.01177   0.00000   0.01971   0.01952 -20.48523
    Y6       -5.31242   0.00671   0.00000   0.00977   0.00975  -5.30267
    Z6        1.77993   0.00052   0.00000   0.00035   0.00034   1.78027
    X7      -19.20938  -0.00691   0.00000  -0.00465  -0.00487 -19.21424
    Y7        2.25975   0.00307   0.00000  -0.03194  -0.03196   2.22780
    Z7        2.53820   0.00040   0.00000  -0.01865  -0.01865   2.51955
    X8      -21.10393   0.00440   0.00000  -0.01149  -0.01171 -21.11564
    Y8        3.36072  -0.00280   0.00000  -0.04952  -0.04954   3.31117
    Z8        2.68518  -0.00041   0.00000  -0.03687  -0.03687   2.64830
    X9      -14.57678   0.00714   0.00000   0.01483   0.01462 -14.56216
    Y9        2.20712   0.00366   0.00000  -0.01142  -0.01142   2.19570
    Z9        2.49921   0.00048   0.00000   0.00001  -0.00001   2.49920
   X10      -12.64875  -0.00402   0.00000   0.00976   0.00954 -12.63920
   Y10        3.25149  -0.00221   0.00000  -0.00956  -0.00955   3.24193
   Z10        2.61506  -0.00035   0.00000  -0.00121  -0.00122   2.61383
   X11      -10.98599   0.00662   0.00000  -0.00815  -0.00834 -10.99433
   Y11       -3.98154   0.00433   0.00000   0.02272   0.02273  -3.95881
   Z11        1.78969   0.00021   0.00000  -0.00278  -0.00281   1.78688
   X12       -9.08451  -0.00430   0.00000  -0.01779  -0.01799  -9.10250
   Y12       -2.88571  -0.00213   0.00000   0.03187   0.03189  -2.85382
   Z12        1.86328  -0.00003   0.00000  -0.00294  -0.00297   1.86031
   X13      -13.29079  -0.00074   0.00000  -0.02431  -0.02449 -13.31528
   Y13       -7.96941  -0.00761   0.00000   0.00301   0.00301  -7.96640
   Z13        1.38833  -0.00075   0.00000   0.02177   0.02175   1.41009
   X14      -13.28315  -0.00032   0.00000  -0.04163  -0.04180 -13.32495
   Y14      -10.15050   0.00511   0.00000   0.00454   0.00454 -10.14596
   Z14        1.13188   0.00066   0.00000   0.04314   0.04312   1.17499
   X15      -20.48696   0.00072   0.00000   0.01282   0.01264 -20.47432
   Y15       -7.98724  -0.00791   0.00000   0.00523   0.00521  -7.98203
   Z15        1.58759  -0.00067   0.00000  -0.03652  -0.03652   1.55107
   X16      -20.39823  -0.00064   0.00000  -0.00160  -0.00177 -20.39999
   Y16      -10.17661   0.00490   0.00000   0.01065   0.01063 -10.16598
   Z16        1.44151   0.00020   0.00000  -0.06789  -0.06790   1.37362
   X17      -22.82877  -0.00665   0.00000   0.01545   0.01525 -22.81351
   Y17       -3.97734   0.00409   0.00000   0.01362   0.01359  -3.96375
   Z17        1.86934   0.00034   0.00000   0.03466   0.03466   1.90400
   X18      -24.70530   0.00416   0.00000   0.01889   0.01869 -24.68660
   Y18       -2.83860  -0.00265   0.00000   0.01013   0.01009  -2.82851
   Z18        1.93498  -0.00005   0.00000   0.06321   0.06321   1.99819
         Item               Value     Threshold  Converged?
 Maximum Force            0.020171     0.000450     NO 
 RMS     Force            0.006519     0.000300     NO 
 Maximum Displacement     0.067897     0.001800     NO 
 RMS     Displacement     0.022083     0.001200     NO 
 Predicted change in Energy=-6.791012D-04
 GradGradGradGradGradGradGradGradGradGradGradGradGradGradGradGradGradGrad

 Unable to Open any file for archive entry.
 1\1\GINC-X10P1N4\Force\UwB97XD\def2SVP\C12N6(1-,2)\MAYUMIAO\11-Oct-202
 4\0\\# wb97xd def2svp scrf=(smd,solvent=acetonitrile) g09default scf=(
 xqc,maxcycle=64) force guess=read nosymm\\Title Card\\-1,2\C,-8.951845
 85,-0.91542131,1.1072821\C,-8.94776343,0.47099573,1.24976801\C,-8.2542
 3673,-2.11409561,0.98364358\C,-7.04769336,-2.8064155,0.89630949\C,-9.6
 4506724,-2.11545484,0.99666558\C,-10.85065,-2.81120906,0.94189728\C,-1
 0.1651636,1.19580974,1.34315713\N,-11.16772089,1.77841503,1.42093368\C
 ,-7.71370103,1.16795537,1.3225252\N,-6.69342916,1.72061249,1.38382781\
 C,-5.81353545,-2.10693907,0.9470618\N,-4.80731609,-1.52705032,0.986003
 66\C,-7.03318242,-4.21723069,0.73467445\N,-7.0291394,-5.37141546,0.598
 96286\C,-10.84123016,-4.22666335,0.84011748\N,-10.79427649,-5.38523185
 ,0.7628156\C,-12.08046307,-2.10471634,0.98921196\N,-13.07347956,-1.502
 12239,1.02394725\\Version=ES64L-G16RevC.01\HF=-784.8606751\S2=0.787083
 \S2-1=0.\S2A=0.751129\RMSD=5.855e-09\RMSF=6.519e-03\Dipole=-0.0750238,
 -0.0045285,-0.0005612\Quadrupole=-201.803391,70.8463901,130.957001,-53
 .9030647,33.2698154,0.9122956\PG=C01 [X(C12N6)]\\@
 The archive entry for this job was punched.


 SOME THINGS ARE EASY, THEY ARE ONLY HARD TO DO.
            -- A. EINSTEIN TO J. O. HIRSCHFELDER
 THE ONLY TROUBLE WITH A SURE THING IS THE UNCERTAINTY.
     -- FROM A TEABAG (BELONGING TO W.H.?)
 Job cpu time:       0 days  0 hours 10 minutes  5.2 seconds.
 Elapsed time:       0 days  0 hours  0 minutes 23.0 seconds.
 File lengths (MBytes):  RWF=    173 Int=      0 D2E=      0 Chk=      9 Scr=      1
 Normal termination of Gaussian 16 at Fri Oct 11 16:15:40 2024.
