 Entering Gaussian System, Link 0=g16
 Input=JOBS/56_A.gjf
 Output=JOBS/56_A.log
 Initial command:
 /data/app/gaussian/C01-avx2//g16/l1.exe "/tmp/Gau-2566635.inp" -scrdir="/tmp/"
 Entering Link 1 = /data/app/gaussian/C01-avx2//g16/l1.exe PID=   2566636.
  
 Copyright (c) 1988-2019, Gaussian, Inc.  All Rights Reserved.
  
 This is part of the Gaussian(R) 16 program.  It is based on
 the Gaussian(R) 09 system (copyright 2009, Gaussian, Inc.),
 the Gaussian(R) 03 system (copyright 2003, Gaussian, Inc.),
 the Gaussian(R) 98 system (copyright 1998, Gaussian, Inc.),
 the Gaussian(R) 94 system (copyright 1995, Gaussian, Inc.),
 the Gaussian 92(TM) system (copyright 1992, Gaussian, Inc.),
 the Gaussian 90(TM) system (copyright 1990, Gaussian, Inc.),
 the Gaussian 88(TM) system (copyright 1988, Gaussian, Inc.),
 the Gaussian 86(TM) system (copyright 1986, Carnegie Mellon
 University), and the Gaussian 82(TM) system (copyright 1983,
 Carnegie Mellon University). Gaussian is a federally registered
 trademark of Gaussian, Inc.
  
 This software contains proprietary and confidential information,
 including trade secrets, belonging to Gaussian, Inc.
  
 This software is provided under written license and may be
 used, copied, transmitted, or stored only in accord with that
 written license.
  
 The following legend is applicable only to US Government
 contracts under FAR:
  
                    RESTRICTED RIGHTS LEGEND
  
 Use, reproduction and disclosure by the US Government is
 subject to restrictions as set forth in subparagraphs (a)
 and (c) of the Commercial Computer Software - Restricted
 Rights clause in FAR 52.227-19.
  
 Gaussian, Inc.
 340 Quinnipiac St., Bldg. 40, Wallingford CT 06492
  
  
 ---------------------------------------------------------------
 Warning -- This program may not be used in any manner that
 competes with the business of Gaussian, Inc. or will provide
 assistance to any competitor of Gaussian, Inc.  The licensee
 of this program is prohibited from giving any competitor of
 Gaussian, Inc. access to this program.  By using this program,
 the user acknowledges that Gaussian, Inc. is engaged in the
 business of creating and licensing software in the field of
 computational chemistry and represents and warrants to the
 licensee that it is not a competitor of Gaussian, Inc. and that
 it will not use this program in any manner prohibited above.
 ---------------------------------------------------------------
  

 Cite this work as:
 Gaussian 16, Revision C.01,
 M. J. Frisch, G. W. Trucks, H. B. Schlegel, G. E. Scuseria, 
 M. A. Robb, J. R. Cheeseman, G. Scalmani, V. Barone, 
 G. A. Petersson, H. Nakatsuji, X. Li, M. Caricato, A. V. Marenich, 
 J. Bloino, B. G. Janesko, R. Gomperts, B. Mennucci, H. P. Hratchian, 
 J. V. Ortiz, A. F. Izmaylov, J. L. Sonnenberg, D. Williams-Young, 
 F. Ding, F. Lipparini, F. Egidi, J. Goings, B. Peng, A. Petrone, 
 T. Henderson, D. Ranasinghe, V. G. Zakrzewski, J. Gao, N. Rega, 
 G. Zheng, W. Liang, M. Hada, M. Ehara, K. Toyota, R. Fukuda, 
 J. Hasegawa, M. Ishida, T. Nakajima, Y. Honda, O. Kitao, H. Nakai, 
 T. Vreven, K. Throssell, J. A. Montgomery, Jr., J. E. Peralta, 
 F. Ogliaro, M. J. Bearpark, J. J. Heyd, E. N. Brothers, K. N. Kudin, 
 V. N. Staroverov, T. A. Keith, R. Kobayashi, J. Normand, 
 K. Raghavachari, A. P. Rendell, J. C. Burant, S. S. Iyengar, 
 J. Tomasi, M. Cossi, J. M. Millam, M. Klene, C. Adamo, R. Cammi, 
 J. W. Ochterski, R. L. Martin, K. Morokuma, O. Farkas, 
 J. B. Foresman, and D. J. Fox, Gaussian, Inc., Wallingford CT, 2019.
 
 ******************************************
 Gaussian 16:  ES64L-G16RevC.01  3-Jul-2019
                11-Oct-2024 
 ******************************************
 %chk=a.chk
 %nprocshared=28
 Will use up to   28 processors via shared memory.
 %mem=48gb
 ----------------------------------------------------------------------
 # wb97xd def2svp scrf=(smd,solvent=acetonitrile) g09default scf=(xqc,m
 axcycle=64) force guess=read nosymm
 ----------------------------------------------------------------------
 1/10=7,30=1,38=1,158=3,167=1/1,3;
 2/12=2,15=1,17=6,18=5,40=1/2;
 3/5=43,7=101,11=2,25=1,27=10,30=1,70=32201,71=1,72=2,74=-58,75=-4,116=-2,158=3/1,2,3;
 4/5=1,60=-1/1;
 5/5=2,7=64,8=3,13=1,38=6,53=2,87=10/2,8;
 6/7=2,8=2,9=2,10=2,28=1,87=10/1;
 7/29=1,30=1,87=10/1,2,3,16;
 1/10=7,30=1,158=3,167=1/3;
 99//99;
 Using 2006 physical constants.
 ----------
 Title Card
 ----------
 Symbolic Z-matrix:
 Charge = -2 Multiplicity = 1
 6                    -8.95158  -0.9154    1.10748 
 6                    -8.9472    0.47108   1.2502 
 6                    -8.25428  -2.11393   0.98344 
 6                    -7.04761  -2.80619   0.89598 
 6                    -9.6451   -2.11529   0.99667 
 6                    -10.85071  -2.81143   0.94189 
 6                    -10.1649   1.1952    1.34332 
 7                    -11.16752   1.77774   1.4208 
 6                    -7.71336   1.16847   1.32275 
 7                    -6.69281   1.72076   1.38375 
 6                    -5.81338  -2.10681   0.94681 
 7                    -4.80748  -1.52633   0.98614 
 6                    -7.03375  -4.21695   0.73462 
 7                    -7.02987  -5.37111   0.59896 
 6                    -10.84118  -4.22695   0.84013 
 7                    -10.79489  -5.38556   0.76279 
 6                    -12.08072  -2.10522   0.98912 
 7                    -13.07356  -1.50224   1.02396 
 

 GradGradGradGradGradGradGradGradGradGradGradGradGradGradGradGradGradGrad
 Berny optimization.
 Initialization pass.
 Trust Radius=3.00D-01 FncErr=1.00D-07 GrdErr=1.00D-07 EigMax=2.50D+02 EigMin=1.00D-04
 Number of steps in this run=      2 maximum allowed number of steps=      2.
 GradGradGradGradGradGradGradGradGradGradGradGradGradGradGradGradGradGrad

                          Input orientation:                          
 ---------------------------------------------------------------------
 Center     Atomic      Atomic             Coordinates (Angstroms)
 Number     Number       Type             X           Y           Z
 ---------------------------------------------------------------------
      1          6           0       -8.951584   -0.915395    1.107475
      2          6           0       -8.947199    0.471078    1.250202
      3          6           0       -8.254285   -2.113933    0.983440
      4          6           0       -7.047608   -2.806190    0.895979
      5          6           0       -9.645101   -2.115293    0.996673
      6          6           0      -10.850709   -2.811426    0.941887
      7          6           0      -10.164901    1.195196    1.343319
      8          7           0      -11.167523    1.777740    1.420800
      9          6           0       -7.713356    1.168470    1.322748
     10          7           0       -6.692806    1.720762    1.383751
     11          6           0       -5.813376   -2.106811    0.946811
     12          7           0       -4.807479   -1.526331    0.986136
     13          6           0       -7.033747   -4.216951    0.734620
     14          7           0       -7.029865   -5.371113    0.598957
     15          6           0      -10.841183   -4.226952    0.840128
     16          7           0      -10.794890   -5.385565    0.762795
     17          6           0      -12.080720   -2.105222    0.989124
     18          7           0      -13.073561   -1.502242    1.023958
 ---------------------------------------------------------------------
                    Distance matrix (angstroms):
                    1          2          3          4          5
     1  C    0.000000
     2  C    1.393807   0.000000
     3  C    1.392158   2.689531   0.000000
     4  C    2.691647   3.804525   1.393893   0.000000
     5  C    1.390323   2.690847   1.390880   2.689693   0.000000
     6  C    2.688685   3.806999   2.688799   3.803382   1.393231
     7  C    2.445885   1.419794   3.838008   5.092026   3.368931
     8  N    3.501647   2.581920   4.880918   6.185593   4.201590
     9  C    2.433525   1.419150   3.343935   4.052564   3.823749
    10  N    3.482489   2.581052   4.159730   4.566958   4.856047
    11  C    3.360600   4.069201   2.441194   1.419522   3.832058
    12  N    4.190653   4.603982   3.496535   2.581539   4.873353
    13  C    3.836326   5.089670   2.444240   1.420026   3.362263
    14  N    4.879038   6.183161   3.500892   2.582124   4.194997
    15  C    3.822103   5.082010   3.343266   4.051283   2.431918
    16  N    4.847576   6.160503   4.148124   4.551158   3.474391
    17  C    3.349804   4.065027   3.826450   5.082544   2.435652
    18  N    4.164380   4.579524   4.858110   6.166748   3.482946
                    6          7          8          9         10
     6  C    0.000000
     7  C    4.084667   0.000000
     8  N    4.624951   1.162158   0.000000
     9  C    5.082087   2.451776   3.508859   0.000000
    10  N    6.166370   3.511879   4.475233   1.162011   0.000000
    11  C    5.086377   5.476882   6.631839   3.805090   3.951535
    12  N    6.178516   6.019656   7.180249   3.977358   3.775734
    13  C    4.072795   6.282195   7.314046   5.459901   5.982813
    14  N    4.611772   7.314297   8.300707   6.614920   7.143123
    15  C    1.419211   5.487281   6.041523   6.255142   7.271854
    16  N    2.580965   6.636287   7.203107   7.263936   8.228764
    17  C    1.419113   3.832569   4.012190   5.468294   6.619932
    18  N    2.581041   3.979758   3.814282   5.996146   7.157600
                   11         12         13         14         15
    11  C    0.000000
    12  N    1.162038   0.000000
    13  C    2.446839   3.501281   0.000000
    14  N    3.500931   4.457719   1.162114   0.000000
    15  C    5.457584   6.612130   3.808911   3.986654   0.000000
    16  N    5.966538   7.126897   3.938610   3.768616   1.162113
    17  C    6.267487   7.296243   5.476871   6.027388   2.461786
    18  N    7.285721   8.266204   6.628176   7.188536   3.527230
                   16         17         18
    16  N    0.000000
    17  C    3.530613   0.000000
    18  N    4.510071   1.162124   0.000000
 Symmetry turned off by external request.
 Stoichiometry    C12N6(2-)
 Framework group  C1[X(C12N6)]
 Deg. of freedom    48
 Full point group                 C1      NOp   1
 Rotational constants (GHZ):           0.4316686           0.4270663           0.2147250
 Standard basis: def2SVP (5D, 7F)
   252 basis functions,   450 primitive gaussians,   270 cartesian basis functions
    58 alpha electrons       58 beta electrons
       nuclear repulsion energy       965.5647414720 Hartrees.
 NAtoms=   18 NActive=   18 NUniq=   18 SFac= 1.00D+00 NAtFMM=   60 NAOKFM=F Big=F
 Integral buffers will be    131072 words long.
 Raffenetti 2 integral format.
 Two-electron integral symmetry is turned off.
 Nuclear repulsion after empirical dispersion term =      965.5530618227 Hartrees.
 Force PCM accuracy= 1.00D-10.
 ------------------------------------------------------------------------------
 Polarizable Continuum Model (PCM)
 =================================
 Model                : PCM (using non-symmetric T matrix).
 Atomic radii         : SMD-Coulomb.
 Polarization charges : Total charges.
 Charge compensation  : None.
 Solution method      : On-the-fly selection.
 Cavity type          : VdW (van der Waals Surface) (Alpha=1.000).
 Cavity algorithm     : GePol (No added spheres)
                        Default sphere list used, NSphG=   18.
                        Lebedev-Laikov grids with approx.  5.0 points / Ang**2.
                        Smoothing algorithm: York/Karplus (Gamma=1.0000).
                        Polarization charges: spherical gaussians, with
                                              point-specific exponents (IZeta= 3).
                        Self-potential: point-specific (ISelfS= 7).
                        Self-field    : sphere-specific E.n sum rule (ISelfD= 2).
 1st derivatives      : Analytical E(r).r(x)/FMM algorithm (CHGder, D1EAlg=3).
                        Cavity 1st derivative terms included.
 Solvent              : Acetonitrile, Eps=  35.688000 Eps(inf)=   1.806874
 ------------------------------------------------------------------------------
 Spheres list:
 ISph  on   Nord     Re0    Alpha      Xe            Ye            Ze
    1   C      1    1.8500  1.000     -8.951584     -0.915395      1.107475
    2   C      2    1.8500  1.000     -8.947199      0.471078      1.250202
    3   C      3    1.8500  1.000     -8.254285     -2.113933      0.983440
    4   C      4    1.8500  1.000     -7.047608     -2.806190      0.895979
    5   C      5    1.8500  1.000     -9.645101     -2.115293      0.996673
    6   C      6    1.8500  1.000    -10.850709     -2.811426      0.941887
    7   C      7    1.8500  1.000    -10.164901      1.195196      1.343319
    8   N      8    1.8900  1.000    -11.167523      1.777740      1.420800
    9   C      9    1.8500  1.000     -7.713356      1.168470      1.322748
   10   N     10    1.8900  1.000     -6.692806      1.720762      1.383751
   11   C     11    1.8500  1.000     -5.813376     -2.106811      0.946811
   12   N     12    1.8900  1.000     -4.807479     -1.526331      0.986136
   13   C     13    1.8500  1.000     -7.033747     -4.216951      0.734620
   14   N     14    1.8900  1.000     -7.029865     -5.371113      0.598957
   15   C     15    1.8500  1.000    -10.841183     -4.226952      0.840128
   16   N     16    1.8900  1.000    -10.794890     -5.385565      0.762795
   17   C     17    1.8500  1.000    -12.080720     -2.105222      0.989124
   18   N     18    1.8900  1.000    -13.073561     -1.502242      1.023958
 ------------------------------------------------------------------------------
 ------------------------------------------------------------------------------
 Atomic radii for non-electrostatic terms: SMD-CDS.
 ------------------------------------------------------------------------------
 Nuclear repulsion after PCM non-electrostatic terms =      965.5617651085 Hartrees.
 One-electron integrals computed using PRISM.
   1 Symmetry operations used in ECPInt.
 ECPInt:  NShTT=    5886 NPrTT=   23670 LenC2=    5404 LenP2D=   14967.
 LDataN:  DoStor=T MaxTD1= 4 Len=   56
 NBasis=   252 RedAO= T EigKep=  1.95D-04  NBF=   252
 NBsUse=   252 1.00D-06 EigRej= -1.00D+00 NBFU=   252
 Initial guess from the checkpoint file:  "a.chk"
 B after Tr=    -0.000042    0.000011   -0.000241
         Rot=    1.000000   -0.000013   -0.000010    0.000001 Ang=  -0.00 deg.
 Requested convergence on RMS density matrix=1.00D-08 within  64 cycles.
 Requested convergence on MAX density matrix=1.00D-06.
 Requested convergence on             energy=1.00D-06.
 No special actions if energy rises.
 Inv3:  Mode=1 IEnd=    19263468.
 Iteration    1 A*A^-1 deviation from unit magnitude is 2.89D-15 for    128.
 Iteration    1 A*A^-1 deviation from orthogonality  is 2.80D-15 for   1006     29.
 Iteration    1 A^-1*A deviation from unit magnitude is 3.77D-15 for   1851.
 Iteration    1 A^-1*A deviation from orthogonality  is 9.64D-13 for   2012   2008.
 Error on total polarization charges =  0.02151
 SCF Done:  E(RwB97XD) =  -785.032595241     A.U. after    8 cycles
            NFock=  8  Conv=0.42D-08     -V/T= 2.0097
 SMD-CDS (non-electrostatic) energy       (kcal/mol) =       5.46
 (included in total energy above)
 QCSCF skips out because SCF is already converged.

 **********************************************************************

            Population analysis using the SCF Density.

 **********************************************************************

 Alpha  occ. eigenvalues --  -14.42774 -14.42766 -14.42762 -14.42756 -14.42749
 Alpha  occ. eigenvalues --  -14.42741 -10.34983 -10.34916 -10.34896 -10.33713
 Alpha  occ. eigenvalues --  -10.33703 -10.33696 -10.33691 -10.33682 -10.33673
 Alpha  occ. eigenvalues --  -10.32730 -10.32718 -10.32699  -1.03044  -0.99104
 Alpha  occ. eigenvalues --   -0.99100  -0.98722  -0.98036  -0.98027  -0.97952
 Alpha  occ. eigenvalues --   -0.88199  -0.88175  -0.86084  -0.68783  -0.68728
 Alpha  occ. eigenvalues --   -0.65190  -0.65035  -0.64895  -0.64134  -0.52448
 Alpha  occ. eigenvalues --   -0.47691  -0.47684  -0.46782  -0.46721  -0.45187
 Alpha  occ. eigenvalues --   -0.45072  -0.45068  -0.44535  -0.44212  -0.44167
 Alpha  occ. eigenvalues --   -0.43845  -0.42830  -0.42243  -0.42229  -0.42052
 Alpha  occ. eigenvalues --   -0.41951  -0.41928  -0.40541  -0.40191  -0.40166
 Alpha  occ. eigenvalues --   -0.31482  -0.31473  -0.23621
 Alpha virt. eigenvalues --    0.07473   0.07535   0.08867   0.09308   0.09379
 Alpha virt. eigenvalues --    0.12697   0.12733   0.13107   0.13154   0.14843
 Alpha virt. eigenvalues --    0.14979   0.16305   0.21088   0.21145   0.24193
 Alpha virt. eigenvalues --    0.27528   0.28109   0.28131   0.28632   0.28664
 Alpha virt. eigenvalues --    0.29991   0.33655   0.33722   0.33926   0.36873
 Alpha virt. eigenvalues --    0.36940   0.37213   0.48977   0.49122   0.50540
 Alpha virt. eigenvalues --    0.50722   0.54911   0.54937   0.54983   0.55053
 Alpha virt. eigenvalues --    0.57453   0.57513   0.58259   0.59967   0.61123
 Alpha virt. eigenvalues --    0.61715   0.61739   0.62873   0.62949   0.64896
 Alpha virt. eigenvalues --    0.65525   0.70941   0.71746   0.71835   0.73689
 Alpha virt. eigenvalues --    0.73721   0.74434   0.74627   0.74774   0.75078
 Alpha virt. eigenvalues --    0.75165   0.75246   0.76617   0.76914   0.77785
 Alpha virt. eigenvalues --    0.81994   0.82079   0.82231   0.83453   0.83656
 Alpha virt. eigenvalues --    0.88854   0.88916   0.89374   0.89559   0.94728
 Alpha virt. eigenvalues --    0.94797   0.95111   0.95203   0.95985   0.96143
 Alpha virt. eigenvalues --    0.98100   1.00603   1.00644   1.01326   1.01582
 Alpha virt. eigenvalues --    1.02424   1.02554   1.05273   1.05493   1.05760
 Alpha virt. eigenvalues --    1.08504   1.08974   1.10212   1.10332   1.12753
 Alpha virt. eigenvalues --    1.12915   1.17523   1.18944   1.20330   1.20535
 Alpha virt. eigenvalues --    1.21160   1.25041   1.25277   1.27272   1.35229
 Alpha virt. eigenvalues --    1.38801   1.38918   1.41789   1.41899   1.45054
 Alpha virt. eigenvalues --    1.47172   1.47292   1.47802   1.48023   1.58955
 Alpha virt. eigenvalues --    1.62387   1.68387   1.70724   1.70796   1.70969
 Alpha virt. eigenvalues --    1.71155   1.71246   1.79086   1.79483   1.79617
 Alpha virt. eigenvalues --    1.79662   1.80336   1.81494   1.81533   1.82866
 Alpha virt. eigenvalues --    1.84630   1.85116   1.87656   1.95474   1.95626
 Alpha virt. eigenvalues --    1.95752   2.00385   2.03117   2.03299   2.06444
 Alpha virt. eigenvalues --    2.06549   2.09987   2.10397   2.16124   2.16281
 Alpha virt. eigenvalues --    2.21007   2.23593   2.23697   2.23811   2.29514
 Alpha virt. eigenvalues --    2.30485   2.30602   2.32105   2.35915   2.35920
 Alpha virt. eigenvalues --    2.36499   2.36550   2.36784   2.36891   2.37497
 Alpha virt. eigenvalues --    2.38485   2.38578   2.38748   2.38859   2.39139
 Alpha virt. eigenvalues --    2.40532   2.40661   2.59969   2.65111   2.65475
 Alpha virt. eigenvalues --    2.74280   2.74417   2.95376   2.97514   2.97775
 Alpha virt. eigenvalues --    2.98084   3.01262   3.01295   3.01971   3.05340
 Alpha virt. eigenvalues --    3.07973   3.08069   3.11392   3.11856   3.14786
 Alpha virt. eigenvalues --    3.14873   3.15374   3.25955   3.26301   3.31533
 Alpha virt. eigenvalues --    3.43956   3.43999   3.45246   3.56529   3.59860
 Alpha virt. eigenvalues --    3.59874   3.64671   3.64737   3.78622
          Condensed to atoms (all electrons):
               1          2          3          4          5          6
     1  C    4.963475   0.493394   0.314361  -0.117130   0.317365  -0.116657
     2  C    0.493394   5.550629  -0.115923  -0.007638  -0.117656  -0.007230
     3  C    0.314361  -0.115923   4.961007   0.493241   0.316276  -0.116199
     4  C   -0.117130  -0.007638   0.493241   5.553340  -0.117653  -0.007479
     5  C    0.317365  -0.117656   0.316276  -0.117653   4.965305   0.494267
     6  C   -0.116657  -0.007230  -0.116199  -0.007479   0.494267   5.547922
     7  C    0.011084   0.384988   0.006282  -0.000539  -0.025228   0.002899
     8  N   -0.001036  -0.044185  -0.000066  -0.000001  -0.000596   0.000144
     9  C    0.014964   0.387522  -0.025425   0.003021   0.006767  -0.000513
    10  N   -0.001014  -0.043527  -0.000615   0.000162  -0.000057  -0.000001
    11  C   -0.024525   0.003060   0.013021   0.387401   0.006256  -0.000528
    12  N   -0.000572   0.000151  -0.001082  -0.043787  -0.000069  -0.000001
    13  C    0.005986  -0.000553   0.012097   0.386703  -0.024811   0.002948
    14  N   -0.000072  -0.000002  -0.001093  -0.044007  -0.000586   0.000148
    15  C    0.007285  -0.000505  -0.026404   0.003051   0.013893   0.385077
    16  N   -0.000042  -0.000001  -0.000676   0.000179  -0.000918  -0.043887
    17  C   -0.026463   0.002904   0.006922  -0.000535   0.013268   0.383972
    18  N   -0.000659   0.000160  -0.000049  -0.000001  -0.000907  -0.044149
               7          8          9         10         11         12
     1  C    0.011084  -0.001036   0.014964  -0.001014  -0.024525  -0.000572
     2  C    0.384988  -0.044185   0.387522  -0.043527   0.003060   0.000151
     3  C    0.006282  -0.000066  -0.025425  -0.000615   0.013021  -0.001082
     4  C   -0.000539  -0.000001   0.003021   0.000162   0.387401  -0.043787
     5  C   -0.025228  -0.000596   0.006767  -0.000057   0.006256  -0.000069
     6  C    0.002899   0.000144  -0.000513  -0.000001  -0.000528  -0.000001
     7  C    4.879990   0.926145  -0.054693   0.002675   0.000137   0.000002
     8  N    0.926145   6.152645   0.002529   0.000091   0.000000   0.000000
     9  C   -0.054693   0.002529   4.875968   0.925509  -0.000515   0.000050
    10  N    0.002675   0.000091   0.925509   6.155060   0.000224  -0.000884
    11  C    0.000137   0.000000  -0.000515   0.000224   4.876708   0.926355
    12  N    0.000002   0.000000   0.000050  -0.000884   0.926355   6.153005
    13  C   -0.000017  -0.000000   0.000142   0.000003  -0.054623   0.002599
    14  N   -0.000000  -0.000000   0.000000   0.000000   0.002547   0.000093
    15  C    0.000133   0.000002  -0.000017  -0.000000   0.000141   0.000000
    16  N    0.000000   0.000000  -0.000000  -0.000000   0.000003   0.000000
    17  C   -0.000531   0.000017   0.000138   0.000000  -0.000017  -0.000000
    18  N    0.000218  -0.000828   0.000003   0.000000  -0.000000  -0.000000
              13         14         15         16         17         18
     1  C    0.005986  -0.000072   0.007285  -0.000042  -0.026463  -0.000659
     2  C   -0.000553  -0.000002  -0.000505  -0.000001   0.002904   0.000160
     3  C    0.012097  -0.001093  -0.026404  -0.000676   0.006922  -0.000049
     4  C    0.386703  -0.044007   0.003051   0.000179  -0.000535  -0.000001
     5  C   -0.024811  -0.000586   0.013893  -0.000918   0.013268  -0.000907
     6  C    0.002948   0.000148   0.385077  -0.043887   0.383972  -0.044149
     7  C   -0.000017  -0.000000   0.000133   0.000000  -0.000531   0.000218
     8  N   -0.000000  -0.000000   0.000002   0.000000   0.000017  -0.000828
     9  C    0.000142   0.000000  -0.000017  -0.000000   0.000138   0.000003
    10  N    0.000003   0.000000  -0.000000  -0.000000   0.000000   0.000000
    11  C   -0.054623   0.002547   0.000141   0.000003  -0.000017  -0.000000
    12  N    0.002599   0.000093   0.000000   0.000000  -0.000000  -0.000000
    13  C    4.878169   0.926489  -0.000547   0.000315   0.000136   0.000000
    14  N    0.926489   6.152458  -0.000014  -0.000888   0.000002   0.000000
    15  C   -0.000547  -0.000014   4.878560   0.924702  -0.054196   0.002609
    16  N    0.000315  -0.000888   0.924702   6.156503   0.002684   0.000085
    17  C    0.000136   0.000002  -0.054196   0.002684   4.880063   0.924858
    18  N    0.000000   0.000000   0.002609   0.000085   0.924858   6.155535
 Mulliken charges:
               1
     1  C    0.160255
     2  C   -0.485589
     3  C    0.164324
     4  C   -0.488327
     5  C    0.155085
     6  C   -0.480730
     7  C   -0.133544
     8  N   -0.034861
     9  C   -0.135450
    10  N   -0.037624
    11  C   -0.135644
    12  N   -0.035859
    13  C   -0.135037
    14  N   -0.035074
    15  C   -0.133770
    16  N   -0.038058
    17  C   -0.133222
    18  N   -0.036874
 Sum of Mulliken charges =  -2.00000
 Mulliken charges with hydrogens summed into heavy atoms:
               1
     1  C    0.160255
     2  C   -0.485589
     3  C    0.164324
     4  C   -0.488327
     5  C    0.155085
     6  C   -0.480730
     7  C   -0.133544
     8  N   -0.034861
     9  C   -0.135450
    10  N   -0.037624
    11  C   -0.135644
    12  N   -0.035859
    13  C   -0.135037
    14  N   -0.035074
    15  C   -0.133770
    16  N   -0.038058
    17  C   -0.133222
    18  N   -0.036874
 Electronic spatial extent (au):  <R**2>=          39329.9550
 Charge=             -2.0000 electrons
 Dipole moment (field-independent basis, Debye):
    X=             85.6884    Y=             16.4617    Z=             -9.8913  Tot=             87.8142
 Quadrupole moment (field-independent basis, Debye-Ang):
   XX=           -964.2543   YY=           -227.5134   ZZ=           -113.5378
   XY=           -146.0424   XZ=             89.2330   YZ=              7.2678
 Traceless Quadrupole moment (field-independent basis, Debye-Ang):
   XX=           -529.1524   YY=            207.5884   ZZ=            321.5640
   XY=           -146.0424   XZ=             89.2330   YZ=              7.2678
 Octapole moment (field-independent basis, Debye-Ang**2):
  XXX=          12176.6421  YYY=           1140.5586  ZZZ=           -329.6369  XYY=           2030.6411
  XXY=           1570.2181  XXZ=          -1015.0703  XZZ=           1016.4975  YZZ=            175.0467
  YYZ=           -196.7618  XYZ=            -67.0639
 Hexadecapole moment (field-independent basis, Debye-Ang**3):
 XXXX=        -161256.5770 YYYY=          -8692.9026 ZZZZ=           -804.6297 XXXY=         -18839.1011
 XXXZ=          12918.6117 YYYX=         -10167.4507 YYYZ=            766.7870 ZZZX=           2966.6149
 ZZZY=            377.7933 XXYY=         -20027.6222 XXZZ=          -9885.3989 YYZZ=          -1039.0085
 XXYZ=            808.1089 YYXZ=           1782.5770 ZZXY=          -1565.3240
 N-N= 9.655617651085D+02 E-N=-3.784908151035D+03  KE= 7.774792076668D+02
   1 Symmetry operations used in ECPInt.
 ECPInt:  NShTT=    5886 NPrTT=   23670 LenC2=    5404 LenP2D=   14967.
 LDataN:  DoStor=T MaxTD1= 5 Len=  102
 D1PCM: PCM CHGder 1st derivatives, ID1Alg=3 FixD1E=F DoIter=F DoCFld=F I1PDM=0.
 Calling FoFJK, ICntrl=      2127 FMM=F ISym2X=0 I1Cent= 0 IOpClX= 0 NMat=1 NMatS=1 NMatT=0.
 -------------------------------------------------------------------
 Center     Atomic                   Forces (Hartrees/Bohr)
 Number     Number              X              Y              Z
 -------------------------------------------------------------------
      1        6           0.000147720   -0.020933280   -0.001864884
      2        6           0.000291999    0.013968011    0.001491436
      3        6          -0.018113332    0.010460644    0.000952645
      4        6           0.012184045   -0.006835970   -0.000840249
      5        6           0.018219836    0.010617076    0.000902032
      6        6          -0.012112868   -0.007026850   -0.000578283
      7        6           0.007190943   -0.004153295   -0.000407051
      8        7          -0.004502493    0.002098029    0.000255698
      9        6          -0.007077936   -0.003239220   -0.000307363
     10        7           0.004876953    0.002460622    0.000211884
     11        6          -0.006720458   -0.004329651   -0.000422183
     12        7           0.004370767    0.003074598    0.000270099
     13        6           0.000116274    0.008206495    0.000863792
     14        7          -0.000502833   -0.005121486   -0.000511453
     15        6          -0.000483482    0.007931568    0.000551310
     16        7          -0.000106225   -0.005234369   -0.000473101
     17        6           0.006606758   -0.004640525   -0.000349890
     18        7          -0.004385669    0.002697602    0.000255560
 -------------------------------------------------------------------
 Cartesian Forces:  Max     0.020933280 RMS     0.006763637

 GradGradGradGradGradGradGradGradGradGradGradGradGradGradGradGradGradGrad
 Berny optimization.
 Search for a local minimum.
 Step number   1 out of a maximum of    2
 All quantities printed in internal units (Hartrees-Bohrs-Radians)
 Second derivative matrix not updated -- first step.
 ITU=  0
     Eigenvalues ---    0.00129   0.00146   0.00198   0.00300   0.00301
     Eigenvalues ---    0.00817   0.01536   0.01722   0.01989   0.02014
     Eigenvalues ---    0.03001   0.04115   0.05334   0.05360   0.10302
     Eigenvalues ---    0.15167   0.21331   0.21508   0.24393   0.24704
     Eigenvalues ---    0.25057   0.25738   0.25952   0.30093   0.30275
     Eigenvalues ---    0.36043   0.41805   0.48347   0.79254   0.79739
     Eigenvalues ---    0.81843   0.99398   1.00815   1.04638   1.04955
     Eigenvalues ---    1.12154   1.59976   1.60430   2.06152   2.78793
     Eigenvalues ---    2.78942   2.79147   2.84159   2.84246   2.84356
     Eigenvalues ---   32.72516  62.65981 111.51969
 Angle between quadratic step and forces=  75.19 degrees.
 Linear search not attempted -- first point.
 B after Tr=    -0.000266    0.000064   -0.000181
         Rot=    1.000000    0.000002   -0.000005   -0.000003 Ang=   0.00 deg.
 Variable       Old X    -DE/DX   Delta X   Delta X   Delta X     New X
                                 (Linear)    (Quad)   (Total)
    X1      -16.91604   0.00015   0.00000   0.01122   0.01098 -16.90506
    Y1       -1.72985  -0.02093   0.00000  -0.00676  -0.00678  -1.73663
    Z1        2.09283  -0.00186   0.00000   0.00084   0.00083   2.09365
    X2      -16.90776   0.00029   0.00000   0.00941   0.00916 -16.89859
    Y2        0.89021   0.01397   0.00000   0.01707   0.01706   0.90726
    Z2        2.36254   0.00149   0.00000   0.00387   0.00385   2.36638
    X3      -15.59834  -0.01811   0.00000   0.00295   0.00272 -15.59561
    Y3       -3.99476   0.01046   0.00000   0.00369   0.00367  -3.99108
    Z3        1.85843   0.00095   0.00000   0.00050   0.00048   1.85892
    X4      -13.31805   0.01218   0.00000   0.02241   0.02219 -13.29586
    Y4       -5.30293  -0.00684   0.00000  -0.00855  -0.00855  -5.31148
    Z4        1.69316  -0.00084   0.00000   0.00007   0.00004   1.69320
    X5      -18.22660   0.01822   0.00000   0.01439   0.01416 -18.21244
    Y5       -3.99732   0.01062   0.00000   0.00410   0.00407  -3.99325
    Z5        1.88344   0.00090   0.00000   0.00012   0.00013   1.88357
    X6      -20.50487  -0.01211   0.00000  -0.00963  -0.00985 -20.51471
    Y6       -5.31282  -0.00703   0.00000  -0.00639  -0.00643  -5.31926
    Z6        1.77991  -0.00058   0.00000  -0.00313  -0.00310   1.77681
    X7      -19.20888   0.00719   0.00000   0.00646   0.00621 -19.20267
    Y7        2.25859  -0.00415   0.00000  -0.00331  -0.00334   2.25525
    Z7        2.53850  -0.00041   0.00000   0.00307   0.00307   2.54158
    X8      -21.10356  -0.00450   0.00000  -0.00908  -0.00933 -21.11289
    Y8        3.35944   0.00210   0.00000  -0.02205  -0.02208   3.33736
    Z8        2.68492   0.00026   0.00000   0.00168   0.00169   2.68662
    X9      -14.57613  -0.00708   0.00000  -0.00240  -0.00265 -14.57878
    Y9        2.20809  -0.00324   0.00000   0.02772   0.02772   2.23581
    Z9        2.49963  -0.00031   0.00000  -0.00336  -0.00341   2.49623
   X10      -12.64757   0.00488   0.00000  -0.00289  -0.00315 -12.65072
   Y10        3.25177   0.00246   0.00000   0.03830   0.03830   3.29007
   Z10        2.61491   0.00021   0.00000  -0.00862  -0.00869   2.60622
   X11      -10.98569  -0.00672   0.00000   0.01672   0.01649 -10.96920
   Y11       -3.98129  -0.00433   0.00000  -0.01087  -0.01086  -3.99215
   Z11        1.78921  -0.00042   0.00000  -0.00491  -0.00497   1.78424
   X12       -9.08482   0.00437   0.00000   0.01555   0.01531  -9.06951
   Y12       -2.88435   0.00307   0.00000  -0.00025  -0.00023  -2.88457
   Z12        1.86353   0.00027   0.00000  -0.00729  -0.00737   1.85616
   X13      -13.29186   0.00012   0.00000   0.01099   0.01078 -13.28107
   Y13       -7.96888   0.00821   0.00000  -0.00304  -0.00304  -7.97193
   Z13        1.38823   0.00086   0.00000   0.01537   0.01535   1.40358
   X14      -13.28452  -0.00050   0.00000  -0.00818  -0.00838 -13.29290
   Y14      -10.14993  -0.00512   0.00000  -0.00885  -0.00885 -10.15878
   Z14        1.13186  -0.00051   0.00000   0.02936   0.02934   1.16121
   X15      -20.48687  -0.00048   0.00000  -0.02313  -0.02334 -20.51021
   Y15       -7.98778   0.00793   0.00000   0.00108   0.00105  -7.98674
   Z15        1.58761   0.00055   0.00000  -0.01997  -0.01993   1.56768
   X16      -20.39939  -0.00011   0.00000  -0.04018  -0.04038 -20.43977
   Y16      -10.17724  -0.00523   0.00000  -0.00272  -0.00276 -10.18000
   Z16        1.44147  -0.00047   0.00000  -0.03557  -0.03552   1.40596
   X17      -22.82925   0.00661   0.00000  -0.00363  -0.00385 -22.83311
   Y17       -3.97829  -0.00464   0.00000  -0.01041  -0.01045  -3.98875
   Z17        1.86917  -0.00035   0.00000   0.00887   0.00893   1.87810
   X18      -24.70545  -0.00439   0.00000  -0.00684  -0.00707 -24.71252
   Y18       -2.83883   0.00270   0.00000  -0.00844  -0.00850  -2.84732
   Z18        1.93500   0.00026   0.00000   0.01920   0.01926   1.95426
         Item               Value     Threshold  Converged?
 Maximum Force            0.020933     0.000450     NO 
 RMS     Force            0.006764     0.000300     NO 
 Maximum Displacement     0.040379     0.001800     NO 
 RMS     Displacement     0.014336     0.001200     NO 
 Predicted change in Energy=-6.693808D-04
 GradGradGradGradGradGradGradGradGradGradGradGradGradGradGradGradGradGrad

 Unable to Open any file for archive entry.
 1\1\GINC-X10P1N4\Force\RwB97XD\def2SVP\C12N6(2-)\MAYUMIAO\11-Oct-2024\
 0\\# wb97xd def2svp scrf=(smd,solvent=acetonitrile) g09default scf=(xq
 c,maxcycle=64) force guess=read nosymm\\Title Card\\-2,1\C,-8.95158417
 ,-0.91539513,1.10747531\C,-8.94719895,0.47107801,1.25020222\C,-8.25428
 478,-2.11393347,0.98344041\C,-7.04760762,-2.8061904,0.89597912\C,-9.64
 510095,-2.11529298,0.99667341\C,-10.85070895,-2.81142578,0.94188741\C,
 -10.16490063,1.19519643,1.34331888\N,-11.1675232,1.77773994,1.42079969
 \C,-7.71335618,1.16846964,1.3227483\N,-6.69280642,1.72076215,1.3837514
 7\C,-5.81337641,-2.10681054,0.94681101\N,-4.80747902,-1.5263306,0.9861
 3647\C,-7.03374674,-4.2169511,0.73461992\N,-7.02986524,-5.37111272,0.5
 9895685\C,-10.84118297,-4.22695211,0.84012776\N,-10.79489028,-5.385564
 58,0.76279481\C,-12.08072027,-2.10522246,0.98912409\N,-13.07356112,-1.
 50224173,1.0239578\\Version=ES64L-G16RevC.01\HF=-785.0325952\RMSD=4.15
 2e-09\RMSF=6.764e-03\Dipole=-0.0714127,-0.0051459,-0.0010584\Quadrupol
 e=-393.4118951,154.3369038,239.0749913,-108.5789586,66.3425254,5.40340
 11\PG=C01 [X(C12N6)]\\@
 The archive entry for this job was punched.


 THE 2ND LAW OF THERMODYNAMICS HAS THE SAME
 DEGREE OF TRUTH AS THE STATEMENT THAT IF YOU THROW
 A TUMBLERFULL OF WATER INTO THE SEA, YOU CANNOT GET
 THE SAME TUMBLERFULL OF WATER OUT AGAIN.
          - J.C. MAXWELL, LETTER TO LORD RAYLEIGH, DECEMBER 6,1870
 Job cpu time:       0 days  0 hours  7 minutes  0.5 seconds.
 Elapsed time:       0 days  0 hours  0 minutes 16.3 seconds.
 File lengths (MBytes):  RWF=    147 Int=      0 D2E=      0 Chk=      8 Scr=      1
 Normal termination of Gaussian 16 at Fri Oct 11 16:16:33 2024.
