 Entering Gaussian System, Link 0=g16
 Input=JOBS/57_B.gjf
 Output=JOBS/57_B.log
 Initial command:
 /data/app/gaussian/C01-avx2//g16/l1.exe "/tmp/Gau-2567096.inp" -scrdir="/tmp/"
 Entering Link 1 = /data/app/gaussian/C01-avx2//g16/l1.exe PID=   2567097.
  
 Copyright (c) 1988-2019, Gaussian, Inc.  All Rights Reserved.
  
 This is part of the Gaussian(R) 16 program.  It is based on
 the Gaussian(R) 09 system (copyright 2009, Gaussian, Inc.),
 the Gaussian(R) 03 system (copyright 2003, Gaussian, Inc.),
 the Gaussian(R) 98 system (copyright 1998, Gaussian, Inc.),
 the Gaussian(R) 94 system (copyright 1995, Gaussian, Inc.),
 the Gaussian 92(TM) system (copyright 1992, Gaussian, Inc.),
 the Gaussian 90(TM) system (copyright 1990, Gaussian, Inc.),
 the Gaussian 88(TM) system (copyright 1988, Gaussian, Inc.),
 the Gaussian 86(TM) system (copyright 1986, Carnegie Mellon
 University), and the Gaussian 82(TM) system (copyright 1983,
 Carnegie Mellon University). Gaussian is a federally registered
 trademark of Gaussian, Inc.
  
 This software contains proprietary and confidential information,
 including trade secrets, belonging to Gaussian, Inc.
  
 This software is provided under written license and may be
 used, copied, transmitted, or stored only in accord with that
 written license.
  
 The following legend is applicable only to US Government
 contracts under FAR:
  
                    RESTRICTED RIGHTS LEGEND
  
 Use, reproduction and disclosure by the US Government is
 subject to restrictions as set forth in subparagraphs (a)
 and (c) of the Commercial Computer Software - Restricted
 Rights clause in FAR 52.227-19.
  
 Gaussian, Inc.
 340 Quinnipiac St., Bldg. 40, Wallingford CT 06492
  
  
 ---------------------------------------------------------------
 Warning -- This program may not be used in any manner that
 competes with the business of Gaussian, Inc. or will provide
 assistance to any competitor of Gaussian, Inc.  The licensee
 of this program is prohibited from giving any competitor of
 Gaussian, Inc. access to this program.  By using this program,
 the user acknowledges that Gaussian, Inc. is engaged in the
 business of creating and licensing software in the field of
 computational chemistry and represents and warrants to the
 licensee that it is not a competitor of Gaussian, Inc. and that
 it will not use this program in any manner prohibited above.
 ---------------------------------------------------------------
  

 Cite this work as:
 Gaussian 16, Revision C.01,
 M. J. Frisch, G. W. Trucks, H. B. Schlegel, G. E. Scuseria, 
 M. A. Robb, J. R. Cheeseman, G. Scalmani, V. Barone, 
 G. A. Petersson, H. Nakatsuji, X. Li, M. Caricato, A. V. Marenich, 
 J. Bloino, B. G. Janesko, R. Gomperts, B. Mennucci, H. P. Hratchian, 
 J. V. Ortiz, A. F. Izmaylov, J. L. Sonnenberg, D. Williams-Young, 
 F. Ding, F. Lipparini, F. Egidi, J. Goings, B. Peng, A. Petrone, 
 T. Henderson, D. Ranasinghe, V. G. Zakrzewski, J. Gao, N. Rega, 
 G. Zheng, W. Liang, M. Hada, M. Ehara, K. Toyota, R. Fukuda, 
 J. Hasegawa, M. Ishida, T. Nakajima, Y. Honda, O. Kitao, H. Nakai, 
 T. Vreven, K. Throssell, J. A. Montgomery, Jr., J. E. Peralta, 
 F. Ogliaro, M. J. Bearpark, J. J. Heyd, E. N. Brothers, K. N. Kudin, 
 V. N. Staroverov, T. A. Keith, R. Kobayashi, J. Normand, 
 K. Raghavachari, A. P. Rendell, J. C. Burant, S. S. Iyengar, 
 J. Tomasi, M. Cossi, J. M. Millam, M. Klene, C. Adamo, R. Cammi, 
 J. W. Ochterski, R. L. Martin, K. Morokuma, O. Farkas, 
 J. B. Foresman, and D. J. Fox, Gaussian, Inc., Wallingford CT, 2019.
 
 ******************************************
 Gaussian 16:  ES64L-G16RevC.01  3-Jul-2019
                11-Oct-2024 
 ******************************************
 %chk=b.chk
 %nprocshared=28
 Will use up to   28 processors via shared memory.
 %mem=48gb
 ----------------------------------------------------------------------
 # wb97xd def2svp scrf=(smd,solvent=acetonitrile) g09default scf=(xqc,m
 axcycle=64) force guess=read nosymm
 ----------------------------------------------------------------------
 1/10=7,30=1,38=1,158=3,167=1/1,3;
 2/12=2,15=1,17=6,18=5,40=1/2;
 3/5=43,7=101,11=2,25=1,27=10,30=1,70=32201,71=1,72=2,74=-58,75=-4,116=-2,158=3/1,2,3;
 4/5=1,60=-1/1;
 5/5=2,7=64,8=3,13=1,38=6,53=2,87=10/2,8;
 6/7=2,8=2,9=2,10=2,28=1,87=10/1;
 7/29=1,30=1,87=10/1,2,3,16;
 1/10=7,30=1,158=3,167=1/3;
 99//99;
 Using 2006 physical constants.
 ----------
 Title Card
 ----------
 Symbolic Z-matrix:
 Charge = -1 Multiplicity = 2
 6                    -8.95096  -0.91534   1.10773 
 6                    -8.94633   0.47095   1.25075 
 6                    -8.25411  -2.11383   0.98319 
 6                    -7.04753  -2.80572   0.89549 
 6                    -9.6451   -2.11498   0.99669 
 6                    -10.85045  -2.81152   0.94182 
 6                    -10.16479   1.1937    1.34338 
 7                    -11.16733   1.77628   1.42049 
 6                    -7.71276   1.16927   1.32304 
 7                    -6.69186   1.72096   1.3835 
 6                    -5.81322  -2.10649   0.9465 
 7                    -4.80782  -1.52499   0.98653 
 6                    -7.03479  -4.2165    0.73473 
 7                    -7.03128  -5.37067   0.5993 
 6                    -10.8408  -4.22716   0.8399 
 7                    -10.79616  -5.38583   0.76234 
 6                    -12.08099  -2.1059    0.98914 
 7                    -13.07359  -1.50243   1.02429 
 

 GradGradGradGradGradGradGradGradGradGradGradGradGradGradGradGradGradGrad
 Berny optimization.
 Initialization pass.
 Trust Radius=3.00D-01 FncErr=1.00D-07 GrdErr=1.00D-07 EigMax=2.50D+02 EigMin=1.00D-04
 Number of steps in this run=      2 maximum allowed number of steps=      2.
 GradGradGradGradGradGradGradGradGradGradGradGradGradGradGradGradGradGrad

                          Input orientation:                          
 ---------------------------------------------------------------------
 Center     Atomic      Atomic             Coordinates (Angstroms)
 Number     Number       Type             X           Y           Z
 ---------------------------------------------------------------------
      1          6           0       -8.950962   -0.915340    1.107727
      2          6           0       -8.946329    0.470952    1.250752
      3          6           0       -8.254113   -2.113825    0.983192
      4          6           0       -7.047532   -2.805720    0.895493
      5          6           0       -9.645100   -2.114976    0.996688
      6          6           0      -10.850450   -2.811518    0.941819
      7          6           0      -10.164793    1.193699    1.343382
      8          7           0      -11.167328    1.776277    1.420486
      9          6           0       -7.712759    1.169271    1.323038
     10          7           0       -6.691864    1.720956    1.383500
     11          6           0       -5.813223   -2.106489    0.946499
     12          7           0       -4.807825   -1.524985    0.986527
     13          6           0       -7.034789   -4.216498    0.734727
     14          7           0       -7.031283   -5.370668    0.599301
     15          6           0      -10.840805   -4.227158    0.839897
     16          7           0      -10.796155   -5.385828    0.762344
     17          6           0      -12.080993   -2.105903    0.989137
     18          7           0      -13.073591   -1.502425    1.024295
 ---------------------------------------------------------------------
                    Distance matrix (angstroms):
                    1          2          3          4          5
     1  C    0.000000
     2  C    1.393658   0.000000
     3  C    1.391932   2.689205   0.000000
     4  C    2.691027   3.803711   1.393646   0.000000
     5  C    1.390426   2.690698   1.391053   2.689745   0.000000
     6  C    2.689065   3.807325   2.688763   3.803204   1.393215
     7  C    2.444783   1.419718   3.836685   5.090508   3.367137
     8  N    3.500699   2.581766   4.879645   6.184095   4.199837
     9  C    2.434155   1.419356   3.344739   4.052884   3.824491
    10  N    3.482762   2.581229   4.160098   4.566775   4.856501
    11  C    3.360095   4.068430   2.441177   1.419522   3.832215
    12  N    4.189504   4.602260   3.496234   2.581638   4.873133
    13  C    3.835166   5.088463   2.443301   1.419966   3.361360
    14  N    4.877870   6.181934   3.499958   2.582044   4.193982
    15  C    3.822483   5.082330   3.343304   4.051234   2.432201
    16  N    4.848638   6.161353   4.149307   4.552677   3.475387
    17  C    3.350909   4.066293   3.826892   5.082739   2.435921
    18  N    4.165057   4.580371   4.858278   6.166730   3.482891
                    6          7          8          9         10
     6  C    0.000000
     7  C    4.083276   0.000000
     8  N    4.623570   1.162075   0.000000
     9  C    5.083022   2.452240   3.508846   0.000000
    10  N    6.167028   3.512954   4.475959   1.161998   0.000000
    11  C    5.086329   5.475848   6.630759   3.805341   3.951241
    12  N    6.178226   6.017948   7.178435   3.976292   3.774032
    13  C    4.071378   6.279938   7.311737   5.460061   5.982630
    14  N    4.610054   7.311871   8.298194   6.615059   7.142919
    15  C    1.419337   5.485998   6.040275   6.256160   7.272501
    16  N    2.581129   6.635239   7.201851   7.265744   8.230274
    17  C    1.419284   3.832060   4.011504   5.469892   6.621411
    18  N    2.581256   3.978946   3.813226   5.997144   7.158607
                   11         12         13         14         15
    11  C    0.000000
    12  N    1.162142   0.000000
    13  C    2.447287   3.502430   0.000000
    14  N    3.501297   4.459034   1.162093   0.000000
    15  C    5.457580   6.612116   3.807483   3.984715   0.000000
    16  N    5.968047   7.128567   3.939031   3.768431   1.162121
    17  C    6.267914   7.296331   5.475719   6.025796   2.461719
    18  N    7.285869   8.265883   6.627003   7.187030   3.527535
                   16         17         18
    16  N    0.000000
    17  C    3.529893   0.000000
    18  N    4.509562   1.162185   0.000000
 Symmetry turned off by external request.
 Stoichiometry    C12N6(1-,2)
 Framework group  C1[X(C12N6)]
 Deg. of freedom    48
 Full point group                 C1      NOp   1
 Rotational constants (GHZ):           0.4315201           0.4272991           0.2147466
 Standard basis: def2SVP (5D, 7F)
   252 basis functions,   450 primitive gaussians,   270 cartesian basis functions
    58 alpha electrons       57 beta electrons
       nuclear repulsion energy       965.5936921339 Hartrees.
 NAtoms=   18 NActive=   18 NUniq=   18 SFac= 1.00D+00 NAtFMM=   60 NAOKFM=F Big=F
 Integral buffers will be    131072 words long.
 Raffenetti 2 integral format.
 Two-electron integral symmetry is turned off.
 Nuclear repulsion after empirical dispersion term =      965.5820101919 Hartrees.
 Force PCM accuracy= 1.00D-10.
 ------------------------------------------------------------------------------
 Polarizable Continuum Model (PCM)
 =================================
 Model                : PCM (using non-symmetric T matrix).
 Atomic radii         : SMD-Coulomb.
 Polarization charges : Total charges.
 Charge compensation  : None.
 Solution method      : On-the-fly selection.
 Cavity type          : VdW (van der Waals Surface) (Alpha=1.000).
 Cavity algorithm     : GePol (No added spheres)
                        Default sphere list used, NSphG=   18.
                        Lebedev-Laikov grids with approx.  5.0 points / Ang**2.
                        Smoothing algorithm: York/Karplus (Gamma=1.0000).
                        Polarization charges: spherical gaussians, with
                                              point-specific exponents (IZeta= 3).
                        Self-potential: point-specific (ISelfS= 7).
                        Self-field    : sphere-specific E.n sum rule (ISelfD= 2).
 1st derivatives      : Analytical E(r).r(x)/FMM algorithm (CHGder, D1EAlg=3).
                        Cavity 1st derivative terms included.
 Solvent              : Acetonitrile, Eps=  35.688000 Eps(inf)=   1.806874
 ------------------------------------------------------------------------------
 Spheres list:
 ISph  on   Nord     Re0    Alpha      Xe            Ye            Ze
    1   C      1    1.8500  1.000     -8.950962     -0.915340      1.107727
    2   C      2    1.8500  1.000     -8.946329      0.470952      1.250752
    3   C      3    1.8500  1.000     -8.254113     -2.113825      0.983192
    4   C      4    1.8500  1.000     -7.047532     -2.805720      0.895493
    5   C      5    1.8500  1.000     -9.645100     -2.114976      0.996688
    6   C      6    1.8500  1.000    -10.850450     -2.811518      0.941819
    7   C      7    1.8500  1.000    -10.164793      1.193699      1.343382
    8   N      8    1.8900  1.000    -11.167328      1.776277      1.420486
    9   C      9    1.8500  1.000     -7.712759      1.169271      1.323038
   10   N     10    1.8900  1.000     -6.691864      1.720956      1.383500
   11   C     11    1.8500  1.000     -5.813223     -2.106489      0.946499
   12   N     12    1.8900  1.000     -4.807825     -1.524985      0.986527
   13   C     13    1.8500  1.000     -7.034789     -4.216498      0.734727
   14   N     14    1.8900  1.000     -7.031283     -5.370668      0.599301
   15   C     15    1.8500  1.000    -10.840805     -4.227158      0.839897
   16   N     16    1.8900  1.000    -10.796155     -5.385828      0.762344
   17   C     17    1.8500  1.000    -12.080993     -2.105903      0.989137
   18   N     18    1.8900  1.000    -13.073591     -1.502425      1.024295
 ------------------------------------------------------------------------------
 ------------------------------------------------------------------------------
 Atomic radii for non-electrostatic terms: SMD-CDS.
 ------------------------------------------------------------------------------
 Nuclear repulsion after PCM non-electrostatic terms =      965.5907118882 Hartrees.
 One-electron integrals computed using PRISM.
   1 Symmetry operations used in ECPInt.
 ECPInt:  NShTT=    5886 NPrTT=   23670 LenC2=    5404 LenP2D=   14967.
 LDataN:  DoStor=T MaxTD1= 4 Len=   56
 NBasis=   252 RedAO= T EigKep=  1.95D-04  NBF=   252
 NBsUse=   252 1.00D-06 EigRej= -1.00D+00 NBFU=   252
 Initial guess from the checkpoint file:  "b.chk"
 B after Tr=    -0.000051    0.000044   -0.000091
         Rot=    1.000000   -0.000016   -0.000006    0.000001 Ang=  -0.00 deg.
 Initial guess <Sx>= 0.0000 <Sy>= 0.0000 <Sz>= 0.5000 <S**2>= 0.7871 S= 0.5184
 Requested convergence on RMS density matrix=1.00D-08 within  64 cycles.
 Requested convergence on MAX density matrix=1.00D-06.
 Requested convergence on             energy=1.00D-06.
 No special actions if energy rises.
 Inv3:  Mode=1 IEnd=    19293888.
 Iteration    1 A*A^-1 deviation from unit magnitude is 3.11D-15 for     46.
 Iteration    1 A*A^-1 deviation from orthogonality  is 2.38D-15 for   1035    610.
 Iteration    1 A^-1*A deviation from unit magnitude is 3.22D-15 for     40.
 Iteration    1 A^-1*A deviation from orthogonality  is 6.60D-13 for   1006    979.
 Error on total polarization charges =  0.01950
 SCF Done:  E(UwB97XD) =  -784.860688067     A.U. after   12 cycles
            NFock= 12  Conv=0.59D-08     -V/T= 2.0098
 <Sx>= 0.0000 <Sy>= 0.0000 <Sz>= 0.5000 <S**2>= 0.7871 S= 0.5184
 <L.S>=  0.00000000000    
 SMD-CDS (non-electrostatic) energy       (kcal/mol) =       5.46
 (included in total energy above)
 Annihilation of the first spin contaminant:
 S**2 before annihilation     0.7871,   after     0.7511
 QCSCF skips out because SCF is already converged.

 **********************************************************************

            Population analysis using the SCF Density.

 **********************************************************************

 Alpha  occ. eigenvalues --  -14.45936 -14.45933 -14.45925 -14.45921 -14.45917
 Alpha  occ. eigenvalues --  -14.45908 -10.38246 -10.38179 -10.38168 -10.38042
 Alpha  occ. eigenvalues --  -10.38034 -10.38023 -10.36108 -10.36107 -10.36095
 Alpha  occ. eigenvalues --  -10.36093 -10.36087 -10.36078  -1.06689  -1.01958
 Alpha  occ. eigenvalues --   -1.01954  -1.01572  -1.00747  -1.00739  -1.00667
 Alpha  occ. eigenvalues --   -0.92070  -0.92050  -0.90104  -0.72248  -0.72197
 Alpha  occ. eigenvalues --   -0.68753  -0.68610  -0.68484  -0.67744  -0.55730
 Alpha  occ. eigenvalues --   -0.50894  -0.50886  -0.49758  -0.49691  -0.47621
 Alpha  occ. eigenvalues --   -0.47514  -0.47509  -0.47017  -0.46781  -0.46750
 Alpha  occ. eigenvalues --   -0.46630  -0.45189  -0.44862  -0.44849  -0.44686
 Alpha  occ. eigenvalues --   -0.44386  -0.44365  -0.42950  -0.42760  -0.42743
 Alpha  occ. eigenvalues --   -0.35271  -0.35265  -0.27997
 Alpha virt. eigenvalues --    0.04799   0.04850   0.06473   0.06881   0.06948
 Alpha virt. eigenvalues --    0.10213   0.10247   0.10516   0.10629   0.12407
 Alpha virt. eigenvalues --    0.12549   0.14491   0.19348   0.19384   0.20960
 Alpha virt. eigenvalues --    0.24814   0.25080   0.25112   0.26255   0.26306
 Alpha virt. eigenvalues --    0.27806   0.31555   0.31602   0.31608   0.33923
 Alpha virt. eigenvalues --    0.33956   0.35265   0.46499   0.46652   0.48593
 Alpha virt. eigenvalues --    0.48983   0.53194   0.53254   0.53277   0.53311
 Alpha virt. eigenvalues --    0.55006   0.55075   0.56053   0.57290   0.59468
 Alpha virt. eigenvalues --    0.60169   0.60193   0.60994   0.61083   0.62739
 Alpha virt. eigenvalues --    0.64062   0.68437   0.69664   0.69742   0.71715
 Alpha virt. eigenvalues --    0.71759   0.72747   0.72856   0.73125   0.73330
 Alpha virt. eigenvalues --    0.73415   0.73547   0.74564   0.74882   0.75738
 Alpha virt. eigenvalues --    0.79561   0.79816   0.79924   0.80998   0.81189
 Alpha virt. eigenvalues --    0.86524   0.86734   0.86893   0.87162   0.92807
 Alpha virt. eigenvalues --    0.92884   0.93059   0.93159   0.93821   0.94096
 Alpha virt. eigenvalues --    0.95853   0.98505   0.98535   0.99154   0.99337
 Alpha virt. eigenvalues --    1.00213   1.00311   1.02944   1.03203   1.03406
 Alpha virt. eigenvalues --    1.05851   1.06791   1.07482   1.07648   1.10458
 Alpha virt. eigenvalues --    1.10621   1.14922   1.16444   1.17964   1.18169
 Alpha virt. eigenvalues --    1.18954   1.22810   1.23113   1.23604   1.33277
 Alpha virt. eigenvalues --    1.36218   1.36311   1.38110   1.38205   1.41301
 Alpha virt. eigenvalues --    1.43577   1.43629   1.45558   1.45870   1.55808
 Alpha virt. eigenvalues --    1.59977   1.65876   1.68313   1.68384   1.68591
 Alpha virt. eigenvalues --    1.68769   1.68852   1.76487   1.76541   1.76694
 Alpha virt. eigenvalues --    1.77189   1.77863   1.79110   1.79155   1.79849
 Alpha virt. eigenvalues --    1.81947   1.82397   1.85237   1.92711   1.92892
 Alpha virt. eigenvalues --    1.92983   1.97803   1.99610   1.99790   2.03361
 Alpha virt. eigenvalues --    2.03458   2.06185   2.07133   2.12510   2.12660
 Alpha virt. eigenvalues --    2.17440   2.19545   2.19858   2.19974   2.26066
 Alpha virt. eigenvalues --    2.26948   2.27029   2.28731   2.33037   2.33041
 Alpha virt. eigenvalues --    2.33495   2.33588   2.33873   2.33969   2.34467
 Alpha virt. eigenvalues --    2.35426   2.35541   2.35709   2.35946   2.36048
 Alpha virt. eigenvalues --    2.37365   2.37394   2.56370   2.61942   2.62303
 Alpha virt. eigenvalues --    2.70613   2.70726   2.92699   2.94782   2.95050
 Alpha virt. eigenvalues --    2.95286   2.98485   2.98545   2.99156   3.02288
 Alpha virt. eigenvalues --    3.04801   3.04894   3.08321   3.08756   3.11643
 Alpha virt. eigenvalues --    3.11723   3.12220   3.23009   3.23353   3.28579
 Alpha virt. eigenvalues --    3.40742   3.40791   3.42372   3.53628   3.56879
 Alpha virt. eigenvalues --    3.56909   3.61638   3.61698   3.75320
  Beta  occ. eigenvalues --  -14.45743 -14.45741 -14.45733 -14.45729 -14.45725
  Beta  occ. eigenvalues --  -14.45716 -10.38282 -10.38216 -10.38204 -10.37691
  Beta  occ. eigenvalues --  -10.37683 -10.37671 -10.36200 -10.36199 -10.36186
  Beta  occ. eigenvalues --  -10.36185 -10.36179 -10.36170  -1.06294  -1.01607
  Beta  occ. eigenvalues --   -1.01603  -1.01218  -1.00417  -1.00408  -1.00337
  Beta  occ. eigenvalues --   -0.91307  -0.91285  -0.89128  -0.72115  -0.72061
  Beta  occ. eigenvalues --   -0.68537  -0.68394  -0.68223  -0.67585  -0.54958
  Beta  occ. eigenvalues --   -0.49683  -0.49595  -0.49583  -0.49540  -0.47262
  Beta  occ. eigenvalues --   -0.47154  -0.47150  -0.46658  -0.46499  -0.46469
  Beta  occ. eigenvalues --   -0.45470  -0.45086  -0.44241  -0.44221  -0.43929
  Beta  occ. eigenvalues --   -0.43914  -0.43883  -0.42805  -0.42620  -0.42604
  Beta  occ. eigenvalues --   -0.32271  -0.32260
  Beta virt. eigenvalues --   -0.10705   0.05494   0.05545   0.06585   0.06980
  Beta virt. eigenvalues --    0.07046   0.10515   0.11248   0.11282   0.11405
  Beta virt. eigenvalues --    0.12452   0.12593   0.14745   0.19544   0.19581
  Beta virt. eigenvalues --    0.22531   0.24740   0.26412   0.26438   0.26677
  Beta virt. eigenvalues --    0.26712   0.28014   0.32036   0.32104   0.32264
  Beta virt. eigenvalues --    0.34015   0.34063   0.35345   0.46621   0.46772
  Beta virt. eigenvalues --    0.48734   0.49051   0.53155   0.53180   0.53327
  Beta virt. eigenvalues --    0.53414   0.55161   0.55241   0.56204   0.57455
  Beta virt. eigenvalues --    0.59397   0.60055   0.60079   0.61008   0.61099
  Beta virt. eigenvalues --    0.62879   0.63930   0.68761   0.69825   0.69900
  Beta virt. eigenvalues --    0.71844   0.71889   0.72882   0.72997   0.73301
  Beta virt. eigenvalues --    0.73522   0.73609   0.73674   0.74699   0.75014
  Beta virt. eigenvalues --    0.75761   0.79823   0.79927   0.80532   0.81745
  Beta virt. eigenvalues --    0.81919   0.86777   0.86842   0.87018   0.87267
  Beta virt. eigenvalues --    0.92989   0.93061   0.93669   0.93757   0.94050
  Beta virt. eigenvalues --    0.94699   0.96564   0.99121   0.99136   0.99385
  Beta virt. eigenvalues --    0.99572   1.00354   1.00451   1.03080   1.03349
  Beta virt. eigenvalues --    1.03544   1.06172   1.06845   1.07806   1.07961
  Beta virt. eigenvalues --    1.10584   1.10748   1.15137   1.16778   1.18209
  Beta virt. eigenvalues --    1.18418   1.19235   1.23055   1.23322   1.24142
  Beta virt. eigenvalues --    1.33428   1.36406   1.36496   1.38673   1.38772
  Beta virt. eigenvalues --    1.42067   1.44293   1.44333   1.45643   1.45948
  Beta virt. eigenvalues --    1.55864   1.60012   1.65711   1.68094   1.68165
  Beta virt. eigenvalues --    1.68368   1.68554   1.68638   1.76522   1.76650
  Beta virt. eigenvalues --    1.76728   1.77052   1.77755   1.79005   1.79043
  Beta virt. eigenvalues --    1.80099   1.81881   1.82332   1.85146   1.92772
  Beta virt. eigenvalues --    1.92913   1.93100   1.97977   2.00202   2.00382
  Beta virt. eigenvalues --    2.03711   2.03809   2.06982   2.07287   2.13030
  Beta virt. eigenvalues --    2.13168   2.17715   2.20644   2.20822   2.20938
  Beta virt. eigenvalues --    2.26601   2.27539   2.27620   2.29221   2.33715
  Beta virt. eigenvalues --    2.33719   2.34157   2.34259   2.34559   2.34654
  Beta virt. eigenvalues --    2.35126   2.35951   2.36131   2.36159   2.36450
  Beta virt. eigenvalues --    2.36540   2.38096   2.38145   2.56834   2.62015
  Beta virt. eigenvalues --    2.62380   2.71039   2.71153   2.92790   2.94920
  Beta virt. eigenvalues --    2.95190   2.95473   2.98648   2.98710   2.99277
  Beta virt. eigenvalues --    3.02790   3.05325   3.05418   3.08480   3.08915
  Beta virt. eigenvalues --    3.12146   3.12225   3.12720   3.23252   3.23597
  Beta virt. eigenvalues --    3.28769   3.40944   3.40994   3.42564   3.53809
  Beta virt. eigenvalues --    3.57061   3.57091   3.61832   3.61892   3.75474
          Condensed to atoms (all electrons):
               1          2          3          4          5          6
     1  C    4.914059   0.542541   0.295716  -0.104776   0.297641  -0.104259
     2  C    0.542541   5.328819  -0.103688  -0.008488  -0.105095  -0.008128
     3  C    0.295716  -0.103688   4.911516   0.541877   0.297117  -0.103823
     4  C   -0.104776  -0.008488   0.541877   5.331757  -0.105076  -0.008331
     5  C    0.297641  -0.105095   0.297117  -0.105076   4.916531   0.543520
     6  C   -0.104259  -0.008128  -0.103823  -0.008331   0.543520   5.325497
     7  C    0.006193   0.391352   0.005499  -0.000495  -0.022569   0.002482
     8  N   -0.001738  -0.029077  -0.000066  -0.000001  -0.000486   0.000121
     9  C    0.009002   0.393443  -0.022724   0.002607   0.005974  -0.000470
    10  N   -0.001744  -0.028421  -0.000502   0.000144  -0.000057  -0.000001
    11  C   -0.021976   0.002623   0.007602   0.393378   0.005550  -0.000485
    12  N   -0.000467   0.000130  -0.001770  -0.028740  -0.000067  -0.000001
    13  C    0.005308  -0.000503   0.007095   0.392802  -0.022199   0.002537
    14  N   -0.000070  -0.000001  -0.001776  -0.028968  -0.000477   0.000125
    15  C    0.006306  -0.000465  -0.023507   0.002629   0.008362   0.391109
    16  N   -0.000047  -0.000001  -0.000549   0.000159  -0.001674  -0.028651
    17  C   -0.023531   0.002509   0.006042  -0.000489   0.007593   0.390348
    18  N   -0.000537   0.000142  -0.000052  -0.000001  -0.001655  -0.028856
               7          8          9         10         11         12
     1  C    0.006193  -0.001738   0.009002  -0.001744  -0.021976  -0.000467
     2  C    0.391352  -0.029077   0.393443  -0.028421   0.002623   0.000130
     3  C    0.005499  -0.000066  -0.022724  -0.000502   0.007602  -0.001770
     4  C   -0.000495  -0.000001   0.002607   0.000144   0.393378  -0.028740
     5  C   -0.022569  -0.000486   0.005974  -0.000057   0.005550  -0.000067
     6  C    0.002482   0.000121  -0.000470  -0.000001  -0.000485  -0.000001
     7  C    4.845407   0.907572  -0.052757   0.002064   0.000116   0.000002
     8  N    0.907572   6.104478   0.001921   0.000067   0.000000   0.000000
     9  C   -0.052757   0.001921   4.842720   0.907118  -0.000409   0.000099
    10  N    0.002064   0.000067   0.907118   6.106154   0.000250  -0.000766
    11  C    0.000116   0.000000  -0.000409   0.000250   4.843436   0.907663
    12  N    0.000002   0.000000   0.000099  -0.000766   0.907663   6.104693
    13  C   -0.000014  -0.000000   0.000120   0.000002  -0.052990   0.001962
    14  N   -0.000000  -0.000000   0.000000   0.000000   0.001915   0.000068
    15  C    0.000112   0.000002  -0.000014  -0.000000   0.000120   0.000000
    16  N    0.000000   0.000000  -0.000000  -0.000000   0.000002   0.000000
    17  C   -0.000410   0.000065   0.000117   0.000000  -0.000014  -0.000000
    18  N    0.000250  -0.000719   0.000002   0.000000  -0.000000  -0.000000
              13         14         15         16         17         18
     1  C    0.005308  -0.000070   0.006306  -0.000047  -0.023531  -0.000537
     2  C   -0.000503  -0.000001  -0.000465  -0.000001   0.002509   0.000142
     3  C    0.007095  -0.001776  -0.023507  -0.000549   0.006042  -0.000052
     4  C    0.392802  -0.028968   0.002629   0.000159  -0.000489  -0.000001
     5  C   -0.022199  -0.000477   0.008362  -0.001674   0.007593  -0.001655
     6  C    0.002537   0.000125   0.391109  -0.028651   0.390348  -0.028856
     7  C   -0.000014  -0.000000   0.000112   0.000000  -0.000410   0.000250
     8  N   -0.000000  -0.000000   0.000002   0.000000   0.000065  -0.000719
     9  C    0.000120   0.000000  -0.000014  -0.000000   0.000117   0.000002
    10  N    0.000002   0.000000  -0.000000  -0.000000   0.000000   0.000000
    11  C   -0.052990   0.001915   0.000120   0.000002  -0.000014  -0.000000
    12  N    0.001962   0.000068   0.000000   0.000000  -0.000000  -0.000000
    13  C    4.844362   0.907892  -0.000425   0.000325   0.000115   0.000000
    14  N    0.907892   6.104349   0.000043  -0.000768   0.000002   0.000000
    15  C   -0.000425   0.000043   4.843889   0.906336  -0.051453   0.002063
    16  N    0.000325  -0.000768   0.906336   6.107715   0.002128   0.000064
    17  C    0.000115   0.000002  -0.051453   0.002128   4.845113   0.906417
    18  N    0.000000   0.000000   0.002063   0.000064   0.906417   6.106898
          Atomic-Atomic Spin Densities.
               1          2          3          4          5          6
     1  C   -0.047437  -0.066504   0.036088  -0.005943   0.036205  -0.005927
     2  C   -0.066504   0.383464  -0.005964   0.000984  -0.005932   0.000985
     3  C    0.036088  -0.005964  -0.047499  -0.066485   0.036104  -0.005930
     4  C   -0.005943   0.000984  -0.066485   0.383121  -0.005965   0.000994
     5  C    0.036205  -0.005932   0.036104  -0.005965  -0.047109  -0.066552
     6  C   -0.005927   0.000985  -0.005930   0.000994  -0.066552   0.383447
     7  C    0.000435   0.005024  -0.000138  -0.000014   0.000373  -0.000066
     8  N    0.000502  -0.005399   0.000009  -0.000000   0.000033  -0.000025
     9  C    0.000384   0.004905   0.000382  -0.000073  -0.000155  -0.000014
    10  N    0.000535  -0.005421   0.000036  -0.000030   0.000010  -0.000000
    11  C    0.000369  -0.000070   0.000431   0.004948  -0.000148  -0.000014
    12  N    0.000034  -0.000027   0.000511  -0.005394   0.000009  -0.000000
    13  C   -0.000142  -0.000014   0.000394   0.004969   0.000373  -0.000069
    14  N    0.000009  -0.000000   0.000503  -0.005375   0.000034  -0.000026
    15  C   -0.000152  -0.000015   0.000386  -0.000075   0.000392   0.004940
    16  N    0.000010  -0.000000   0.000037  -0.000032   0.000549  -0.005438
    17  C    0.000388  -0.000071  -0.000145  -0.000015   0.000414   0.005026
    18  N    0.000036  -0.000029   0.000010  -0.000000   0.000534  -0.005440
               7          8          9         10         11         12
     1  C    0.000435   0.000502   0.000384   0.000535   0.000369   0.000034
     2  C    0.005024  -0.005399   0.004905  -0.005421  -0.000070  -0.000027
     3  C   -0.000138   0.000009   0.000382   0.000036   0.000431   0.000511
     4  C   -0.000014  -0.000000  -0.000073  -0.000030   0.004948  -0.005394
     5  C    0.000373   0.000033  -0.000155   0.000010  -0.000148   0.000009
     6  C   -0.000066  -0.000025  -0.000014  -0.000000  -0.000014  -0.000000
     7  C   -0.076140  -0.001637  -0.000328   0.000136  -0.000003   0.000000
     8  N   -0.001637   0.118090   0.000151   0.000010  -0.000000   0.000000
     9  C   -0.000328   0.000151  -0.075889  -0.001599   0.000017   0.000016
    10  N    0.000136   0.000010  -0.001599   0.117692   0.000015   0.000040
    11  C   -0.000003  -0.000000   0.000017   0.000015  -0.075988  -0.001613
    12  N    0.000000   0.000000   0.000016   0.000040  -0.001613   0.117919
    13  C    0.000000  -0.000000  -0.000003   0.000000  -0.000326   0.000148
    14  N   -0.000000   0.000000  -0.000000   0.000000   0.000151   0.000010
    15  C   -0.000003   0.000000   0.000000  -0.000000  -0.000003  -0.000000
    16  N   -0.000000   0.000000  -0.000000   0.000000   0.000000   0.000000
    17  C    0.000016   0.000015  -0.000003  -0.000000   0.000000  -0.000000
    18  N    0.000014   0.000034   0.000000   0.000000  -0.000000   0.000000
              13         14         15         16         17         18
     1  C   -0.000142   0.000009  -0.000152   0.000010   0.000388   0.000036
     2  C   -0.000014  -0.000000  -0.000015  -0.000000  -0.000071  -0.000029
     3  C    0.000394   0.000503   0.000386   0.000037  -0.000145   0.000010
     4  C    0.004969  -0.005375  -0.000075  -0.000032  -0.000015  -0.000000
     5  C    0.000373   0.000034   0.000392   0.000549   0.000414   0.000534
     6  C   -0.000069  -0.000026   0.004940  -0.005438   0.005026  -0.005440
     7  C    0.000000  -0.000000  -0.000003  -0.000000   0.000016   0.000014
     8  N   -0.000000   0.000000   0.000000   0.000000   0.000015   0.000034
     9  C   -0.000003  -0.000000   0.000000  -0.000000  -0.000003   0.000000
    10  N    0.000000   0.000000  -0.000000   0.000000  -0.000000   0.000000
    11  C   -0.000326   0.000151  -0.000003   0.000000   0.000000  -0.000000
    12  N    0.000148   0.000010  -0.000000   0.000000  -0.000000   0.000000
    13  C   -0.075952  -0.001609   0.000017   0.000015  -0.000003  -0.000000
    14  N   -0.001609   0.117731   0.000016   0.000040   0.000000   0.000000
    15  C    0.000017   0.000016  -0.075906  -0.001601  -0.000343   0.000134
    16  N    0.000015   0.000040  -0.001601   0.117618   0.000126   0.000009
    17  C   -0.000003   0.000000  -0.000343   0.000126  -0.076061  -0.001634
    18  N   -0.000000   0.000000   0.000134   0.000009  -0.001634   0.117928
 Mulliken charges and spin densities:
               1          2
     1  C    0.182378  -0.051111
     2  C   -0.377691   0.305917
     3  C    0.185994  -0.051271
     4  C   -0.379986   0.305616
     5  C    0.177067  -0.050832
     6  C   -0.372734   0.305890
     7  C   -0.084807  -0.072331
     8  N    0.017861   0.111784
     9  C   -0.086751  -0.072210
    10  N    0.015693   0.111423
    11  C   -0.086782  -0.072235
    12  N    0.017194   0.111653
    13  C   -0.086389  -0.072200
    14  N    0.017667   0.111485
    15  C   -0.085108  -0.072213
    16  N    0.014962   0.111333
    17  C   -0.084552  -0.072290
    18  N    0.015983   0.111594
 Sum of Mulliken charges =  -1.00000   1.00000
 Mulliken charges and spin densities with hydrogens summed into heavy atoms:
               1          2
     1  C    0.182378  -0.051111
     2  C   -0.377691   0.305917
     3  C    0.185994  -0.051271
     4  C   -0.379986   0.305616
     5  C    0.177067  -0.050832
     6  C   -0.372734   0.305890
     7  C   -0.084807  -0.072331
     8  N    0.017861   0.111784
     9  C   -0.086751  -0.072210
    10  N    0.015693   0.111423
    11  C   -0.086782  -0.072235
    12  N    0.017194   0.111653
    13  C   -0.086389  -0.072200
    14  N    0.017667   0.111485
    15  C   -0.085108  -0.072213
    16  N    0.014962   0.111333
    17  C   -0.084552  -0.072290
    18  N    0.015983   0.111594
 Electronic spatial extent (au):  <R**2>=          38984.4178
 Charge=             -1.0000 electrons
 Dipole moment (field-independent basis, Debye):
    X=             42.7549    Y=              8.2276    Z=             -4.9455  Tot=             43.8193
 Quadrupole moment (field-independent basis, Debye-Ang):
   XX=           -551.8804   YY=           -184.9590   ZZ=           -104.1175
   XY=            -72.5812   XZ=             44.7497   YZ=              1.2367
 Traceless Quadrupole moment (field-independent basis, Debye-Ang):
   XX=           -271.5614   YY=             95.3600   ZZ=            176.2014
   XY=            -72.5812   XZ=             44.7497   YZ=              1.2367
 Octapole moment (field-independent basis, Debye-Ang**2):
  XXX=           7979.1970  YYY=            970.4787  ZZZ=           -311.0182  XYY=           1650.5981
  XXY=            865.4895  XXZ=           -585.9732  XZZ=            931.7888  YZZ=            164.0037
  YYZ=           -160.9005  XYZ=            -12.4704
 Hexadecapole moment (field-independent basis, Debye-Ang**3):
 XXXX=        -116515.7923 YYYY=          -7791.3031 ZZZZ=           -763.7387 XXXY=         -11671.2986
 XXXZ=           8540.0577 YYYX=          -8651.2970 YYYZ=            640.8509 ZZZX=           2798.7662
 ZZZY=            359.8028 XXYY=         -16427.9453 XXZZ=          -9071.9504 YYZZ=           -973.8790
 XXYZ=            273.9319 YYXZ=           1457.9570 ZZXY=          -1465.8348
 N-N= 9.655907118882D+02 E-N=-3.766489969097D+03  KE= 7.772705749418D+02
                          Isotropic Fermi Contact Couplings
        Atom                 a.u.       MegaHertz       Gauss      10(-4) cm-1
     1  C(13)             -0.01765     -19.83845      -7.07885      -6.61740
     2  C(13)              0.05023      56.46945      20.14970      18.83618
     3  C(13)             -0.01768     -19.87573      -7.09215      -6.62983
     4  C(13)              0.05019      56.42243      20.13292      18.82050
     5  C(13)             -0.01760     -19.78015      -7.05805      -6.59795
     6  C(13)              0.05015      56.38297      20.11884      18.80733
     7  C(13)             -0.03255     -36.59590     -13.05833     -12.20708
     8  N(14)              0.02596       8.38915       2.99346       2.79832
     9  C(13)             -0.03247     -36.50765     -13.02684     -12.17764
    10  N(14)              0.02587       8.35710       2.98202       2.78763
    11  C(13)             -0.03249     -36.52510     -13.03306     -12.18346
    12  N(14)              0.02592       8.37551       2.98859       2.79377
    13  C(13)             -0.03251     -36.54651     -13.04070     -12.19060
    14  N(14)              0.02588       8.36250       2.98395       2.78943
    15  C(13)             -0.03249     -36.53048     -13.03498     -12.18526
    16  N(14)              0.02585       8.35241       2.98035       2.78606
    17  C(13)             -0.03251     -36.55009     -13.04198     -12.19180
    18  N(14)              0.02592       8.37570       2.98866       2.79383
 --------------------------------------------------------
       Center         ----  Spin Dipole Couplings  ----
                      3XX-RR        3YY-RR        3ZZ-RR
 --------------------------------------------------------
     1   Atom        0.000772      0.023464     -0.024237
     2   Atom       -0.159860     -0.156602      0.316463
     3   Atom        0.018249      0.006200     -0.024449
     4   Atom       -0.161439     -0.154523      0.315961
     5   Atom        0.017794      0.005845     -0.023639
     6   Atom       -0.161672     -0.157871      0.319542
     7   Atom        0.036949      0.009206     -0.046156
     8   Atom       -0.112426     -0.091688      0.204114
     9   Atom        0.038015      0.007998     -0.046013
    10   Atom       -0.113089     -0.090270      0.203360
    11   Atom        0.035634      0.010557     -0.046191
    12   Atom       -0.112527     -0.091502      0.204028
    13   Atom       -0.002719      0.048240     -0.045521
    14   Atom       -0.085955     -0.116601      0.202556
    15   Atom       -0.002694      0.048844     -0.046150
    16   Atom       -0.085838     -0.119748      0.205586
    17   Atom        0.035083      0.011394     -0.046477
    18   Atom       -0.111912     -0.094226      0.206138
 --------------------------------------------------------
                        XY            XZ            YZ
 --------------------------------------------------------
     1   Atom        0.000328     -0.002604      0.003978
     2   Atom       -0.000343      0.003500     -0.052285
     3   Atom       -0.010020      0.000252      0.003869
     4   Atom        0.000173      0.008494     -0.052538
     5   Atom        0.009995      0.000207      0.004046
     6   Atom       -0.000932     -0.000908     -0.035322
     7   Atom       -0.022203     -0.003271      0.006237
     8   Atom        0.014860      0.006583     -0.033337
     9   Atom        0.021498      0.002131      0.006079
    10   Atom       -0.014810     -0.001309     -0.033674
    11   Atom        0.023140      0.000728      0.005754
    12   Atom       -0.015962      0.005680     -0.031918
    13   Atom        0.000834     -0.000459      0.010705
    14   Atom       -0.000242      0.003963     -0.038929
    15   Atom       -0.002208      0.000104      0.006782
    16   Atom        0.001388     -0.001562     -0.021134
    17   Atom       -0.023368     -0.001427      0.003983
    18   Atom        0.015837     -0.001390     -0.019936
 --------------------------------------------------------


 ---------------------------------------------------------------------------------
              Anisotropic Spin Dipole Couplings in Principal Axis System
 ---------------------------------------------------------------------------------

       Atom             a.u.   MegaHertz   Gauss  10(-4) cm-1        Axes

              Baa    -0.0248    -3.333    -1.189    -1.112  0.1019 -0.0823  0.9914
     1 C(13)  Bbb     0.0010     0.140     0.050     0.047  0.9948  0.0035 -0.1019
              Bcc     0.0238     3.193     1.139     1.065  0.0049  0.9966  0.0823
 
              Baa    -0.1623   -21.781    -7.772    -7.265 -0.0159  0.9940  0.1087
     2 C(13)  Bbb    -0.1599   -21.455    -7.656    -7.157  0.9998  0.0166 -0.0055
              Bcc     0.3222    43.236    15.428    14.422  0.0073 -0.1086  0.9941
 
              Baa    -0.0250    -3.353    -1.196    -1.118 -0.0370 -0.1347  0.9902
     3 C(13)  Bbb     0.0010     0.135     0.048     0.045  0.4964  0.8575  0.1352
              Bcc     0.0240     3.217     1.148     1.073  0.8673 -0.4965 -0.0352
 
              Baa    -0.1622   -21.769    -7.768    -7.261  0.8654 -0.4962 -0.0699
     4 C(13)  Bbb    -0.1597   -21.428    -7.646    -7.147  0.5008  0.8613  0.0862
              Bcc     0.3219    43.196    15.414    14.409  0.0174 -0.1096  0.9938
 
              Baa    -0.0242    -3.250    -1.160    -1.084  0.0291 -0.1428  0.9893
     5 C(13)  Bbb     0.0007     0.087     0.031     0.029 -0.5001  0.8549  0.1381
              Bcc     0.0236     3.162     1.128     1.055  0.8655  0.4988  0.0465
 
              Baa    -0.1622   -21.770    -7.768    -7.262  0.8709  0.4900  0.0376
     6 C(13)  Bbb    -0.1599   -21.458    -7.657    -7.158 -0.4915  0.8686  0.0631
              Bcc     0.3221    43.228    15.425    14.419 -0.0017 -0.0734  0.9973
 
              Baa    -0.0469    -6.288    -2.244    -2.097  0.0106 -0.1064  0.9943
     7 C(13)  Bbb    -0.0028    -0.371    -0.132    -0.124  0.4916  0.8664  0.0875
              Bcc     0.0496     6.659     2.376     2.221  0.8707 -0.4879 -0.0615
 
              Baa    -0.1216    -4.692    -1.674    -1.565  0.8611 -0.5038 -0.0690
     8 N(14)  Bbb    -0.0863    -3.327    -1.187    -1.110  0.5083  0.8568  0.0868
              Bcc     0.2079     8.018     2.861     2.675  0.0153 -0.1098  0.9938
 
              Baa    -0.0467    -6.265    -2.236    -2.090  0.0034 -0.1118  0.9937
     9 C(13)  Bbb    -0.0028    -0.371    -0.133    -0.124 -0.4680  0.8780  0.1004
              Bcc     0.0495     6.637     2.368     2.214  0.8837  0.4655  0.0494
 
              Baa    -0.1212    -4.676    -1.668    -1.560  0.8771  0.4773  0.0531
    10 N(14)  Bbb    -0.0859    -3.315    -1.183    -1.106 -0.4803  0.8715  0.0993
              Bcc     0.2072     7.990     2.851     2.665  0.0011 -0.1126  0.9936
 
              Baa    -0.0468    -6.280    -2.241    -2.095  0.0217 -0.1084  0.9939
    11 C(13)  Bbb    -0.0027    -0.368    -0.131    -0.123 -0.5150  0.8509  0.1041
              Bcc     0.0495     6.649     2.372     2.218  0.8569  0.5141  0.0374
 
              Baa    -0.1215    -4.685    -1.672    -1.563  0.8668  0.4976  0.0337
    12 N(14)  Bbb    -0.0861    -3.322    -1.185    -1.108 -0.4982  0.8608  0.1044
              Bcc     0.2076     8.007     2.857     2.671  0.0230 -0.1073  0.9940
 
              Baa    -0.0467    -6.271    -2.238    -2.092  0.0125 -0.1121  0.9936
    13 C(13)  Bbb    -0.0027    -0.366    -0.130    -0.122  0.9998 -0.0134 -0.0141
              Bcc     0.0495     6.637     2.368     2.214  0.0149  0.9936  0.1119
 
              Baa    -0.1213    -4.678    -1.669    -1.560 -0.0066  0.9928  0.1194
    14 N(14)  Bbb    -0.0860    -3.317    -1.184    -1.106  0.9999  0.0082 -0.0126
              Bcc     0.2073     7.995     2.853     2.667  0.0135 -0.1193  0.9928
 
              Baa    -0.0466    -6.258    -2.233    -2.087 -0.0059 -0.0710  0.9975
    15 C(13)  Bbb    -0.0028    -0.374    -0.133    -0.125  0.9991  0.0416  0.0089
              Bcc     0.0494     6.631     2.366     2.212 -0.0421  0.9966  0.0707
 
              Baa    -0.1212    -4.673    -1.667    -1.559 -0.0363  0.9973  0.0643
    16 N(14)  Bbb    -0.0858    -3.309    -1.181    -1.104  0.9993  0.0359  0.0080
              Bcc     0.2070     7.982     2.848     2.663 -0.0056 -0.0646  0.9979
 
              Baa    -0.0468    -6.273    -2.239    -2.093 -0.0024 -0.0693  0.9976
    17 C(13)  Bbb    -0.0028    -0.376    -0.134    -0.125  0.5257  0.8485  0.0602
              Bcc     0.0496     6.649     2.373     2.218  0.8507 -0.5246 -0.0344
 
              Baa    -0.1215    -4.684    -1.671    -1.563  0.8551 -0.5177 -0.0279
    18 N(14)  Bbb    -0.0860    -3.318    -1.184    -1.107  0.5184  0.8530  0.0607
              Bcc     0.2075     8.002     2.855     2.669 -0.0076 -0.0663  0.9978
 

 ---------------------------------------------------------------------------------

   1 Symmetry operations used in ECPInt.
 ECPInt:  NShTT=    5886 NPrTT=   23670 LenC2=    5404 LenP2D=   14967.
 LDataN:  DoStor=T MaxTD1= 5 Len=  102
 D1PCM: PCM CHGder 1st derivatives, ID1Alg=3 FixD1E=F DoIter=F DoCFld=F I1PDM=0.
 Calling FoFJK, ICntrl=      2127 FMM=F ISym2X=0 I1Cent= 0 IOpClX= 1 NMat=1 NMatS=1 NMatT=0.
 -------------------------------------------------------------------
 Center     Atomic                   Forces (Hartrees/Bohr)
 Number     Number              X              Y              Z
 -------------------------------------------------------------------
      1        6           0.000158671    0.020295785    0.001938109
      2        6           0.000182240   -0.013512923   -0.001166157
      3        6           0.017536981   -0.010066507   -0.001026828
      4        6          -0.011689899    0.006725369    0.000555505
      5        6          -0.017472315   -0.010104014   -0.000865360
      6        6           0.011782729    0.006730810    0.000513304
      7        6          -0.006747190    0.003338336    0.000443076
      8        7           0.004183680   -0.002772475   -0.000396764
      9        6           0.007121552    0.003413190    0.000451590
     10        7          -0.004165923   -0.002181783   -0.000332177
     11        6           0.006768681    0.004547774    0.000277163
     12        7          -0.004543826   -0.002357325   -0.000080526
     13        6          -0.000496971   -0.007621041   -0.000823824
     14        7          -0.000368718    0.004976397    0.000667642
     15        6           0.000619200   -0.007836689   -0.000689252
     16        7          -0.000564438    0.004988526    0.000217786
     17        6          -0.006661310    0.004293754    0.000392636
     18        7           0.004356858   -0.002857184   -0.000075923
 -------------------------------------------------------------------
 Cartesian Forces:  Max     0.020295785 RMS     0.006534984

 GradGradGradGradGradGradGradGradGradGradGradGradGradGradGradGradGradGrad
 Berny optimization.
 Search for a local minimum.
 Step number   1 out of a maximum of    2
 All quantities printed in internal units (Hartrees-Bohrs-Radians)
 Second derivative matrix not updated -- first step.
 ITU=  0
     Eigenvalues ---    0.00129   0.00146   0.00198   0.00300   0.00301
     Eigenvalues ---    0.00818   0.01536   0.01721   0.01988   0.02013
     Eigenvalues ---    0.03002   0.04118   0.05334   0.05358   0.10303
     Eigenvalues ---    0.15180   0.21322   0.21510   0.24393   0.24711
     Eigenvalues ---    0.25047   0.25739   0.25940   0.30106   0.30268
     Eigenvalues ---    0.36027   0.41801   0.48346   0.79287   0.79743
     Eigenvalues ---    0.81886   0.99415   1.00837   1.04659   1.04969
     Eigenvalues ---    1.12157   1.60031   1.60473   2.06194   2.78744
     Eigenvalues ---    2.78950   2.79142   2.84120   2.84263   2.84323
     Eigenvalues ---   35.51923  58.35852  97.71777
 Angle between quadratic step and forces=  79.86 degrees.
 Linear search not attempted -- first point.
 B after Tr=    -0.000209    0.000067   -0.000073
         Rot=    1.000000   -0.000002   -0.000002   -0.000002 Ang=  -0.00 deg.
 Variable       Old X    -DE/DX   Delta X   Delta X   Delta X     New X
                                 (Linear)    (Quad)   (Total)
    X1      -16.91487   0.00016   0.00000   0.00840   0.00820 -16.90666
    Y1       -1.72974   0.02030   0.00000   0.00556   0.00555  -1.72419
    Z1        2.09330   0.00194   0.00000   0.00258   0.00258   2.09588
    X2      -16.90611   0.00018   0.00000   0.00831   0.00810 -16.89801
    Y2        0.88997  -0.01351   0.00000  -0.01945  -0.01946   0.87051
    Z2        2.36358  -0.00117   0.00000  -0.00035  -0.00034   2.36324
    X3      -15.59801   0.01754   0.00000   0.01180   0.01162 -15.58640
    Y3       -3.99455  -0.01007   0.00000  -0.00328  -0.00329  -3.99784
    Z3        1.85796  -0.00103   0.00000  -0.00050  -0.00052   1.85745
    X4      -13.31791  -0.01169   0.00000  -0.01034  -0.01052 -13.32842
    Y4       -5.30204   0.00673   0.00000   0.01017   0.01018  -5.29186
    Z4        1.69224   0.00056   0.00000   0.00042   0.00039   1.69263
    X5      -18.22660  -0.01747   0.00000   0.00097   0.00079 -18.22581
    Y5       -3.99673  -0.01010   0.00000  -0.00326  -0.00328  -4.00000
    Z5        1.88347  -0.00087   0.00000   0.00025   0.00024   1.88371
    X6      -20.50438   0.01178   0.00000   0.02009   0.01991 -20.48447
    Y6       -5.31300   0.00673   0.00000   0.01037   0.01035  -5.30265
    Z6        1.77978   0.00051   0.00000   0.00011   0.00012   1.77990
    X7      -19.20867  -0.00675   0.00000  -0.00578  -0.00599 -19.21466
    Y7        2.25576   0.00334   0.00000  -0.02948  -0.02950   2.22627
    Z7        2.53862   0.00044   0.00000  -0.01758  -0.01756   2.52107
    X8      -21.10319   0.00418   0.00000  -0.01253  -0.01274 -21.11593
    Y8        3.35668  -0.00277   0.00000  -0.04688  -0.04691   3.30977
    Z8        2.68433  -0.00040   0.00000  -0.03373  -0.03369   2.65064
    X9      -14.57500   0.00712   0.00000   0.01294   0.01273 -14.56227
    Y9        2.20960   0.00341   0.00000  -0.01230  -0.01230   2.19731
    Z9        2.50018   0.00045   0.00000  -0.00177  -0.00177   2.49841
   X10      -12.64579  -0.00417   0.00000   0.00755   0.00734 -12.63845
   Y10        3.25213  -0.00218   0.00000  -0.01000  -0.00999   3.24214
   Z10        2.61444  -0.00033   0.00000  -0.00337  -0.00337   2.61106
   X11      -10.98540   0.00677   0.00000  -0.00844  -0.00862 -10.99402
   Y11       -3.98069   0.00455   0.00000   0.02135   0.02137  -3.95932
   Z11        1.78862   0.00028   0.00000  -0.00122  -0.00125   1.78737
   X12       -9.08547  -0.00454   0.00000  -0.01776  -0.01795  -9.10342
   Y12       -2.88180  -0.00236   0.00000   0.02939   0.02941  -2.85239
   Z12        1.86427  -0.00008   0.00000  -0.00139  -0.00143   1.86284
   X13      -13.29383  -0.00050   0.00000  -0.02241  -0.02258 -13.31641
   Y13       -7.96803  -0.00762   0.00000   0.00143   0.00144  -7.96659
   Z13        1.38843  -0.00082   0.00000   0.02129   0.02126   1.40969
   X14      -13.28720  -0.00037   0.00000  -0.03909  -0.03925 -13.32645
   Y14      -10.14909   0.00498   0.00000   0.00296   0.00297 -10.14612
   Z14        1.13252   0.00067   0.00000   0.04192   0.04188   1.17440
   X15      -20.48615   0.00062   0.00000   0.01308   0.01292 -20.47324
   Y15       -7.98817  -0.00784   0.00000   0.00620   0.00617  -7.98200
   Z15        1.58718  -0.00069   0.00000  -0.03659  -0.03659   1.55058
   X16      -20.40178  -0.00056   0.00000  -0.00002  -0.00018 -20.40195
   Y16      -10.17774   0.00499   0.00000   0.01175   0.01172 -10.16601
   Z16        1.44062   0.00022   0.00000  -0.06765  -0.06766   1.37296
   X17      -22.82977  -0.00666   0.00000   0.01659   0.01641 -22.81336
   Y17       -3.97958   0.00429   0.00000   0.01483   0.01480  -3.96478
   Z17        1.86920   0.00039   0.00000   0.03447   0.03449   1.90369
   X18      -24.70551   0.00436   0.00000   0.01998   0.01979 -24.68571
   Y18       -2.83917  -0.00286   0.00000   0.01080   0.01076  -2.82841
   Z18        1.93564  -0.00008   0.00000   0.06318   0.06322   1.99885
         Item               Value     Threshold  Converged?
 Maximum Force            0.020296     0.000450     NO 
 RMS     Force            0.006535     0.000300     NO 
 Maximum Displacement     0.067660     0.001800     NO 
 RMS     Displacement     0.021537     0.001200     NO 
 Predicted change in Energy=-6.692837D-04
 GradGradGradGradGradGradGradGradGradGradGradGradGradGradGradGradGradGrad

 Unable to Open any file for archive entry.
 1\1\GINC-X10P1N4\Force\UwB97XD\def2SVP\C12N6(1-,2)\MAYUMIAO\11-Oct-202
 4\0\\# wb97xd def2svp scrf=(smd,solvent=acetonitrile) g09default scf=(
 xqc,maxcycle=64) force guess=read nosymm\\Title Card\\-1,2\C,-8.950962
 35,-0.91533973,1.10772697\C,-8.94632895,0.47095215,1.2507521\C,-8.2541
 1341,-2.11382519,0.9831923\C,-7.04753183,-2.80571956,0.89549314\C,-9.6
 451005,-2.11497618,0.99668791\C,-10.85044966,-2.81151812,0.94181869\C,
 -10.16479276,1.19369929,1.34338206\N,-11.16732769,1.77627692,1.4204859
 5\C,-7.71275868,1.16927104,1.32303778\N,-6.69186363,1.72095559,1.38349
 972\C,-5.81322319,-2.1064887,0.94649919\N,-4.80782481,-1.52498523,0.98
 652744\C,-7.03478946,-4.21649826,0.73472694\N,-7.0312835,-5.37066771,0
 .59930134\C,-10.84080466,-4.22715767,0.83989709\N,-10.79615526,-5.3858
 2769,0.76234444\C,-12.08099252,-2.10590314,0.98913726\N,-13.07359108,-
 1.50242524,1.02429459\\Version=ES64L-G16RevC.01\HF=-784.8606881\S2=0.7
 87076\S2-1=0.\S2A=0.751129\RMSD=5.894e-09\RMSF=6.535e-03\Dipole=-0.070
 883,-0.0038423,-0.0004545\Quadrupole=-201.8992709,70.8978137,131.00145
 72,-53.9623571,33.2703206,0.9194412\PG=C01 [X(C12N6)]\\@
 The archive entry for this job was punched.


 ANYONE WHO IS NOT SHOCKED BY QUANTUM THEORY HAS
 NOT UNDERSTOOD IT. -- NIELS BOHR(1885-1962)
 Job cpu time:       0 days  0 hours  9 minutes 48.0 seconds.
 Elapsed time:       0 days  0 hours  0 minutes 22.3 seconds.
 File lengths (MBytes):  RWF=    173 Int=      0 D2E=      0 Chk=      9 Scr=      1
 Normal termination of Gaussian 16 at Fri Oct 11 16:16:56 2024.
