 Entering Gaussian System, Link 0=g16
 Input=JOBS/58_A.gjf
 Output=JOBS/58_A.log
 Initial command:
 /data/app/gaussian/C01-avx2//g16/l1.exe "/tmp/Gau-2568481.inp" -scrdir="/tmp/"
 Entering Link 1 = /data/app/gaussian/C01-avx2//g16/l1.exe PID=   2568482.
  
 Copyright (c) 1988-2019, Gaussian, Inc.  All Rights Reserved.
  
 This is part of the Gaussian(R) 16 program.  It is based on
 the Gaussian(R) 09 system (copyright 2009, Gaussian, Inc.),
 the Gaussian(R) 03 system (copyright 2003, Gaussian, Inc.),
 the Gaussian(R) 98 system (copyright 1998, Gaussian, Inc.),
 the Gaussian(R) 94 system (copyright 1995, Gaussian, Inc.),
 the Gaussian 92(TM) system (copyright 1992, Gaussian, Inc.),
 the Gaussian 90(TM) system (copyright 1990, Gaussian, Inc.),
 the Gaussian 88(TM) system (copyright 1988, Gaussian, Inc.),
 the Gaussian 86(TM) system (copyright 1986, Carnegie Mellon
 University), and the Gaussian 82(TM) system (copyright 1983,
 Carnegie Mellon University). Gaussian is a federally registered
 trademark of Gaussian, Inc.
  
 This software contains proprietary and confidential information,
 including trade secrets, belonging to Gaussian, Inc.
  
 This software is provided under written license and may be
 used, copied, transmitted, or stored only in accord with that
 written license.
  
 The following legend is applicable only to US Government
 contracts under FAR:
  
                    RESTRICTED RIGHTS LEGEND
  
 Use, reproduction and disclosure by the US Government is
 subject to restrictions as set forth in subparagraphs (a)
 and (c) of the Commercial Computer Software - Restricted
 Rights clause in FAR 52.227-19.
  
 Gaussian, Inc.
 340 Quinnipiac St., Bldg. 40, Wallingford CT 06492
  
  
 ---------------------------------------------------------------
 Warning -- This program may not be used in any manner that
 competes with the business of Gaussian, Inc. or will provide
 assistance to any competitor of Gaussian, Inc.  The licensee
 of this program is prohibited from giving any competitor of
 Gaussian, Inc. access to this program.  By using this program,
 the user acknowledges that Gaussian, Inc. is engaged in the
 business of creating and licensing software in the field of
 computational chemistry and represents and warrants to the
 licensee that it is not a competitor of Gaussian, Inc. and that
 it will not use this program in any manner prohibited above.
 ---------------------------------------------------------------
  

 Cite this work as:
 Gaussian 16, Revision C.01,
 M. J. Frisch, G. W. Trucks, H. B. Schlegel, G. E. Scuseria, 
 M. A. Robb, J. R. Cheeseman, G. Scalmani, V. Barone, 
 G. A. Petersson, H. Nakatsuji, X. Li, M. Caricato, A. V. Marenich, 
 J. Bloino, B. G. Janesko, R. Gomperts, B. Mennucci, H. P. Hratchian, 
 J. V. Ortiz, A. F. Izmaylov, J. L. Sonnenberg, D. Williams-Young, 
 F. Ding, F. Lipparini, F. Egidi, J. Goings, B. Peng, A. Petrone, 
 T. Henderson, D. Ranasinghe, V. G. Zakrzewski, J. Gao, N. Rega, 
 G. Zheng, W. Liang, M. Hada, M. Ehara, K. Toyota, R. Fukuda, 
 J. Hasegawa, M. Ishida, T. Nakajima, Y. Honda, O. Kitao, H. Nakai, 
 T. Vreven, K. Throssell, J. A. Montgomery, Jr., J. E. Peralta, 
 F. Ogliaro, M. J. Bearpark, J. J. Heyd, E. N. Brothers, K. N. Kudin, 
 V. N. Staroverov, T. A. Keith, R. Kobayashi, J. Normand, 
 K. Raghavachari, A. P. Rendell, J. C. Burant, S. S. Iyengar, 
 J. Tomasi, M. Cossi, J. M. Millam, M. Klene, C. Adamo, R. Cammi, 
 J. W. Ochterski, R. L. Martin, K. Morokuma, O. Farkas, 
 J. B. Foresman, and D. J. Fox, Gaussian, Inc., Wallingford CT, 2019.
 
 ******************************************
 Gaussian 16:  ES64L-G16RevC.01  3-Jul-2019
                11-Oct-2024 
 ******************************************
 %chk=a.chk
 %nprocshared=28
 Will use up to   28 processors via shared memory.
 %mem=48gb
 ----------------------------------------------------------------------
 # wb97xd def2svp scrf=(smd,solvent=acetonitrile) g09default scf=(xqc,m
 axcycle=64) force guess=read nosymm
 ----------------------------------------------------------------------
 1/10=7,30=1,38=1,158=3,167=1/1,3;
 2/12=2,15=1,17=6,18=5,40=1/2;
 3/5=43,7=101,11=2,25=1,27=10,30=1,70=32201,71=1,72=2,74=-58,75=-4,116=-2,158=3/1,2,3;
 4/5=1,60=-1/1;
 5/5=2,7=64,8=3,13=1,38=6,53=2,87=10/2,8;
 6/7=2,8=2,9=2,10=2,28=1,87=10/1;
 7/29=1,30=1,87=10/1,2,3,16;
 1/10=7,30=1,158=3,167=1/3;
 99//99;
 Using 2006 physical constants.
 ----------
 Title Card
 ----------
 Symbolic Z-matrix:
 Charge = -2 Multiplicity = 1
 6                    -8.95079  -0.91522   1.10778 
 6                    -8.94613   0.47089   1.25084 
 6                    -8.25402  -2.11383   0.98314 
 6                    -7.04754  -2.80566   0.8954 
 6                    -9.64506  -2.11495   0.99669 
 6                    -10.85033  -2.81147   0.94179 
 6                    -10.16471   1.19343   1.34339 
 7                    -11.16738   1.77582   1.42039 
 6                    -7.7127    1.16941   1.32307 
 7                    -6.69172   1.72098   1.38342 
 6                    -5.81313  -2.1064    0.94647 
 7                    -4.80802  -1.52467   0.98664 
 6                    -7.0349   -4.21642   0.73476 
 7                    -7.03169  -5.37058   0.59947 
 6                    -10.84076  -4.22714   0.83979 
 7                    -10.7965  -5.38578   0.76215 
 6                    -12.08102  -2.10603   0.98918 
 7                    -13.07349  -1.50254   1.02443 
 

 GradGradGradGradGradGradGradGradGradGradGradGradGradGradGradGradGradGrad
 Berny optimization.
 Initialization pass.
 Trust Radius=3.00D-01 FncErr=1.00D-07 GrdErr=1.00D-07 EigMax=2.50D+02 EigMin=1.00D-04
 Number of steps in this run=      2 maximum allowed number of steps=      2.
 GradGradGradGradGradGradGradGradGradGradGradGradGradGradGradGradGradGrad

                          Input orientation:                          
 ---------------------------------------------------------------------
 Center     Atomic      Atomic             Coordinates (Angstroms)
 Number     Number       Type             X           Y           Z
 ---------------------------------------------------------------------
      1          6           0       -8.950791   -0.915223    1.107784
      2          6           0       -8.946127    0.470892    1.250836
      3          6           0       -8.254024   -2.113826    0.983145
      4          6           0       -7.047540   -2.805664    0.895405
      5          6           0       -9.645056   -2.114951    0.996687
      6          6           0      -10.850333   -2.811475    0.941793
      7          6           0      -10.164714    1.193435    1.343389
      8          7           0      -11.167376    1.775822    1.420385
      9          6           0       -7.712700    1.169406    1.323073
     10          7           0       -6.691724    1.720975    1.383419
     11          6           0       -5.813126   -2.106401    0.946468
     12          7           0       -4.808022   -1.524669    0.986640
     13          6           0       -7.034896   -4.216423    0.734762
     14          7           0       -7.031690   -5.370582    0.599467
     15          6           0      -10.840764   -4.227141    0.839788
     16          7           0      -10.796499   -5.385778    0.762151
     17          6           0      -12.081020   -2.106031    0.989178
     18          7           0      -13.073489   -1.502544    1.024434
 ---------------------------------------------------------------------
                    Distance matrix (angstroms):
                    1          2          3          4          5
     1  C    0.000000
     2  C    1.393485   0.000000
     3  C    1.392001   2.689132   0.000000
     4  C    2.690954   3.803522   1.393535   0.000000
     5  C    1.390574   2.690665   1.391099   2.689690   0.000000
     6  C    2.689161   3.807287   2.688725   3.803080   1.393144
     7  C    2.444495   1.419715   3.836468   5.090211   3.366848
     8  N    3.500385   2.581770   4.879360   6.183742   4.199416
     9  C    2.434111   1.419325   3.344876   4.052964   3.824596
    10  N    3.482656   2.581205   4.160132   4.566752   4.856549
    11  C    3.360039   4.068264   2.441185   1.419632   3.832269
    12  N    4.189109   4.601736   3.496005   2.581611   4.872929
    13  C    3.835065   5.088227   2.443130   1.419933   3.361209
    14  N    4.877659   6.181599   3.499682   2.581983   4.193638
    15  C    3.822646   5.082335   3.343333   4.051202   2.432217
    16  N    4.848914   6.161434   4.149541   4.552960   3.475505
    17  C    3.351184   4.066516   3.827009   5.082736   2.435992
    18  N    4.165157   4.580483   4.858252   6.166590   3.482810
                    6          7          8          9         10
     6  C    0.000000
     7  C    4.082971   0.000000
     8  N    4.623079   1.162082   0.000000
     9  C    5.083063   2.452216   3.508846   0.000000
    10  N    6.167022   3.513056   4.476141   1.162007   0.000000
    11  C    5.086315   5.475653   6.630554   3.805407   3.951160
    12  N    6.177977   6.017434   7.177936   3.975975   3.773589
    13  C    4.071154   6.279550   7.311257   5.460099   5.982577
    14  N    4.609583   7.311332   8.297524   6.615045   7.142852
    15  C    1.419369   5.485736   6.039813   6.256283   7.272562
    16  N    2.581125   6.634985   7.201343   7.266009   8.230498
    17  C    1.419327   3.831993   4.011168   5.470119   6.621625
    18  N    2.581192   3.978819   3.812837   5.997213   7.158691
                   11         12         13         14         15
    11  C    0.000000
    12  N    1.162007   0.000000
    13  C    2.447394   3.502564   0.000000
    14  N    3.501455   4.459333   1.162066   0.000000
    15  C    5.457661   6.612027   3.807332   3.984252   0.000000
    16  N    5.968442   7.128844   3.939264   3.768354   1.162078
    17  C    6.268040   7.296197   5.475569   6.025356   2.461638
    18  N    7.285849   8.265583   6.626738   7.186491   3.527405
                   16         17         18
    16  N    0.000000
    17  C    3.529628   0.000000
    18  N    4.509211   1.162082   0.000000
 Symmetry turned off by external request.
 Stoichiometry    C12N6(2-)
 Framework group  C1[X(C12N6)]
 Deg. of freedom    48
 Full point group                 C1      NOp   1
 Rotational constants (GHZ):           0.4314980           0.4273589           0.2147561
 Standard basis: def2SVP (5D, 7F)
   252 basis functions,   450 primitive gaussians,   270 cartesian basis functions
    58 alpha electrons       58 beta electrons
       nuclear repulsion energy       965.6121496256 Hartrees.
 NAtoms=   18 NActive=   18 NUniq=   18 SFac= 1.00D+00 NAtFMM=   60 NAOKFM=F Big=F
 Integral buffers will be    131072 words long.
 Raffenetti 2 integral format.
 Two-electron integral symmetry is turned off.
 Nuclear repulsion after empirical dispersion term =      965.6004670231 Hartrees.
 Force PCM accuracy= 1.00D-10.
 ------------------------------------------------------------------------------
 Polarizable Continuum Model (PCM)
 =================================
 Model                : PCM (using non-symmetric T matrix).
 Atomic radii         : SMD-Coulomb.
 Polarization charges : Total charges.
 Charge compensation  : None.
 Solution method      : On-the-fly selection.
 Cavity type          : VdW (van der Waals Surface) (Alpha=1.000).
 Cavity algorithm     : GePol (No added spheres)
                        Default sphere list used, NSphG=   18.
                        Lebedev-Laikov grids with approx.  5.0 points / Ang**2.
                        Smoothing algorithm: York/Karplus (Gamma=1.0000).
                        Polarization charges: spherical gaussians, with
                                              point-specific exponents (IZeta= 3).
                        Self-potential: point-specific (ISelfS= 7).
                        Self-field    : sphere-specific E.n sum rule (ISelfD= 2).
 1st derivatives      : Analytical E(r).r(x)/FMM algorithm (CHGder, D1EAlg=3).
                        Cavity 1st derivative terms included.
 Solvent              : Acetonitrile, Eps=  35.688000 Eps(inf)=   1.806874
 ------------------------------------------------------------------------------
 Spheres list:
 ISph  on   Nord     Re0    Alpha      Xe            Ye            Ze
    1   C      1    1.8500  1.000     -8.950791     -0.915223      1.107784
    2   C      2    1.8500  1.000     -8.946127      0.470892      1.250836
    3   C      3    1.8500  1.000     -8.254024     -2.113826      0.983145
    4   C      4    1.8500  1.000     -7.047540     -2.805664      0.895405
    5   C      5    1.8500  1.000     -9.645056     -2.114951      0.996687
    6   C      6    1.8500  1.000    -10.850333     -2.811475      0.941793
    7   C      7    1.8500  1.000    -10.164714      1.193435      1.343389
    8   N      8    1.8900  1.000    -11.167376      1.775822      1.420385
    9   C      9    1.8500  1.000     -7.712700      1.169406      1.323073
   10   N     10    1.8900  1.000     -6.691724      1.720975      1.383419
   11   C     11    1.8500  1.000     -5.813126     -2.106401      0.946468
   12   N     12    1.8900  1.000     -4.808022     -1.524669      0.986640
   13   C     13    1.8500  1.000     -7.034896     -4.216423      0.734762
   14   N     14    1.8900  1.000     -7.031690     -5.370582      0.599467
   15   C     15    1.8500  1.000    -10.840764     -4.227141      0.839788
   16   N     16    1.8900  1.000    -10.796499     -5.385778      0.762151
   17   C     17    1.8500  1.000    -12.081020     -2.106031      0.989178
   18   N     18    1.8900  1.000    -13.073489     -1.502544      1.024434
 ------------------------------------------------------------------------------
 ------------------------------------------------------------------------------
 Atomic radii for non-electrostatic terms: SMD-CDS.
 ------------------------------------------------------------------------------
 Nuclear repulsion after PCM non-electrostatic terms =      965.6091676454 Hartrees.
 One-electron integrals computed using PRISM.
   1 Symmetry operations used in ECPInt.
 ECPInt:  NShTT=    5886 NPrTT=   23670 LenC2=    5404 LenP2D=   14967.
 LDataN:  DoStor=T MaxTD1= 4 Len=   56
 NBasis=   252 RedAO= T EigKep=  1.95D-04  NBF=   252
 NBsUse=   252 1.00D-06 EigRej= -1.00D+00 NBFU=   252
 Initial guess from the checkpoint file:  "a.chk"
 B after Tr=    -0.000012    0.000023    0.000045
         Rot=    1.000000   -0.000002    0.000001   -0.000000 Ang=  -0.00 deg.
 Requested convergence on RMS density matrix=1.00D-08 within  64 cycles.
 Requested convergence on MAX density matrix=1.00D-06.
 Requested convergence on             energy=1.00D-06.
 No special actions if energy rises.
 Inv3:  Mode=1 IEnd=    19293888.
 Iteration    1 A*A^-1 deviation from unit magnitude is 3.66D-15 for   1471.
 Iteration    1 A*A^-1 deviation from orthogonality  is 2.52D-15 for    444     40.
 Iteration    1 A^-1*A deviation from unit magnitude is 3.55D-15 for    922.
 Iteration    1 A^-1*A deviation from orthogonality  is 1.58D-12 for   1078   1067.
 Error on total polarization charges =  0.02151
 SCF Done:  E(RwB97XD) =  -785.032579974     A.U. after    8 cycles
            NFock=  8  Conv=0.43D-08     -V/T= 2.0097
 SMD-CDS (non-electrostatic) energy       (kcal/mol) =       5.46
 (included in total energy above)
 QCSCF skips out because SCF is already converged.

 **********************************************************************

            Population analysis using the SCF Density.

 **********************************************************************

 Alpha  occ. eigenvalues --  -14.42770 -14.42767 -14.42759 -14.42756 -14.42751
 Alpha  occ. eigenvalues --  -14.42745 -10.34977 -10.34908 -10.34895 -10.33707
 Alpha  occ. eigenvalues --  -10.33704 -10.33692 -10.33691 -10.33685 -10.33677
 Alpha  occ. eigenvalues --  -10.32725 -10.32715 -10.32703  -1.03037  -0.99105
 Alpha  occ. eigenvalues --   -0.99102  -0.98722  -0.98038  -0.98029  -0.97954
 Alpha  occ. eigenvalues --   -0.88199  -0.88178  -0.86081  -0.68780  -0.68729
 Alpha  occ. eigenvalues --   -0.65181  -0.65043  -0.64895  -0.64134  -0.52447
 Alpha  occ. eigenvalues --   -0.47690  -0.47684  -0.46776  -0.46721  -0.45187
 Alpha  occ. eigenvalues --   -0.45073  -0.45068  -0.44535  -0.44208  -0.44169
 Alpha  occ. eigenvalues --   -0.43842  -0.42831  -0.42244  -0.42231  -0.42053
 Alpha  occ. eigenvalues --   -0.41953  -0.41931  -0.40542  -0.40189  -0.40166
 Alpha  occ. eigenvalues --   -0.31484  -0.31476  -0.23617
 Alpha virt. eigenvalues --    0.07482   0.07533   0.08871   0.09314   0.09378
 Alpha virt. eigenvalues --    0.12700   0.12732   0.13104   0.13155   0.14845
 Alpha virt. eigenvalues --    0.14974   0.16306   0.21092   0.21140   0.24194
 Alpha virt. eigenvalues --    0.27532   0.28110   0.28127   0.28637   0.28665
 Alpha virt. eigenvalues --    0.29993   0.33652   0.33721   0.33930   0.36888
 Alpha virt. eigenvalues --    0.36928   0.37217   0.48992   0.49125   0.50541
 Alpha virt. eigenvalues --    0.50724   0.54911   0.54936   0.54975   0.55051
 Alpha virt. eigenvalues --    0.57455   0.57510   0.58256   0.59963   0.61126
 Alpha virt. eigenvalues --    0.61713   0.61739   0.62880   0.62946   0.64904
 Alpha virt. eigenvalues --    0.65525   0.70950   0.71755   0.71830   0.73694
 Alpha virt. eigenvalues --    0.73724   0.74435   0.74626   0.74773   0.75081
 Alpha virt. eigenvalues --    0.75169   0.75250   0.76620   0.76910   0.77795
 Alpha virt. eigenvalues --    0.82000   0.82087   0.82232   0.83466   0.83643
 Alpha virt. eigenvalues --    0.88845   0.88947   0.89371   0.89552   0.94726
 Alpha virt. eigenvalues --    0.94800   0.95110   0.95203   0.95979   0.96144
 Alpha virt. eigenvalues --    0.98102   1.00611   1.00642   1.01336   1.01584
 Alpha virt. eigenvalues --    1.02430   1.02558   1.05286   1.05502   1.05757
 Alpha virt. eigenvalues --    1.08503   1.08975   1.10207   1.10338   1.12766
 Alpha virt. eigenvalues --    1.12915   1.17533   1.18947   1.20326   1.20536
 Alpha virt. eigenvalues --    1.21169   1.25051   1.25271   1.27272   1.35224
 Alpha virt. eigenvalues --    1.38819   1.38912   1.41798   1.41894   1.45057
 Alpha virt. eigenvalues --    1.47170   1.47297   1.47814   1.48013   1.58976
 Alpha virt. eigenvalues --    1.62365   1.68390   1.70726   1.70794   1.70965
 Alpha virt. eigenvalues --    1.71159   1.71240   1.79089   1.79490   1.79610
 Alpha virt. eigenvalues --    1.79650   1.80341   1.81496   1.81530   1.82871
 Alpha virt. eigenvalues --    1.84660   1.85102   1.87667   1.95477   1.95634
 Alpha virt. eigenvalues --    1.95774   2.00394   2.03114   2.03293   2.06446
 Alpha virt. eigenvalues --    2.06540   2.09990   2.10384   2.16127   2.16262
 Alpha virt. eigenvalues --    2.21000   2.23607   2.23697   2.23802   2.29523
 Alpha virt. eigenvalues --    2.30507   2.30605   2.32107   2.35918   2.35920
 Alpha virt. eigenvalues --    2.36495   2.36559   2.36789   2.36892   2.37499
 Alpha virt. eigenvalues --    2.38488   2.38591   2.38768   2.38861   2.39127
 Alpha virt. eigenvalues --    2.40549   2.40652   2.59984   2.65113   2.65477
 Alpha virt. eigenvalues --    2.74309   2.74419   2.95375   2.97519   2.97789
 Alpha virt. eigenvalues --    2.98083   3.01248   3.01314   3.01971   3.05341
 Alpha virt. eigenvalues --    3.07977   3.08070   3.11424   3.11856   3.14794
 Alpha virt. eigenvalues --    3.14872   3.15370   3.25962   3.26298   3.31534
 Alpha virt. eigenvalues --    3.43963   3.44006   3.45252   3.56529   3.59857
 Alpha virt. eigenvalues --    3.59879   3.64682   3.64742   3.78644
          Condensed to atoms (all electrons):
               1          2          3          4          5          6
     1  C    4.963937   0.493639   0.314347  -0.117351   0.317260  -0.116731
     2  C    0.493639   5.550923  -0.116176  -0.007639  -0.117745  -0.007260
     3  C    0.314347  -0.116176   4.961235   0.493428   0.316266  -0.116250
     4  C   -0.117351  -0.007639   0.493428   5.553445  -0.117715  -0.007496
     5  C    0.317260  -0.117745   0.316266  -0.117715   4.965272   0.494089
     6  C   -0.116731  -0.007260  -0.116250  -0.007496   0.494089   5.548338
     7  C    0.011452   0.385123   0.006271  -0.000540  -0.025273   0.002896
     8  N   -0.001042  -0.044223  -0.000067  -0.000001  -0.000597   0.000143
     9  C    0.014648   0.387253  -0.025463   0.003026   0.006788  -0.000514
    10  N   -0.001017  -0.043506  -0.000619   0.000163  -0.000057  -0.000001
    11  C   -0.024628   0.003055   0.012895   0.387164   0.006277  -0.000532
    12  N   -0.000578   0.000152  -0.001082  -0.043756  -0.000069  -0.000001
    13  C    0.006009  -0.000552   0.012314   0.386783  -0.024859   0.002969
    14  N   -0.000073  -0.000002  -0.001094  -0.044022  -0.000587   0.000149
    15  C    0.007209  -0.000507  -0.026393   0.003044   0.014004   0.385119
    16  N   -0.000043  -0.000001  -0.000674   0.000177  -0.000919  -0.043882
    17  C   -0.026381   0.002909   0.006947  -0.000533   0.013114   0.384071
    18  N   -0.000659   0.000160  -0.000049  -0.000001  -0.000907  -0.044102
               7          8          9         10         11         12
     1  C    0.011452  -0.001042   0.014648  -0.001017  -0.024628  -0.000578
     2  C    0.385123  -0.044223   0.387253  -0.043506   0.003055   0.000152
     3  C    0.006271  -0.000067  -0.025463  -0.000619   0.012895  -0.001082
     4  C   -0.000540  -0.000001   0.003026   0.000163   0.387164  -0.043756
     5  C   -0.025273  -0.000597   0.006788  -0.000057   0.006277  -0.000069
     6  C    0.002896   0.000143  -0.000514  -0.000001  -0.000532  -0.000001
     7  C    4.879829   0.926158  -0.054746   0.002673   0.000137   0.000002
     8  N    0.926158   6.152860   0.002535   0.000091   0.000000   0.000000
     9  C   -0.054746   0.002535   4.876538   0.925551  -0.000522   0.000054
    10  N    0.002673   0.000091   0.925551   6.154636   0.000222  -0.000887
    11  C    0.000137   0.000000  -0.000522   0.000222   4.877165   0.926367
    12  N    0.000002   0.000000   0.000054  -0.000887   0.926367   6.152667
    13  C   -0.000017  -0.000000   0.000142   0.000003  -0.054651   0.002602
    14  N   -0.000000  -0.000000   0.000000   0.000000   0.002556   0.000093
    15  C    0.000133   0.000002  -0.000017  -0.000000   0.000141   0.000000
    16  N    0.000000   0.000000  -0.000000  -0.000000   0.000003   0.000000
    17  C   -0.000529   0.000016   0.000137   0.000000  -0.000017  -0.000000
    18  N    0.000222  -0.000830   0.000003   0.000000  -0.000000  -0.000000
              13         14         15         16         17         18
     1  C    0.006009  -0.000073   0.007209  -0.000043  -0.026381  -0.000659
     2  C   -0.000552  -0.000002  -0.000507  -0.000001   0.002909   0.000160
     3  C    0.012314  -0.001094  -0.026393  -0.000674   0.006947  -0.000049
     4  C    0.386783  -0.044022   0.003044   0.000177  -0.000533  -0.000001
     5  C   -0.024859  -0.000587   0.014004  -0.000919   0.013114  -0.000907
     6  C    0.002969   0.000149   0.385119  -0.043882   0.384071  -0.044102
     7  C   -0.000017  -0.000000   0.000133   0.000000  -0.000529   0.000222
     8  N   -0.000000  -0.000000   0.000002   0.000000   0.000016  -0.000830
     9  C    0.000142   0.000000  -0.000017  -0.000000   0.000137   0.000003
    10  N    0.000003   0.000000  -0.000000  -0.000000   0.000000   0.000000
    11  C   -0.054651   0.002556   0.000141   0.000003  -0.000017  -0.000000
    12  N    0.002602   0.000093   0.000000   0.000000  -0.000000  -0.000000
    13  C    4.878088   0.926451  -0.000545   0.000304   0.000136   0.000000
    14  N    0.926451   6.152673  -0.000007  -0.000889   0.000002   0.000000
    15  C   -0.000545  -0.000007   4.878329   0.924728  -0.054096   0.002613
    16  N    0.000304  -0.000889   0.924728   6.156431   0.002675   0.000085
    17  C    0.000136   0.000002  -0.054096   0.002675   4.879957   0.924988
    18  N    0.000000   0.000000   0.002613   0.000085   0.924988   6.155243
 Mulliken charges:
               1
     1  C    0.160001
     2  C   -0.485604
     3  C    0.164163
     4  C   -0.488174
     5  C    0.155658
     6  C   -0.481003
     7  C   -0.133790
     8  N   -0.035045
     9  C   -0.135412
    10  N   -0.037252
    11  C   -0.135633
    12  N   -0.035565
    13  C   -0.135177
    14  N   -0.035253
    15  C   -0.133758
    16  N   -0.037995
    17  C   -0.133396
    18  N   -0.036766
 Sum of Mulliken charges =  -2.00000
 Mulliken charges with hydrogens summed into heavy atoms:
               1
     1  C    0.160001
     2  C   -0.485604
     3  C    0.164163
     4  C   -0.488174
     5  C    0.155658
     6  C   -0.481003
     7  C   -0.133790
     8  N   -0.035045
     9  C   -0.135412
    10  N   -0.037252
    11  C   -0.135633
    12  N   -0.035565
    13  C   -0.135177
    14  N   -0.035253
    15  C   -0.133758
    16  N   -0.037995
    17  C   -0.133396
    18  N   -0.036766
 Electronic spatial extent (au):  <R**2>=          39329.6075
 Charge=             -2.0000 electrons
 Dipole moment (field-independent basis, Debye):
    X=             85.6980    Y=             16.4628    Z=             -9.8914  Tot=             87.8237
 Quadrupole moment (field-independent basis, Debye-Ang):
   XX=           -964.4071   YY=           -227.4891   ZZ=           -113.5359
   XY=           -146.1230   XZ=             89.2366   YZ=              7.2744
 Traceless Quadrupole moment (field-independent basis, Debye-Ang):
   XX=           -529.2631   YY=            207.6549   ZZ=            321.6081
   XY=           -146.1230   XZ=             89.2366   YZ=              7.2744
 Octapole moment (field-independent basis, Debye-Ang**2):
  XXX=          12178.5967  YYY=           1140.5568  ZZZ=           -329.6301  XYY=           2030.6841
  XXY=           1571.4788  XXZ=          -1015.1447  XZZ=           1016.4841  YZZ=            175.0613
  YYZ=           -196.7199  XYZ=            -67.1608
 Hexadecapole moment (field-independent basis, Debye-Ang**3):
 XXXX=        -161279.6628 YYYY=          -8691.7842 ZZZZ=           -804.6169 XXXY=         -18856.2060
 XXXZ=          12919.8281 YYYX=         -10169.9630 YYYZ=            766.7843 ZZZX=           2966.4986
 ZZZY=            377.8081 XXYY=         -20029.8865 XXZZ=          -9885.3203 YYZZ=          -1038.7973
 XXYZ=            809.3127 YYXZ=           1782.1973 ZZXY=          -1565.7680
 N-N= 9.656091676454D+02 E-N=-3.785007089959D+03  KE= 7.774805999286D+02
   1 Symmetry operations used in ECPInt.
 ECPInt:  NShTT=    5886 NPrTT=   23670 LenC2=    5404 LenP2D=   14967.
 LDataN:  DoStor=T MaxTD1= 5 Len=  102
 D1PCM: PCM CHGder 1st derivatives, ID1Alg=3 FixD1E=F DoIter=F DoCFld=F I1PDM=0.
 Calling FoFJK, ICntrl=      2127 FMM=F ISym2X=0 I1Cent= 0 IOpClX= 0 NMat=1 NMatS=1 NMatT=0.
 -------------------------------------------------------------------
 Center     Atomic                   Forces (Hartrees/Bohr)
 Number     Number              X              Y              Z
 -------------------------------------------------------------------
      1        6           0.000085849   -0.021278201   -0.001916217
      2        6           0.000230990    0.014244517    0.001502659
      3        6          -0.018416170    0.010650215    0.000995091
      4        6           0.012404008   -0.007014030   -0.000839805
      5        6           0.018558642    0.010744875    0.000908751
      6        6          -0.012302873   -0.007129964   -0.000586045
      7        6           0.007383623   -0.003972576   -0.000385240
      8        7          -0.004698634    0.002136565    0.000268403
      9        6          -0.007155838   -0.003466804   -0.000339108
     10        7           0.004837928    0.002517034    0.000228241
     11        6          -0.006913712   -0.004343550   -0.000382347
     12        7           0.004449391    0.003058589    0.000241706
     13        6           0.000284169    0.008226247    0.000820756
     14        7          -0.000531247   -0.005241450   -0.000514632
     15        6          -0.000568514    0.008107468    0.000550010
     16        7          -0.000046059   -0.005300295   -0.000469931
     17        6           0.006890263   -0.004635360   -0.000325867
     18        7          -0.004491815    0.002696722    0.000243575
 -------------------------------------------------------------------
 Cartesian Forces:  Max     0.021278201 RMS     0.006880254

 GradGradGradGradGradGradGradGradGradGradGradGradGradGradGradGradGradGrad
 Berny optimization.
 Search for a local minimum.
 Step number   1 out of a maximum of    2
 All quantities printed in internal units (Hartrees-Bohrs-Radians)
 Second derivative matrix not updated -- first step.
 ITU=  0
     Eigenvalues ---    0.00129   0.00146   0.00198   0.00300   0.00301
     Eigenvalues ---    0.00818   0.01536   0.01721   0.01988   0.02013
     Eigenvalues ---    0.03003   0.04120   0.05335   0.05358   0.10304
     Eigenvalues ---    0.15186   0.21322   0.21511   0.24396   0.24714
     Eigenvalues ---    0.25046   0.25739   0.25939   0.30111   0.30269
     Eigenvalues ---    0.36021   0.41804   0.48343   0.79289   0.79740
     Eigenvalues ---    0.81896   0.99414   1.00826   1.04667   1.04978
     Eigenvalues ---    1.12160   1.60050   1.60488   2.06192   2.78829
     Eigenvalues ---    2.78991   2.79193   2.84211   2.84288   2.84376
     Eigenvalues ---   36.04698  57.51905  94.96589
 Angle between quadratic step and forces=  74.75 degrees.
 Linear search not attempted -- first point.
 B after Tr=    -0.000260    0.000071   -0.000195
         Rot=    1.000000    0.000001   -0.000005   -0.000003 Ang=   0.00 deg.
 Variable       Old X    -DE/DX   Delta X   Delta X   Delta X     New X
                                 (Linear)    (Quad)   (Total)
    X1      -16.91454   0.00009   0.00000   0.01055   0.01032 -16.90422
    Y1       -1.72952  -0.02128   0.00000  -0.00687  -0.00688  -1.73640
    Z1        2.09341  -0.00192   0.00000   0.00053   0.00053   2.09394
    X2      -16.90573   0.00023   0.00000   0.00793   0.00769 -16.89804
    Y2        0.88986   0.01424   0.00000   0.01767   0.01765   0.90751
    Z2        2.36374   0.00150   0.00000   0.00334   0.00333   2.36706
    X3      -15.59785  -0.01842   0.00000   0.00277   0.00255 -15.59530
    Y3       -3.99455   0.01065   0.00000   0.00348   0.00347  -3.99108
    Z3        1.85787   0.00100   0.00000   0.00067   0.00065   1.85853
    X4      -13.31792   0.01240   0.00000   0.02261   0.02240 -13.29552
    Y4       -5.30194  -0.00701   0.00000  -0.00965  -0.00964  -5.31158
    Z4        1.69207  -0.00084   0.00000   0.00054   0.00051   1.69257
    X5      -18.22652   0.01856   0.00000   0.01452   0.01430 -18.21221
    Y5       -3.99668   0.01074   0.00000   0.00398   0.00395  -3.99272
    Z5        1.88347   0.00091   0.00000   0.00003   0.00004   1.88351
    X6      -20.50416  -0.01230   0.00000  -0.00969  -0.00990 -20.51406
    Y6       -5.31292  -0.00713   0.00000  -0.00627  -0.00631  -5.31923
    Z6        1.77973  -0.00059   0.00000  -0.00315  -0.00311   1.77662
    X7      -19.20853   0.00738   0.00000   0.00579   0.00554 -19.20298
    Y7        2.25527  -0.00397   0.00000  -0.00098  -0.00101   2.25426
    Z7        2.53864  -0.00039   0.00000   0.00351   0.00352   2.54215
    X8      -21.10328  -0.00470   0.00000  -0.00967  -0.00992 -21.11320
    Y8        3.35582   0.00214   0.00000  -0.01940  -0.01944   3.33638
    Z8        2.68414   0.00027   0.00000   0.00296   0.00299   2.68713
    X9      -14.57489  -0.00716   0.00000  -0.00379  -0.00403 -14.57892
    Y9        2.20986  -0.00347   0.00000   0.02721   0.02721   2.23707
    Z9        2.50024  -0.00034   0.00000  -0.00377  -0.00381   2.49643
   X10      -12.64553   0.00484   0.00000  -0.00451  -0.00476 -12.65028
   Y10        3.25217   0.00252   0.00000   0.03821   0.03822   3.29039
   Z10        2.61428   0.00023   0.00000  -0.00906  -0.00912   2.60516
   X11      -10.98522  -0.00691   0.00000   0.01661   0.01639 -10.96883
   Y11       -3.98052  -0.00434   0.00000  -0.01197  -0.01196  -3.99248
   Z11        1.78857  -0.00038   0.00000  -0.00422  -0.00428   1.78428
   X12       -9.08584   0.00445   0.00000   0.01599   0.01576  -9.07008
   Y12       -2.88121   0.00306   0.00000  -0.00222  -0.00219  -2.88340
   Z12        1.86448   0.00024   0.00000  -0.00686  -0.00695   1.85753
   X13      -13.29403   0.00028   0.00000   0.01265   0.01245 -13.28158
   Y13       -7.96789   0.00823   0.00000  -0.00422  -0.00422  -7.97210
   Z13        1.38850   0.00082   0.00000   0.01460   0.01456   1.40306
   X14      -13.28797  -0.00053   0.00000  -0.00583  -0.00602 -13.29399
   Y14      -10.14893  -0.00524   0.00000  -0.01001  -0.01001 -10.15893
   Z14        1.13283  -0.00051   0.00000   0.02776   0.02774   1.16057
   X15      -20.48608  -0.00057   0.00000  -0.02335  -0.02354 -20.50962
   Y15       -7.98814   0.00811   0.00000   0.00142   0.00139  -7.98675
   Z15        1.58697   0.00055   0.00000  -0.01937  -0.01932   1.56764
   X16      -20.40243  -0.00005   0.00000  -0.03923  -0.03942 -20.44185
   Y16      -10.17765  -0.00530   0.00000  -0.00240  -0.00244 -10.18008
   Z16        1.44026  -0.00047   0.00000  -0.03429  -0.03424   1.40602
   X17      -22.82982   0.00689   0.00000  -0.00296  -0.00318 -22.83300
   Y17       -3.97982  -0.00464   0.00000  -0.00970  -0.00975  -3.98957
   Z17        1.86928  -0.00033   0.00000   0.00838   0.00844   1.87772
   X18      -24.70531  -0.00449   0.00000  -0.00641  -0.00664 -24.71195
   Y18       -2.83940   0.00270   0.00000  -0.00799  -0.00805  -2.84744
   Z18        1.93590   0.00024   0.00000   0.01846   0.01854   1.95444
         Item               Value     Threshold  Converged?
 Maximum Force            0.021278     0.000450     NO 
 RMS     Force            0.006880     0.000300     NO 
 Maximum Displacement     0.039423     0.001800     NO 
 RMS     Displacement     0.014075     0.001200     NO 
 Predicted change in Energy=-6.877268D-04
 GradGradGradGradGradGradGradGradGradGradGradGradGradGradGradGradGradGrad

 Unable to Open any file for archive entry.
 1\1\GINC-X10P1N4\Force\RwB97XD\def2SVP\C12N6(2-)\MAYUMIAO\11-Oct-2024\
 0\\# wb97xd def2svp scrf=(smd,solvent=acetonitrile) g09default scf=(xq
 c,maxcycle=64) force guess=read nosymm\\Title Card\\-2,1\C,-8.95079054
 ,-0.9152229,1.10778406\C,-8.94612701,0.47089179,1.25083639\C,-8.254024
 21,-2.11382565,0.98314477\C,-7.04754041,-2.80566355,0.89540464\C,-9.64
 505647,-2.11495134,0.99668693\C,-10.85033291,-2.81147477,0.94179343\C,
 -10.16471419,1.19343488,1.34338947\N,-11.16737622,1.7758221,1.42038519
 \C,-7.71269997,1.16940593,1.32307256\N,-6.69172441,1.72097518,1.383418
 85\C,-5.8131263,-2.10640099,0.94646793\N,-4.80802196,-1.52466877,0.986
 63959\C,-7.03489649,-4.21642339,0.73476227\N,-7.03168962,-5.37058213,0
 .59946719\C,-10.84076418,-4.22714118,0.83978752\N,-10.79649949,-5.3857
 7796,0.76215119\C,-12.08102049,-2.10603111,0.98917843\N,-13.07348905,-
 1.50254357,1.02443449\\Version=ES64L-G16RevC.01\HF=-785.03258\RMSD=4.3
 04e-09\RMSF=6.880e-03\Dipole=-0.0677503,-0.004715,-0.0010966\Quadrupol
 e=-393.4941481,154.3863729,239.1077752,-108.6388873,66.3452007,5.40831
 1\PG=C01 [X(C12N6)]\\@
 The archive entry for this job was punched.


 WE ARE PERHAPS NOT FAR REMOVED FROM THE TIME WHEN WE SHALL BE ABLE TO SUBMIT
 THE BULK OF CHEMICAL PHENOMENA TO CALCULATION.

            -- JOSEPH LOUIS GAY-LUSSAC
               MEMOIRES DE LA SOCIETE D'ARCUEIL, 2, 207 (1808)
 Job cpu time:       0 days  0 hours  7 minutes  4.4 seconds.
 Elapsed time:       0 days  0 hours  0 minutes 16.4 seconds.
 File lengths (MBytes):  RWF=    148 Int=      0 D2E=      0 Chk=      8 Scr=      1
 Normal termination of Gaussian 16 at Fri Oct 11 16:17:52 2024.
