 Entering Gaussian System, Link 0=g16
 Input=JOBS/59_A.gjf
 Output=JOBS/59_A.log
 Initial command:
 /data/app/gaussian/C01-avx2//g16/l1.exe "/tmp/Gau-2569406.inp" -scrdir="/tmp/"
 Entering Link 1 = /data/app/gaussian/C01-avx2//g16/l1.exe PID=   2569407.
  
 Copyright (c) 1988-2019, Gaussian, Inc.  All Rights Reserved.
  
 This is part of the Gaussian(R) 16 program.  It is based on
 the Gaussian(R) 09 system (copyright 2009, Gaussian, Inc.),
 the Gaussian(R) 03 system (copyright 2003, Gaussian, Inc.),
 the Gaussian(R) 98 system (copyright 1998, Gaussian, Inc.),
 the Gaussian(R) 94 system (copyright 1995, Gaussian, Inc.),
 the Gaussian 92(TM) system (copyright 1992, Gaussian, Inc.),
 the Gaussian 90(TM) system (copyright 1990, Gaussian, Inc.),
 the Gaussian 88(TM) system (copyright 1988, Gaussian, Inc.),
 the Gaussian 86(TM) system (copyright 1986, Carnegie Mellon
 University), and the Gaussian 82(TM) system (copyright 1983,
 Carnegie Mellon University). Gaussian is a federally registered
 trademark of Gaussian, Inc.
  
 This software contains proprietary and confidential information,
 including trade secrets, belonging to Gaussian, Inc.
  
 This software is provided under written license and may be
 used, copied, transmitted, or stored only in accord with that
 written license.
  
 The following legend is applicable only to US Government
 contracts under FAR:
  
                    RESTRICTED RIGHTS LEGEND
  
 Use, reproduction and disclosure by the US Government is
 subject to restrictions as set forth in subparagraphs (a)
 and (c) of the Commercial Computer Software - Restricted
 Rights clause in FAR 52.227-19.
  
 Gaussian, Inc.
 340 Quinnipiac St., Bldg. 40, Wallingford CT 06492
  
  
 ---------------------------------------------------------------
 Warning -- This program may not be used in any manner that
 competes with the business of Gaussian, Inc. or will provide
 assistance to any competitor of Gaussian, Inc.  The licensee
 of this program is prohibited from giving any competitor of
 Gaussian, Inc. access to this program.  By using this program,
 the user acknowledges that Gaussian, Inc. is engaged in the
 business of creating and licensing software in the field of
 computational chemistry and represents and warrants to the
 licensee that it is not a competitor of Gaussian, Inc. and that
 it will not use this program in any manner prohibited above.
 ---------------------------------------------------------------
  

 Cite this work as:
 Gaussian 16, Revision C.01,
 M. J. Frisch, G. W. Trucks, H. B. Schlegel, G. E. Scuseria, 
 M. A. Robb, J. R. Cheeseman, G. Scalmani, V. Barone, 
 G. A. Petersson, H. Nakatsuji, X. Li, M. Caricato, A. V. Marenich, 
 J. Bloino, B. G. Janesko, R. Gomperts, B. Mennucci, H. P. Hratchian, 
 J. V. Ortiz, A. F. Izmaylov, J. L. Sonnenberg, D. Williams-Young, 
 F. Ding, F. Lipparini, F. Egidi, J. Goings, B. Peng, A. Petrone, 
 T. Henderson, D. Ranasinghe, V. G. Zakrzewski, J. Gao, N. Rega, 
 G. Zheng, W. Liang, M. Hada, M. Ehara, K. Toyota, R. Fukuda, 
 J. Hasegawa, M. Ishida, T. Nakajima, Y. Honda, O. Kitao, H. Nakai, 
 T. Vreven, K. Throssell, J. A. Montgomery, Jr., J. E. Peralta, 
 F. Ogliaro, M. J. Bearpark, J. J. Heyd, E. N. Brothers, K. N. Kudin, 
 V. N. Staroverov, T. A. Keith, R. Kobayashi, J. Normand, 
 K. Raghavachari, A. P. Rendell, J. C. Burant, S. S. Iyengar, 
 J. Tomasi, M. Cossi, J. M. Millam, M. Klene, C. Adamo, R. Cammi, 
 J. W. Ochterski, R. L. Martin, K. Morokuma, O. Farkas, 
 J. B. Foresman, and D. J. Fox, Gaussian, Inc., Wallingford CT, 2019.
 
 ******************************************
 Gaussian 16:  ES64L-G16RevC.01  3-Jul-2019
                11-Oct-2024 
 ******************************************
 %chk=a.chk
 %nprocshared=28
 Will use up to   28 processors via shared memory.
 %mem=48gb
 ----------------------------------------------------------------------
 # wb97xd def2svp scrf=(smd,solvent=acetonitrile) g09default scf=(xqc,m
 axcycle=64) force guess=read nosymm
 ----------------------------------------------------------------------
 1/10=7,30=1,38=1,158=3,167=1/1,3;
 2/12=2,15=1,17=6,18=5,40=1/2;
 3/5=43,7=101,11=2,25=1,27=10,30=1,70=32201,71=1,72=2,74=-58,75=-4,116=-2,158=3/1,2,3;
 4/5=1,60=-1/1;
 5/5=2,7=64,8=3,13=1,38=6,53=2,87=10/2,8;
 6/7=2,8=2,9=2,10=2,28=1,87=10/1;
 7/29=1,30=1,87=10/1,2,3,16;
 1/10=7,30=1,158=3,167=1/3;
 99//99;
 Using 2006 physical constants.
 ----------
 Title Card
 ----------
 Symbolic Z-matrix:
 Charge = -2 Multiplicity = 1
 6                    -8.95027  -0.91516   1.10806 
 6                    -8.94526   0.47097   1.25145 
 6                    -8.25392  -2.11366   0.98289 
 6                    -7.04734  -2.80533   0.8949 
 6                    -9.64496  -2.11467   0.9967 
 6                    -10.8502  -2.81167   0.94173 
 6                    -10.16439   1.19246   1.34358 
 7                    -11.16736   1.77432   1.42009 
 6                    -7.71205   1.1701    1.32338 
 7                    -6.6908    1.72125   1.38321 
 6                    -5.81297  -2.10605   0.94617 
 7                    -4.80837  -1.52334   0.98695 
 6                    -7.03562  -4.21606   0.73472 
 7                    -7.03321  -5.37027   0.59973 
 6                    -10.84065  -4.22739   0.83959 
 7                    -10.79772  -5.38611   0.7618 
 6                    -12.08124  -2.10671   0.9892 
 7                    -13.07356  -1.50286   1.02468 
 

 GradGradGradGradGradGradGradGradGradGradGradGradGradGradGradGradGradGrad
 Berny optimization.
 Initialization pass.
 Trust Radius=3.00D-01 FncErr=1.00D-07 GrdErr=1.00D-07 EigMax=2.50D+02 EigMin=1.00D-04
 Number of steps in this run=      2 maximum allowed number of steps=      2.
 GradGradGradGradGradGradGradGradGradGradGradGradGradGradGradGradGradGrad

                          Input orientation:                          
 ---------------------------------------------------------------------
 Center     Atomic      Atomic             Coordinates (Angstroms)
 Number     Number       Type             X           Y           Z
 ---------------------------------------------------------------------
      1          6           0       -8.950272   -0.915163    1.108056
      2          6           0       -8.945264    0.470969    1.251447
      3          6           0       -8.253917   -2.113664    0.982888
      4          6           0       -7.047335   -2.805329    0.894896
      5          6           0       -9.644964   -2.114667    0.996698
      6          6           0      -10.850204   -2.811673    0.941731
      7          6           0      -10.164390    1.192460    1.343582
      8          7           0      -11.167363    1.774324    1.420089
      9          6           0       -7.712055    1.170096    1.323381
     10          7           0       -6.690799    1.721247    1.383205
     11          6           0       -5.812967   -2.106047    0.946171
     12          7           0       -4.808369   -1.523337    0.986954
     13          6           0       -7.035622   -4.216058    0.734718
     14          7           0       -7.033213   -5.370266    0.599725
     15          6           0      -10.840651   -4.227393    0.839590
     16          7           0      -10.797716   -5.386113    0.761805
     17          6           0      -12.081236   -2.106705    0.989196
     18          7           0      -13.073556   -1.502858    1.024676
 ---------------------------------------------------------------------
                    Distance matrix (angstroms):
                    1          2          3          4          5
     1  C    0.000000
     2  C    1.393537   0.000000
     3  C    1.391755   2.688942   0.000000
     4  C    2.690602   3.803077   1.393551   0.000000
     5  C    1.390615   2.690723   1.391116   2.689806   0.000000
     6  C    2.689638   3.807946   2.688794   3.803162   1.393356
     7  C    2.443691   1.419614   3.835422   5.089172   3.365594
     8  N    3.499456   2.581646   4.878090   6.182530   4.197763
     9  C    2.434718   1.419422   3.345539   4.053327   3.825249
    10  N    3.483042   2.581312   4.160545   4.566778   4.857028
    11  C    3.359627   4.067615   2.441238   1.419609   3.832340
    12  N    4.188067   4.600121   3.495755   2.581656   4.872619
    13  C    3.834211   5.087432   2.442518   1.419841   3.360527
    14  N    4.876624   6.180672   3.498912   2.581903   4.192583
    15  C    3.823150   5.082984   3.343587   4.051490   2.432686
    16  N    4.849983   6.162527   4.150749   4.554505   3.476546
    17  C    3.352139   4.067862   3.827330   5.083024   2.436297
    18  N    4.165790   4.581507   4.858369   6.166734   3.482863
                    6          7          8          9         10
     6  C    0.000000
     7  C    4.082268   0.000000
     8  N    4.621773   1.162056   0.000000
     9  C    5.084105   2.452520   3.509074   0.000000
    10  N    6.167894   3.513833   4.477031   1.162028   0.000000
    11  C    5.086421   5.474757   6.629588   3.805514   3.950920
    12  N    6.177833   6.015787   7.176279   3.974815   3.771986
    13  C    4.070157   6.277895   7.309288   5.460288   5.982560
    14  N    4.607904   7.309375   8.295141   6.615197   7.142873
    15  C    1.419432   5.485084   6.038570   6.257400   7.273453
    16  N    2.581253   6.634546   7.200127   7.267775   8.232100
    17  C    1.419392   3.832021   4.010389   5.471641   6.623087
    18  N    2.581312   3.978654   3.811803   5.998300   7.159818
                   11         12         13         14         15
    11  C    0.000000
    12  N    1.162081   0.000000
    13  C    2.447804   3.503574   0.000000
    14  N    3.502020   4.460800   1.162077   0.000000
    15  C    5.457936   6.612266   3.806490   3.982497   0.000000
    16  N    5.969970   7.130499   3.939938   3.768025   1.162121
    17  C    6.268417   7.296226   5.474701   6.023708   2.461453
    18  N    7.286024   8.265298   6.625871   7.184927   3.527494
                   16         17         18
    16  N    0.000000
    17  C    3.528972   0.000000
    18  N    4.508682   1.162148   0.000000
 Symmetry turned off by external request.
 Stoichiometry    C12N6(2-)
 Framework group  C1[X(C12N6)]
 Deg. of freedom    48
 Full point group                 C1      NOp   1
 Rotational constants (GHZ):           0.4313319           0.4275677           0.2147673
 Standard basis: def2SVP (5D, 7F)
   252 basis functions,   450 primitive gaussians,   270 cartesian basis functions
    58 alpha electrons       58 beta electrons
       nuclear repulsion energy       965.6201661054 Hartrees.
 NAtoms=   18 NActive=   18 NUniq=   18 SFac= 1.00D+00 NAtFMM=   60 NAOKFM=F Big=F
 Integral buffers will be    131072 words long.
 Raffenetti 2 integral format.
 Two-electron integral symmetry is turned off.
 Nuclear repulsion after empirical dispersion term =      965.6084820664 Hartrees.
 Force PCM accuracy= 1.00D-10.
 ------------------------------------------------------------------------------
 Polarizable Continuum Model (PCM)
 =================================
 Model                : PCM (using non-symmetric T matrix).
 Atomic radii         : SMD-Coulomb.
 Polarization charges : Total charges.
 Charge compensation  : None.
 Solution method      : On-the-fly selection.
 Cavity type          : VdW (van der Waals Surface) (Alpha=1.000).
 Cavity algorithm     : GePol (No added spheres)
                        Default sphere list used, NSphG=   18.
                        Lebedev-Laikov grids with approx.  5.0 points / Ang**2.
                        Smoothing algorithm: York/Karplus (Gamma=1.0000).
                        Polarization charges: spherical gaussians, with
                                              point-specific exponents (IZeta= 3).
                        Self-potential: point-specific (ISelfS= 7).
                        Self-field    : sphere-specific E.n sum rule (ISelfD= 2).
 1st derivatives      : Analytical E(r).r(x)/FMM algorithm (CHGder, D1EAlg=3).
                        Cavity 1st derivative terms included.
 Solvent              : Acetonitrile, Eps=  35.688000 Eps(inf)=   1.806874
 ------------------------------------------------------------------------------
 Spheres list:
 ISph  on   Nord     Re0    Alpha      Xe            Ye            Ze
    1   C      1    1.8500  1.000     -8.950272     -0.915163      1.108056
    2   C      2    1.8500  1.000     -8.945264      0.470969      1.251447
    3   C      3    1.8500  1.000     -8.253917     -2.113664      0.982888
    4   C      4    1.8500  1.000     -7.047335     -2.805329      0.894896
    5   C      5    1.8500  1.000     -9.644964     -2.114667      0.996698
    6   C      6    1.8500  1.000    -10.850204     -2.811673      0.941731
    7   C      7    1.8500  1.000    -10.164390      1.192460      1.343582
    8   N      8    1.8900  1.000    -11.167363      1.774324      1.420089
    9   C      9    1.8500  1.000     -7.712055      1.170096      1.323381
   10   N     10    1.8900  1.000     -6.690799      1.721247      1.383205
   11   C     11    1.8500  1.000     -5.812967     -2.106047      0.946171
   12   N     12    1.8900  1.000     -4.808369     -1.523337      0.986954
   13   C     13    1.8500  1.000     -7.035622     -4.216058      0.734718
   14   N     14    1.8900  1.000     -7.033213     -5.370266      0.599725
   15   C     15    1.8500  1.000    -10.840651     -4.227393      0.839590
   16   N     16    1.8900  1.000    -10.797716     -5.386113      0.761805
   17   C     17    1.8500  1.000    -12.081236     -2.106705      0.989196
   18   N     18    1.8900  1.000    -13.073556     -1.502858      1.024676
 ------------------------------------------------------------------------------
 ------------------------------------------------------------------------------
 Atomic radii for non-electrostatic terms: SMD-CDS.
 ------------------------------------------------------------------------------
 Nuclear repulsion after PCM non-electrostatic terms =      965.6171806220 Hartrees.
 One-electron integrals computed using PRISM.
   1 Symmetry operations used in ECPInt.
 ECPInt:  NShTT=    5886 NPrTT=   23670 LenC2=    5404 LenP2D=   14969.
 LDataN:  DoStor=T MaxTD1= 4 Len=   56
 NBasis=   252 RedAO= T EigKep=  1.95D-04  NBF=   252
 NBsUse=   252 1.00D-06 EigRej= -1.00D+00 NBFU=   252
 Initial guess from the checkpoint file:  "a.chk"
 B after Tr=    -0.000072    0.000061   -0.000200
         Rot=    1.000000   -0.000019   -0.000010    0.000000 Ang=  -0.00 deg.
 Requested convergence on RMS density matrix=1.00D-08 within  64 cycles.
 Requested convergence on MAX density matrix=1.00D-06.
 Requested convergence on             energy=1.00D-06.
 No special actions if energy rises.
 Inv3:  Mode=1 IEnd=    19309107.
 Iteration    1 A*A^-1 deviation from unit magnitude is 3.89D-15 for    789.
 Iteration    1 A*A^-1 deviation from orthogonality  is 3.46D-15 for   1691    245.
 Iteration    1 A^-1*A deviation from unit magnitude is 3.11D-15 for    569.
 Iteration    1 A^-1*A deviation from orthogonality  is 2.05D-12 for   2057   2011.
 Error on total polarization charges =  0.02152
 SCF Done:  E(RwB97XD) =  -785.032596046     A.U. after    8 cycles
            NFock=  8  Conv=0.56D-08     -V/T= 2.0097
 SMD-CDS (non-electrostatic) energy       (kcal/mol) =       5.46
 (included in total energy above)
 QCSCF skips out because SCF is already converged.

 **********************************************************************

            Population analysis using the SCF Density.

 **********************************************************************

 Alpha  occ. eigenvalues --  -14.42770 -14.42765 -14.42759 -14.42757 -14.42753
 Alpha  occ. eigenvalues --  -14.42748 -10.34977 -10.34906 -10.34899 -10.33706
 Alpha  occ. eigenvalues --  -10.33703 -10.33693 -10.33690 -10.33688 -10.33681
 Alpha  occ. eigenvalues --  -10.32724 -10.32715 -10.32707  -1.03041  -0.99104
 Alpha  occ. eigenvalues --   -0.99100  -0.98721  -0.98037  -0.98029  -0.97953
 Alpha  occ. eigenvalues --   -0.88197  -0.88178  -0.86081  -0.68778  -0.68729
 Alpha  occ. eigenvalues --   -0.65174  -0.65050  -0.64897  -0.64132  -0.52448
 Alpha  occ. eigenvalues --   -0.47689  -0.47684  -0.46776  -0.46723  -0.45187
 Alpha  occ. eigenvalues --   -0.45073  -0.45068  -0.44535  -0.44207  -0.44171
 Alpha  occ. eigenvalues --   -0.43842  -0.42830  -0.42243  -0.42231  -0.42053
 Alpha  occ. eigenvalues --   -0.41952  -0.41932  -0.40542  -0.40187  -0.40166
 Alpha  occ. eigenvalues --   -0.31482  -0.31476  -0.23618
 Alpha virt. eigenvalues --    0.07486   0.07529   0.08871   0.09316   0.09375
 Alpha virt. eigenvalues --    0.12699   0.12729   0.13101   0.13153   0.14844
 Alpha virt. eigenvalues --    0.14967   0.16306   0.21095   0.21137   0.24193
 Alpha virt. eigenvalues --    0.27540   0.28112   0.28125   0.28637   0.28663
 Alpha virt. eigenvalues --    0.29992   0.33650   0.33720   0.33928   0.36893
 Alpha virt. eigenvalues --    0.36922   0.37217   0.48997   0.49121   0.50540
 Alpha virt. eigenvalues --    0.50723   0.54911   0.54936   0.54971   0.55050
 Alpha virt. eigenvalues --    0.57453   0.57508   0.58253   0.59956   0.61126
 Alpha virt. eigenvalues --    0.61713   0.61739   0.62881   0.62939   0.64906
 Alpha virt. eigenvalues --    0.65526   0.70944   0.71761   0.71826   0.73693
 Alpha virt. eigenvalues --    0.73723   0.74434   0.74623   0.74771   0.75081
 Alpha virt. eigenvalues --    0.75170   0.75249   0.76617   0.76901   0.77800
 Alpha virt. eigenvalues --    0.81999   0.82091   0.82230   0.83474   0.83633
 Alpha virt. eigenvalues --    0.88836   0.88968   0.89369   0.89547   0.94721
 Alpha virt. eigenvalues --    0.94800   0.95109   0.95201   0.95975   0.96145
 Alpha virt. eigenvalues --    0.98101   1.00614   1.00640   1.01341   1.01583
 Alpha virt. eigenvalues --    1.02433   1.02558   1.05290   1.05508   1.05749
 Alpha virt. eigenvalues --    1.08496   1.08969   1.10198   1.10335   1.12770
 Alpha virt. eigenvalues --    1.12908   1.17537   1.18947   1.20320   1.20534
 Alpha virt. eigenvalues --    1.21172   1.25051   1.25262   1.27273   1.35218
 Alpha virt. eigenvalues --    1.38824   1.38910   1.41804   1.41889   1.45057
 Alpha virt. eigenvalues --    1.47169   1.47294   1.47820   1.48009   1.58971
 Alpha virt. eigenvalues --    1.62349   1.68390   1.70728   1.70792   1.70964
 Alpha virt. eigenvalues --    1.71162   1.71235   1.79091   1.79488   1.79600
 Alpha virt. eigenvalues --    1.79642   1.80341   1.81498   1.81528   1.82867
 Alpha virt. eigenvalues --    1.84682   1.85092   1.87673   1.95471   1.95631
 Alpha virt. eigenvalues --    1.95782   2.00399   2.03112   2.03289   2.06451
 Alpha virt. eigenvalues --    2.06536   2.09992   2.10387   2.16139   2.16259
 Alpha virt. eigenvalues --    2.20995   2.23604   2.23695   2.23794   2.29527
 Alpha virt. eigenvalues --    2.30509   2.30590   2.32105   2.35916   2.35920
 Alpha virt. eigenvalues --    2.36488   2.36560   2.36791   2.36891   2.37498
 Alpha virt. eigenvalues --    2.38484   2.38599   2.38773   2.38865   2.39112
 Alpha virt. eigenvalues --    2.40553   2.40639   2.59976   2.65108   2.65470
 Alpha virt. eigenvalues --    2.74312   2.74406   2.95369   2.97518   2.97787
 Alpha virt. eigenvalues --    2.98075   3.01230   3.01317   3.01962   3.05334
 Alpha virt. eigenvalues --    3.07969   3.08061   3.11433   3.11842   3.14796
 Alpha virt. eigenvalues --    3.14867   3.15363   3.25955   3.26283   3.31528
 Alpha virt. eigenvalues --    3.43954   3.43999   3.45244   3.56523   3.59843
 Alpha virt. eigenvalues --    3.59881   3.64676   3.64731   3.78632
          Condensed to atoms (all electrons):
               1          2          3          4          5          6
     1  C    4.964054   0.493742   0.314404  -0.117369   0.317211  -0.116677
     2  C    0.493742   5.550897  -0.116226  -0.007623  -0.117691  -0.007269
     3  C    0.314404  -0.116226   4.961141   0.493528   0.316325  -0.116168
     4  C   -0.117369  -0.007623   0.493528   5.553200  -0.117632  -0.007491
     5  C    0.317211  -0.117691   0.316325  -0.117632   4.965082   0.493932
     6  C   -0.116677  -0.007269  -0.116168  -0.007491   0.493932   5.548424
     7  C    0.011675   0.385227   0.006278  -0.000540  -0.025291   0.002891
     8  N   -0.001042  -0.044257  -0.000067  -0.000001  -0.000599   0.000143
     9  C    0.014435   0.387040  -0.025483   0.003027   0.006797  -0.000513
    10  N   -0.001016  -0.043512  -0.000621   0.000164  -0.000056  -0.000001
    11  C   -0.024697   0.003053   0.012814   0.386994   0.006293  -0.000533
    12  N   -0.000581   0.000153  -0.001079  -0.043757  -0.000068  -0.000001
    13  C    0.006034  -0.000551   0.012435   0.386801  -0.024883   0.002982
    14  N   -0.000072  -0.000002  -0.001092  -0.044035  -0.000588   0.000150
    15  C    0.007158  -0.000507  -0.026370   0.003037   0.014037   0.385114
    16  N   -0.000044  -0.000001  -0.000672   0.000176  -0.000918  -0.043895
    17  C   -0.026311   0.002908   0.006962  -0.000531   0.013016   0.384143
    18  N   -0.000659   0.000160  -0.000048  -0.000001  -0.000905  -0.044095
               7          8          9         10         11         12
     1  C    0.011675  -0.001042   0.014435  -0.001016  -0.024697  -0.000581
     2  C    0.385227  -0.044257   0.387040  -0.043512   0.003053   0.000153
     3  C    0.006278  -0.000067  -0.025483  -0.000621   0.012814  -0.001079
     4  C   -0.000540  -0.000001   0.003027   0.000164   0.386994  -0.043757
     5  C   -0.025291  -0.000599   0.006797  -0.000056   0.006293  -0.000068
     6  C    0.002891   0.000143  -0.000513  -0.000001  -0.000533  -0.000001
     7  C    4.879627   0.926149  -0.054736   0.002670   0.000137   0.000002
     8  N    0.926149   6.153092   0.002540   0.000090   0.000000   0.000000
     9  C   -0.054736   0.002540   4.876814   0.925545  -0.000527   0.000058
    10  N    0.002670   0.000090   0.925545   6.154473   0.000220  -0.000888
    11  C    0.000137   0.000000  -0.000527   0.000220   4.877435   0.926258
    12  N    0.000002   0.000000   0.000058  -0.000888   0.926258   6.152739
    13  C   -0.000017  -0.000000   0.000141   0.000003  -0.054653   0.002604
    14  N   -0.000000  -0.000000   0.000000   0.000000   0.002564   0.000093
    15  C    0.000133   0.000002  -0.000017  -0.000000   0.000141   0.000000
    16  N    0.000000   0.000000  -0.000000  -0.000000   0.000003   0.000000
    17  C   -0.000526   0.000017   0.000137   0.000000  -0.000017  -0.000000
    18  N    0.000223  -0.000831   0.000003   0.000000  -0.000000  -0.000000
              13         14         15         16         17         18
     1  C    0.006034  -0.000072   0.007158  -0.000044  -0.026311  -0.000659
     2  C   -0.000551  -0.000002  -0.000507  -0.000001   0.002908   0.000160
     3  C    0.012435  -0.001092  -0.026370  -0.000672   0.006962  -0.000048
     4  C    0.386801  -0.044035   0.003037   0.000176  -0.000531  -0.000001
     5  C   -0.024883  -0.000588   0.014037  -0.000918   0.013016  -0.000905
     6  C    0.002982   0.000150   0.385114  -0.043895   0.384143  -0.044095
     7  C   -0.000017  -0.000000   0.000133   0.000000  -0.000526   0.000223
     8  N   -0.000000  -0.000000   0.000002   0.000000   0.000017  -0.000831
     9  C    0.000141   0.000000  -0.000017  -0.000000   0.000137   0.000003
    10  N    0.000003   0.000000  -0.000000  -0.000000   0.000000   0.000000
    11  C   -0.054653   0.002564   0.000141   0.000003  -0.000017  -0.000000
    12  N    0.002604   0.000093   0.000000   0.000000  -0.000000  -0.000000
    13  C    4.877997   0.926383  -0.000543   0.000296   0.000136   0.000000
    14  N    0.926383   6.152923  -0.000001  -0.000889   0.000002   0.000000
    15  C   -0.000543  -0.000001   4.878138   0.924684  -0.054008   0.002617
    16  N    0.000296  -0.000889   0.924684   6.156536   0.002668   0.000085
    17  C    0.000136   0.000002  -0.054008   0.002668   4.879829   0.924988
    18  N    0.000000   0.000000   0.002617   0.000085   0.924988   6.155323
 Mulliken charges:
               1
     1  C    0.159755
     2  C   -0.485542
     3  C    0.163939
     4  C   -0.487945
     5  C    0.155938
     6  C   -0.481135
     7  C   -0.133900
     8  N   -0.035238
     9  C   -0.135261
    10  N   -0.037071
    11  C   -0.135485
    12  N   -0.035534
    13  C   -0.135165
    14  N   -0.035437
    15  C   -0.133617
    16  N   -0.038029
    17  C   -0.133414
    18  N   -0.036859
 Sum of Mulliken charges =  -2.00000
 Mulliken charges with hydrogens summed into heavy atoms:
               1
     1  C    0.159755
     2  C   -0.485542
     3  C    0.163939
     4  C   -0.487945
     5  C    0.155938
     6  C   -0.481135
     7  C   -0.133900
     8  N   -0.035238
     9  C   -0.135261
    10  N   -0.037071
    11  C   -0.135485
    12  N   -0.035534
    13  C   -0.135165
    14  N   -0.035437
    15  C   -0.133617
    16  N   -0.038029
    17  C   -0.133414
    18  N   -0.036859
 Electronic spatial extent (au):  <R**2>=          39329.6273
 Charge=             -2.0000 electrons
 Dipole moment (field-independent basis, Debye):
    X=             85.7060    Y=             16.4638    Z=             -9.8913  Tot=             87.8317
 Quadrupole moment (field-independent basis, Debye-Ang):
   XX=           -964.5512   YY=           -227.4785   ZZ=           -113.5355
   XY=           -146.1911   XZ=             89.2384   YZ=              7.2792
 Traceless Quadrupole moment (field-independent basis, Debye-Ang):
   XX=           -529.3628   YY=            207.7099   ZZ=            321.6529
   XY=           -146.1911   XZ=             89.2384   YZ=              7.2792
 Octapole moment (field-independent basis, Debye-Ang**2):
  XXX=          12180.6671  YYY=           1140.6129  ZZZ=           -329.6285  XYY=           2030.8048
  XXY=           1572.5579  XXZ=          -1015.2095  XZZ=           1016.4833  YZZ=            175.0745
  YYZ=           -196.6960  XYZ=            -67.2421
 Hexadecapole moment (field-independent basis, Debye-Ang**3):
 XXXX=        -161307.2960 YYYY=          -8691.5591 ZZZZ=           -804.6304 XXXY=         -18871.0368
 XXXZ=          12921.0789 YYYX=         -10172.5603 YYYZ=            766.8099 ZZZX=           2966.4564
 ZZZY=            377.7956 XXYY=         -20032.6431 XXZZ=          -9885.3959 YYZZ=          -1038.7002
 XXYZ=            810.3742 YYXZ=           1782.0219 ZZXY=          -1566.1534
 N-N= 9.656171806220D+02 E-N=-3.785022742286D+03  KE= 7.774793412965D+02
   1 Symmetry operations used in ECPInt.
 ECPInt:  NShTT=    5886 NPrTT=   23670 LenC2=    5404 LenP2D=   14969.
 LDataN:  DoStor=T MaxTD1= 5 Len=  102
 D1PCM: PCM CHGder 1st derivatives, ID1Alg=3 FixD1E=F DoIter=F DoCFld=F I1PDM=0.
 Calling FoFJK, ICntrl=      2127 FMM=F ISym2X=0 I1Cent= 0 IOpClX= 0 NMat=1 NMatS=1 NMatT=0.
 -------------------------------------------------------------------
 Center     Atomic                   Forces (Hartrees/Bohr)
 Number     Number              X              Y              Z
 -------------------------------------------------------------------
      1        6           0.000052177   -0.021105815   -0.001914402
      2        6           0.000205946    0.014193980    0.001484656
      3        6          -0.018294053    0.010572932    0.001005772
      4        6           0.012312936   -0.007028480   -0.000827718
      5        6           0.018457467    0.010619037    0.000897033
      6        6          -0.012209211   -0.007067790   -0.000581230
      7        6           0.007426342   -0.003841534   -0.000373415
      8        7          -0.004774237    0.002148760    0.000278319
      9        6          -0.007161181   -0.003589452   -0.000356627
     10        7           0.004767022    0.002524869    0.000236821
     11        6          -0.006800939   -0.004227658   -0.000348854
     12        7           0.004314050    0.002941323    0.000215787
     13        6           0.000386750    0.008128194    0.000784539
     14        7          -0.000543779   -0.005220082   -0.000507990
     15        6          -0.000596304    0.008058447    0.000539766
     16        7          -0.000015942   -0.005192327   -0.000459332
     17        6           0.006848554   -0.004500726   -0.000304078
     18        7          -0.004375598    0.002586323    0.000230953
 -------------------------------------------------------------------
 Cartesian Forces:  Max     0.021105815 RMS     0.006829510

 GradGradGradGradGradGradGradGradGradGradGradGradGradGradGradGradGradGrad
 Berny optimization.
 Search for a local minimum.
 Step number   1 out of a maximum of    2
 All quantities printed in internal units (Hartrees-Bohrs-Radians)
 Second derivative matrix not updated -- first step.
 ITU=  0
     Eigenvalues ---    0.00129   0.00146   0.00198   0.00300   0.00301
     Eigenvalues ---    0.00818   0.01536   0.01721   0.01988   0.02012
     Eigenvalues ---    0.03003   0.04120   0.05335   0.05356   0.10305
     Eigenvalues ---    0.15185   0.21316   0.21509   0.24400   0.24721
     Eigenvalues ---    0.25040   0.25739   0.25930   0.30115   0.30261
     Eigenvalues ---    0.36002   0.41799   0.48345   0.79314   0.79746
     Eigenvalues ---    0.81923   0.99401   1.00827   1.04670   1.04979
     Eigenvalues ---    1.12156   1.60048   1.60486   2.06199   2.78761
     Eigenvalues ---    2.78971   2.79159   2.84173   2.84265   2.84327
     Eigenvalues ---   38.25536  55.08232  87.12505
 Angle between quadratic step and forces=  74.66 degrees.
 Linear search not attempted -- first point.
 B after Tr=    -0.000255    0.000075   -0.000207
         Rot=    1.000000    0.000001   -0.000006   -0.000003 Ang=   0.00 deg.
 Variable       Old X    -DE/DX   Delta X   Delta X   Delta X     New X
                                 (Linear)    (Quad)   (Total)
    X1      -16.91356   0.00005   0.00000   0.01013   0.00991 -16.90366
    Y1       -1.72941  -0.02111   0.00000  -0.00681  -0.00683  -1.73623
    Z1        2.09392  -0.00191   0.00000   0.00029   0.00029   2.09421
    X2      -16.90410   0.00021   0.00000   0.00682   0.00659 -16.89751
    Y2        0.89000   0.01419   0.00000   0.01771   0.01769   0.90769
    Z2        2.36489   0.00148   0.00000   0.00284   0.00283   2.36772
    X3      -15.59764  -0.01829   0.00000   0.00277   0.00256 -15.59509
    Y3       -3.99425   0.01057   0.00000   0.00326   0.00325  -3.99100
    Z3        1.85739   0.00101   0.00000   0.00081   0.00079   1.85818
    X4      -13.31753   0.01231   0.00000   0.02247   0.02226 -13.29527
    Y4       -5.30130  -0.00703   0.00000  -0.01027  -0.01027  -5.31157
    Z4        1.69111  -0.00083   0.00000   0.00096   0.00092   1.69203
    X5      -18.22634   0.01846   0.00000   0.01454   0.01433 -18.21201
    Y5       -3.99614   0.01062   0.00000   0.00386   0.00384  -3.99230
    Z5        1.88349   0.00090   0.00000  -0.00004  -0.00003   1.88346
    X6      -20.50391  -0.01221   0.00000  -0.00944  -0.00965 -20.51356
    Y6       -5.31329  -0.00707   0.00000  -0.00589  -0.00593  -5.31922
    Z6        1.77961  -0.00058   0.00000  -0.00316  -0.00312   1.77650
    X7      -19.20791   0.00743   0.00000   0.00509   0.00485 -19.20306
    Y7        2.25342  -0.00384   0.00000   0.00012   0.00009   2.25352
    Z7        2.53900  -0.00037   0.00000   0.00371   0.00373   2.54273
    X8      -21.10326  -0.00477   0.00000  -0.01015  -0.01039 -21.11365
    Y8        3.35299   0.00215   0.00000  -0.01793  -0.01797   3.33502
    Z8        2.68358   0.00028   0.00000   0.00385   0.00389   2.68746
    X9      -14.57367  -0.00716   0.00000  -0.00486  -0.00510 -14.57877
    Y9        2.21116  -0.00359   0.00000   0.02657   0.02656   2.23773
    Z9        2.50083  -0.00036   0.00000  -0.00412  -0.00415   2.49667
   X10      -12.64378   0.00477   0.00000  -0.00576  -0.00600 -12.64978
   Y10        3.25269   0.00252   0.00000   0.03780   0.03781   3.29049
   Z10        2.61388   0.00024   0.00000  -0.00933  -0.00939   2.60449
   X11      -10.98492  -0.00680   0.00000   0.01645   0.01624 -10.96868
   Y11       -3.97985  -0.00423   0.00000  -0.01268  -0.01266  -3.99252
   Z11        1.78800  -0.00035   0.00000  -0.00379  -0.00386   1.78414
   X12       -9.08650   0.00431   0.00000   0.01611   0.01590  -9.07061
   Y12       -2.87869   0.00294   0.00000  -0.00367  -0.00364  -2.88233
   Z12        1.86507   0.00022   0.00000  -0.00673  -0.00683   1.85824
   X13      -13.29540   0.00039   0.00000   0.01342   0.01323 -13.28217
   Y13       -7.96719   0.00813   0.00000  -0.00494  -0.00493  -7.97213
   Z13        1.38841   0.00078   0.00000   0.01427   0.01423   1.40265
   X14      -13.29085  -0.00054   0.00000  -0.00448  -0.00466 -13.29551
   Y14      -10.14833  -0.00522   0.00000  -0.01063  -0.01063 -10.15896
   Z14        1.13332  -0.00051   0.00000   0.02692   0.02689   1.16020
   X15      -20.48586  -0.00060   0.00000  -0.02302  -0.02321 -20.50907
   Y15       -7.98862   0.00806   0.00000   0.00193   0.00189  -7.98673
   Z15        1.58659   0.00054   0.00000  -0.01910  -0.01905   1.56754
   X16      -20.40473  -0.00002   0.00000  -0.03809  -0.03827 -20.44299
   Y16      -10.17828  -0.00519   0.00000  -0.00178  -0.00182 -10.18010
   Z16        1.43960  -0.00046   0.00000  -0.03368  -0.03363   1.40597
   X17      -22.83023   0.00685   0.00000  -0.00234  -0.00255 -22.83278
   Y17       -3.98110  -0.00450   0.00000  -0.00891  -0.00896  -3.99005
   Z17        1.86931  -0.00030   0.00000   0.00818   0.00825   1.87756
   X18      -24.70544  -0.00438   0.00000  -0.00580  -0.00602 -24.71146
   Y18       -2.83999   0.00259   0.00000  -0.00744  -0.00750  -2.84749
   Z18        1.93636   0.00023   0.00000   0.01817   0.01826   1.95461
         Item               Value     Threshold  Converged?
 Maximum Force            0.021106     0.000450     NO 
 RMS     Force            0.006830     0.000300     NO 
 Maximum Displacement     0.038268     0.001800     NO 
 RMS     Displacement     0.013857     0.001200     NO 
 Predicted change in Energy=-6.760472D-04
 GradGradGradGradGradGradGradGradGradGradGradGradGradGradGradGradGradGrad

 Unable to Open any file for archive entry.
 1\1\GINC-X10P1N4\Force\RwB97XD\def2SVP\C12N6(2-)\MAYUMIAO\11-Oct-2024\
 0\\# wb97xd def2svp scrf=(smd,solvent=acetonitrile) g09default scf=(xq
 c,maxcycle=64) force guess=read nosymm\\Title Card\\-2,1\C,-8.95027228
 ,-0.91516255,1.10805584\C,-8.94526441,0.47096876,1.25144673\C,-8.25391
 743,-2.11366395,0.98288819\C,-7.0473353,-2.80532947,0.89489608\C,-9.64
 49642,-2.11466732,0.99669775\C,-10.85020356,-2.81167309,0.94173069\C,-
 10.16438959,1.19246038,1.34358177\N,-11.16736293,1.77432406,1.42008865
 \C,-7.71205463,1.17009613,1.32338118\N,-6.69079852,1.72124693,1.383205
 1\C,-5.81296725,-2.10604747,0.94617054\N,-4.80836923,-1.52333676,0.986
 95361\C,-7.03562241,-4.216058,0.73471751\N,-7.03321254,-5.37026556,0.5
 9972513\C,-10.84065088,-4.22739331,0.83958983\N,-10.79771639,-5.386113
 04,0.7618048\C,-12.0812364,-2.10670512,0.9891958\N,-13.07355598,-1.502
 85805,1.02467571\\Version=ES64L-G16RevC.01\HF=-785.032596\RMSD=5.557e-
 09\RMSF=6.830e-03\Dipole=-0.0646847,-0.0043306,-0.0010547\Quadrupole=-
 393.5682737,154.4272162,239.1410574,-108.6895277,66.3465309,5.4118965\
 PG=C01 [X(C12N6)]\\@
 The archive entry for this job was punched.


 IF YOU WANT TO LEARN FROM THE THEORETICAL PHYSICISTS ABOUT THE
 METHODS WHICH THEY USE, I ADVISE YOU TO FOLLOW THIS PRINCIPLE VERY STRICTLY:
 DON'T LISTEN TO THEIR WORDS; PAY ATTENTION, INSTEAD, TO THEIR ACTIONS.
 -- A.EINSTEIN, 1934
 Job cpu time:       0 days  0 hours  7 minutes 46.3 seconds.
 Elapsed time:       0 days  0 hours  0 minutes 17.9 seconds.
 File lengths (MBytes):  RWF=    148 Int=      0 D2E=      0 Chk=      8 Scr=      1
 Normal termination of Gaussian 16 at Fri Oct 11 16:18:29 2024.
