 Entering Gaussian System, Link 0=g16
 Input=JOBS/59_B.gjf
 Output=JOBS/59_B.log
 Initial command:
 /data/app/gaussian/C01-avx2//g16/l1.exe "/tmp/Gau-2568942.inp" -scrdir="/tmp/"
 Entering Link 1 = /data/app/gaussian/C01-avx2//g16/l1.exe PID=   2568943.
  
 Copyright (c) 1988-2019, Gaussian, Inc.  All Rights Reserved.
  
 This is part of the Gaussian(R) 16 program.  It is based on
 the Gaussian(R) 09 system (copyright 2009, Gaussian, Inc.),
 the Gaussian(R) 03 system (copyright 2003, Gaussian, Inc.),
 the Gaussian(R) 98 system (copyright 1998, Gaussian, Inc.),
 the Gaussian(R) 94 system (copyright 1995, Gaussian, Inc.),
 the Gaussian 92(TM) system (copyright 1992, Gaussian, Inc.),
 the Gaussian 90(TM) system (copyright 1990, Gaussian, Inc.),
 the Gaussian 88(TM) system (copyright 1988, Gaussian, Inc.),
 the Gaussian 86(TM) system (copyright 1986, Carnegie Mellon
 University), and the Gaussian 82(TM) system (copyright 1983,
 Carnegie Mellon University). Gaussian is a federally registered
 trademark of Gaussian, Inc.
  
 This software contains proprietary and confidential information,
 including trade secrets, belonging to Gaussian, Inc.
  
 This software is provided under written license and may be
 used, copied, transmitted, or stored only in accord with that
 written license.
  
 The following legend is applicable only to US Government
 contracts under FAR:
  
                    RESTRICTED RIGHTS LEGEND
  
 Use, reproduction and disclosure by the US Government is
 subject to restrictions as set forth in subparagraphs (a)
 and (c) of the Commercial Computer Software - Restricted
 Rights clause in FAR 52.227-19.
  
 Gaussian, Inc.
 340 Quinnipiac St., Bldg. 40, Wallingford CT 06492
  
  
 ---------------------------------------------------------------
 Warning -- This program may not be used in any manner that
 competes with the business of Gaussian, Inc. or will provide
 assistance to any competitor of Gaussian, Inc.  The licensee
 of this program is prohibited from giving any competitor of
 Gaussian, Inc. access to this program.  By using this program,
 the user acknowledges that Gaussian, Inc. is engaged in the
 business of creating and licensing software in the field of
 computational chemistry and represents and warrants to the
 licensee that it is not a competitor of Gaussian, Inc. and that
 it will not use this program in any manner prohibited above.
 ---------------------------------------------------------------
  

 Cite this work as:
 Gaussian 16, Revision C.01,
 M. J. Frisch, G. W. Trucks, H. B. Schlegel, G. E. Scuseria, 
 M. A. Robb, J. R. Cheeseman, G. Scalmani, V. Barone, 
 G. A. Petersson, H. Nakatsuji, X. Li, M. Caricato, A. V. Marenich, 
 J. Bloino, B. G. Janesko, R. Gomperts, B. Mennucci, H. P. Hratchian, 
 J. V. Ortiz, A. F. Izmaylov, J. L. Sonnenberg, D. Williams-Young, 
 F. Ding, F. Lipparini, F. Egidi, J. Goings, B. Peng, A. Petrone, 
 T. Henderson, D. Ranasinghe, V. G. Zakrzewski, J. Gao, N. Rega, 
 G. Zheng, W. Liang, M. Hada, M. Ehara, K. Toyota, R. Fukuda, 
 J. Hasegawa, M. Ishida, T. Nakajima, Y. Honda, O. Kitao, H. Nakai, 
 T. Vreven, K. Throssell, J. A. Montgomery, Jr., J. E. Peralta, 
 F. Ogliaro, M. J. Bearpark, J. J. Heyd, E. N. Brothers, K. N. Kudin, 
 V. N. Staroverov, T. A. Keith, R. Kobayashi, J. Normand, 
 K. Raghavachari, A. P. Rendell, J. C. Burant, S. S. Iyengar, 
 J. Tomasi, M. Cossi, J. M. Millam, M. Klene, C. Adamo, R. Cammi, 
 J. W. Ochterski, R. L. Martin, K. Morokuma, O. Farkas, 
 J. B. Foresman, and D. J. Fox, Gaussian, Inc., Wallingford CT, 2019.
 
 ******************************************
 Gaussian 16:  ES64L-G16RevC.01  3-Jul-2019
                11-Oct-2024 
 ******************************************
 %chk=b.chk
 %nprocshared=28
 Will use up to   28 processors via shared memory.
 %mem=48gb
 ----------------------------------------------------------------------
 # wb97xd def2svp scrf=(smd,solvent=acetonitrile) g09default scf=(xqc,m
 axcycle=64) force guess=read nosymm
 ----------------------------------------------------------------------
 1/10=7,30=1,38=1,158=3,167=1/1,3;
 2/12=2,15=1,17=6,18=5,40=1/2;
 3/5=43,7=101,11=2,25=1,27=10,30=1,70=32201,71=1,72=2,74=-58,75=-4,116=-2,158=3/1,2,3;
 4/5=1,60=-1/1;
 5/5=2,7=64,8=3,13=1,38=6,53=2,87=10/2,8;
 6/7=2,8=2,9=2,10=2,28=1,87=10/1;
 7/29=1,30=1,87=10/1,2,3,16;
 1/10=7,30=1,158=3,167=1/3;
 99//99;
 Using 2006 physical constants.
 ----------
 Title Card
 ----------
 Symbolic Z-matrix:
 Charge = -1 Multiplicity = 2
 6                    -8.95027  -0.91516   1.10806 
 6                    -8.94526   0.47097   1.25145 
 6                    -8.25392  -2.11366   0.98289 
 6                    -7.04734  -2.80533   0.8949 
 6                    -9.64496  -2.11467   0.9967 
 6                    -10.8502  -2.81167   0.94173 
 6                    -10.16439   1.19246   1.34358 
 7                    -11.16736   1.77432   1.42009 
 6                    -7.71205   1.1701    1.32338 
 7                    -6.6908    1.72125   1.38321 
 6                    -5.81297  -2.10605   0.94617 
 7                    -4.80837  -1.52334   0.98695 
 6                    -7.03562  -4.21606   0.73472 
 7                    -7.03321  -5.37027   0.59973 
 6                    -10.84065  -4.22739   0.83959 
 7                    -10.79772  -5.38611   0.7618 
 6                    -12.08124  -2.10671   0.9892 
 7                    -13.07356  -1.50286   1.02468 
 

 GradGradGradGradGradGradGradGradGradGradGradGradGradGradGradGradGradGrad
 Berny optimization.
 Initialization pass.
 Trust Radius=3.00D-01 FncErr=1.00D-07 GrdErr=1.00D-07 EigMax=2.50D+02 EigMin=1.00D-04
 Number of steps in this run=      2 maximum allowed number of steps=      2.
 GradGradGradGradGradGradGradGradGradGradGradGradGradGradGradGradGradGrad

                          Input orientation:                          
 ---------------------------------------------------------------------
 Center     Atomic      Atomic             Coordinates (Angstroms)
 Number     Number       Type             X           Y           Z
 ---------------------------------------------------------------------
      1          6           0       -8.950272   -0.915163    1.108056
      2          6           0       -8.945264    0.470969    1.251447
      3          6           0       -8.253917   -2.113664    0.982888
      4          6           0       -7.047335   -2.805329    0.894896
      5          6           0       -9.644964   -2.114667    0.996698
      6          6           0      -10.850204   -2.811673    0.941731
      7          6           0      -10.164390    1.192460    1.343582
      8          7           0      -11.167363    1.774324    1.420089
      9          6           0       -7.712055    1.170096    1.323381
     10          7           0       -6.690799    1.721247    1.383205
     11          6           0       -5.812967   -2.106047    0.946171
     12          7           0       -4.808369   -1.523337    0.986954
     13          6           0       -7.035622   -4.216058    0.734718
     14          7           0       -7.033213   -5.370266    0.599725
     15          6           0      -10.840651   -4.227393    0.839590
     16          7           0      -10.797716   -5.386113    0.761805
     17          6           0      -12.081236   -2.106705    0.989196
     18          7           0      -13.073556   -1.502858    1.024676
 ---------------------------------------------------------------------
                    Distance matrix (angstroms):
                    1          2          3          4          5
     1  C    0.000000
     2  C    1.393537   0.000000
     3  C    1.391755   2.688942   0.000000
     4  C    2.690602   3.803077   1.393551   0.000000
     5  C    1.390615   2.690723   1.391116   2.689806   0.000000
     6  C    2.689638   3.807946   2.688794   3.803162   1.393356
     7  C    2.443691   1.419614   3.835422   5.089172   3.365594
     8  N    3.499456   2.581646   4.878090   6.182530   4.197763
     9  C    2.434718   1.419422   3.345539   4.053327   3.825249
    10  N    3.483042   2.581312   4.160545   4.566778   4.857028
    11  C    3.359627   4.067615   2.441238   1.419609   3.832340
    12  N    4.188067   4.600121   3.495755   2.581656   4.872619
    13  C    3.834211   5.087432   2.442518   1.419841   3.360527
    14  N    4.876624   6.180672   3.498912   2.581903   4.192583
    15  C    3.823150   5.082984   3.343587   4.051490   2.432686
    16  N    4.849983   6.162527   4.150749   4.554505   3.476546
    17  C    3.352139   4.067862   3.827330   5.083024   2.436297
    18  N    4.165790   4.581507   4.858369   6.166734   3.482863
                    6          7          8          9         10
     6  C    0.000000
     7  C    4.082268   0.000000
     8  N    4.621773   1.162056   0.000000
     9  C    5.084105   2.452520   3.509074   0.000000
    10  N    6.167894   3.513833   4.477031   1.162028   0.000000
    11  C    5.086421   5.474757   6.629588   3.805514   3.950920
    12  N    6.177833   6.015787   7.176279   3.974815   3.771986
    13  C    4.070157   6.277895   7.309288   5.460288   5.982560
    14  N    4.607904   7.309375   8.295141   6.615197   7.142873
    15  C    1.419432   5.485084   6.038570   6.257400   7.273453
    16  N    2.581253   6.634546   7.200127   7.267775   8.232100
    17  C    1.419392   3.832021   4.010389   5.471641   6.623087
    18  N    2.581312   3.978654   3.811803   5.998300   7.159818
                   11         12         13         14         15
    11  C    0.000000
    12  N    1.162081   0.000000
    13  C    2.447804   3.503574   0.000000
    14  N    3.502020   4.460800   1.162077   0.000000
    15  C    5.457936   6.612266   3.806490   3.982497   0.000000
    16  N    5.969970   7.130499   3.939938   3.768025   1.162121
    17  C    6.268417   7.296226   5.474701   6.023708   2.461453
    18  N    7.286024   8.265298   6.625871   7.184927   3.527494
                   16         17         18
    16  N    0.000000
    17  C    3.528972   0.000000
    18  N    4.508682   1.162148   0.000000
 Symmetry turned off by external request.
 Stoichiometry    C12N6(1-,2)
 Framework group  C1[X(C12N6)]
 Deg. of freedom    48
 Full point group                 C1      NOp   1
 Rotational constants (GHZ):           0.4313319           0.4275677           0.2147673
 Standard basis: def2SVP (5D, 7F)
   252 basis functions,   450 primitive gaussians,   270 cartesian basis functions
    58 alpha electrons       57 beta electrons
       nuclear repulsion energy       965.6201661054 Hartrees.
 NAtoms=   18 NActive=   18 NUniq=   18 SFac= 1.00D+00 NAtFMM=   60 NAOKFM=F Big=F
 Integral buffers will be    131072 words long.
 Raffenetti 2 integral format.
 Two-electron integral symmetry is turned off.
 Nuclear repulsion after empirical dispersion term =      965.6084820664 Hartrees.
 Force PCM accuracy= 1.00D-10.
 ------------------------------------------------------------------------------
 Polarizable Continuum Model (PCM)
 =================================
 Model                : PCM (using non-symmetric T matrix).
 Atomic radii         : SMD-Coulomb.
 Polarization charges : Total charges.
 Charge compensation  : None.
 Solution method      : On-the-fly selection.
 Cavity type          : VdW (van der Waals Surface) (Alpha=1.000).
 Cavity algorithm     : GePol (No added spheres)
                        Default sphere list used, NSphG=   18.
                        Lebedev-Laikov grids with approx.  5.0 points / Ang**2.
                        Smoothing algorithm: York/Karplus (Gamma=1.0000).
                        Polarization charges: spherical gaussians, with
                                              point-specific exponents (IZeta= 3).
                        Self-potential: point-specific (ISelfS= 7).
                        Self-field    : sphere-specific E.n sum rule (ISelfD= 2).
 1st derivatives      : Analytical E(r).r(x)/FMM algorithm (CHGder, D1EAlg=3).
                        Cavity 1st derivative terms included.
 Solvent              : Acetonitrile, Eps=  35.688000 Eps(inf)=   1.806874
 ------------------------------------------------------------------------------
 Spheres list:
 ISph  on   Nord     Re0    Alpha      Xe            Ye            Ze
    1   C      1    1.8500  1.000     -8.950272     -0.915163      1.108056
    2   C      2    1.8500  1.000     -8.945264      0.470969      1.251447
    3   C      3    1.8500  1.000     -8.253917     -2.113664      0.982888
    4   C      4    1.8500  1.000     -7.047335     -2.805329      0.894896
    5   C      5    1.8500  1.000     -9.644964     -2.114667      0.996698
    6   C      6    1.8500  1.000    -10.850204     -2.811673      0.941731
    7   C      7    1.8500  1.000    -10.164390      1.192460      1.343582
    8   N      8    1.8900  1.000    -11.167363      1.774324      1.420089
    9   C      9    1.8500  1.000     -7.712055      1.170096      1.323381
   10   N     10    1.8900  1.000     -6.690799      1.721247      1.383205
   11   C     11    1.8500  1.000     -5.812967     -2.106047      0.946171
   12   N     12    1.8900  1.000     -4.808369     -1.523337      0.986954
   13   C     13    1.8500  1.000     -7.035622     -4.216058      0.734718
   14   N     14    1.8900  1.000     -7.033213     -5.370266      0.599725
   15   C     15    1.8500  1.000    -10.840651     -4.227393      0.839590
   16   N     16    1.8900  1.000    -10.797716     -5.386113      0.761805
   17   C     17    1.8500  1.000    -12.081236     -2.106705      0.989196
   18   N     18    1.8900  1.000    -13.073556     -1.502858      1.024676
 ------------------------------------------------------------------------------
 ------------------------------------------------------------------------------
 Atomic radii for non-electrostatic terms: SMD-CDS.
 ------------------------------------------------------------------------------
 Nuclear repulsion after PCM non-electrostatic terms =      965.6171806220 Hartrees.
 One-electron integrals computed using PRISM.
   1 Symmetry operations used in ECPInt.
 ECPInt:  NShTT=    5886 NPrTT=   23670 LenC2=    5404 LenP2D=   14969.
 LDataN:  DoStor=T MaxTD1= 4 Len=   56
 NBasis=   252 RedAO= T EigKep=  1.95D-04  NBF=   252
 NBsUse=   252 1.00D-06 EigRej= -1.00D+00 NBFU=   252
 Initial guess from the checkpoint file:  "b.chk"
 B after Tr=    -0.000072    0.000061   -0.000200
         Rot=    1.000000   -0.000019   -0.000010    0.000000 Ang=  -0.00 deg.
 Initial guess <Sx>= 0.0000 <Sy>= 0.0000 <Sz>= 0.5000 <S**2>= 0.7871 S= 0.5184
 Requested convergence on RMS density matrix=1.00D-08 within  64 cycles.
 Requested convergence on MAX density matrix=1.00D-06.
 Requested convergence on             energy=1.00D-06.
 No special actions if energy rises.
 Inv3:  Mode=1 IEnd=    19309107.
 Iteration    1 A*A^-1 deviation from unit magnitude is 3.89D-15 for    789.
 Iteration    1 A*A^-1 deviation from orthogonality  is 3.46D-15 for   1691    245.
 Iteration    1 A^-1*A deviation from unit magnitude is 3.55D-15 for   2238.
 Iteration    1 A^-1*A deviation from orthogonality  is 2.06D-12 for   2057   2011.
 Error on total polarization charges =  0.01950
 SCF Done:  E(UwB97XD) =  -784.860700216     A.U. after    8 cycles
            NFock=  8  Conv=0.86D-08     -V/T= 2.0098
 <Sx>= 0.0000 <Sy>= 0.0000 <Sz>= 0.5000 <S**2>= 0.7871 S= 0.5184
 <L.S>=  0.00000000000    
 SMD-CDS (non-electrostatic) energy       (kcal/mol) =       5.46
 (included in total energy above)
 Annihilation of the first spin contaminant:
 S**2 before annihilation     0.7871,   after     0.7511
 QCSCF skips out because SCF is already converged.

 **********************************************************************

            Population analysis using the SCF Density.

 **********************************************************************

 Alpha  occ. eigenvalues --  -14.45934 -14.45931 -14.45923 -14.45921 -14.45917
 Alpha  occ. eigenvalues --  -14.45911 -10.38246 -10.38176 -10.38170 -10.38040
 Alpha  occ. eigenvalues --  -10.38033 -10.38028 -10.36107 -10.36104 -10.36095
 Alpha  occ. eigenvalues --  -10.36091 -10.36088 -10.36082  -1.06688  -1.01958
 Alpha  occ. eigenvalues --   -1.01954  -1.01572  -1.00748  -1.00739  -1.00668
 Alpha  occ. eigenvalues --   -0.92069  -0.92051  -0.90103  -0.72246  -0.72197
 Alpha  occ. eigenvalues --   -0.68745  -0.68618  -0.68485  -0.67743  -0.55730
 Alpha  occ. eigenvalues --   -0.50893  -0.50886  -0.49754  -0.49693  -0.47621
 Alpha  occ. eigenvalues --   -0.47514  -0.47508  -0.47016  -0.46779  -0.46751
 Alpha  occ. eigenvalues --   -0.46630  -0.45190  -0.44862  -0.44850  -0.44687
 Alpha  occ. eigenvalues --   -0.44387  -0.44367  -0.42950  -0.42760  -0.42743
 Alpha  occ. eigenvalues --   -0.35270  -0.35266  -0.27996
 Alpha virt. eigenvalues --    0.04805   0.04845   0.06477   0.06886   0.06947
 Alpha virt. eigenvalues --    0.10215   0.10246   0.10512   0.10630   0.12408
 Alpha virt. eigenvalues --    0.12542   0.14490   0.19352   0.19381   0.20961
 Alpha virt. eigenvalues --    0.24819   0.25082   0.25114   0.26259   0.26303
 Alpha virt. eigenvalues --    0.27805   0.31553   0.31603   0.31608   0.33932
 Alpha virt. eigenvalues --    0.33946   0.35264   0.46510   0.46650   0.48593
 Alpha virt. eigenvalues --    0.48984   0.53191   0.53253   0.53276   0.53309
 Alpha virt. eigenvalues --    0.55006   0.55074   0.56049   0.57285   0.59469
 Alpha virt. eigenvalues --    0.60167   0.60193   0.60997   0.61077   0.62745
 Alpha virt. eigenvalues --    0.64062   0.68436   0.69671   0.69737   0.71718
 Alpha virt. eigenvalues --    0.71759   0.72743   0.72853   0.73125   0.73330
 Alpha virt. eigenvalues --    0.73414   0.73550   0.74567   0.74875   0.75744
 Alpha virt. eigenvalues --    0.79560   0.79817   0.79928   0.81009   0.81177
 Alpha virt. eigenvalues --    0.86516   0.86759   0.86895   0.87151   0.92803
 Alpha virt. eigenvalues --    0.92885   0.93058   0.93158   0.93816   0.94099
 Alpha virt. eigenvalues --    0.95852   0.98510   0.98534   0.99164   0.99337
 Alpha virt. eigenvalues --    1.00220   1.00315   1.02953   1.03193   1.03410
 Alpha virt. eigenvalues --    1.05847   1.06784   1.07477   1.07648   1.10468
 Alpha virt. eigenvalues --    1.10618   1.14934   1.16449   1.17959   1.18167
 Alpha virt. eigenvalues --    1.18959   1.22811   1.23103   1.23607   1.33268
 Alpha virt. eigenvalues --    1.36224   1.36312   1.38116   1.38200   1.41301
 Alpha virt. eigenvalues --    1.43577   1.43630   1.45563   1.45868   1.55811
 Alpha virt. eigenvalues --    1.59959   1.65877   1.68315   1.68381   1.68588
 Alpha virt. eigenvalues --    1.68772   1.68846   1.76499   1.76535   1.76697
 Alpha virt. eigenvalues --    1.77165   1.77865   1.79112   1.79152   1.79848
 Alpha virt. eigenvalues --    1.81976   1.82386   1.85247   1.92706   1.92891
 Alpha virt. eigenvalues --    1.92996   1.97810   1.99610   1.99786   2.03364
 Alpha virt. eigenvalues --    2.03450   2.06189   2.07130   2.12522   2.12653
 Alpha virt. eigenvalues --    2.17433   2.19545   2.19861   2.19967   2.26076
 Alpha virt. eigenvalues --    2.26959   2.27019   2.28729   2.33038   2.33041
 Alpha virt. eigenvalues --    2.33490   2.33591   2.33880   2.33971   2.34470
 Alpha virt. eigenvalues --    2.35425   2.35560   2.35726   2.35942   2.36036
 Alpha virt. eigenvalues --    2.37370   2.37386   2.56367   2.61938   2.62294
 Alpha virt. eigenvalues --    2.70622   2.70714   2.92696   2.94786   2.95062
 Alpha virt. eigenvalues --    2.95280   2.98472   2.98554   2.99152   3.02290
 Alpha virt. eigenvalues --    3.04803   3.04894   3.08342   3.08746   3.11650
 Alpha virt. eigenvalues --    3.11720   3.12217   3.23006   3.23340   3.28585
 Alpha virt. eigenvalues --    3.40746   3.40794   3.42369   3.53625   3.56869
 Alpha virt. eigenvalues --    3.56910   3.61644   3.61700   3.75324
  Beta  occ. eigenvalues --  -14.45742 -14.45738 -14.45731 -14.45729 -14.45725
  Beta  occ. eigenvalues --  -14.45719 -10.38282 -10.38213 -10.38207 -10.37689
  Beta  occ. eigenvalues --  -10.37682 -10.37675 -10.36199 -10.36196 -10.36187
  Beta  occ. eigenvalues --  -10.36183 -10.36180 -10.36173  -1.06293  -1.01607
  Beta  occ. eigenvalues --   -1.01603  -1.01218  -1.00418  -1.00408  -1.00338
  Beta  occ. eigenvalues --   -0.91306  -0.91286  -0.89127  -0.72112  -0.72062
  Beta  occ. eigenvalues --   -0.68529  -0.68402  -0.68223  -0.67584  -0.54958
  Beta  occ. eigenvalues --   -0.49681  -0.49595  -0.49585  -0.49539  -0.47262
  Beta  occ. eigenvalues --   -0.47154  -0.47149  -0.46657  -0.46498  -0.46472
  Beta  occ. eigenvalues --   -0.45469  -0.45087  -0.44242  -0.44222  -0.43929
  Beta  occ. eigenvalues --   -0.43915  -0.43884  -0.42805  -0.42619  -0.42603
  Beta  occ. eigenvalues --   -0.32271  -0.32262
  Beta virt. eigenvalues --   -0.10704   0.05500   0.05541   0.06588   0.06985
  Beta virt. eigenvalues --    0.07044   0.10512   0.11249   0.11280   0.11406
  Beta virt. eigenvalues --    0.12453   0.12586   0.14744   0.19547   0.19578
  Beta virt. eigenvalues --    0.22532   0.24747   0.26415   0.26437   0.26679
  Beta virt. eigenvalues --    0.26711   0.28013   0.32034   0.32103   0.32264
  Beta virt. eigenvalues --    0.34029   0.34049   0.35343   0.46632   0.46770
  Beta virt. eigenvalues --    0.48735   0.49052   0.53155   0.53181   0.53321
  Beta virt. eigenvalues --    0.53412   0.55161   0.55240   0.56200   0.57450
  Beta virt. eigenvalues --    0.59398   0.60054   0.60079   0.61011   0.61093
  Beta virt. eigenvalues --    0.62885   0.63931   0.68760   0.69832   0.69894
  Beta virt. eigenvalues --    0.71848   0.71890   0.72879   0.72994   0.73301
  Beta virt. eigenvalues --    0.73522   0.73608   0.73676   0.74702   0.75006
  Beta virt. eigenvalues --    0.75766   0.79824   0.79931   0.80531   0.81756
  Beta virt. eigenvalues --    0.81908   0.86770   0.86868   0.87019   0.87257
  Beta virt. eigenvalues --    0.92984   0.93061   0.93668   0.93756   0.94045
  Beta virt. eigenvalues --    0.94702   0.96564   0.99126   0.99136   0.99393
  Beta virt. eigenvalues --    0.99572   1.00361   1.00456   1.03090   1.03338
  Beta virt. eigenvalues --    1.03548   1.06168   1.06837   1.07802   1.07962
  Beta virt. eigenvalues --    1.10595   1.10745   1.15150   1.16784   1.18204
  Beta virt. eigenvalues --    1.18416   1.19239   1.23057   1.23312   1.24144
  Beta virt. eigenvalues --    1.33419   1.36411   1.36497   1.38680   1.38766
  Beta virt. eigenvalues --    1.42067   1.44295   1.44333   1.45648   1.45945
  Beta virt. eigenvalues --    1.55867   1.59994   1.65712   1.68096   1.68162
  Beta virt. eigenvalues --    1.68366   1.68557   1.68632   1.76524   1.76664
  Beta virt. eigenvalues --    1.76720   1.77029   1.77757   1.79006   1.79040
  Beta virt. eigenvalues --    1.80100   1.81910   1.82320   1.85156   1.92773
  Beta virt. eigenvalues --    1.92912   1.93108   1.97984   2.00202   2.00378
  Beta virt. eigenvalues --    2.03715   2.03801   2.06985   2.07283   2.13040
  Beta virt. eigenvalues --    2.13160   2.17708   2.20645   2.20825   2.20931
  Beta virt. eigenvalues --    2.26611   2.27549   2.27610   2.29219   2.33716
  Beta virt. eigenvalues --    2.33719   2.34153   2.34262   2.34565   2.34656
  Beta virt. eigenvalues --    2.35129   2.35979   2.36128   2.36157   2.36442
  Beta virt. eigenvalues --    2.36541   2.38103   2.38137   2.56831   2.62012
  Beta virt. eigenvalues --    2.62371   2.71048   2.71141   2.92787   2.94926
  Beta virt. eigenvalues --    2.95198   2.95468   2.98635   2.98719   2.99273
  Beta virt. eigenvalues --    3.02791   3.05327   3.05418   3.08501   3.08905
  Beta virt. eigenvalues --    3.12153   3.12222   3.12717   3.23250   3.23584
  Beta virt. eigenvalues --    3.28776   3.40948   3.40998   3.42561   3.53806
  Beta virt. eigenvalues --    3.57051   3.57092   3.61838   3.61894   3.75478
          Condensed to atoms (all electrons):
               1          2          3          4          5          6
     1  C    4.914129   0.542724   0.295742  -0.104847   0.297592  -0.104233
     2  C    0.542724   5.328951  -0.103832  -0.008479  -0.105101  -0.008146
     3  C    0.295742  -0.103832   4.911634   0.542022   0.297146  -0.103800
     4  C   -0.104847  -0.008479   0.542022   5.331592  -0.105040  -0.008331
     5  C    0.297592  -0.105101   0.297146  -0.105040   4.916409   0.543332
     6  C   -0.104233  -0.008146  -0.103800  -0.008331   0.543332   5.325759
     7  C    0.006435   0.391460   0.005505  -0.000495  -0.022595   0.002478
     8  N   -0.001741  -0.029104  -0.000066  -0.000001  -0.000488   0.000121
     9  C    0.008774   0.393195  -0.022757   0.002608   0.005981  -0.000470
    10  N   -0.001743  -0.028428  -0.000505   0.000144  -0.000057  -0.000001
    11  C   -0.022046   0.002621   0.007507   0.393175   0.005564  -0.000487
    12  N   -0.000471   0.000131  -0.001768  -0.028722  -0.000066  -0.000001
    13  C    0.005332  -0.000502   0.007230   0.392853  -0.022232   0.002550
    14  N   -0.000070  -0.000001  -0.001775  -0.028980  -0.000478   0.000126
    15  C    0.006247  -0.000466  -0.023483   0.002620   0.008410   0.391136
    16  N   -0.000047  -0.000001  -0.000547   0.000157  -0.001672  -0.028669
    17  C   -0.023448   0.002508   0.006059  -0.000487   0.007491   0.390419
    18  N   -0.000537   0.000142  -0.000051  -0.000001  -0.001652  -0.028849
               7          8          9         10         11         12
     1  C    0.006435  -0.001741   0.008774  -0.001743  -0.022046  -0.000471
     2  C    0.391460  -0.029104   0.393195  -0.028428   0.002621   0.000131
     3  C    0.005505  -0.000066  -0.022757  -0.000505   0.007507  -0.001768
     4  C   -0.000495  -0.000001   0.002608   0.000144   0.393175  -0.028722
     5  C   -0.022595  -0.000488   0.005981  -0.000057   0.005564  -0.000066
     6  C    0.002478   0.000121  -0.000470  -0.000001  -0.000487  -0.000001
     7  C    4.845223   0.907565  -0.052717   0.002065   0.000116   0.000002
     8  N    0.907565   6.104739   0.001930   0.000067   0.000000   0.000000
     9  C   -0.052717   0.001930   4.842997   0.907097  -0.000415   0.000103
    10  N    0.002065   0.000067   0.907097   6.105983   0.000248  -0.000768
    11  C    0.000116   0.000000  -0.000415   0.000248   4.843596   0.907709
    12  N    0.000002   0.000000   0.000103  -0.000768   0.907709   6.104432
    13  C   -0.000014  -0.000000   0.000120   0.000002  -0.052922   0.001968
    14  N   -0.000000  -0.000000   0.000000   0.000000   0.001927   0.000068
    15  C    0.000112   0.000002  -0.000014  -0.000000   0.000120   0.000000
    16  N    0.000000   0.000000  -0.000000  -0.000000   0.000002   0.000000
    17  C   -0.000407   0.000067   0.000116   0.000000  -0.000014  -0.000000
    18  N    0.000251  -0.000721   0.000002   0.000000  -0.000000  -0.000000
              13         14         15         16         17         18
     1  C    0.005332  -0.000070   0.006247  -0.000047  -0.023448  -0.000537
     2  C   -0.000502  -0.000001  -0.000466  -0.000001   0.002508   0.000142
     3  C    0.007230  -0.001775  -0.023483  -0.000547   0.006059  -0.000051
     4  C    0.392853  -0.028980   0.002620   0.000157  -0.000487  -0.000001
     5  C   -0.022232  -0.000478   0.008410  -0.001672   0.007491  -0.001652
     6  C    0.002550   0.000126   0.391136  -0.028669   0.390419  -0.028849
     7  C   -0.000014  -0.000000   0.000112   0.000000  -0.000407   0.000251
     8  N   -0.000000  -0.000000   0.000002   0.000000   0.000067  -0.000721
     9  C    0.000120   0.000000  -0.000014  -0.000000   0.000116   0.000002
    10  N    0.000002   0.000000  -0.000000  -0.000000   0.000000   0.000000
    11  C   -0.052922   0.001927   0.000120   0.000002  -0.000014  -0.000000
    12  N    0.001968   0.000068   0.000000   0.000000  -0.000000  -0.000000
    13  C    4.844223   0.907836  -0.000423   0.000315   0.000115   0.000000
    14  N    0.907836   6.104592   0.000051  -0.000768   0.000002   0.000000
    15  C   -0.000423   0.000051   4.843698   0.906349  -0.051366   0.002066
    16  N    0.000315  -0.000768   0.906349   6.107724   0.002117   0.000064
    17  C    0.000115   0.000002  -0.051366   0.002117   4.844929   0.906540
    18  N    0.000000   0.000000   0.002066   0.000064   0.906540   6.106714
          Atomic-Atomic Spin Densities.
               1          2          3          4          5          6
     1  C   -0.047397  -0.066507   0.036085  -0.005947   0.036202  -0.005923
     2  C   -0.066507   0.383417  -0.005965   0.000986  -0.005937   0.000983
     3  C    0.036085  -0.005965  -0.047466  -0.066483   0.036108  -0.005930
     4  C   -0.005947   0.000986  -0.066483   0.383121  -0.005964   0.000995
     5  C    0.036202  -0.005937   0.036108  -0.005964  -0.047137  -0.066558
     6  C   -0.005923   0.000983  -0.005930   0.000995  -0.066558   0.383527
     7  C    0.000435   0.005026  -0.000139  -0.000014   0.000373  -0.000066
     8  N    0.000504  -0.005402   0.000009  -0.000000   0.000033  -0.000025
     9  C    0.000382   0.004909   0.000382  -0.000073  -0.000155  -0.000014
    10  N    0.000535  -0.005419   0.000036  -0.000030   0.000010  -0.000000
    11  C    0.000370  -0.000070   0.000424   0.004945  -0.000148  -0.000014
    12  N    0.000034  -0.000027   0.000512  -0.005393   0.000009  -0.000000
    13  C   -0.000143  -0.000014   0.000397   0.004974   0.000373  -0.000069
    14  N    0.000009  -0.000000   0.000505  -0.005379   0.000034  -0.000026
    15  C   -0.000151  -0.000015   0.000387  -0.000075   0.000386   0.004945
    16  N    0.000010  -0.000000   0.000037  -0.000032   0.000546  -0.005436
    17  C    0.000384  -0.000071  -0.000145  -0.000015   0.000418   0.005022
    18  N    0.000035  -0.000029   0.000010  -0.000000   0.000534  -0.005437
               7          8          9         10         11         12
     1  C    0.000435   0.000504   0.000382   0.000535   0.000370   0.000034
     2  C    0.005026  -0.005402   0.004909  -0.005419  -0.000070  -0.000027
     3  C   -0.000139   0.000009   0.000382   0.000036   0.000424   0.000512
     4  C   -0.000014  -0.000000  -0.000073  -0.000030   0.004945  -0.005393
     5  C    0.000373   0.000033  -0.000155   0.000010  -0.000148   0.000009
     6  C   -0.000066  -0.000025  -0.000014  -0.000000  -0.000014  -0.000000
     7  C   -0.076091  -0.001635  -0.000327   0.000135  -0.000003   0.000000
     8  N   -0.001635   0.118054   0.000151   0.000010  -0.000000   0.000000
     9  C   -0.000327   0.000151  -0.075910  -0.001602   0.000017   0.000016
    10  N    0.000135   0.000010  -0.001602   0.117689   0.000015   0.000040
    11  C   -0.000003  -0.000000   0.000017   0.000015  -0.075965  -0.001612
    12  N    0.000000   0.000000   0.000016   0.000040  -0.001612   0.117846
    13  C    0.000000  -0.000000  -0.000003   0.000000  -0.000327   0.000147
    14  N   -0.000000   0.000000  -0.000000   0.000000   0.000151   0.000010
    15  C   -0.000003   0.000000   0.000000  -0.000000  -0.000003  -0.000000
    16  N   -0.000000   0.000000  -0.000000   0.000000   0.000000   0.000000
    17  C    0.000016   0.000015  -0.000003  -0.000000   0.000000  -0.000000
    18  N    0.000014   0.000035   0.000000   0.000000  -0.000000   0.000000
              13         14         15         16         17         18
     1  C   -0.000143   0.000009  -0.000151   0.000010   0.000384   0.000035
     2  C   -0.000014  -0.000000  -0.000015  -0.000000  -0.000071  -0.000029
     3  C    0.000397   0.000505   0.000387   0.000037  -0.000145   0.000010
     4  C    0.004974  -0.005379  -0.000075  -0.000032  -0.000015  -0.000000
     5  C    0.000373   0.000034   0.000386   0.000546   0.000418   0.000534
     6  C   -0.000069  -0.000026   0.004945  -0.005436   0.005022  -0.005437
     7  C    0.000000  -0.000000  -0.000003  -0.000000   0.000016   0.000014
     8  N   -0.000000   0.000000   0.000000   0.000000   0.000015   0.000035
     9  C   -0.000003  -0.000000   0.000000  -0.000000  -0.000003   0.000000
    10  N    0.000000   0.000000  -0.000000   0.000000  -0.000000   0.000000
    11  C   -0.000327   0.000151  -0.000003   0.000000   0.000000  -0.000000
    12  N    0.000147   0.000010  -0.000000   0.000000  -0.000000   0.000000
    13  C   -0.075937  -0.001608   0.000017   0.000015  -0.000003  -0.000000
    14  N   -0.001608   0.117749   0.000016   0.000040   0.000000   0.000000
    15  C    0.000017   0.000016  -0.075911  -0.001601  -0.000347   0.000133
    16  N    0.000015   0.000040  -0.001601   0.117625   0.000127   0.000009
    17  C   -0.000003   0.000000  -0.000347   0.000127  -0.076048  -0.001632
    18  N   -0.000000   0.000000   0.000133   0.000009  -0.001632   0.117895
 Mulliken charges and spin densities:
               1          2
     1  C    0.182209  -0.051084
     2  C   -0.377672   0.305865
     3  C    0.185738  -0.051237
     4  C   -0.379788   0.305615
     5  C    0.177455  -0.050872
     6  C   -0.372936   0.305972
     7  C   -0.084986  -0.072279
     8  N    0.017628   0.111748
     9  C   -0.086553  -0.072232
    10  N    0.015896   0.111419
    11  C   -0.086701  -0.072220
    12  N    0.017382   0.111582
    13  C   -0.086452  -0.072180
    14  N    0.017472   0.111500
    15  C   -0.085058  -0.072221
    16  N    0.014976   0.111339
    17  C   -0.084641  -0.072281
    18  N    0.016032   0.111566
 Sum of Mulliken charges =  -1.00000   1.00000
 Mulliken charges and spin densities with hydrogens summed into heavy atoms:
               1          2
     1  C    0.182209  -0.051084
     2  C   -0.377672   0.305865
     3  C    0.185738  -0.051237
     4  C   -0.379788   0.305615
     5  C    0.177455  -0.050872
     6  C   -0.372936   0.305972
     7  C   -0.084986  -0.072279
     8  N    0.017628   0.111748
     9  C   -0.086553  -0.072232
    10  N    0.015896   0.111419
    11  C   -0.086701  -0.072220
    12  N    0.017382   0.111582
    13  C   -0.086452  -0.072180
    14  N    0.017472   0.111500
    15  C   -0.085058  -0.072221
    16  N    0.014976   0.111339
    17  C   -0.084641  -0.072281
    18  N    0.016032   0.111566
 Electronic spatial extent (au):  <R**2>=          38984.3186
 Charge=             -1.0000 electrons
 Dipole moment (field-independent basis, Debye):
    X=             42.7649    Y=              8.2293    Z=             -4.9454  Tot=             43.8294
 Quadrupole moment (field-independent basis, Debye-Ang):
   XX=           -552.0513   YY=           -184.9465   ZZ=           -104.1154
   XY=            -72.6559   XZ=             44.7523   YZ=              1.2456
 Traceless Quadrupole moment (field-independent basis, Debye-Ang):
   XX=           -271.6802   YY=             95.4246   ZZ=            176.2556
   XY=            -72.6559   XZ=             44.7523   YZ=              1.2456
 Octapole moment (field-independent basis, Debye-Ang**2):
  XXX=           7981.5284  YYY=            970.5289  ZZZ=           -311.0112  XYY=           1650.7063
  XXY=            866.6203  XXZ=           -586.0496  XZZ=            931.7743  YZZ=            164.0229
  YYZ=           -160.8795  XYZ=            -12.5810
 Hexadecapole moment (field-independent basis, Debye-Ang**3):
 XXXX=        -116545.3084 YYYY=          -7790.8005 ZZZZ=           -763.7346 XXXY=         -11686.5719
 XXXZ=           8541.4419 YYYX=          -8653.9886 YYYZ=            640.8992 ZZZX=           2798.6634
 ZZZY=            359.8056 XXYY=         -16430.5376 XXZZ=          -9071.8913 YYZZ=           -973.7492
 XXYZ=            275.1995 YYXZ=           1457.7677 ZZXY=          -1466.3016
 N-N= 9.656171806220D+02 E-N=-3.766544629375D+03  KE= 7.772708335273D+02
                          Isotropic Fermi Contact Couplings
        Atom                 a.u.       MegaHertz       Gauss      10(-4) cm-1
     1  C(13)             -0.01764     -19.83026      -7.07593      -6.61466
     2  C(13)              0.05021      56.44951      20.14259      18.82953
     3  C(13)             -0.01767     -19.86712      -7.08908      -6.62696
     4  C(13)              0.05018      56.41176      20.12912      18.81694
     5  C(13)             -0.01761     -19.79158      -7.06213      -6.60176
     6  C(13)              0.05018      56.41225      20.12929      18.81710
     7  C(13)             -0.03254     -36.58071     -13.05291     -12.20201
     8  N(14)              0.02595       8.38608       2.99236       2.79730
     9  C(13)             -0.03248     -36.50928     -13.02742     -12.17818
    10  N(14)              0.02587       8.35716       2.98204       2.78765
    11  C(13)             -0.03248     -36.51681     -13.03010     -12.18070
    12  N(14)              0.02590       8.36974       2.98653       2.79184
    13  C(13)             -0.03251     -36.54255     -13.03929     -12.18928
    14  N(14)              0.02589       8.36373       2.98439       2.78984
    15  C(13)             -0.03250     -36.53747     -13.03748     -12.18759
    16  N(14)              0.02585       8.35260       2.98041       2.78613
    17  C(13)             -0.03251     -36.55274     -13.04293     -12.19268
    18  N(14)              0.02591       8.37284       2.98764       2.79288
 --------------------------------------------------------
       Center         ----  Spin Dipole Couplings  ----
                      3XX-RR        3YY-RR        3ZZ-RR
 --------------------------------------------------------
     1   Atom        0.000759      0.023457     -0.024216
     2   Atom       -0.159832     -0.156565      0.316397
     3   Atom        0.018236      0.006178     -0.024414
     4   Atom       -0.161437     -0.154532      0.315969
     5   Atom        0.017803      0.005855     -0.023658
     6   Atom       -0.161715     -0.157900      0.319615
     7   Atom        0.036982      0.009157     -0.046139
     8   Atom       -0.112416     -0.091649      0.204064
     9   Atom        0.038007      0.008007     -0.046014
    10   Atom       -0.113107     -0.090258      0.203364
    11   Atom        0.035588      0.010573     -0.046161
    12   Atom       -0.112426     -0.091469      0.203896
    13   Atom       -0.002723      0.048251     -0.045528
    14   Atom       -0.085967     -0.116650      0.202616
    15   Atom       -0.002695      0.048847     -0.046152
    16   Atom       -0.085842     -0.119749      0.205591
    17   Atom        0.035084      0.011382     -0.046466
    18   Atom       -0.111872     -0.094209      0.206081
 --------------------------------------------------------
                        XY            XZ            YZ
 --------------------------------------------------------
     1   Atom        0.000335     -0.002588      0.003980
     2   Atom       -0.000356      0.003515     -0.052303
     3   Atom       -0.010018      0.000249      0.003876
     4   Atom        0.000164      0.008535     -0.052462
     5   Atom        0.010003      0.000193      0.004063
     6   Atom       -0.000936     -0.000901     -0.035407
     7   Atom       -0.022173     -0.003244      0.006224
     8   Atom        0.014860      0.006399     -0.033261
     9   Atom        0.021504      0.002101      0.006069
    10   Atom       -0.014823     -0.001128     -0.033603
    11   Atom        0.023138      0.000753      0.005765
    12   Atom       -0.015958      0.005485     -0.031991
    13   Atom        0.000880     -0.000464      0.010678
    14   Atom       -0.000281      0.004011     -0.038791
    15   Atom       -0.002172      0.000107      0.006800
    16   Atom        0.001334     -0.001566     -0.021195
    17   Atom       -0.023358     -0.001440      0.003994
    18   Atom        0.015835     -0.001327     -0.019999
 --------------------------------------------------------


 ---------------------------------------------------------------------------------
              Anisotropic Spin Dipole Couplings in Principal Axis System
 ---------------------------------------------------------------------------------

       Atom             a.u.   MegaHertz   Gauss  10(-4) cm-1        Axes

              Baa    -0.0248    -3.329    -1.188    -1.111  0.1014 -0.0824  0.9914
     1 C(13)  Bbb     0.0010     0.137     0.049     0.046  0.9948  0.0032 -0.1015
              Bcc     0.0238     3.192     1.139     1.065  0.0052  0.9966  0.0823
 
              Baa    -0.1623   -21.776    -7.770    -7.264 -0.0114  0.9940  0.1087
     2 C(13)  Bbb    -0.1599   -21.451    -7.654    -7.155  0.9999  0.0121 -0.0061
              Bcc     0.3221    43.228    15.425    14.419  0.0073 -0.1086  0.9941
 
              Baa    -0.0250    -3.348    -1.195    -1.117 -0.0371 -0.1352  0.9901
     3 C(13)  Bbb     0.0010     0.133     0.048     0.044  0.4963  0.8575  0.1357
              Bcc     0.0240     3.215     1.147     1.072  0.8674 -0.4964 -0.0353
 
              Baa    -0.1622   -21.768    -7.767    -7.261  0.8665 -0.4944 -0.0697
     4 C(13)  Bbb    -0.1597   -21.427    -7.646    -7.147  0.4990  0.8623  0.0862
              Bcc     0.3219    43.195    15.413    14.408  0.0175 -0.1094  0.9938
 
              Baa    -0.0242    -3.253    -1.161    -1.085  0.0296 -0.1434  0.9892
     5 C(13)  Bbb     0.0007     0.089     0.032     0.030 -0.5002  0.8547  0.1388
              Bcc     0.0236     3.164     1.129     1.055  0.8654  0.4990  0.0464
 
              Baa    -0.1623   -21.777    -7.770    -7.264  0.8707  0.4903  0.0377
     6 C(13)  Bbb    -0.1599   -21.463    -7.659    -7.159 -0.4918  0.8684  0.0632
              Bcc     0.3222    43.240    15.429    14.423 -0.0017 -0.0735  0.9973
 
              Baa    -0.0468    -6.285    -2.243    -2.097  0.0103 -0.1064  0.9943
     7 C(13)  Bbb    -0.0028    -0.371    -0.132    -0.124  0.4907  0.8669  0.0877
              Bcc     0.0496     6.656     2.375     2.220  0.8712 -0.4870 -0.0612
 
              Baa    -0.1216    -4.690    -1.674    -1.564  0.8615 -0.5032 -0.0683
     8 N(14)  Bbb    -0.0862    -3.326    -1.187    -1.109  0.5076  0.8572  0.0870
              Bcc     0.2078     8.016     2.860     2.674  0.0148 -0.1096  0.9939
 
              Baa    -0.0467    -6.265    -2.236    -2.090  0.0037 -0.1117  0.9937
     9 C(13)  Bbb    -0.0028    -0.371    -0.132    -0.124 -0.4682  0.8779  0.1005
              Bcc     0.0495     6.636     2.368     2.214  0.8836  0.4656  0.0490
 
              Baa    -0.1212    -4.676    -1.668    -1.560  0.8774  0.4768  0.0524
    10 N(14)  Bbb    -0.0859    -3.314    -1.183    -1.106 -0.4797  0.8718  0.0994
              Bcc     0.2072     7.990     2.851     2.665  0.0017 -0.1124  0.9937
 
              Baa    -0.0468    -6.277    -2.240    -2.094  0.0214 -0.1085  0.9939
    11 C(13)  Bbb    -0.0027    -0.368    -0.131    -0.123 -0.5155  0.8506  0.1040
              Bcc     0.0495     6.645     2.371     2.216  0.8566  0.5145  0.0377
 
              Baa    -0.1214    -4.682    -1.671    -1.562  0.8661  0.4987  0.0344
    12 N(14)  Bbb    -0.0861    -3.320    -1.185    -1.107 -0.4993  0.8601  0.1043
              Bcc     0.2075     8.002     2.855     2.669  0.0224 -0.1076  0.9939
 
              Baa    -0.0467    -6.271    -2.238    -2.092  0.0127 -0.1118  0.9936
    13 C(13)  Bbb    -0.0027    -0.366    -0.131    -0.122  0.9998 -0.0142 -0.0144
              Bcc     0.0495     6.638     2.368     2.214  0.0158  0.9936  0.1116
 
              Baa    -0.1213    -4.678    -1.669    -1.560 -0.0056  0.9929  0.1190
    14 N(14)  Bbb    -0.0860    -3.318    -1.184    -1.107  0.9999  0.0072 -0.0129
              Bcc     0.2073     7.996     2.853     2.667  0.0137 -0.1189  0.9928
 
              Baa    -0.0466    -6.258    -2.233    -2.088 -0.0059 -0.0712  0.9974
    15 C(13)  Bbb    -0.0028    -0.373    -0.133    -0.125  0.9991  0.0409  0.0089
              Bcc     0.0494     6.632     2.366     2.212 -0.0414  0.9966  0.0709
 
              Baa    -0.1212    -4.673    -1.667    -1.559 -0.0348  0.9973  0.0645
    16 N(14)  Bbb    -0.0858    -3.309    -1.181    -1.104  0.9994  0.0344  0.0079
              Bcc     0.2070     7.983     2.848     2.663 -0.0056 -0.0648  0.9979
 
              Baa    -0.0467    -6.272    -2.238    -2.092 -0.0023 -0.0695  0.9976
    17 C(13)  Bbb    -0.0028    -0.376    -0.134    -0.125  0.5255  0.8486  0.0603
              Bcc     0.0495     6.648     2.372     2.217  0.8508 -0.5244 -0.0346
 
              Baa    -0.1214    -4.683    -1.671    -1.562  0.8549 -0.5181 -0.0282
    18 N(14)  Bbb    -0.0860    -3.317    -1.184    -1.106  0.5188  0.8527  0.0607
              Bcc     0.2074     8.000     2.855     2.668 -0.0074 -0.0665  0.9978
 

 ---------------------------------------------------------------------------------

   1 Symmetry operations used in ECPInt.
 ECPInt:  NShTT=    5886 NPrTT=   23670 LenC2=    5404 LenP2D=   14969.
 LDataN:  DoStor=T MaxTD1= 5 Len=  102
 D1PCM: PCM CHGder 1st derivatives, ID1Alg=3 FixD1E=F DoIter=F DoCFld=F I1PDM=0.
 Calling FoFJK, ICntrl=      2127 FMM=F ISym2X=0 I1Cent= 0 IOpClX= 1 NMat=1 NMatS=1 NMatT=0.
 -------------------------------------------------------------------
 Center     Atomic                   Forces (Hartrees/Bohr)
 Number     Number              X              Y              Z
 -------------------------------------------------------------------
      1        6           0.000122040    0.020183262    0.001916472
      2        6           0.000110305   -0.013433575   -0.001189577
      3        6           0.017528543   -0.010045270   -0.001013268
      4        6          -0.011637756    0.006701908    0.000582937
      5        6          -0.017444150   -0.010106361   -0.000865049
      6        6           0.011796848    0.006750123    0.000515666
      7        6          -0.006738494    0.003483332    0.000462452
      8        7           0.004128936   -0.002764061   -0.000384392
      9        6           0.007176407    0.003297824    0.000431246
     10        7          -0.004265860   -0.002174699   -0.000319468
     11        6           0.006537231    0.004494572    0.000301587
     12        7          -0.004400291   -0.002334565   -0.000101982
     13        6          -0.000407825   -0.007674780   -0.000857314
     14        7          -0.000367157    0.004929726    0.000663514
     15        6           0.000574968   -0.007771672   -0.000696010
     16        7          -0.000511948    0.004998946    0.000223789
     17        6          -0.006462599    0.004317046    0.000413998
     18        7           0.004260804   -0.002851755   -0.000084602
 -------------------------------------------------------------------
 Cartesian Forces:  Max     0.020183262 RMS     0.006510809

 GradGradGradGradGradGradGradGradGradGradGradGradGradGradGradGradGradGrad
 Berny optimization.
 Search for a local minimum.
 Step number   1 out of a maximum of    2
 All quantities printed in internal units (Hartrees-Bohrs-Radians)
 Second derivative matrix not updated -- first step.
 ITU=  0
     Eigenvalues ---    0.00129   0.00146   0.00198   0.00300   0.00301
     Eigenvalues ---    0.00818   0.01536   0.01721   0.01988   0.02012
     Eigenvalues ---    0.03003   0.04120   0.05335   0.05356   0.10305
     Eigenvalues ---    0.15185   0.21316   0.21509   0.24400   0.24721
     Eigenvalues ---    0.25040   0.25739   0.25930   0.30115   0.30261
     Eigenvalues ---    0.36002   0.41799   0.48345   0.79314   0.79746
     Eigenvalues ---    0.81923   0.99401   1.00827   1.04670   1.04979
     Eigenvalues ---    1.12156   1.60048   1.60486   2.06199   2.78761
     Eigenvalues ---    2.78971   2.79159   2.84173   2.84265   2.84327
     Eigenvalues ---   38.25536  55.08232  87.12505
 Angle between quadratic step and forces=  79.77 degrees.
 Linear search not attempted -- first point.
 B after Tr=    -0.000204    0.000076   -0.000092
         Rot=    1.000000   -0.000002   -0.000003   -0.000002 Ang=  -0.00 deg.
 Variable       Old X    -DE/DX   Delta X   Delta X   Delta X     New X
                                 (Linear)    (Quad)   (Total)
    X1      -16.91356   0.00012   0.00000   0.00789   0.00770 -16.90586
    Y1       -1.72941   0.02018   0.00000   0.00543   0.00542  -1.72399
    Z1        2.09392   0.00192   0.00000   0.00206   0.00207   2.09599
    X2      -16.90410   0.00011   0.00000   0.00695   0.00676 -16.89734
    Y2        0.89000  -0.01343   0.00000  -0.01926  -0.01927   0.87073
    Z2        2.36489  -0.00119   0.00000  -0.00122  -0.00120   2.36369
    X3      -15.59764   0.01753   0.00000   0.01175   0.01157 -15.58607
    Y3       -3.99425  -0.01005   0.00000  -0.00356  -0.00356  -3.99781
    Z3        1.85739  -0.00101   0.00000  -0.00037  -0.00039   1.85700
    X4      -13.31753  -0.01164   0.00000  -0.01035  -0.01052 -13.32805
    Y4       -5.30130   0.00670   0.00000   0.00933   0.00934  -5.29196
    Z4        1.69111   0.00058   0.00000   0.00111   0.00108   1.69219
    X5      -18.22634  -0.01744   0.00000   0.00101   0.00084 -18.22550
    Y5       -3.99614  -0.01011   0.00000  -0.00340  -0.00341  -3.99955
    Z5        1.88349  -0.00087   0.00000   0.00004   0.00004   1.88353
    X6      -20.50391   0.01180   0.00000   0.02026   0.02009 -20.48382
    Y6       -5.31329   0.00675   0.00000   0.01076   0.01074  -5.30255
    Z6        1.77961   0.00052   0.00000  -0.00000   0.00001   1.77962
    X7      -19.20791  -0.00674   0.00000  -0.00669  -0.00688 -19.21480
    Y7        2.25342   0.00348   0.00000  -0.02823  -0.02825   2.22518
    Z7        2.53900   0.00046   0.00000  -0.01690  -0.01686   2.52215
    X8      -21.10326   0.00413   0.00000  -0.01313  -0.01333 -21.11659
    Y8        3.35299  -0.00276   0.00000  -0.04525  -0.04527   3.30771
    Z8        2.68358  -0.00038   0.00000  -0.03167  -0.03162   2.65196
    X9      -14.57367   0.00718   0.00000   0.01173   0.01153 -14.56214
    Y9        2.21116   0.00330   0.00000  -0.01279  -0.01279   2.19837
    Z9        2.50083   0.00043   0.00000  -0.00279  -0.00278   2.49805
   X10      -12.64378  -0.00427   0.00000   0.00611   0.00591 -12.63787
   Y10        3.25269  -0.00217   0.00000  -0.01018  -0.01018   3.24251
   Z10        2.61388  -0.00032   0.00000  -0.00451  -0.00451   2.60937
   X11      -10.98492   0.00654   0.00000  -0.00864  -0.00881 -10.99373
   Y11       -3.97985   0.00449   0.00000   0.02040   0.02042  -3.95944
   Z11        1.78800   0.00030   0.00000  -0.00035  -0.00039   1.78761
   X12       -9.08650  -0.00440   0.00000  -0.01742  -0.01760  -9.10410
   Y12       -2.87869  -0.00233   0.00000   0.02771   0.02774  -2.85095
   Z12        1.86507  -0.00010   0.00000  -0.00069  -0.00073   1.86434
   X13      -13.29540  -0.00041   0.00000  -0.02136  -0.02152 -13.31692
   Y13       -7.96719  -0.00767   0.00000   0.00049   0.00050  -7.96670
   Z13        1.38841  -0.00086   0.00000   0.02100   0.02095   1.40937
   X14      -13.29085  -0.00037   0.00000  -0.03723  -0.03738 -13.32823
   Y14      -10.14833   0.00493   0.00000   0.00208   0.00210 -10.14624
   Z14        1.13332   0.00066   0.00000   0.04091   0.04085   1.17417
   X15      -20.48586   0.00057   0.00000   0.01332   0.01316 -20.47270
   Y15       -7.98862  -0.00777   0.00000   0.00675   0.00672  -7.98189
   Z15        1.58659  -0.00070   0.00000  -0.03640  -0.03640   1.55019
   X16      -20.40473  -0.00051   0.00000   0.00114   0.00099 -20.40374
   Y16      -10.17828   0.00500   0.00000   0.01234   0.01232 -10.16596
   Z16        1.43960   0.00022   0.00000  -0.06708  -0.06710   1.37250
   X17      -22.83023  -0.00646   0.00000   0.01730   0.01712 -22.81311
   Y17       -3.98110   0.00432   0.00000   0.01582   0.01579  -3.96531
   Z17        1.86931   0.00041   0.00000   0.03415   0.03418   1.90349
   X18      -24.70544   0.00426   0.00000   0.02056   0.02038 -24.68506
   Y18       -2.83999  -0.00285   0.00000   0.01170   0.01166  -2.82833
   Z18        1.93636  -0.00008   0.00000   0.06275   0.06280   1.99915
         Item               Value     Threshold  Converged?
 Maximum Force            0.020183     0.000450     NO 
 RMS     Force            0.006511     0.000300     NO 
 Maximum Displacement     0.067098     0.001800     NO 
 RMS     Displacement     0.021152     0.001200     NO 
 Predicted change in Energy=-6.606012D-04
 GradGradGradGradGradGradGradGradGradGradGradGradGradGradGradGradGradGrad

 Unable to Open any file for archive entry.
 1\1\GINC-X10P1N4\Force\UwB97XD\def2SVP\C12N6(1-,2)\MAYUMIAO\11-Oct-202
 4\0\\# wb97xd def2svp scrf=(smd,solvent=acetonitrile) g09default scf=(
 xqc,maxcycle=64) force guess=read nosymm\\Title Card\\-1,2\C,-8.950272
 28,-0.91516255,1.10805584\C,-8.94526441,0.47096876,1.25144673\C,-8.253
 91743,-2.11366395,0.98288819\C,-7.0473353,-2.80532947,0.89489608\C,-9.
 6449642,-2.11466732,0.99669775\C,-10.85020356,-2.81167309,0.94173069\C
 ,-10.16438959,1.19246038,1.34358177\N,-11.16736293,1.77432406,1.420088
 65\C,-7.71205463,1.17009613,1.32338118\N,-6.69079852,1.72124693,1.3832
 051\C,-5.81296725,-2.10604747,0.94617054\N,-4.80836923,-1.52333676,0.9
 8695361\C,-7.03562241,-4.216058,0.73471751\N,-7.03321254,-5.37026556,0
 .59972513\C,-10.84065088,-4.22739331,0.83958983\N,-10.79771639,-5.3861
 1304,0.7618048\C,-12.0812364,-2.10670512,0.9891958\N,-13.07355598,-1.5
 0285805,1.02467571\\Version=ES64L-G16RevC.01\HF=-784.8607002\S2=0.7870
 67\S2-1=0.\S2A=0.751128\RMSD=8.555e-09\RMSF=6.511e-03\Dipole=-0.067003
 3,-0.0032085,-0.0004235\Quadrupole=-201.9875793,70.9458366,131.0417428
 ,-54.0179001,33.2722743,0.926054\PG=C01 [X(C12N6)]\\@
 The archive entry for this job was punched.


 You never know when you're making a memory.
                        -- Rickie Lee Jones
 Job cpu time:       0 days  0 hours  8 minutes  7.6 seconds.
 Elapsed time:       0 days  0 hours  0 minutes 18.8 seconds.
 File lengths (MBytes):  RWF=    173 Int=      0 D2E=      0 Chk=      9 Scr=      1
 Normal termination of Gaussian 16 at Fri Oct 11 16:18:11 2024.
