 Entering Gaussian System, Link 0=g16
 Input=JOBS/5_A.gjf
 Output=JOBS/5_A.log
 Initial command:
 /data/app/gaussian/C01-avx2//g16/l1.exe "/tmp/Gau-2519451.inp" -scrdir="/tmp/"
 Entering Link 1 = /data/app/gaussian/C01-avx2//g16/l1.exe PID=   2519452.
  
 Copyright (c) 1988-2019, Gaussian, Inc.  All Rights Reserved.
  
 This is part of the Gaussian(R) 16 program.  It is based on
 the Gaussian(R) 09 system (copyright 2009, Gaussian, Inc.),
 the Gaussian(R) 03 system (copyright 2003, Gaussian, Inc.),
 the Gaussian(R) 98 system (copyright 1998, Gaussian, Inc.),
 the Gaussian(R) 94 system (copyright 1995, Gaussian, Inc.),
 the Gaussian 92(TM) system (copyright 1992, Gaussian, Inc.),
 the Gaussian 90(TM) system (copyright 1990, Gaussian, Inc.),
 the Gaussian 88(TM) system (copyright 1988, Gaussian, Inc.),
 the Gaussian 86(TM) system (copyright 1986, Carnegie Mellon
 University), and the Gaussian 82(TM) system (copyright 1983,
 Carnegie Mellon University). Gaussian is a federally registered
 trademark of Gaussian, Inc.
  
 This software contains proprietary and confidential information,
 including trade secrets, belonging to Gaussian, Inc.
  
 This software is provided under written license and may be
 used, copied, transmitted, or stored only in accord with that
 written license.
  
 The following legend is applicable only to US Government
 contracts under FAR:
  
                    RESTRICTED RIGHTS LEGEND
  
 Use, reproduction and disclosure by the US Government is
 subject to restrictions as set forth in subparagraphs (a)
 and (c) of the Commercial Computer Software - Restricted
 Rights clause in FAR 52.227-19.
  
 Gaussian, Inc.
 340 Quinnipiac St., Bldg. 40, Wallingford CT 06492
  
  
 ---------------------------------------------------------------
 Warning -- This program may not be used in any manner that
 competes with the business of Gaussian, Inc. or will provide
 assistance to any competitor of Gaussian, Inc.  The licensee
 of this program is prohibited from giving any competitor of
 Gaussian, Inc. access to this program.  By using this program,
 the user acknowledges that Gaussian, Inc. is engaged in the
 business of creating and licensing software in the field of
 computational chemistry and represents and warrants to the
 licensee that it is not a competitor of Gaussian, Inc. and that
 it will not use this program in any manner prohibited above.
 ---------------------------------------------------------------
  

 Cite this work as:
 Gaussian 16, Revision C.01,
 M. J. Frisch, G. W. Trucks, H. B. Schlegel, G. E. Scuseria, 
 M. A. Robb, J. R. Cheeseman, G. Scalmani, V. Barone, 
 G. A. Petersson, H. Nakatsuji, X. Li, M. Caricato, A. V. Marenich, 
 J. Bloino, B. G. Janesko, R. Gomperts, B. Mennucci, H. P. Hratchian, 
 J. V. Ortiz, A. F. Izmaylov, J. L. Sonnenberg, D. Williams-Young, 
 F. Ding, F. Lipparini, F. Egidi, J. Goings, B. Peng, A. Petrone, 
 T. Henderson, D. Ranasinghe, V. G. Zakrzewski, J. Gao, N. Rega, 
 G. Zheng, W. Liang, M. Hada, M. Ehara, K. Toyota, R. Fukuda, 
 J. Hasegawa, M. Ishida, T. Nakajima, Y. Honda, O. Kitao, H. Nakai, 
 T. Vreven, K. Throssell, J. A. Montgomery, Jr., J. E. Peralta, 
 F. Ogliaro, M. J. Bearpark, J. J. Heyd, E. N. Brothers, K. N. Kudin, 
 V. N. Staroverov, T. A. Keith, R. Kobayashi, J. Normand, 
 K. Raghavachari, A. P. Rendell, J. C. Burant, S. S. Iyengar, 
 J. Tomasi, M. Cossi, J. M. Millam, M. Klene, C. Adamo, R. Cammi, 
 J. W. Ochterski, R. L. Martin, K. Morokuma, O. Farkas, 
 J. B. Foresman, and D. J. Fox, Gaussian, Inc., Wallingford CT, 2019.
 
 ******************************************
 Gaussian 16:  ES64L-G16RevC.01  3-Jul-2019
                11-Oct-2024 
 ******************************************
 %chk=a.chk
 %nprocshared=28
 Will use up to   28 processors via shared memory.
 %mem=48gb
 ----------------------------------------------------------------------
 # wb97xd def2svp scrf=(smd,solvent=acetonitrile) g09default scf=(xqc,m
 axcycle=64) force guess=read nosymm
 ----------------------------------------------------------------------
 1/10=7,30=1,38=1,158=3,167=1/1,3;
 2/12=2,15=1,17=6,18=5,40=1/2;
 3/5=43,7=101,11=2,25=1,27=10,30=1,70=32201,71=1,72=2,74=-58,75=-4,116=-2,158=3/1,2,3;
 4/5=1,60=-1/1;
 5/5=2,7=64,8=3,13=1,38=6,53=2,87=10/2,8;
 6/7=2,8=2,9=2,10=2,28=1,87=10/1;
 7/29=1,30=1,87=10/1,2,3,16;
 1/10=7,30=1,158=3,167=1/3;
 99//99;
 Using 2006 physical constants.
 ----------
 Title Card
 ----------
 Symbolic Z-matrix:
 Charge = -2 Multiplicity = 1
 6                    -8.93934  -1.01136   1.10239 
 6                    -8.93843   0.52616   1.25369 
 6                    -8.32591  -2.0676    0.98343 
 6                    -6.98779  -2.83488   0.8973 
 6                    -9.5535   -2.06848   0.99996 
 6                    -10.89247  -2.837     0.93596 
 6                    -10.13325   1.18561   1.33695 
 7                    -11.1806   1.72471   1.40249 
 6                    -7.74269   1.18599   1.3178 
 7                    -6.69471   1.72532   1.37274 
 6                    -5.81507  -2.1323    0.95157 
 7                    -4.82427  -1.49661   1.00068 
 6                    -7.00805  -4.19365   0.7512 
 7                    -7.06033  -5.36699   0.62671 
 6                    -10.87271  -4.20045   0.8216 
 7                    -10.82025  -5.3745    0.72777 
 6                    -12.06503  -2.13491   0.99591 
 7                    -13.05551  -1.49923   1.05066 
 

 GradGradGradGradGradGradGradGradGradGradGradGradGradGradGradGradGradGrad
 Berny optimization.
 Initialization pass.
 Trust Radius=3.00D-01 FncErr=1.00D-07 GrdErr=1.00D-07 EigMax=2.50D+02 EigMin=1.00D-04
 Number of steps in this run=      2 maximum allowed number of steps=      2.
 GradGradGradGradGradGradGradGradGradGradGradGradGradGradGradGradGradGrad

                          Input orientation:                          
 ---------------------------------------------------------------------
 Center     Atomic      Atomic             Coordinates (Angstroms)
 Number     Number       Type             X           Y           Z
 ---------------------------------------------------------------------
      1          6           0       -8.939340   -1.011364    1.102387
      2          6           0       -8.938426    0.526161    1.253687
      3          6           0       -8.325910   -2.067603    0.983435
      4          6           0       -6.987791   -2.834877    0.897302
      5          6           0       -9.553501   -2.068479    0.999959
      6          6           0      -10.892466   -2.837003    0.935956
      7          6           0      -10.133251    1.185609    1.336949
      8          7           0      -11.180601    1.724707    1.402486
      9          6           0       -7.742687    1.185987    1.317799
     10          7           0       -6.694705    1.725324    1.372745
     11          6           0       -5.815070   -2.132298    0.951573
     12          7           0       -4.824269   -1.496608    1.000676
     13          6           0       -7.008053   -4.193653    0.751195
     14          7           0       -7.060333   -5.366992    0.626713
     15          6           0      -10.872711   -4.200451    0.821599
     16          7           0      -10.820245   -5.374501    0.727774
     17          6           0      -12.065028   -2.134906    0.995912
     18          7           0      -13.055507   -1.499232    1.050657
 ---------------------------------------------------------------------
                    Distance matrix (angstroms):
                    1          2          3          4          5
     1  C    0.000000
     2  C    1.544952   0.000000
     3  C    1.227227   2.678772   0.000000
     4  C    2.678769   3.902380   1.544892   0.000000
     5  C    1.226856   2.678591   1.227703   2.679697   0.000000
     6  C    2.678686   3.902575   2.679821   3.904867   1.545170
     7  C    2.511401   1.367264   3.738294   5.123624   3.322463
     8  N    3.549563   2.546763   4.765132   6.214876   4.147016
     9  C    2.511321   1.367214   3.322318   4.112668   3.737863
    10  N    3.549780   2.546851   4.147130   4.594277   4.764937
    11  C    3.322694   4.112667   2.511875   1.368151   3.739289
    12  N    4.144830   4.591503   3.547932   2.546071   4.763683
    13  C    3.739006   5.124010   2.512125   1.366758   3.325291
    14  N    4.767433   6.216878   3.551746   2.547564   4.151553
    15  C    3.739926   5.125331   3.325873   4.118632   2.513451
    16  N    4.766037   6.215757   4.150018   4.600667   3.550846
    17  C    3.323193   4.113802   3.739745   5.126210   2.512408
    18  N    4.145301   4.592797   4.764100   6.214873   3.548331
                    6          7          8          9         10
     6  C    0.000000
     7  C    4.113224   0.000000
     8  N    4.594548   1.179772   0.000000
     9  C    5.123608   2.390641   3.480897   0.000000
    10  N    6.215047   3.480829   4.485994   1.179902   0.000000
    11  C    5.126090   5.459277   6.623347   3.854977   3.978993
    12  N    6.214810   5.957572   7.137316   3.976688   3.744037
    13  C    4.118653   6.248715   7.270579   5.459053   5.959765
    14  N    4.602360   7.272128   8.238363   6.624556   7.140812
    15  C    1.368378   5.460955   5.961521   6.249559   7.271472
    16  N    2.547048   6.624055   7.140298   7.270454   8.236722
    17  C    1.368005   3.856668   3.980469   5.460273   6.624481
    18  N    2.545885   3.978682   3.746044   5.958844   7.138718
                   11         12         13         14         15
    11  C    0.000000
    12  N    1.178219   0.000000
    13  C    2.390093   3.479254   0.000000
    14  N    3.481302   4.485500   1.181082   0.000000
    15  C    5.465701   6.627707   3.865306   3.991619   0.000000
    16  N    5.967726   7.145927   3.990961   3.761278   1.178961
    17  C    6.250116   7.268841   5.465467   5.969058   2.391335
    18  N    7.268735   8.231390   6.627313   7.147125   3.480466
                   16         17         18
    16  N    0.000000
    17  C    3.480856   0.000000
    18  N    4.485349   1.178187   0.000000
 Symmetry turned off by external request.
 Stoichiometry    C12N6(2-)
 Framework group  C1[X(C12N6)]
 Deg. of freedom    48
 Full point group                 C1      NOp   1
 Rotational constants (GHZ):           0.4311604           0.4307572           0.2154942
 Standard basis: def2SVP (5D, 7F)
   252 basis functions,   450 primitive gaussians,   270 cartesian basis functions
    58 alpha electrons       58 beta electrons
       nuclear repulsion energy       969.3261683425 Hartrees.
 NAtoms=   18 NActive=   18 NUniq=   18 SFac= 1.00D+00 NAtFMM=   60 NAOKFM=F Big=F
 Integral buffers will be    131072 words long.
 Raffenetti 2 integral format.
 Two-electron integral symmetry is turned off.
 Nuclear repulsion after empirical dispersion term =      969.3144978313 Hartrees.
 Force PCM accuracy= 1.00D-10.
 ------------------------------------------------------------------------------
 Polarizable Continuum Model (PCM)
 =================================
 Model                : PCM (using non-symmetric T matrix).
 Atomic radii         : SMD-Coulomb.
 Polarization charges : Total charges.
 Charge compensation  : None.
 Solution method      : On-the-fly selection.
 Cavity type          : VdW (van der Waals Surface) (Alpha=1.000).
 Cavity algorithm     : GePol (No added spheres)
                        Default sphere list used, NSphG=   18.
                        Lebedev-Laikov grids with approx.  5.0 points / Ang**2.
                        Smoothing algorithm: York/Karplus (Gamma=1.0000).
                        Polarization charges: spherical gaussians, with
                                              point-specific exponents (IZeta= 3).
                        Self-potential: point-specific (ISelfS= 7).
                        Self-field    : sphere-specific E.n sum rule (ISelfD= 2).
 1st derivatives      : Analytical E(r).r(x)/FMM algorithm (CHGder, D1EAlg=3).
                        Cavity 1st derivative terms included.
 Solvent              : Acetonitrile, Eps=  35.688000 Eps(inf)=   1.806874
 ------------------------------------------------------------------------------
 Spheres list:
 ISph  on   Nord     Re0    Alpha      Xe            Ye            Ze
    1   C      1    1.8500  1.000     -8.939340     -1.011364      1.102387
    2   C      2    1.8500  1.000     -8.938426      0.526161      1.253687
    3   C      3    1.8500  1.000     -8.325910     -2.067603      0.983435
    4   C      4    1.8500  1.000     -6.987791     -2.834877      0.897302
    5   C      5    1.8500  1.000     -9.553501     -2.068479      0.999959
    6   C      6    1.8500  1.000    -10.892466     -2.837003      0.935956
    7   C      7    1.8500  1.000    -10.133251      1.185609      1.336949
    8   N      8    1.8900  1.000    -11.180601      1.724707      1.402486
    9   C      9    1.8500  1.000     -7.742687      1.185987      1.317799
   10   N     10    1.8900  1.000     -6.694705      1.725324      1.372745
   11   C     11    1.8500  1.000     -5.815070     -2.132298      0.951573
   12   N     12    1.8900  1.000     -4.824269     -1.496608      1.000676
   13   C     13    1.8500  1.000     -7.008053     -4.193653      0.751195
   14   N     14    1.8900  1.000     -7.060333     -5.366992      0.626713
   15   C     15    1.8500  1.000    -10.872711     -4.200451      0.821599
   16   N     16    1.8900  1.000    -10.820245     -5.374501      0.727774
   17   C     17    1.8500  1.000    -12.065028     -2.134906      0.995912
   18   N     18    1.8900  1.000    -13.055507     -1.499232      1.050657
 ------------------------------------------------------------------------------
 ------------------------------------------------------------------------------
 Atomic radii for non-electrostatic terms: SMD-CDS.
 ------------------------------------------------------------------------------
 Nuclear repulsion after PCM non-electrostatic terms =      969.3229998876 Hartrees.
 One-electron integrals computed using PRISM.
   1 Symmetry operations used in ECPInt.
 ECPInt:  NShTT=    5886 NPrTT=   23670 LenC2=    5410 LenP2D=   15010.
 LDataN:  DoStor=T MaxTD1= 4 Len=   56
 NBasis=   252 RedAO= T EigKep=  1.72D-04  NBF=   252
 NBsUse=   252 1.00D-06 EigRej= -1.00D+00 NBFU=   252
 Initial guess from the checkpoint file:  "a.chk"
 B after Tr=     0.000034   -0.000081    0.000190
         Rot=    1.000000    0.000001    0.000006    0.000002 Ang=   0.00 deg.
 Requested convergence on RMS density matrix=1.00D-08 within  64 cycles.
 Requested convergence on MAX density matrix=1.00D-06.
 Requested convergence on             energy=1.00D-06.
 No special actions if energy rises.
 Inv3:  Mode=1 IEnd=    19202700.
 Iteration    1 A*A^-1 deviation from unit magnitude is 2.89D-15 for     65.
 Iteration    1 A*A^-1 deviation from orthogonality  is 2.70D-15 for   1639    927.
 Iteration    1 A^-1*A deviation from unit magnitude is 4.33D-15 for   1100.
 Iteration    1 A^-1*A deviation from orthogonality  is 1.79D-09 for   1567   1508.
 Iteration    2 A*A^-1 deviation from unit magnitude is 4.44D-15 for   1843.
 Iteration    2 A*A^-1 deviation from orthogonality  is 4.08D-15 for   1011     30.
 Iteration    2 A^-1*A deviation from unit magnitude is 1.33D-15 for   1476.
 Iteration    2 A^-1*A deviation from orthogonality  is 5.62D-16 for   1820   1715.
 Error on total polarization charges =  0.02155
 SCF Done:  E(RwB97XD) =  -784.916125932     A.U. after   13 cycles
            NFock= 13  Conv=0.42D-08     -V/T= 2.0087
 SMD-CDS (non-electrostatic) energy       (kcal/mol) =       5.34
 (included in total energy above)
 QCSCF skips out because SCF is already converged.

 **********************************************************************

            Population analysis using the SCF Density.

 **********************************************************************

 Alpha  occ. eigenvalues --  -14.42531 -14.42520 -14.42514 -14.42504 -14.42500
 Alpha  occ. eigenvalues --  -14.42485 -10.36282 -10.35975 -10.35965 -10.33530
 Alpha  occ. eigenvalues --  -10.33517 -10.33511 -10.33502 -10.33494 -10.33481
 Alpha  occ. eigenvalues --  -10.32827 -10.32823 -10.32813  -1.15088  -0.98425
 Alpha  occ. eigenvalues --   -0.98404  -0.98393  -0.97015  -0.96978  -0.96905
 Alpha  occ. eigenvalues --   -0.87489  -0.87475  -0.87022  -0.69500  -0.69469
 Alpha  occ. eigenvalues --   -0.66243  -0.65321  -0.65310  -0.63983  -0.57394
 Alpha  occ. eigenvalues --   -0.49872  -0.49849  -0.47694  -0.47690  -0.46061
 Alpha  occ. eigenvalues --   -0.44848  -0.44727  -0.44724  -0.44370  -0.44363
 Alpha  occ. eigenvalues --   -0.44171  -0.42155  -0.41525  -0.41506  -0.41335
 Alpha  occ. eigenvalues --   -0.41107  -0.41073  -0.39733  -0.39420  -0.39408
 Alpha  occ. eigenvalues --   -0.29569  -0.29562  -0.25875
 Alpha virt. eigenvalues --    0.06954   0.07944   0.07973   0.08519   0.08544
 Alpha virt. eigenvalues --    0.12337   0.12362   0.12646   0.14084   0.14361
 Alpha virt. eigenvalues --    0.14404   0.16054   0.21653   0.21666   0.25000
 Alpha virt. eigenvalues --    0.26596   0.28540   0.28556   0.28967   0.28974
 Alpha virt. eigenvalues --    0.32867   0.33884   0.33898   0.33910   0.38294
 Alpha virt. eigenvalues --    0.38373   0.38395   0.47409   0.47492   0.47617
 Alpha virt. eigenvalues --    0.48764   0.55049   0.55069   0.57030   0.57051
 Alpha virt. eigenvalues --    0.57336   0.57380   0.58690   0.59235   0.59676
 Alpha virt. eigenvalues --    0.61012   0.61047   0.62096   0.62108   0.63657
 Alpha virt. eigenvalues --    0.65952   0.66946   0.71920   0.71930   0.71965
 Alpha virt. eigenvalues --    0.71982   0.73624   0.73653   0.75037   0.75134
 Alpha virt. eigenvalues --    0.75168   0.75244   0.76030   0.76079   0.79363
 Alpha virt. eigenvalues --    0.81999   0.82912   0.82981   0.83846   0.83858
 Alpha virt. eigenvalues --    0.88384   0.89532   0.94148   0.94215   0.95236
 Alpha virt. eigenvalues --    0.95257   0.95513   0.95538   0.96477   0.98010
 Alpha virt. eigenvalues --    0.98350   1.00681   1.00706   1.01505   1.01610
 Alpha virt. eigenvalues --    1.02395   1.02409   1.03525   1.06945   1.08769
 Alpha virt. eigenvalues --    1.10189   1.10268   1.10345   1.10408   1.13409
 Alpha virt. eigenvalues --    1.13529   1.17965   1.19051   1.20372   1.21104
 Alpha virt. eigenvalues --    1.21133   1.24783   1.24811   1.32450   1.34953
 Alpha virt. eigenvalues --    1.40870   1.40934   1.42827   1.42882   1.44949
 Alpha virt. eigenvalues --    1.46294   1.46406   1.47142   1.47568   1.47973
 Alpha virt. eigenvalues --    1.65591   1.66820   1.69653   1.69665   1.71602
 Alpha virt. eigenvalues --    1.71713   1.71791   1.78995   1.79012   1.79399
 Alpha virt. eigenvalues --    1.80761   1.80783   1.81522   1.82038   1.82057
 Alpha virt. eigenvalues --    1.87901   1.87947   1.87989   1.91432   1.91464
 Alpha virt. eigenvalues --    1.94199   1.99298   2.07374   2.07383   2.10956
 Alpha virt. eigenvalues --    2.10990   2.12062   2.19496   2.21458   2.25264
 Alpha virt. eigenvalues --    2.25310   2.25893   2.25936   2.27914   2.29469
 Alpha virt. eigenvalues --    2.29518   2.31007   2.35387   2.35896   2.35931
 Alpha virt. eigenvalues --    2.36488   2.36528   2.37117   2.37161   2.37832
 Alpha virt. eigenvalues --    2.38171   2.38199   2.39107   2.39792   2.39998
 Alpha virt. eigenvalues --    2.43206   2.43228   2.55893   2.73710   2.73740
 Alpha virt. eigenvalues --    2.74069   2.74115   2.96999   2.97528   2.97647
 Alpha virt. eigenvalues --    2.99076   3.00441   3.00509   3.04226   3.05078
 Alpha virt. eigenvalues --    3.07107   3.07213   3.13578   3.13608   3.17334
 Alpha virt. eigenvalues --    3.17365   3.17830   3.26683   3.26712   3.33187
 Alpha virt. eigenvalues --    3.46097   3.47002   3.47099   3.59314   3.62741
 Alpha virt. eigenvalues --    3.62945   3.64085   3.64136   3.71180
          Condensed to atoms (all electrons):
               1          2          3          4          5          6
     1  C    4.842394   0.441484   0.371179  -0.067898   0.371403  -0.067900
     2  C    0.441484   5.543348  -0.067810  -0.005647  -0.067913  -0.005635
     3  C    0.371179  -0.067810   4.841025   0.441513   0.371907  -0.068021
     4  C   -0.067898  -0.005647   0.441513   5.542529  -0.068055  -0.005601
     5  C    0.371403  -0.067913   0.371907  -0.068055   4.842484   0.441402
     6  C   -0.067900  -0.005635  -0.068021  -0.005601   0.441402   5.542255
     7  C    0.005731   0.366414   0.008769  -0.000547  -0.030652   0.004394
     8  N   -0.000844  -0.057028  -0.000036  -0.000001  -0.000568   0.000267
     9  C    0.005915   0.366251  -0.030603   0.004401   0.008792  -0.000546
    10  N   -0.000834  -0.057050  -0.000566   0.000268  -0.000036  -0.000001
    11  C   -0.030543   0.004377   0.005640   0.367057   0.008732  -0.000538
    12  N   -0.000573   0.000269  -0.000843  -0.056736  -0.000036  -0.000001
    13  C    0.008751  -0.000545   0.005581   0.366712  -0.030471   0.004338
    14  N   -0.000036  -0.000001  -0.000822  -0.057133  -0.000559   0.000260
    15  C    0.008773  -0.000540  -0.030304   0.004316   0.005502   0.367197
    16  N   -0.000035  -0.000001  -0.000561   0.000261  -0.000814  -0.056822
    17  C   -0.030564   0.004359   0.008720  -0.000538   0.005685   0.367616
    18  N   -0.000577   0.000269  -0.000036  -0.000001  -0.000828  -0.056875
               7          8          9         10         11         12
     1  C    0.005731  -0.000844   0.005915  -0.000834  -0.030543  -0.000573
     2  C    0.366414  -0.057028   0.366251  -0.057050   0.004377   0.000269
     3  C    0.008769  -0.000036  -0.030603  -0.000566   0.005640  -0.000843
     4  C   -0.000547  -0.000001   0.004401   0.000268   0.367057  -0.056736
     5  C   -0.030652  -0.000568   0.008792  -0.000036   0.008732  -0.000036
     6  C    0.004394   0.000267  -0.000546  -0.000001  -0.000538  -0.000001
     7  C    4.914789   0.906448  -0.077459   0.002608   0.000214   0.000005
     8  N    0.906448   6.223007   0.002607   0.000091   0.000000   0.000000
     9  C   -0.077459   0.002607   4.914728   0.906293  -0.000982   0.000078
    10  N    0.002608   0.000091   0.906293   6.223404   0.000080  -0.000878
    11  C    0.000214   0.000000  -0.000982   0.000080   4.912593   0.908152
    12  N    0.000005   0.000000   0.000078  -0.000878   0.908152   6.219078
    13  C   -0.000024  -0.000000   0.000214   0.000005  -0.076798   0.002601
    14  N   -0.000000  -0.000000   0.000000   0.000000   0.002576   0.000090
    15  C    0.000212   0.000005  -0.000024  -0.000000   0.000210   0.000000
    16  N    0.000000   0.000000  -0.000000  -0.000000   0.000005   0.000000
    17  C   -0.000976   0.000079   0.000213   0.000000  -0.000024  -0.000000
    18  N    0.000078  -0.000875   0.000005   0.000000  -0.000000  -0.000000
              13         14         15         16         17         18
     1  C    0.008751  -0.000036   0.008773  -0.000035  -0.030564  -0.000577
     2  C   -0.000545  -0.000001  -0.000540  -0.000001   0.004359   0.000269
     3  C    0.005581  -0.000822  -0.030304  -0.000561   0.008720  -0.000036
     4  C    0.366712  -0.057133   0.004316   0.000261  -0.000538  -0.000001
     5  C   -0.030471  -0.000559   0.005502  -0.000814   0.005685  -0.000828
     6  C    0.004338   0.000260   0.367197  -0.056822   0.367616  -0.056875
     7  C   -0.000024  -0.000000   0.000212   0.000000  -0.000976   0.000078
     8  N   -0.000000  -0.000000   0.000005   0.000000   0.000079  -0.000875
     9  C    0.000214   0.000000  -0.000024  -0.000000   0.000213   0.000005
    10  N    0.000005   0.000000  -0.000000  -0.000000   0.000000   0.000000
    11  C   -0.076798   0.002576   0.000210   0.000005  -0.000024  -0.000000
    12  N    0.002601   0.000090   0.000000   0.000000  -0.000000  -0.000000
    13  C    4.914165   0.905005  -0.000953   0.000064   0.000210   0.000000
    14  N    0.905005   6.226904   0.000080  -0.000852   0.000005   0.000000
    15  C   -0.000953   0.000080   4.912705   0.907491  -0.076492   0.002558
    16  N    0.000064  -0.000852   0.907491   6.221002   0.002547   0.000089
    17  C    0.000210   0.000005  -0.076492   0.002547   4.911935   0.908053
    18  N    0.000000   0.000000   0.002558   0.000089   0.908053   6.219628
 Mulliken charges:
               1
     1  C    0.144174
     2  C   -0.464603
     3  C    0.145269
     4  C   -0.464899
     5  C    0.144025
     6  C   -0.465789
     7  C   -0.100004
     8  N   -0.073152
     9  C   -0.099885
    10  N   -0.073383
    11  C   -0.100750
    12  N   -0.071205
    13  C   -0.098856
    14  N   -0.075517
    15  C   -0.100734
    16  N   -0.072374
    17  C   -0.100828
    18  N   -0.071489
 Sum of Mulliken charges =  -2.00000
 Mulliken charges with hydrogens summed into heavy atoms:
               1
     1  C    0.144174
     2  C   -0.464603
     3  C    0.145269
     4  C   -0.464899
     5  C    0.144025
     6  C   -0.465789
     7  C   -0.100004
     8  N   -0.073152
     9  C   -0.099885
    10  N   -0.073383
    11  C   -0.100750
    12  N   -0.071205
    13  C   -0.098856
    14  N   -0.075517
    15  C   -0.100734
    16  N   -0.072374
    17  C   -0.100828
    18  N   -0.071489
 Electronic spatial extent (au):  <R**2>=          39328.6875
 Charge=             -2.0000 electrons
 Dipole moment (field-independent basis, Debye):
    X=             85.8751    Y=             16.4750    Z=             -9.9014  Tot=             87.9999
 Quadrupole moment (field-independent basis, Debye-Ang):
   XX=           -972.7564   YY=           -232.4677   ZZ=           -112.9505
   XY=           -147.3299   XZ=             89.4018   YZ=              6.8255
 Traceless Quadrupole moment (field-independent basis, Debye-Ang):
   XX=           -533.3649   YY=            206.9238   ZZ=            326.4411
   XY=           -147.3299   XZ=             89.4018   YZ=              6.8255
 Octapole moment (field-independent basis, Debye-Ang**2):
  XXX=          12362.6532  YYY=           1170.0219  ZZZ=           -327.7814  XYY=           2078.3157
  XXY=           1598.3829  XXZ=          -1023.9765  XZZ=           1011.4036  YZZ=            173.2462
  YYZ=           -199.0050  XYZ=            -63.2589
 Hexadecapole moment (field-independent basis, Debye-Ang**3):
 XXXX=        -164417.4682 YYYY=          -8848.1210 ZZZZ=           -798.4125 XXXY=         -19316.8102
 XXXZ=          13125.6555 YYYX=         -10462.8690 YYYZ=            785.6170 ZZZX=           2947.5476
 ZZZY=            373.8535 XXYY=         -20510.8736 XXZZ=          -9854.1009 YYZZ=          -1039.7994
 XXYZ=            783.4595 YYXZ=           1796.6918 ZZXY=          -1551.9967
 N-N= 9.693229998876D+02 E-N=-3.791972605725D+03  KE= 7.781572469699D+02
   1 Symmetry operations used in ECPInt.
 ECPInt:  NShTT=    5886 NPrTT=   23670 LenC2=    5410 LenP2D=   15010.
 LDataN:  DoStor=T MaxTD1= 5 Len=  102
 D1PCM: PCM CHGder 1st derivatives, ID1Alg=3 FixD1E=F DoIter=F DoCFld=F I1PDM=0.
 Calling FoFJK, ICntrl=      2127 FMM=F ISym2X=0 I1Cent= 0 IOpClX= 0 NMat=1 NMatS=1 NMatT=0.
 -------------------------------------------------------------------
 Center     Atomic                   Forces (Hartrees/Bohr)
 Number     Number              X              Y              Z
 -------------------------------------------------------------------
      1        6           0.000611025    0.404750141    0.040468164
      2        6          -0.000074511   -0.099769736   -0.009514795
      3        6           0.350747170   -0.201896266   -0.023604675
      4        6          -0.086318612    0.050597832    0.005304970
      5        6          -0.351496439   -0.203063876   -0.016859563
      6        6           0.086503200    0.049283051    0.003970089
      7        6          -0.059973843    0.027174416    0.003115680
      8        7           0.025928492   -0.012400795   -0.001219821
      9        6           0.060230194    0.027310133    0.002815683
     10        7          -0.026152018   -0.012483358   -0.001306766
     11        6           0.050397133    0.036366785    0.002969513
     12        7          -0.020988462   -0.014610852   -0.001232361
     13        6          -0.006531618   -0.068332553   -0.006995394
     14        7           0.002245722    0.031135671    0.002935939
     15        6           0.006355482   -0.062716057   -0.005015314
     16        7          -0.002091379    0.026861346    0.002238881
     17        6          -0.050208102    0.036284925    0.003436328
     18        7           0.020816564   -0.014490807   -0.001506559
 -------------------------------------------------------------------
 Cartesian Forces:  Max     0.404750141 RMS     0.101358777

 GradGradGradGradGradGradGradGradGradGradGradGradGradGradGradGradGradGrad
 Berny optimization.
 Search for a local minimum.
 Step number   1 out of a maximum of    2
 All quantities printed in internal units (Hartrees-Bohrs-Radians)
 Second derivative matrix not updated -- first step.
 ITU=  0
     Eigenvalues ---    0.00020   0.00027   0.00027   0.00302   0.00302
     Eigenvalues ---    0.00928   0.01470   0.01725   0.01957   0.01960
     Eigenvalues ---    0.03712   0.03719   0.05125   0.05136   0.09353
     Eigenvalues ---    0.13441   0.20216   0.20233   0.25254   0.26154
     Eigenvalues ---    0.26202   0.27029   0.28206   0.28226   0.55704
     Eigenvalues ---    0.86474   0.89049   0.89278   1.05640   1.05731
     Eigenvalues ---    1.16806   1.29576   1.29790   2.04211   2.04549
     Eigenvalues ---    2.63668   2.64033   2.65145   2.74923   2.75238
     Eigenvalues ---    2.75982   3.08468  48.34872  50.27122  54.03352
     Eigenvalues ---   63.11623  66.42190  70.37183
 Quadratic step=1.252D+00 exceeds max=3.000D-01 adjusted using Lamda=-7.143D-02.
 Angle between NR and scaled steps=  68.73 degrees.
 Angle between quadratic step and forces=  33.57 degrees.
 Linear search not attempted -- first point.
 B after Tr=     0.000000    0.000021    0.000016
         Rot=    1.000000    0.000000    0.000001   -0.000000 Ang=   0.00 deg.
 Variable       Old X    -DE/DX   Delta X   Delta X   Delta X     New X
                                 (Linear)    (Quad)   (Total)
    X1      -16.89290   0.00061   0.00000   0.00006   0.00006 -16.89284
    Y1       -1.91120   0.40475   0.00000   0.12186   0.12187  -1.78933
    Z1        2.08321   0.04047   0.00000   0.01150   0.01149   2.09470
    X2      -16.89118  -0.00007   0.00000  -0.00003  -0.00003 -16.89121
    Y2        0.99430  -0.09977   0.00000  -0.08530  -0.08530   0.90900
    Z2        2.36912  -0.00951   0.00000  -0.00768  -0.00769   2.36144
    X3      -15.73369   0.35075   0.00000   0.10563   0.10563 -15.62806
    Y3       -3.90720  -0.20190   0.00000  -0.06124  -0.06124  -3.96844
    Z3        1.85842  -0.02360   0.00000  -0.00626  -0.00627   1.85216
    X4      -13.20501  -0.08632   0.00000  -0.07472  -0.07472 -13.27973
    Y4       -5.35714   0.05060   0.00000   0.04243   0.04244  -5.31471
    Z4        1.69565   0.00530   0.00000   0.00448   0.00447   1.70013
    X5      -18.05350  -0.35150   0.00000  -0.10607  -0.10607 -18.15957
    Y5       -3.90886  -0.20306   0.00000  -0.06153  -0.06153  -3.97038
    Z5        1.88965  -0.01686   0.00000  -0.00539  -0.00540   1.88425
    X6      -20.58378   0.08650   0.00000   0.07495   0.07495 -20.50882
    Y6       -5.36116   0.04928   0.00000   0.04246   0.04246  -5.31870
    Z6        1.76870   0.00397   0.00000   0.00333   0.00332   1.77202
    X7      -19.14907  -0.05997   0.00000  -0.04969  -0.04969 -19.19876
    Y7        2.24048   0.02717   0.00000  -0.03515  -0.03514   2.20533
    Z7        2.52647   0.00312   0.00000  -0.00377  -0.00378   2.52269
    X8      -21.12827   0.02593   0.00000  -0.00626  -0.00626 -21.13454
    Y8        3.25922  -0.01240   0.00000  -0.00600  -0.00599   3.25323
    Z8        2.65031  -0.00122   0.00000  -0.00001  -0.00002   2.65029
    X9      -14.63156   0.06023   0.00000   0.04959   0.04958 -14.58197
    Y9        2.24119   0.02731   0.00000  -0.03507  -0.03506   2.20613
    Z9        2.49028   0.00282   0.00000  -0.00233  -0.00234   2.48794
   X10      -12.65116  -0.02615   0.00000   0.00606   0.00606 -12.64510
   Y10        3.26039  -0.01248   0.00000  -0.00583  -0.00582   3.25457
   Z10        2.59411  -0.00131   0.00000  -0.00125  -0.00125   2.59286
   X11      -10.98889   0.05040   0.00000  -0.00708  -0.00708 -10.99597
   Y11       -4.02946   0.03637   0.00000   0.05984   0.05985  -3.96961
   Z11        1.79821   0.00297   0.00000   0.00556   0.00556   1.80378
   X12       -9.11655  -0.02099   0.00000  -0.00036  -0.00036  -9.11690
   Y12       -2.82818  -0.01461   0.00000   0.00852   0.00853  -2.81965
   Z12        1.89100  -0.00123   0.00000   0.00137   0.00137   1.89238
   X13      -13.24330  -0.00653   0.00000  -0.05642  -0.05642 -13.29972
   Y13       -7.92486  -0.06833   0.00000  -0.02618  -0.02617  -7.95102
   Z13        1.41955  -0.00700   0.00000  -0.00271  -0.00271   1.41685
   X14      -13.34210   0.00225   0.00000  -0.00881  -0.00881 -13.35090
   Y14      -10.14214   0.03114   0.00000  -0.00091  -0.00090 -10.14305
   Z14        1.18432   0.00294   0.00000  -0.00131  -0.00131   1.18301
   X15      -20.54645   0.00636   0.00000   0.05634   0.05634 -20.49010
   Y15       -7.93770  -0.06272   0.00000  -0.02420  -0.02419  -7.96190
   Z15        1.55260  -0.00502   0.00000   0.00063   0.00062   1.55322
   X16      -20.44730  -0.00209   0.00000   0.00893   0.00894 -20.43836
   Y16      -10.15634   0.02686   0.00000  -0.00279  -0.00279 -10.15912
   Z16        1.37529   0.00224   0.00000   0.00099   0.00098   1.37627
   X17      -22.79960  -0.05021   0.00000   0.00741   0.00741 -22.79219
   Y17       -4.03439   0.03628   0.00000   0.06009   0.06010  -3.97429
   Z17        1.88200   0.00344   0.00000   0.00417   0.00416   1.88616
   X18      -24.67133   0.02082   0.00000   0.00046   0.00046 -24.67088
   Y18       -2.83314  -0.01449   0.00000   0.00888   0.00888  -2.82426
   Z18        1.98545  -0.00151   0.00000  -0.00122  -0.00124   1.98422
         Item               Value     Threshold  Converged?
 Maximum Force            0.404750     0.000450     NO 
 RMS     Force            0.101359     0.000300     NO 
 Maximum Displacement     0.121872     0.001800     NO 
 RMS     Displacement     0.040833     0.001200     NO 
 Predicted change in Energy=-9.631926D-02
 GradGradGradGradGradGradGradGradGradGradGradGradGradGradGradGradGradGrad

 Unable to Open any file for archive entry.
 1\1\GINC-X10P1N4\Force\RwB97XD\def2SVP\C12N6(2-)\MAYUMIAO\11-Oct-2024\
 0\\# wb97xd def2svp scrf=(smd,solvent=acetonitrile) g09default scf=(xq
 c,maxcycle=64) force guess=read nosymm\\Title Card\\-2,1\C,-8.93933957
 ,-1.01136424,1.10238665\C,-8.93842642,0.52616075,1.2536867\C,-8.32591,
 -2.06760277,0.98343464\C,-6.98779075,-2.83487729,0.89730166\C,-9.55350
 143,-2.06847854,0.99995949\C,-10.8924657,-2.83700308,0.93595638\C,-10.
 13325133,1.1856093,1.3369486\N,-11.18060093,1.72470735,1.40248598\C,-7
 .74268735,1.18598745,1.3177994\N,-6.69470534,1.72532399,1.37274469\C,-
 5.81507007,-2.13229773,0.95157322\N,-4.82426874,-1.49660752,1.00067649
 \C,-7.00805257,-4.19365277,0.75119548\N,-7.06033329,-5.36699189,0.6267
 1344\C,-10.87271126,-4.20045134,0.82159947\N,-10.82024542,-5.37450116,
 0.72777401\C,-12.06502825,-2.13490602,0.99591187\N,-13.0555066,-1.4992
 3249,1.05065687\\Version=ES64L-G16RevC.01\HF=-784.9161259\RMSD=4.244e-
 09\RMSF=1.014e-01\Dipole=-0.0002941,0.0000419,-0.0048504\Quadrupole=-3
 96.5437429,153.8428038,242.7009391,-109.5361603,66.4680698,5.0745613\P
 G=C01 [X(C12N6)]\\@
 The archive entry for this job was punched.


 DON'T WORRY CHARLIE BROWN...WE LEARN MORE FROM LOSING 
 THAN WE DO FROM WINNING.
 THEN THAT MAKES ME THE SMARTEST PERSON IN THE WORLD...
 CHARLES SCHULZ 'PEANUTS'
 Job cpu time:       0 days  0 hours 10 minutes 11.7 seconds.
 Elapsed time:       0 days  0 hours  0 minutes 23.2 seconds.
 File lengths (MBytes):  RWF=    147 Int=      0 D2E=      0 Chk=      8 Scr=      1
 Normal termination of Gaussian 16 at Fri Oct 11 15:32:30 2024.
