 Entering Gaussian System, Link 0=g16
 Input=JOBS/6_A.gjf
 Output=JOBS/6_A.log
 Initial command:
 /data/app/gaussian/C01-avx2//g16/l1.exe "/tmp/Gau-2520376.inp" -scrdir="/tmp/"
 Entering Link 1 = /data/app/gaussian/C01-avx2//g16/l1.exe PID=   2520377.
  
 Copyright (c) 1988-2019, Gaussian, Inc.  All Rights Reserved.
  
 This is part of the Gaussian(R) 16 program.  It is based on
 the Gaussian(R) 09 system (copyright 2009, Gaussian, Inc.),
 the Gaussian(R) 03 system (copyright 2003, Gaussian, Inc.),
 the Gaussian(R) 98 system (copyright 1998, Gaussian, Inc.),
 the Gaussian(R) 94 system (copyright 1995, Gaussian, Inc.),
 the Gaussian 92(TM) system (copyright 1992, Gaussian, Inc.),
 the Gaussian 90(TM) system (copyright 1990, Gaussian, Inc.),
 the Gaussian 88(TM) system (copyright 1988, Gaussian, Inc.),
 the Gaussian 86(TM) system (copyright 1986, Carnegie Mellon
 University), and the Gaussian 82(TM) system (copyright 1983,
 Carnegie Mellon University). Gaussian is a federally registered
 trademark of Gaussian, Inc.
  
 This software contains proprietary and confidential information,
 including trade secrets, belonging to Gaussian, Inc.
  
 This software is provided under written license and may be
 used, copied, transmitted, or stored only in accord with that
 written license.
  
 The following legend is applicable only to US Government
 contracts under FAR:
  
                    RESTRICTED RIGHTS LEGEND
  
 Use, reproduction and disclosure by the US Government is
 subject to restrictions as set forth in subparagraphs (a)
 and (c) of the Commercial Computer Software - Restricted
 Rights clause in FAR 52.227-19.
  
 Gaussian, Inc.
 340 Quinnipiac St., Bldg. 40, Wallingford CT 06492
  
  
 ---------------------------------------------------------------
 Warning -- This program may not be used in any manner that
 competes with the business of Gaussian, Inc. or will provide
 assistance to any competitor of Gaussian, Inc.  The licensee
 of this program is prohibited from giving any competitor of
 Gaussian, Inc. access to this program.  By using this program,
 the user acknowledges that Gaussian, Inc. is engaged in the
 business of creating and licensing software in the field of
 computational chemistry and represents and warrants to the
 licensee that it is not a competitor of Gaussian, Inc. and that
 it will not use this program in any manner prohibited above.
 ---------------------------------------------------------------
  

 Cite this work as:
 Gaussian 16, Revision C.01,
 M. J. Frisch, G. W. Trucks, H. B. Schlegel, G. E. Scuseria, 
 M. A. Robb, J. R. Cheeseman, G. Scalmani, V. Barone, 
 G. A. Petersson, H. Nakatsuji, X. Li, M. Caricato, A. V. Marenich, 
 J. Bloino, B. G. Janesko, R. Gomperts, B. Mennucci, H. P. Hratchian, 
 J. V. Ortiz, A. F. Izmaylov, J. L. Sonnenberg, D. Williams-Young, 
 F. Ding, F. Lipparini, F. Egidi, J. Goings, B. Peng, A. Petrone, 
 T. Henderson, D. Ranasinghe, V. G. Zakrzewski, J. Gao, N. Rega, 
 G. Zheng, W. Liang, M. Hada, M. Ehara, K. Toyota, R. Fukuda, 
 J. Hasegawa, M. Ishida, T. Nakajima, Y. Honda, O. Kitao, H. Nakai, 
 T. Vreven, K. Throssell, J. A. Montgomery, Jr., J. E. Peralta, 
 F. Ogliaro, M. J. Bearpark, J. J. Heyd, E. N. Brothers, K. N. Kudin, 
 V. N. Staroverov, T. A. Keith, R. Kobayashi, J. Normand, 
 K. Raghavachari, A. P. Rendell, J. C. Burant, S. S. Iyengar, 
 J. Tomasi, M. Cossi, J. M. Millam, M. Klene, C. Adamo, R. Cammi, 
 J. W. Ochterski, R. L. Martin, K. Morokuma, O. Farkas, 
 J. B. Foresman, and D. J. Fox, Gaussian, Inc., Wallingford CT, 2019.
 
 ******************************************
 Gaussian 16:  ES64L-G16RevC.01  3-Jul-2019
                11-Oct-2024 
 ******************************************
 %chk=a.chk
 %nprocshared=28
 Will use up to   28 processors via shared memory.
 %mem=48gb
 ----------------------------------------------------------------------
 # wb97xd def2svp scrf=(smd,solvent=acetonitrile) g09default scf=(xqc,m
 axcycle=64) force guess=read nosymm
 ----------------------------------------------------------------------
 1/10=7,30=1,38=1,158=3,167=1/1,3;
 2/12=2,15=1,17=6,18=5,40=1/2;
 3/5=43,7=101,11=2,25=1,27=10,30=1,70=32201,71=1,72=2,74=-58,75=-4,116=-2,158=3/1,2,3;
 4/5=1,60=-1/1;
 5/5=2,7=64,8=3,13=1,38=6,53=2,87=10/2,8;
 6/7=2,8=2,9=2,10=2,28=1,87=10/1;
 7/29=1,30=1,87=10/1,2,3,16;
 1/10=7,30=1,158=3,167=1/3;
 99//99;
 Using 2006 physical constants.
 ----------
 Title Card
 ----------
 Symbolic Z-matrix:
 Charge = -2 Multiplicity = 1
 6                    -8.9391   -0.97888   1.10422 
 6                    -8.93843   0.49429   1.25117 
 6                    -8.29759  -2.08422   0.98298 
 6                    -7.0151   -2.81882   0.89812 
 6                    -9.58237  -2.08539   0.99803 
 6                    -10.86497  -2.82112   0.9371 
 6                    -10.14344   1.17695   1.3359 
 7                    -11.1764   1.72621   1.40214 
 6                    -7.73254   1.17724   1.31738 
 7                    -6.69891   1.72683   1.37236 
 6                    -5.81786  -2.11897   0.95272 
 7                    -4.82461  -1.50069   1.00089 
 6                    -7.02037  -4.1985    0.75126 
 7                    -7.05704  -5.36386   0.62797 
 6                    -10.86025  -4.20443   0.82052 
 7                    -10.82343  -5.37175   0.72716 
 6                    -12.06226  -2.12173   0.99806 
 7                    -13.05524  -1.50333   1.05083 
 

 GradGradGradGradGradGradGradGradGradGradGradGradGradGradGradGradGradGrad
 Berny optimization.
 Initialization pass.
 Trust Radius=3.00D-01 FncErr=1.00D-07 GrdErr=1.00D-07 EigMax=2.50D+02 EigMin=1.00D-04
 Number of steps in this run=      2 maximum allowed number of steps=      2.
 GradGradGradGradGradGradGradGradGradGradGradGradGradGradGradGradGradGrad

                          Input orientation:                          
 ---------------------------------------------------------------------
 Center     Atomic      Atomic             Coordinates (Angstroms)
 Number     Number       Type             X           Y           Z
 ---------------------------------------------------------------------
      1          6           0       -8.939101   -0.978877    1.104216
      2          6           0       -8.938428    0.494288    1.251165
      3          6           0       -8.297591   -2.084217    0.982982
      4          6           0       -7.015104   -2.818824    0.898119
      5          6           0       -9.582368   -2.085393    0.998035
      6          6           0      -10.864967   -2.821120    0.937096
      7          6           0      -10.143443    1.176951    1.335896
      8          7           0      -11.176403    1.726210    1.402138
      9          6           0       -7.732538    1.177238    1.317380
     10          7           0       -6.698906    1.726831    1.372357
     11          6           0       -5.817860   -2.118970    0.952720
     12          7           0       -4.824605   -1.500686    1.000894
     13          6           0       -7.020365   -4.198504    0.751258
     14          7           0       -7.057041   -5.363864    0.627974
     15          6           0      -10.860246   -4.204433    0.820520
     16          7           0      -10.823428   -5.371750    0.727162
     17          6           0      -12.062260   -2.121730    0.998058
     18          7           0      -13.055241   -1.503327    1.050835
 ---------------------------------------------------------------------
                    Distance matrix (angstroms):
                    1          2          3          4          5
     1  C    0.000000
     2  C    1.480477   0.000000
     3  C    1.283748   2.670446   0.000000
     4  C    2.670140   3.847146   1.480413   0.000000
     5  C    1.284306   2.670859   1.284865   2.671844   0.000000
     6  C    2.670346   3.847354   2.671433   3.850062   1.479889
     7  C    2.480265   1.387541   3.763899   5.093562   3.327438
     8  N    3.523034   2.559093   4.794017   6.182861   4.151212
     9  C    2.479933   1.387435   3.326890   4.081544   3.764122
    10  N    3.522958   2.559161   4.151083   4.581251   4.794530
    11  C    3.326396   4.081192   2.480159   1.387865   3.764930
    12  N    4.148739   4.578874   3.521712   2.558580   4.793557
    13  C    3.764588   5.094229   2.480970   1.387484   3.330164
    14  N    4.795526   6.184330   3.524356   2.559681   4.154828
    15  C    3.765035   5.094784   3.330001   4.087915   2.480890
    16  N    4.794809   6.183706   4.153694   4.588027   3.523315
    17  C    3.327387   4.082395   3.764886   5.096049   2.480159
    18  N    4.149760   4.580257   4.793461   6.183617   3.521710
                    6          7          8          9         10
     6  C    0.000000
     7  C    4.082183   0.000000
     8  N    4.581645   1.171784   0.000000
     9  C    5.093486   2.410977   3.488375   0.000000
    10  N    6.182991   3.488343   4.477596   1.171951   0.000000
    11  C    5.095739   5.451659   6.610700   3.829354   3.967684
    12  N    6.183332   5.964227   7.135767   3.965792   3.750713
    13  C    4.088115   6.244272   7.266259   5.452182   5.966464
    14  N    4.589271   7.267001   8.236359   6.611928   7.138650
    15  C    1.388224   5.453322   5.967475   6.244342   7.266441
    16  N    2.559592   6.611991   7.138713   7.265756   8.235157
    17  C    1.387939   3.831095   3.969215   5.452674   6.611890
    18  N    2.558674   3.967836   3.752780   5.965539   7.137247
                   11         12         13         14         15
    11  C    0.000000
    12  N    1.170961   0.000000
    13  C    2.410616   3.487392   0.000000
    14  N    3.488606   4.477386   1.172437   0.000000
    15  C    5.458231   6.616021   3.840509   3.980669   0.000000
    16  N    5.973874   7.144644   3.979997   3.767701   1.171623
    17  C    6.244566   7.264252   5.458443   5.974999   2.411226
    18  N    7.264181   8.230788   6.616151   7.145695   3.488126
                   16         17         18
    16  N    0.000000
    17  C    3.488656   0.000000
    18  N    4.477773   1.170990   0.000000
 Symmetry turned off by external request.
 Stoichiometry    C12N6(2-)
 Framework group  C1[X(C12N6)]
 Deg. of freedom    48
 Full point group                 C1      NOp   1
 Rotational constants (GHZ):           0.4322843           0.4318337           0.2160437
 Standard basis: def2SVP (5D, 7F)
   252 basis functions,   450 primitive gaussians,   270 cartesian basis functions
    58 alpha electrons       58 beta electrons
       nuclear repulsion energy       969.4138350020 Hartrees.
 NAtoms=   18 NActive=   18 NUniq=   18 SFac= 1.00D+00 NAtFMM=   60 NAOKFM=F Big=F
 Integral buffers will be    131072 words long.
 Raffenetti 2 integral format.
 Two-electron integral symmetry is turned off.
 Nuclear repulsion after empirical dispersion term =      969.4021107244 Hartrees.
 Force PCM accuracy= 1.00D-10.
 ------------------------------------------------------------------------------
 Polarizable Continuum Model (PCM)
 =================================
 Model                : PCM (using non-symmetric T matrix).
 Atomic radii         : SMD-Coulomb.
 Polarization charges : Total charges.
 Charge compensation  : None.
 Solution method      : On-the-fly selection.
 Cavity type          : VdW (van der Waals Surface) (Alpha=1.000).
 Cavity algorithm     : GePol (No added spheres)
                        Default sphere list used, NSphG=   18.
                        Lebedev-Laikov grids with approx.  5.0 points / Ang**2.
                        Smoothing algorithm: York/Karplus (Gamma=1.0000).
                        Polarization charges: spherical gaussians, with
                                              point-specific exponents (IZeta= 3).
                        Self-potential: point-specific (ISelfS= 7).
                        Self-field    : sphere-specific E.n sum rule (ISelfD= 2).
 1st derivatives      : Analytical E(r).r(x)/FMM algorithm (CHGder, D1EAlg=3).
                        Cavity 1st derivative terms included.
 Solvent              : Acetonitrile, Eps=  35.688000 Eps(inf)=   1.806874
 ------------------------------------------------------------------------------
 Spheres list:
 ISph  on   Nord     Re0    Alpha      Xe            Ye            Ze
    1   C      1    1.8500  1.000     -8.939101     -0.978877      1.104216
    2   C      2    1.8500  1.000     -8.938428      0.494288      1.251165
    3   C      3    1.8500  1.000     -8.297591     -2.084217      0.982982
    4   C      4    1.8500  1.000     -7.015104     -2.818824      0.898119
    5   C      5    1.8500  1.000     -9.582368     -2.085393      0.998035
    6   C      6    1.8500  1.000    -10.864967     -2.821120      0.937096
    7   C      7    1.8500  1.000    -10.143443      1.176951      1.335896
    8   N      8    1.8900  1.000    -11.176403      1.726210      1.402138
    9   C      9    1.8500  1.000     -7.732538      1.177238      1.317380
   10   N     10    1.8900  1.000     -6.698906      1.726831      1.372357
   11   C     11    1.8500  1.000     -5.817860     -2.118970      0.952720
   12   N     12    1.8900  1.000     -4.824605     -1.500686      1.000894
   13   C     13    1.8500  1.000     -7.020365     -4.198504      0.751258
   14   N     14    1.8900  1.000     -7.057041     -5.363864      0.627974
   15   C     15    1.8500  1.000    -10.860246     -4.204433      0.820520
   16   N     16    1.8900  1.000    -10.823428     -5.371750      0.727162
   17   C     17    1.8500  1.000    -12.062260     -2.121730      0.998058
   18   N     18    1.8900  1.000    -13.055241     -1.503327      1.050835
 ------------------------------------------------------------------------------
 ------------------------------------------------------------------------------
 Atomic radii for non-electrostatic terms: SMD-CDS.
 ------------------------------------------------------------------------------
 Nuclear repulsion after PCM non-electrostatic terms =      969.4106363682 Hartrees.
 One-electron integrals computed using PRISM.
   1 Symmetry operations used in ECPInt.
 ECPInt:  NShTT=    5886 NPrTT=   23670 LenC2=    5404 LenP2D=   15008.
 LDataN:  DoStor=T MaxTD1= 4 Len=   56
 NBasis=   252 RedAO= T EigKep=  1.78D-04  NBF=   252
 NBsUse=   252 1.00D-06 EigRej= -1.00D+00 NBFU=   252
 Initial guess from the checkpoint file:  "a.chk"
 B after Tr=     0.000052    0.000038    0.000493
         Rot=    1.000000    0.000009    0.000016   -0.000002 Ang=   0.00 deg.
 Requested convergence on RMS density matrix=1.00D-08 within  64 cycles.
 Requested convergence on MAX density matrix=1.00D-06.
 Requested convergence on             energy=1.00D-06.
 No special actions if energy rises.
 Inv3:  Mode=1 IEnd=    19187523.
 Iteration    1 A*A^-1 deviation from unit magnitude is 3.55D-15 for    129.
 Iteration    1 A*A^-1 deviation from orthogonality  is 2.66D-15 for   2447     74.
 Iteration    1 A^-1*A deviation from unit magnitude is 3.22D-15 for   1631.
 Iteration    1 A^-1*A deviation from orthogonality  is 3.86D-12 for   1523   1505.
 Error on total polarization charges =  0.02150
 SCF Done:  E(RwB97XD) =  -784.993090375     A.U. after   12 cycles
            NFock= 12  Conv=0.95D-08     -V/T= 2.0092
 SMD-CDS (non-electrostatic) energy       (kcal/mol) =       5.35
 (included in total energy above)
 QCSCF skips out because SCF is already converged.

 **********************************************************************

            Population analysis using the SCF Density.

 **********************************************************************

 Alpha  occ. eigenvalues --  -14.42584 -14.42580 -14.42577 -14.42572 -14.42565
 Alpha  occ. eigenvalues --  -14.42562 -10.35625 -10.35436 -10.35424 -10.33559
 Alpha  occ. eigenvalues --  -10.33553 -10.33551 -10.33548 -10.33538 -10.33535
 Alpha  occ. eigenvalues --  -10.32719 -10.32709 -10.32701  -1.10413  -0.98693
 Alpha  occ. eigenvalues --   -0.98677  -0.98632  -0.97432  -0.97414  -0.97337
 Alpha  occ. eigenvalues --   -0.87695  -0.87690  -0.86843  -0.69172  -0.69144
 Alpha  occ. eigenvalues --   -0.65613  -0.65152  -0.65138  -0.64191  -0.55135
 Alpha  occ. eigenvalues --   -0.48689  -0.48664  -0.47669  -0.47666  -0.45330
 Alpha  occ. eigenvalues --   -0.44966  -0.44847  -0.44843  -0.44406  -0.44400
 Alpha  occ. eigenvalues --   -0.44297  -0.42430  -0.41810  -0.41800  -0.41621
 Alpha  occ. eigenvalues --   -0.41465  -0.41441  -0.40033  -0.39809  -0.39805
 Alpha  occ. eigenvalues --   -0.30258  -0.30244  -0.25167
 Alpha virt. eigenvalues --    0.07768   0.07796   0.08132   0.08960   0.08967
 Alpha virt. eigenvalues --    0.12554   0.12564   0.12917   0.13929   0.14666
 Alpha virt. eigenvalues --    0.14691   0.16056   0.21478   0.21490   0.24705
 Alpha virt. eigenvalues --    0.28309   0.28606   0.28620   0.28745   0.28749
 Alpha virt. eigenvalues --    0.31625   0.32930   0.33923   0.33937   0.37804
 Alpha virt. eigenvalues --    0.39041   0.39073   0.47890   0.47894   0.48894
 Alpha virt. eigenvalues --    0.49557   0.55027   0.55048   0.56357   0.56371
 Alpha virt. eigenvalues --    0.57517   0.57528   0.59198   0.59562   0.59851
 Alpha virt. eigenvalues --    0.61624   0.61656   0.61946   0.61957   0.63821
 Alpha virt. eigenvalues --    0.65830   0.68232   0.71994   0.72011   0.73096
 Alpha virt. eigenvalues --    0.73122   0.73947   0.73971   0.74908   0.75053
 Alpha virt. eigenvalues --    0.75077   0.75243   0.76268   0.76304   0.78794
 Alpha virt. eigenvalues --    0.82206   0.82661   0.82741   0.83747   0.83758
 Alpha virt. eigenvalues --    0.88613   0.89448   0.93666   0.93695   0.94425
 Alpha virt. eigenvalues --    0.94484   0.95235   0.95256   0.96387   0.97339
 Alpha virt. eigenvalues --    0.98080   1.00687   1.00704   1.01276   1.01340
 Alpha virt. eigenvalues --    1.02287   1.02299   1.04554   1.07489   1.08085
 Alpha virt. eigenvalues --    1.08165   1.08486   1.10456   1.10504   1.12710
 Alpha virt. eigenvalues --    1.12790   1.18591   1.18656   1.20080   1.21036
 Alpha virt. eigenvalues --    1.21065   1.25007   1.25029   1.29584   1.35133
 Alpha virt. eigenvalues --    1.40381   1.40452   1.42202   1.42214   1.45018
 Alpha virt. eigenvalues --    1.46628   1.46690   1.47518   1.47808   1.52511
 Alpha virt. eigenvalues --    1.64720   1.67506   1.70259   1.70268   1.71371
 Alpha virt. eigenvalues --    1.71502   1.71537   1.79167   1.79197   1.79730
 Alpha virt. eigenvalues --    1.80417   1.80445   1.81831   1.81843   1.81994
 Alpha virt. eigenvalues --    1.87281   1.87303   1.88089   1.93079   1.93095
 Alpha virt. eigenvalues --    1.94726   2.00031   2.05842   2.05870   2.09471
 Alpha virt. eigenvalues --    2.09498   2.12115   2.17558   2.21153   2.22808
 Alpha virt. eigenvalues --    2.22836   2.24927   2.24976   2.25221   2.28691
 Alpha virt. eigenvalues --    2.28739   2.30975   2.34286   2.35919   2.35931
 Alpha virt. eigenvalues --    2.36515   2.36537   2.37063   2.37086   2.38079
 Alpha virt. eigenvalues --    2.38608   2.38687   2.38729   2.38885   2.39429
 Alpha virt. eigenvalues --    2.42070   2.42084   2.58154   2.70802   2.70819
 Alpha virt. eigenvalues --    2.74756   2.74794   2.96506   2.97784   2.97844
 Alpha virt. eigenvalues --    2.98873   3.00952   3.00970   3.02983   3.05423
 Alpha virt. eigenvalues --    3.07873   3.07928   3.12593   3.12611   3.16290
 Alpha virt. eigenvalues --    3.16296   3.16814   3.26587   3.26617   3.33021
 Alpha virt. eigenvalues --    3.46056   3.46345   3.46389   3.58009   3.61865
 Alpha virt. eigenvalues --    3.61953   3.64090   3.64130   3.74866
          Condensed to atoms (all electrons):
               1          2          3          4          5          6
     1  C    4.909343   0.473576   0.341129  -0.093165   0.340857  -0.093517
     2  C    0.473576   5.539182  -0.093124  -0.006145  -0.093108  -0.006150
     3  C    0.341129  -0.093124   4.909130   0.473484   0.340972  -0.093658
     4  C   -0.093165  -0.006145   0.473484   5.539295  -0.093309  -0.006114
     5  C    0.340857  -0.093108   0.340972  -0.093309   4.908456   0.473963
     6  C   -0.093517  -0.006150  -0.093658  -0.006114   0.473963   5.539461
     7  C    0.010002   0.375018   0.007968  -0.000581  -0.029971   0.004090
     8  N   -0.000727  -0.051772  -0.000049  -0.000001  -0.000661   0.000242
     9  C    0.010108   0.374848  -0.030011   0.004108   0.007953  -0.000580
    10  N   -0.000728  -0.051825  -0.000661   0.000243  -0.000050  -0.000001
    11  C   -0.030038   0.004080   0.010147   0.375069   0.007957  -0.000571
    12  N   -0.000668   0.000244  -0.000720  -0.051724  -0.000048  -0.000001
    13  C    0.008008  -0.000576   0.009807   0.375181  -0.029871   0.004020
    14  N   -0.000048  -0.000001  -0.000709  -0.051838  -0.000658   0.000235
    15  C    0.007987  -0.000573  -0.029838   0.004010   0.009831   0.375200
    16  N   -0.000048  -0.000001  -0.000662   0.000236  -0.000712  -0.051723
    17  C   -0.030000   0.004063   0.007949  -0.000568   0.010061   0.375314
    18  N   -0.000671   0.000243  -0.000049  -0.000001  -0.000718  -0.051744
               7          8          9         10         11         12
     1  C    0.010002  -0.000727   0.010108  -0.000728  -0.030038  -0.000668
     2  C    0.375018  -0.051772   0.374848  -0.051825   0.004080   0.000244
     3  C    0.007968  -0.000049  -0.030011  -0.000661   0.010147  -0.000720
     4  C   -0.000581  -0.000001   0.004108   0.000243   0.375069  -0.051724
     5  C   -0.029971  -0.000661   0.007953  -0.000050   0.007957  -0.000048
     6  C    0.004090   0.000242  -0.000580  -0.000001  -0.000571  -0.000001
     7  C    4.900761   0.915609  -0.067577   0.002780   0.000195   0.000004
     8  N    0.915609   6.191230   0.002780   0.000095   0.000000   0.000000
     9  C   -0.067577   0.002780   4.900959   0.915434  -0.000932   0.000098
    10  N    0.002780   0.000095   0.915434   6.191802   0.000093  -0.000883
    11  C    0.000195   0.000000  -0.000932   0.000093   4.899765   0.916463
    12  N    0.000004   0.000000   0.000098  -0.000883   0.916463   6.189364
    13  C   -0.000023  -0.000000   0.000195   0.000004  -0.067105   0.002780
    14  N   -0.000000  -0.000000   0.000000   0.000000   0.002766   0.000095
    15  C    0.000193   0.000004  -0.000023  -0.000000   0.000191   0.000000
    16  N    0.000000   0.000000  -0.000000  -0.000000   0.000004   0.000000
    17  C   -0.000929   0.000094   0.000194   0.000000  -0.000023  -0.000000
    18  N    0.000098  -0.000879   0.000004   0.000000  -0.000000  -0.000000
              13         14         15         16         17         18
     1  C    0.008008  -0.000048   0.007987  -0.000048  -0.030000  -0.000671
     2  C   -0.000576  -0.000001  -0.000573  -0.000001   0.004063   0.000243
     3  C    0.009807  -0.000709  -0.029838  -0.000662   0.007949  -0.000049
     4  C    0.375181  -0.051838   0.004010   0.000236  -0.000568  -0.000001
     5  C   -0.029871  -0.000658   0.009831  -0.000712   0.010061  -0.000718
     6  C    0.004020   0.000235   0.375200  -0.051723   0.375314  -0.051744
     7  C   -0.000023  -0.000000   0.000193   0.000000  -0.000929   0.000098
     8  N   -0.000000  -0.000000   0.000004   0.000000   0.000094  -0.000879
     9  C    0.000195   0.000000  -0.000023  -0.000000   0.000194   0.000004
    10  N    0.000004   0.000000  -0.000000  -0.000000   0.000000   0.000000
    11  C   -0.067105   0.002766   0.000191   0.000004  -0.000023  -0.000000
    12  N    0.002780   0.000095   0.000000   0.000000  -0.000000  -0.000000
    13  C    4.900608   0.914999  -0.000901   0.000088   0.000191   0.000000
    14  N    0.914999   6.193022   0.000093  -0.000855   0.000004   0.000000
    15  C   -0.000901   0.000093   4.899984   0.915947  -0.066832   0.002765
    16  N    0.000088  -0.000855   0.915947   6.190729   0.002757   0.000094
    17  C    0.000191   0.000004  -0.066832   0.002757   4.899330   0.916381
    18  N    0.000000   0.000000   0.002765   0.000094   0.916381   6.189476
 Mulliken charges:
               1
     1  C    0.148597
     2  C   -0.467981
     3  C    0.148895
     4  C   -0.468181
     5  C    0.149056
     6  C   -0.468467
     7  C   -0.117637
     8  N   -0.055964
     9  C   -0.117559
    10  N   -0.056304
    11  C   -0.118062
    12  N   -0.055005
    13  C   -0.117405
    14  N   -0.057104
    15  C   -0.118039
    16  N   -0.055855
    17  C   -0.117985
    18  N   -0.055000
 Sum of Mulliken charges =  -2.00000
 Mulliken charges with hydrogens summed into heavy atoms:
               1
     1  C    0.148597
     2  C   -0.467981
     3  C    0.148895
     4  C   -0.468181
     5  C    0.149056
     6  C   -0.468467
     7  C   -0.117637
     8  N   -0.055964
     9  C   -0.117559
    10  N   -0.056304
    11  C   -0.118062
    12  N   -0.055005
    13  C   -0.117405
    14  N   -0.057104
    15  C   -0.118039
    16  N   -0.055855
    17  C   -0.117985
    18  N   -0.055000
 Electronic spatial extent (au):  <R**2>=          39314.7042
 Charge=             -2.0000 electrons
 Dipole moment (field-independent basis, Debye):
    X=             85.8632    Y=             16.4621    Z=             -9.9021  Tot=             87.9860
 Quadrupole moment (field-independent basis, Debye-Ang):
   XX=           -970.3728   YY=           -230.2053   ZZ=           -113.1337
   XY=           -147.2063   XZ=             89.3701   YZ=              7.0584
 Traceless Quadrupole moment (field-independent basis, Debye-Ang):
   XX=           -532.4689   YY=            207.6986   ZZ=            324.7702
   XY=           -147.2063   XZ=             89.3701   YZ=              7.0584
 Octapole moment (field-independent basis, Debye-Ang**2):
  XXX=          12301.4095  YYY=           1156.8903  ZZZ=           -328.3473  XYY=           2058.1366
  XXY=           1594.8649  XXZ=          -1021.0207  XZZ=           1012.9760  YZZ=            174.0292
  YYZ=           -197.6329  XYZ=            -65.2439
 Hexadecapole moment (field-independent basis, Debye-Ang**3):
 XXXX=        -163298.3040 YYYY=          -8757.9859 ZZZZ=           -799.8660 XXXY=         -19242.7414
 XXXZ=          13054.0736 YYYX=         -10345.9333 YYYZ=            777.8757 ZZZX=           2952.3573
 ZZZY=            376.7349 XXYY=         -20316.0077 XXZZ=          -9861.3355 YYZZ=          -1035.8369
 XXYZ=            798.7770 YYXZ=           1783.9664 ZZXY=          -1558.8693
 N-N= 9.694106363682D+02 E-N=-3.792376306547D+03  KE= 7.778472169395D+02
   1 Symmetry operations used in ECPInt.
 ECPInt:  NShTT=    5886 NPrTT=   23670 LenC2=    5404 LenP2D=   15008.
 LDataN:  DoStor=T MaxTD1= 5 Len=  102
 D1PCM: PCM CHGder 1st derivatives, ID1Alg=3 FixD1E=F DoIter=F DoCFld=F I1PDM=0.
 Calling FoFJK, ICntrl=      2127 FMM=F ISym2X=0 I1Cent= 0 IOpClX= 0 NMat=1 NMatS=1 NMatT=0.
 -------------------------------------------------------------------
 Center     Atomic                   Forces (Hartrees/Bohr)
 Number     Number              X              Y              Z
 -------------------------------------------------------------------
      1        6          -0.000306680    0.225338667    0.022125635
      2        6          -0.000053403   -0.060453216   -0.005675686
      3        6           0.195065152   -0.112943909   -0.012746453
      4        6          -0.052473160    0.030350728    0.003193458
      5        6          -0.194674380   -0.112371839   -0.009380774
      6        6           0.052304152    0.029788379    0.002358945
      7        6          -0.031531944    0.013811990    0.001479004
      8        7           0.012524344   -0.005972184   -0.000454289
      9        6           0.031889053    0.014050594    0.001398805
     10        7          -0.012815402   -0.006108443   -0.000582246
     11        6           0.026138288    0.019379476    0.001631677
     12        7          -0.009861612   -0.006945621   -0.000656139
     13        6          -0.003916978   -0.035552751   -0.003592541
     14        7           0.001121373    0.015142596    0.001282516
     15        6           0.003877532   -0.033393399   -0.002601947
     16        7          -0.001092732    0.013444013    0.001139237
     17        6          -0.026100657    0.019413162    0.001855062
     18        7           0.009907054   -0.006978242   -0.000774263
 -------------------------------------------------------------------
 Cartesian Forces:  Max     0.225338667 RMS     0.056422553

 GradGradGradGradGradGradGradGradGradGradGradGradGradGradGradGradGradGrad
 Berny optimization.
 Search for a local minimum.
 Step number   1 out of a maximum of    2
 All quantities printed in internal units (Hartrees-Bohrs-Radians)
 Second derivative matrix not updated -- first step.
 ITU=  0
     Eigenvalues ---    0.00089   0.00107   0.00108   0.00302   0.00302
     Eigenvalues ---    0.00999   0.01506   0.01735   0.01983   0.01988
     Eigenvalues ---    0.04089   0.04098   0.05246   0.05260   0.09922
     Eigenvalues ---    0.15648   0.21174   0.21198   0.24975   0.25663
     Eigenvalues ---    0.25738   0.26480   0.28835   0.28850   0.52885
     Eigenvalues ---    0.86488   0.88174   0.88378   1.04228   1.04325
     Eigenvalues ---    1.14855   1.21292   1.21565   1.78956   1.79262
     Eigenvalues ---    2.55082   2.70546   2.70867   2.71984   2.78671
     Eigenvalues ---    2.78909   2.79178  50.94951  53.37442  56.84189
     Eigenvalues ---   65.85751  69.37949  73.86817
 Quadratic step=3.682D-01 exceeds max=3.000D-01 adjusted using Lamda=-7.457D-04.
 Angle between NR and scaled steps=  14.55 degrees.
 Angle between quadratic step and forces=  56.07 degrees.
 Linear search not attempted -- first point.
 B after Tr=     0.000053   -0.000116    0.000374
         Rot=    1.000000    0.000012    0.000014    0.000001 Ang=   0.00 deg.
 Variable       Old X    -DE/DX   Delta X   Delta X   Delta X     New X
                                 (Linear)    (Quad)   (Total)
    X1      -16.89245  -0.00031   0.00000   0.00055   0.00054 -16.89191
    Y1       -1.84981   0.22534   0.00000   0.08648   0.08645  -1.76336
    Z1        2.08667   0.02213   0.00000   0.01078   0.01071   2.09738
    X2      -16.89118  -0.00005   0.00000  -0.00015  -0.00016 -16.89134
    Y2        0.93407  -0.06045   0.00000  -0.04285  -0.04287   0.89120
    Z2        2.36436  -0.00568   0.00000   0.00314   0.00301   2.36737
    X3      -15.68017   0.19507   0.00000   0.07317   0.07316 -15.60702
    Y3       -3.93860  -0.11294   0.00000  -0.03952  -0.03956  -3.97815
    Z3        1.85757  -0.01275   0.00000  -0.00563  -0.00560   1.85197
    X4      -13.25662  -0.05247   0.00000  -0.04106  -0.04107 -13.29769
    Y4       -5.32681   0.03035   0.00000   0.02275   0.02271  -5.30410
    Z4        1.69720   0.00319   0.00000  -0.00597  -0.00584   1.69136
    X5      -18.10805  -0.19467   0.00000  -0.07155  -0.07155 -18.17961
    Y5       -3.94082  -0.11237   0.00000  -0.03951  -0.03954  -3.98036
    Z5        1.88601  -0.00938   0.00000  -0.00163  -0.00168   1.88434
    X6      -20.53181   0.05230   0.00000   0.04178   0.04177 -20.49005
    Y6       -5.33115   0.02979   0.00000   0.02231   0.02229  -5.30886
    Z6        1.77085   0.00236   0.00000   0.00546   0.00538   1.77624
    X7      -19.16833  -0.03153   0.00000  -0.04645  -0.04647 -19.21480
    Y7        2.22412   0.01381   0.00000  -0.03833  -0.03834   2.18577
    Z7        2.52448   0.00148   0.00000   0.00796   0.00774   2.53222
    X8      -21.12034   0.01252   0.00000  -0.03733  -0.03735 -21.15769
    Y8        3.26206  -0.00597   0.00000  -0.04618  -0.04618   3.21588
    Z8        2.64966  -0.00045   0.00000   0.01135   0.01105   2.66071
    X9      -14.61238   0.03189   0.00000   0.04498   0.04496 -14.56742
    Y9        2.22466   0.01405   0.00000  -0.03552  -0.03554   2.18911
    Z9        2.48949   0.00140   0.00000   0.00498   0.00489   2.49438
   X10      -12.65910  -0.01282   0.00000   0.03470   0.03469 -12.62441
   Y10        3.26324  -0.00611   0.00000  -0.04133  -0.04136   3.22188
   Z10        2.59338  -0.00058   0.00000   0.00453   0.00447   2.59784
   X11      -10.99416   0.02614   0.00000  -0.01027  -0.01028 -11.00444
   Y11       -4.00427   0.01938   0.00000   0.05374   0.05369  -3.95058
   Z11        1.80038   0.00163   0.00000   0.00534   0.00550   1.80588
   X12       -9.11718  -0.00986   0.00000  -0.01646  -0.01647  -9.13365
   Y12       -2.83588  -0.00695   0.00000   0.04422   0.04417  -2.79172
   Z12        1.89142  -0.00066   0.00000   0.01252   0.01270   1.90412
   X13      -13.26657  -0.00392   0.00000  -0.06480  -0.06480 -13.33137
   Y13       -7.93402  -0.03555   0.00000  -0.01763  -0.01768  -7.95170
   Z13        1.41967  -0.00359   0.00000  -0.03183  -0.03163   1.38804
   X14      -13.33587   0.00112   0.00000  -0.07050  -0.07050 -13.40637
   Y14      -10.13623   0.01514   0.00000  -0.00288  -0.00294 -10.13917
   Z14        1.18670   0.00128   0.00000  -0.04883  -0.04858   1.13811
   X15      -20.52289   0.00388   0.00000   0.06414   0.06413 -20.45876
   Y15       -7.94523  -0.03339   0.00000  -0.02311  -0.02314  -7.96836
   Z15        1.55056  -0.00260   0.00000   0.04551   0.04550   1.59606
   X16      -20.45332  -0.00109   0.00000   0.06878   0.06877 -20.38454
   Y16      -10.15114   0.01344   0.00000  -0.01458  -0.01462 -10.16575
   Z16        1.37414   0.00114   0.00000   0.08164   0.08168   1.45582
   X17      -22.79437  -0.02610   0.00000   0.01187   0.01186 -22.78250
   Y17       -4.00949   0.01941   0.00000   0.05873   0.05871  -3.95078
   Z17        1.88606   0.00186   0.00000  -0.03201  -0.03218   1.85387
   X18      -24.67083   0.00991   0.00000   0.01877   0.01876 -24.65207
   Y18       -2.84088  -0.00698   0.00000   0.05377   0.05376  -2.78712
   Z18        1.98579  -0.00077   0.00000  -0.06686  -0.06712   1.91867
         Item               Value     Threshold  Converged?
 Maximum Force            0.225339     0.000450     NO 
 RMS     Force            0.056423     0.000300     NO 
 Maximum Displacement     0.086454     0.001800     NO 
 RMS     Displacement     0.040851     0.001200     NO 
 Predicted change in Energy=-3.476888D-02
 GradGradGradGradGradGradGradGradGradGradGradGradGradGradGradGradGradGrad

 Unable to Open any file for archive entry.
 1\1\GINC-X10P1N4\Force\RwB97XD\def2SVP\C12N6(2-)\MAYUMIAO\11-Oct-2024\
 0\\# wb97xd def2svp scrf=(smd,solvent=acetonitrile) g09default scf=(xq
 c,maxcycle=64) force guess=read nosymm\\Title Card\\-2,1\C,-8.93910142
 ,-0.97887741,1.10421609\C,-8.93842752,0.4942883,1.25116502\C,-8.297590
 96,-2.08421683,0.98298219\C,-7.01510359,-2.81882398,0.89811894\C,-9.58
 236763,-2.08539296,0.99803479\C,-10.86496722,-2.82112043,0.93709556\C,
 -10.14344331,1.17695136,1.33589591\N,-11.17640257,1.72620953,1.4021382
 8\C,-7.73253776,1.17723797,1.31738047\N,-6.69890611,1.72683103,1.37235
 66\C,-5.81785989,-2.11896958,0.9527204\N,-4.82460544,-1.50068569,1.000
 8941\C,-7.02036544,-4.1985042,0.75125849\N,-7.05704076,-5.36386422,0.6
 2797419\C,-10.86024563,-4.20443304,0.82051986\N,-10.82342818,-5.371750
 33,0.72716191\C,-12.06226035,-2.12173006,0.9980576\N,-13.05524123,-1.5
 0332745,1.05083465\\Version=ES64L-G16RevC.01\HF=-784.9930904\RMSD=9.48
 7e-09\RMSF=5.642e-02\Dipole=-0.0049696,-0.004993,-0.0051489\Quadrupole
 =-395.877571,154.4188574,241.4587136,-109.4442696,66.4444563,5.2477435
 \PG=C01 [X(C12N6)]\\@
 The archive entry for this job was punched.


 The lyf so short, the craft so long to lerne.
                             -- Chaucer
 Job cpu time:       0 days  0 hours  9 minutes 50.4 seconds.
 Elapsed time:       0 days  0 hours  0 minutes 22.4 seconds.
 File lengths (MBytes):  RWF=    147 Int=      0 D2E=      0 Chk=      8 Scr=      1
 Normal termination of Gaussian 16 at Fri Oct 11 15:33:26 2024.
