 Entering Gaussian System, Link 0=g16
 Input=JOBS/8_A.gjf
 Output=JOBS/8_A.log
 Initial command:
 /data/app/gaussian/C01-avx2//g16/l1.exe "/tmp/Gau-2522224.inp" -scrdir="/tmp/"
 Entering Link 1 = /data/app/gaussian/C01-avx2//g16/l1.exe PID=   2522225.
  
 Copyright (c) 1988-2019, Gaussian, Inc.  All Rights Reserved.
  
 This is part of the Gaussian(R) 16 program.  It is based on
 the Gaussian(R) 09 system (copyright 2009, Gaussian, Inc.),
 the Gaussian(R) 03 system (copyright 2003, Gaussian, Inc.),
 the Gaussian(R) 98 system (copyright 1998, Gaussian, Inc.),
 the Gaussian(R) 94 system (copyright 1995, Gaussian, Inc.),
 the Gaussian 92(TM) system (copyright 1992, Gaussian, Inc.),
 the Gaussian 90(TM) system (copyright 1990, Gaussian, Inc.),
 the Gaussian 88(TM) system (copyright 1988, Gaussian, Inc.),
 the Gaussian 86(TM) system (copyright 1986, Carnegie Mellon
 University), and the Gaussian 82(TM) system (copyright 1983,
 Carnegie Mellon University). Gaussian is a federally registered
 trademark of Gaussian, Inc.
  
 This software contains proprietary and confidential information,
 including trade secrets, belonging to Gaussian, Inc.
  
 This software is provided under written license and may be
 used, copied, transmitted, or stored only in accord with that
 written license.
  
 The following legend is applicable only to US Government
 contracts under FAR:
  
                    RESTRICTED RIGHTS LEGEND
  
 Use, reproduction and disclosure by the US Government is
 subject to restrictions as set forth in subparagraphs (a)
 and (c) of the Commercial Computer Software - Restricted
 Rights clause in FAR 52.227-19.
  
 Gaussian, Inc.
 340 Quinnipiac St., Bldg. 40, Wallingford CT 06492
  
  
 ---------------------------------------------------------------
 Warning -- This program may not be used in any manner that
 competes with the business of Gaussian, Inc. or will provide
 assistance to any competitor of Gaussian, Inc.  The licensee
 of this program is prohibited from giving any competitor of
 Gaussian, Inc. access to this program.  By using this program,
 the user acknowledges that Gaussian, Inc. is engaged in the
 business of creating and licensing software in the field of
 computational chemistry and represents and warrants to the
 licensee that it is not a competitor of Gaussian, Inc. and that
 it will not use this program in any manner prohibited above.
 ---------------------------------------------------------------
  

 Cite this work as:
 Gaussian 16, Revision C.01,
 M. J. Frisch, G. W. Trucks, H. B. Schlegel, G. E. Scuseria, 
 M. A. Robb, J. R. Cheeseman, G. Scalmani, V. Barone, 
 G. A. Petersson, H. Nakatsuji, X. Li, M. Caricato, A. V. Marenich, 
 J. Bloino, B. G. Janesko, R. Gomperts, B. Mennucci, H. P. Hratchian, 
 J. V. Ortiz, A. F. Izmaylov, J. L. Sonnenberg, D. Williams-Young, 
 F. Ding, F. Lipparini, F. Egidi, J. Goings, B. Peng, A. Petrone, 
 T. Henderson, D. Ranasinghe, V. G. Zakrzewski, J. Gao, N. Rega, 
 G. Zheng, W. Liang, M. Hada, M. Ehara, K. Toyota, R. Fukuda, 
 J. Hasegawa, M. Ishida, T. Nakajima, Y. Honda, O. Kitao, H. Nakai, 
 T. Vreven, K. Throssell, J. A. Montgomery, Jr., J. E. Peralta, 
 F. Ogliaro, M. J. Bearpark, J. J. Heyd, E. N. Brothers, K. N. Kudin, 
 V. N. Staroverov, T. A. Keith, R. Kobayashi, J. Normand, 
 K. Raghavachari, A. P. Rendell, J. C. Burant, S. S. Iyengar, 
 J. Tomasi, M. Cossi, J. M. Millam, M. Klene, C. Adamo, R. Cammi, 
 J. W. Ochterski, R. L. Martin, K. Morokuma, O. Farkas, 
 J. B. Foresman, and D. J. Fox, Gaussian, Inc., Wallingford CT, 2019.
 
 ******************************************
 Gaussian 16:  ES64L-G16RevC.01  3-Jul-2019
                11-Oct-2024 
 ******************************************
 %chk=a.chk
 %nprocshared=28
 Will use up to   28 processors via shared memory.
 %mem=48gb
 ----------------------------------------------------------------------
 # wb97xd def2svp scrf=(smd,solvent=acetonitrile) g09default scf=(xqc,m
 axcycle=64) force guess=read nosymm
 ----------------------------------------------------------------------
 1/10=7,30=1,38=1,158=3,167=1/1,3;
 2/12=2,15=1,17=6,18=5,40=1/2;
 3/5=43,7=101,11=2,25=1,27=10,30=1,70=32201,71=1,72=2,74=-58,75=-4,116=-2,158=3/1,2,3;
 4/5=1,60=-1/1;
 5/5=2,7=64,8=3,13=1,38=6,53=2,87=10/2,8;
 6/7=2,8=2,9=2,10=2,28=1,87=10/1;
 7/29=1,30=1,87=10/1,2,3,16;
 1/10=7,30=1,158=3,167=1/3;
 99//99;
 Using 2006 physical constants.
 ----------
 Title Card
 ----------
 Symbolic Z-matrix:
 Charge = -2 Multiplicity = 1
 6                    -8.93706  -0.89005   1.11258 
 6                    -8.93832   0.48055   1.25057 
 6                    -8.21866  -2.12863   0.98041 
 6                    -7.02581  -2.81204   0.89914 
 6                    -9.66295  -2.13277   0.99273 
 6                    -10.85519  -2.81439   0.93703 
 6                    -10.16972   1.17984   1.33521 
 7                    -11.19436   1.73941   1.4045 
 6                    -7.70367   1.18171   1.31946 
 7                    -6.68353   1.73871   1.37325 
 6                    -5.80169  -2.09556   0.95361 
 7                    -4.80366  -1.49155   1.00104 
 6                    -7.03159  -4.22063   0.74844 
 7                    -7.05454  -5.38849   0.62345 
 6                    -10.84761  -4.23767   0.81782 
 7                    -10.82586  -5.38713   0.72734 
 6                    -12.0802  -2.09685   1.002 
 7                    -13.07546  -1.49465   1.05024 
 

 GradGradGradGradGradGradGradGradGradGradGradGradGradGradGradGradGradGrad
 Berny optimization.
 Initialization pass.
 Trust Radius=3.00D-01 FncErr=1.00D-07 GrdErr=1.00D-07 EigMax=2.50D+02 EigMin=1.00D-04
 Number of steps in this run=      2 maximum allowed number of steps=      2.
 GradGradGradGradGradGradGradGradGradGradGradGradGradGradGradGradGradGrad

                          Input orientation:                          
 ---------------------------------------------------------------------
 Center     Atomic      Atomic             Coordinates (Angstroms)
 Number     Number       Type             X           Y           Z
 ---------------------------------------------------------------------
      1          6           0       -8.937057   -0.890050    1.112585
      2          6           0       -8.938325    0.480550    1.250571
      3          6           0       -8.218663   -2.128629    0.980405
      4          6           0       -7.025809   -2.812042    0.899144
      5          6           0       -9.662952   -2.132770    0.992726
      6          6           0      -10.855188   -2.814391    0.937026
      7          6           0      -10.169719    1.179842    1.335210
      8          7           0      -11.194359    1.739408    1.404500
      9          6           0       -7.703673    1.181715    1.319463
     10          7           0       -6.683528    1.738712    1.373248
     11          6           0       -5.801693   -2.095556    0.953607
     12          7           0       -4.803662   -1.491551    1.001039
     13          6           0       -7.031592   -4.220633    0.748442
     14          7           0       -7.054543   -5.388494    0.623449
     15          6           0      -10.847608   -4.237668    0.817817
     16          7           0      -10.825858   -5.387125    0.727336
     17          6           0      -12.080203   -2.096849    1.001997
     18          7           0      -13.075464   -1.494648    1.050237
 ---------------------------------------------------------------------
                    Distance matrix (angstroms):
                    1          2          3          4          5
     1  C    0.000000
     2  C    1.377529   0.000000
     3  C    1.437929   2.720058   0.000000
     4  C    2.718911   3.823921   1.377156   0.000000
     5  C    1.444175   2.724153   1.444347   2.724828   0.000000
     6  C    2.722707   3.824828   2.724594   3.829566   1.374458
     7  C    2.419394   1.418628   3.857264   5.099947   3.368607
     8  N    3.477740   2.588071   4.898605   6.192567   4.184320
     9  C    2.419968   1.421529   3.367277   4.072623   3.864110
    10  N    3.472280   2.584982   4.179389   4.588168   4.900014
    11  C    3.362890   4.069762   2.417345   1.419429   3.861636
    12  N    4.178422   4.587689   3.473979   2.586893   4.901421
    13  C    3.854372   5.097929   2.416490   1.416642   3.367922
    14  N    4.900930   6.195772   3.479844   2.591320   4.188066
    15  C    3.865700   5.108250   3.374289   4.079849   2.421693
    16  N    4.892818   6.185966   4.180826   4.593577   3.466065
    17  C    3.368673   4.071385   3.861731   5.105779   2.417536
    18  N    4.182802   4.588841   4.898502   6.193277   3.472139
                    6          7          8          9         10
     6  C    0.000000
     7  C    4.072139   0.000000
     8  N    4.590278   1.169531   0.000000
     9  C    5.103642   2.466097   3.535979   0.000000
    10  N    6.190620   3.530908   4.510939   1.163544   0.000000
    11  C    5.104391   5.472979   6.632578   3.806820   3.956683
    12  N    6.194753   6.003548   7.172370   3.956995   3.755934
    13  C    4.078353   6.273537   7.299392   5.473858   6.002110
    14  N    4.601004   7.304380   8.279802   6.638784   7.176135
    15  C    1.428281   5.484218   6.015802   6.285355   7.305147
    16  N    2.581432   6.627601   7.168112   7.297144   8.267627
    17  C    1.421179   3.807583   3.957727   5.477571   6.631249
    18  N    2.585375   3.959477   3.758081   6.007624   7.170481
                   11         12         13         14         15
    11  C    0.000000
    12  N    1.167535   0.000000
    13  C    2.463879   3.532049   0.000000
    14  N    3.538655   4.516105   1.174755   0.000000
    15  C    5.483460   6.641085   3.816684   3.968567   0.000000
    16  N    6.010646   7.177553   3.969585   3.772747   1.153218
    17  C    6.278696   7.301674   5.482994   6.019592   2.477159
    18  N    7.299190   8.271949   6.637052   7.183014   3.541401
                   16         17         18
    16  N    0.000000
    17  C    3.531959   0.000000
    18  N    4.507369   1.164267   0.000000
 Symmetry turned off by external request.
 Stoichiometry    C12N6(2-)
 Framework group  C1[X(C12N6)]
 Deg. of freedom    48
 Full point group                 C1      NOp   1
 Rotational constants (GHZ):           0.4280389           0.4274980           0.2138991
 Standard basis: def2SVP (5D, 7F)
   252 basis functions,   450 primitive gaussians,   270 cartesian basis functions
    58 alpha electrons       58 beta electrons
       nuclear repulsion energy       962.8762014048 Hartrees.
 NAtoms=   18 NActive=   18 NUniq=   18 SFac= 1.00D+00 NAtFMM=   60 NAOKFM=F Big=F
 Integral buffers will be    131072 words long.
 Raffenetti 2 integral format.
 Two-electron integral symmetry is turned off.
 Nuclear repulsion after empirical dispersion term =      962.8645432096 Hartrees.
 Force PCM accuracy= 1.00D-10.
 ------------------------------------------------------------------------------
 Polarizable Continuum Model (PCM)
 =================================
 Model                : PCM (using non-symmetric T matrix).
 Atomic radii         : SMD-Coulomb.
 Polarization charges : Total charges.
 Charge compensation  : None.
 Solution method      : On-the-fly selection.
 Cavity type          : VdW (van der Waals Surface) (Alpha=1.000).
 Cavity algorithm     : GePol (No added spheres)
                        Default sphere list used, NSphG=   18.
                        Lebedev-Laikov grids with approx.  5.0 points / Ang**2.
                        Smoothing algorithm: York/Karplus (Gamma=1.0000).
                        Polarization charges: spherical gaussians, with
                                              point-specific exponents (IZeta= 3).
                        Self-potential: point-specific (ISelfS= 7).
                        Self-field    : sphere-specific E.n sum rule (ISelfD= 2).
 1st derivatives      : Analytical E(r).r(x)/FMM algorithm (CHGder, D1EAlg=3).
                        Cavity 1st derivative terms included.
 Solvent              : Acetonitrile, Eps=  35.688000 Eps(inf)=   1.806874
 ------------------------------------------------------------------------------
 Spheres list:
 ISph  on   Nord     Re0    Alpha      Xe            Ye            Ze
    1   C      1    1.8500  1.000     -8.937057     -0.890050      1.112585
    2   C      2    1.8500  1.000     -8.938325      0.480550      1.250571
    3   C      3    1.8500  1.000     -8.218663     -2.128629      0.980405
    4   C      4    1.8500  1.000     -7.025809     -2.812042      0.899144
    5   C      5    1.8500  1.000     -9.662952     -2.132770      0.992726
    6   C      6    1.8500  1.000    -10.855188     -2.814391      0.937026
    7   C      7    1.8500  1.000    -10.169719      1.179842      1.335210
    8   N      8    1.8900  1.000    -11.194359      1.739408      1.404500
    9   C      9    1.8500  1.000     -7.703673      1.181715      1.319463
   10   N     10    1.8900  1.000     -6.683528      1.738712      1.373248
   11   C     11    1.8500  1.000     -5.801693     -2.095556      0.953607
   12   N     12    1.8900  1.000     -4.803662     -1.491551      1.001039
   13   C     13    1.8500  1.000     -7.031592     -4.220633      0.748442
   14   N     14    1.8900  1.000     -7.054543     -5.388494      0.623449
   15   C     15    1.8500  1.000    -10.847608     -4.237668      0.817817
   16   N     16    1.8900  1.000    -10.825858     -5.387125      0.727336
   17   C     17    1.8500  1.000    -12.080203     -2.096849      1.001997
   18   N     18    1.8900  1.000    -13.075464     -1.494648      1.050237
 ------------------------------------------------------------------------------
 ------------------------------------------------------------------------------
 Atomic radii for non-electrostatic terms: SMD-CDS.
 ------------------------------------------------------------------------------
 Nuclear repulsion after PCM non-electrostatic terms =      962.8732825852 Hartrees.
 One-electron integrals computed using PRISM.
   1 Symmetry operations used in ECPInt.
 ECPInt:  NShTT=    5886 NPrTT=   23670 LenC2=    5404 LenP2D=   14953.
 LDataN:  DoStor=T MaxTD1= 4 Len=   56
 NBasis=   252 RedAO= T EigKep=  1.99D-04  NBF=   252
 NBsUse=   252 1.00D-06 EigRej= -1.00D+00 NBFU=   252
 Initial guess from the checkpoint file:  "a.chk"
 B after Tr=    -0.000237    0.000296   -0.001396
         Rot=    1.000000   -0.000042   -0.000049   -0.000003 Ang=  -0.01 deg.
 Requested convergence on RMS density matrix=1.00D-08 within  64 cycles.
 Requested convergence on MAX density matrix=1.00D-06.
 Requested convergence on             energy=1.00D-06.
 No special actions if energy rises.
 Inv3:  Mode=1 IEnd=    19217883.
 Iteration    1 A*A^-1 deviation from unit magnitude is 4.22D-15 for   2361.
 Iteration    1 A*A^-1 deviation from orthogonality  is 3.18D-15 for   1072    841.
 Iteration    1 A^-1*A deviation from unit magnitude is 2.89D-15 for   2034.
 Iteration    1 A^-1*A deviation from orthogonality  is 2.59D-09 for   2042   2006.
 Iteration    2 A*A^-1 deviation from unit magnitude is 4.44D-15 for   1668.
 Iteration    2 A*A^-1 deviation from orthogonality  is 4.44D-15 for   2361    166.
 Iteration    2 A^-1*A deviation from unit magnitude is 1.33D-15 for   2179.
 Iteration    2 A^-1*A deviation from orthogonality  is 6.11D-16 for   2373   2321.
 Error on total polarization charges =  0.02162
 SCF Done:  E(RwB97XD) =  -785.023174383     A.U. after   14 cycles
            NFock= 14  Conv=0.34D-08     -V/T= 2.0100
 SMD-CDS (non-electrostatic) energy       (kcal/mol) =       5.48
 (included in total energy above)
 QCSCF skips out because SCF is already converged.

 **********************************************************************

            Population analysis using the SCF Density.

 **********************************************************************

 Alpha  occ. eigenvalues --  -14.43075 -14.42985 -14.42980 -14.42938 -14.42907
 Alpha  occ. eigenvalues --  -14.42795 -10.35242 -10.35182 -10.35158 -10.34013
 Alpha  occ. eigenvalues --  -10.33916 -10.33900 -10.33857 -10.33823 -10.33692
 Alpha  occ. eigenvalues --  -10.32873 -10.32772 -10.32759  -1.00900  -0.99272
 Alpha  occ. eigenvalues --   -0.98973  -0.98286  -0.98041  -0.97876  -0.97691
 Alpha  occ. eigenvalues --   -0.88557  -0.88526  -0.85674  -0.68756  -0.68699
 Alpha  occ. eigenvalues --   -0.65498  -0.65472  -0.65203  -0.63878  -0.51719
 Alpha  occ. eigenvalues --   -0.47806  -0.47726  -0.46357  -0.46247  -0.45288
 Alpha  occ. eigenvalues --   -0.45174  -0.45152  -0.44623  -0.44011  -0.43895
 Alpha  occ. eigenvalues --   -0.43143  -0.42772  -0.42406  -0.42160  -0.42062
 Alpha  occ. eigenvalues --   -0.41988  -0.41976  -0.40565  -0.39997  -0.39927
 Alpha  occ. eigenvalues --   -0.31892  -0.31753  -0.23136
 Alpha virt. eigenvalues --    0.07085   0.07120   0.08741   0.09069   0.09318
 Alpha virt. eigenvalues --    0.12309   0.12353   0.12504   0.12968   0.14465
 Alpha virt. eigenvalues --    0.14747   0.16427   0.21033   0.21082   0.24064
 Alpha virt. eigenvalues --    0.26304   0.27875   0.27932   0.28493   0.28523
 Alpha virt. eigenvalues --    0.30255   0.33620   0.33697   0.34395   0.34857
 Alpha virt. eigenvalues --    0.35082   0.36640   0.49293   0.49348   0.50944
 Alpha virt. eigenvalues --    0.51175   0.54542   0.54815   0.54833   0.54891
 Alpha virt. eigenvalues --    0.57332   0.57474   0.57955   0.59747   0.61612
 Alpha virt. eigenvalues --    0.61701   0.61758   0.63287   0.63461   0.65467
 Alpha virt. eigenvalues --    0.65820   0.71385   0.71614   0.71693   0.73504
 Alpha virt. eigenvalues --    0.73591   0.74381   0.74475   0.74653   0.75031
 Alpha virt. eigenvalues --    0.75169   0.75206   0.76423   0.76529   0.77719
 Alpha virt. eigenvalues --    0.81887   0.81976   0.82084   0.83360   0.83379
 Alpha virt. eigenvalues --    0.87547   0.87737   0.88538   0.88984   0.94544
 Alpha virt. eigenvalues --    0.94711   0.94993   0.95011   0.95531   0.96002
 Alpha virt. eigenvalues --    0.97952   1.00569   1.00600   1.01394   1.01570
 Alpha virt. eigenvalues --    1.02580   1.02613   1.04657   1.04763   1.05134
 Alpha virt. eigenvalues --    1.08282   1.08820   1.09403   1.10044   1.11939
 Alpha virt. eigenvalues --    1.12782   1.17049   1.18684   1.19807   1.19986
 Alpha virt. eigenvalues --    1.22522   1.24628   1.24847   1.27107   1.35024
 Alpha virt. eigenvalues --    1.38020   1.38184   1.41659   1.41778   1.44647
 Alpha virt. eigenvalues --    1.47214   1.47390   1.48093   1.48655   1.60585
 Alpha virt. eigenvalues --    1.61042   1.68619   1.70657   1.70873   1.70916
 Alpha virt. eigenvalues --    1.71181   1.71352   1.78486   1.78646   1.79429
 Alpha virt. eigenvalues --    1.79563   1.80768   1.81596   1.81767   1.83124
 Alpha virt. eigenvalues --    1.83811   1.83880   1.87589   1.95568   1.95839
 Alpha virt. eigenvalues --    1.96177   2.00370   2.01878   2.01976   2.05556
 Alpha virt. eigenvalues --    2.05787   2.07728   2.07919   2.14379   2.14512
 Alpha virt. eigenvalues --    2.19632   2.23696   2.23774   2.23860   2.28506
 Alpha virt. eigenvalues --    2.30068   2.30136   2.30779   2.35490   2.35761
 Alpha virt. eigenvalues --    2.36062   2.36316   2.36414   2.36675   2.37053
 Alpha virt. eigenvalues --    2.38334   2.38341   2.38386   2.38433   2.38624
 Alpha virt. eigenvalues --    2.40303   2.40528   2.59014   2.62159   2.62400
 Alpha virt. eigenvalues --    2.72044   2.72269   2.94031   2.96509   2.96909
 Alpha virt. eigenvalues --    2.97178   3.00398   3.00728   3.00898   3.04409
 Alpha virt. eigenvalues --    3.06637   3.07286   3.10371   3.10551   3.14106
 Alpha virt. eigenvalues --    3.14613   3.15360   3.25269   3.25734   3.30450
 Alpha virt. eigenvalues --    3.41900   3.42075   3.44042   3.56021   3.59009
 Alpha virt. eigenvalues --    3.59997   3.63111   3.64201   3.77253
          Condensed to atoms (all electrons):
               1          2          3          4          5          6
     1  C    4.968527   0.488792   0.309362  -0.110764   0.310502  -0.109182
     2  C    0.488792   5.536295  -0.110793  -0.006993  -0.107509  -0.006965
     3  C    0.309362  -0.110793   4.969757   0.487963   0.309738  -0.109836
     4  C   -0.110764  -0.006993   0.487963   5.537836  -0.107851  -0.007004
     5  C    0.310502  -0.107509   0.309738  -0.107851   4.958214   0.494375
     6  C   -0.109182  -0.006965  -0.109836  -0.007004   0.494375   5.532212
     7  C    0.014494   0.385520   0.006661  -0.000474  -0.023443   0.002456
     8  N   -0.001037  -0.042958  -0.000042  -0.000001  -0.000519   0.000128
     9  C    0.013681   0.384984  -0.023803   0.002488   0.006567  -0.000471
    10  N   -0.001099  -0.042632  -0.000549   0.000137  -0.000042  -0.000001
    11  C   -0.024164   0.002477   0.013992   0.384041   0.006576  -0.000465
    12  N   -0.000547   0.000133  -0.001123  -0.042807  -0.000042  -0.000001
    13  C    0.006741  -0.000474   0.014550   0.384953  -0.023806   0.002402
    14  N   -0.000042  -0.000001  -0.001057  -0.043178  -0.000524   0.000123
    15  C    0.006536  -0.000460  -0.022784   0.002415   0.012825   0.385702
    16  N   -0.000047  -0.000001  -0.000550   0.000130  -0.001262  -0.041351
    17  C   -0.023331   0.002480   0.006424  -0.000469   0.014101   0.387053
    18  N   -0.000535   0.000134  -0.000048  -0.000001  -0.001177  -0.042243
               7          8          9         10         11         12
     1  C    0.014494  -0.001037   0.013681  -0.001099  -0.024164  -0.000547
     2  C    0.385520  -0.042958   0.384984  -0.042632   0.002477   0.000133
     3  C    0.006661  -0.000042  -0.023803  -0.000549   0.013992  -0.001123
     4  C   -0.000474  -0.000001   0.002488   0.000137   0.384041  -0.042807
     5  C   -0.023443  -0.000519   0.006567  -0.000042   0.006576  -0.000042
     6  C    0.002456   0.000128  -0.000471  -0.000001  -0.000465  -0.000001
     7  C    4.875243   0.916522  -0.052494   0.002646   0.000124   0.000002
     8  N    0.916522   6.170319   0.002631   0.000085   0.000000   0.000000
     9  C   -0.052494   0.002631   4.874096   0.923550  -0.000407   0.000188
    10  N    0.002646   0.000085   0.923550   6.154712   0.000155  -0.000889
    11  C    0.000124   0.000000  -0.000407   0.000155   4.877040   0.919065
    12  N    0.000002   0.000000   0.000188  -0.000889   0.919065   6.163624
    13  C   -0.000015  -0.000000   0.000124   0.000002  -0.052949   0.002735
    14  N   -0.000000  -0.000000   0.000000   0.000000   0.002725   0.000086
    15  C    0.000118   0.000002  -0.000014  -0.000000   0.000119   0.000000
    16  N    0.000000   0.000000  -0.000000  -0.000000   0.000002   0.000000
    17  C   -0.000387   0.000207   0.000122   0.000000  -0.000015  -0.000000
    18  N    0.000129  -0.000882   0.000002   0.000000  -0.000000  -0.000000
              13         14         15         16         17         18
     1  C    0.006741  -0.000042   0.006536  -0.000047  -0.023331  -0.000535
     2  C   -0.000474  -0.000001  -0.000460  -0.000001   0.002480   0.000134
     3  C    0.014550  -0.001057  -0.022784  -0.000550   0.006424  -0.000048
     4  C    0.384953  -0.043178   0.002415   0.000130  -0.000469  -0.000001
     5  C   -0.023806  -0.000524   0.012825  -0.001262   0.014101  -0.001177
     6  C    0.002402   0.000123   0.385702  -0.041351   0.387053  -0.042243
     7  C   -0.000015  -0.000000   0.000118   0.000000  -0.000387   0.000129
     8  N   -0.000000  -0.000000   0.000002   0.000000   0.000207  -0.000882
     9  C    0.000124   0.000000  -0.000014  -0.000000   0.000122   0.000002
    10  N    0.000002   0.000000  -0.000000  -0.000000   0.000000   0.000000
    11  C   -0.052949   0.002725   0.000119   0.000002  -0.000015  -0.000000
    12  N    0.002735   0.000086   0.000000   0.000000  -0.000000  -0.000000
    13  C    4.878491   0.910966  -0.000369   0.000052   0.000122   0.000000
    14  N    0.910966   6.182771   0.000285  -0.000863   0.000002   0.000000
    15  C   -0.000369   0.000285   4.867835   0.935100  -0.053240   0.002406
    16  N    0.000052  -0.000863   0.935100   6.128161   0.002449   0.000081
    17  C    0.000122   0.000002  -0.053240   0.002449   4.873150   0.921938
    18  N    0.000000   0.000000   0.002406   0.000081   0.921938   6.156924
 Mulliken charges:
               1
     1  C    0.152113
     2  C   -0.482030
     3  C    0.152140
     4  C   -0.480421
     5  C    0.153276
     6  C   -0.486932
     7  C   -0.127104
     8  N   -0.044454
     9  C   -0.131242
    10  N   -0.036074
    11  C   -0.128317
    12  N   -0.040423
    13  C   -0.123527
    14  N   -0.051295
    15  C   -0.136477
    16  N   -0.021901
    17  C   -0.130606
    18  N   -0.036728
 Sum of Mulliken charges =  -2.00000
 Mulliken charges with hydrogens summed into heavy atoms:
               1
     1  C    0.152113
     2  C   -0.482030
     3  C    0.152140
     4  C   -0.480421
     5  C    0.153276
     6  C   -0.486932
     7  C   -0.127104
     8  N   -0.044454
     9  C   -0.131242
    10  N   -0.036074
    11  C   -0.128317
    12  N   -0.040423
    13  C   -0.123527
    14  N   -0.051295
    15  C   -0.136477
    16  N   -0.021901
    17  C   -0.130606
    18  N   -0.036728
 Electronic spatial extent (au):  <R**2>=          39350.2344
 Charge=             -2.0000 electrons
 Dipole moment (field-independent basis, Debye):
    X=             85.7593    Y=             16.3726    Z=             -9.9043  Tot=             87.8682
 Quadrupole moment (field-independent basis, Debye-Ang):
   XX=           -964.9967   YY=           -226.3036   ZZ=           -113.7787
   XY=           -145.6865   XZ=             89.2968   YZ=              7.3790
 Traceless Quadrupole moment (field-independent basis, Debye-Ang):
   XX=           -529.9704   YY=            208.7227   ZZ=            321.2476
   XY=           -145.6865   XZ=             89.2968   YZ=              7.3790
 Octapole moment (field-independent basis, Debye-Ang**2):
  XXX=          12180.9019  YYY=           1137.5467  ZZZ=           -330.3466  XYY=           2019.9755
  XXY=           1567.2484  XXZ=          -1015.9980  XZZ=           1018.4933  YZZ=            175.7814
  YYZ=           -194.9585  XYZ=            -67.4578
 Hexadecapole moment (field-independent basis, Debye-Ang**3):
 XXXX=        -161266.1950 YYYY=          -8684.5200 ZZZZ=           -805.6327 XXXY=         -18796.3152
 XXXZ=          12937.4672 YYYX=         -10153.8846 YYYZ=            762.1558 ZZZX=           2970.0238
 ZZZY=            380.6283 XXYY=         -19927.3653 XXZZ=          -9906.5844 YYZZ=          -1037.3441
 XXYZ=            805.3975 YYXZ=           1757.7888 ZZXY=          -1572.7766
 N-N= 9.628732825852D+02 E-N=-3.779407891351D+03  KE= 7.772277446004D+02
   1 Symmetry operations used in ECPInt.
 ECPInt:  NShTT=    5886 NPrTT=   23670 LenC2=    5404 LenP2D=   14953.
 LDataN:  DoStor=T MaxTD1= 5 Len=  102
 D1PCM: PCM CHGder 1st derivatives, ID1Alg=3 FixD1E=F DoIter=F DoCFld=F I1PDM=0.
 Calling FoFJK, ICntrl=      2127 FMM=F ISym2X=0 I1Cent= 0 IOpClX= 0 NMat=1 NMatS=1 NMatT=0.
 -------------------------------------------------------------------
 Center     Atomic                   Forces (Hartrees/Bohr)
 Number     Number              X              Y              Z
 -------------------------------------------------------------------
      1        6          -0.001469577   -0.093952687   -0.009932518
      2        6           0.001415403    0.025662353    0.002942594
      3        6          -0.083762276    0.046300473    0.005656876
      4        6           0.022261801   -0.011282554   -0.001693790
      5        6           0.084986870    0.048597811    0.004336504
      6        6          -0.022769547   -0.017012317   -0.001357398
      7        6          -0.007411561    0.006841471    0.000906847
      8        7           0.010519102   -0.006233977   -0.000684917
      9        6          -0.005623961   -0.000165814   -0.000242041
     10        7           0.001209373    0.000176450    0.000196253
     11        6           0.006218356    0.000311045    0.000204514
     12        7          -0.007077364   -0.003663551   -0.000479579
     13        6           0.002388182   -0.022497986   -0.002358795
     14        7          -0.000054370    0.023501313    0.002272254
     15        6          -0.003953155    0.033168720    0.002841254
     16        7           0.001098874   -0.025255955   -0.001984612
     17        6           0.001244700   -0.004717662   -0.000723730
     18        7           0.000779150    0.000222868    0.000100283
 -------------------------------------------------------------------
 Cartesian Forces:  Max     0.093952687 RMS     0.024751690

 GradGradGradGradGradGradGradGradGradGradGradGradGradGradGradGradGradGrad
 Berny optimization.
 Search for a local minimum.
 Step number   1 out of a maximum of    2
 All quantities printed in internal units (Hartrees-Bohrs-Radians)
 Second derivative matrix not updated -- first step.
 ITU=  0
     Eigenvalues ---    0.00140   0.00157   0.00219   0.00300   0.00301
     Eigenvalues ---    0.00917   0.01535   0.01684   0.01975   0.02015
     Eigenvalues ---    0.04131   0.04438   0.05326   0.05346   0.10314
     Eigenvalues ---    0.17822   0.21327   0.21641   0.24440   0.24617
     Eigenvalues ---    0.25471   0.26073   0.30102   0.30360   0.47090
     Eigenvalues ---    0.73723   0.75078   0.77881   0.79913   0.84016
     Eigenvalues ---    1.04483   1.04592   1.11614   1.55351   1.55727
     Eigenvalues ---    1.91552   2.66172   2.71841   2.76035   2.78144
     Eigenvalues ---    2.80596   2.92257 116.41697 143.00403 151.45903
     Eigenvalues ---  151.57735 186.64638 187.48061
 Angle between quadratic step and forces=  55.44 degrees.
 Linear search not attempted -- first point.
 B after Tr=    -0.000001   -0.000017    0.000257
         Rot=    1.000000    0.000006    0.000010   -0.000002 Ang=   0.00 deg.
 Variable       Old X    -DE/DX   Delta X   Delta X   Delta X     New X
                                 (Linear)    (Quad)   (Total)
    X1      -16.88859  -0.00147   0.00000   0.00005   0.00002 -16.88858
    Y1       -1.68195  -0.09395   0.00000  -0.05296  -0.05302  -1.73497
    Z1        2.10248  -0.00993   0.00000  -0.00327  -0.00334   2.09914
    X2      -16.89099   0.00142   0.00000  -0.00162  -0.00167 -16.89265
    Y2        0.90811   0.02566   0.00000  -0.00000  -0.00006   0.90805
    Z2        2.36324   0.00294   0.00000   0.00377   0.00367   2.36691
    X3      -15.53102  -0.08376   0.00000  -0.04918  -0.04920 -15.58022
    Y3       -4.02253   0.04630   0.00000   0.02999   0.02993  -3.99259
    Z3        1.85270   0.00566   0.00000   0.00604   0.00602   1.85872
    X4      -13.27686   0.02226   0.00000  -0.00371  -0.00373 -13.28058
    Y4       -5.31399  -0.01128   0.00000  -0.00099  -0.00104  -5.31503
    Z4        1.69914  -0.00169   0.00000  -0.00333  -0.00328   1.69585
    X5      -18.26033   0.08499   0.00000   0.05520   0.05518 -18.20516
    Y5       -4.03035   0.04860   0.00000   0.03383   0.03376  -3.99659
    Z5        1.87598   0.00434   0.00000   0.00663   0.00656   1.88254
    X6      -20.51333  -0.02277   0.00000   0.00922   0.00920 -20.50413
    Y6       -5.31843  -0.01701   0.00000   0.00474   0.00466  -5.31376
    Z6        1.77072  -0.00136   0.00000   0.00499   0.00489   1.77561
    X7      -19.21798  -0.00741   0.00000   0.01002   0.00996 -19.20802
    Y7        2.22958   0.00684   0.00000   0.00850   0.00844   2.23802
    Z7        2.52318   0.00091   0.00000   0.00924   0.00908   2.53226
    X8      -21.15427   0.01052   0.00000   0.02027   0.02021 -21.13407
    Y8        3.28701  -0.00623   0.00000   0.00577   0.00570   3.29270
    Z8        2.65412  -0.00068   0.00000   0.01322   0.01301   2.66713
    X9      -14.55783  -0.00562   0.00000  -0.01987  -0.01993 -14.57776
    Y9        2.23312  -0.00017   0.00000   0.01363   0.01358   2.24670
    Z9        2.49342  -0.00024   0.00000   0.00478   0.00471   2.49814
   X10      -12.63004   0.00121   0.00000  -0.02357  -0.02364 -12.65368
   Y10        3.28569   0.00018   0.00000   0.02232   0.02228   3.30797
   Z10        2.59506   0.00020   0.00000   0.00495   0.00491   2.59998
   X11      -10.96361   0.00622   0.00000   0.00442   0.00440 -10.95921
   Y11       -3.96003   0.00031   0.00000  -0.02666  -0.02670  -3.98673
   Z11        1.80206   0.00020   0.00000   0.00192   0.00200   1.80405
   X12       -9.07760  -0.00708   0.00000   0.00484   0.00482  -9.07279
   Y12       -2.81862  -0.00366   0.00000  -0.04034  -0.04037  -2.85900
   Z12        1.89169  -0.00048   0.00000   0.00786   0.00796   1.89965
   X13      -13.28778   0.00239   0.00000   0.00816   0.00816 -13.27962
   Y13       -7.97584  -0.02250   0.00000   0.00389   0.00384  -7.97200
   Z13        1.41435  -0.00236   0.00000  -0.02754  -0.02747   1.38688
   X14      -13.33115  -0.00005   0.00000   0.00827   0.00829 -13.32286
   Y14      -10.18278   0.02350   0.00000   0.02586   0.02580 -10.15698
   Z14        1.17815   0.00227   0.00000  -0.04575  -0.04565   1.13250
   X15      -20.49901  -0.00395   0.00000  -0.01006  -0.01006 -20.50907
   Y15       -8.00803   0.03317   0.00000   0.02125   0.02117  -7.98686
   Z15        1.54545   0.00284   0.00000   0.03820   0.03812   1.58358
   X16      -20.45791   0.00110   0.00000  -0.01460  -0.01459 -20.47249
   Y16      -10.18019  -0.02526   0.00000  -0.00026  -0.00035 -10.18054
   Z16        1.37447  -0.00198   0.00000   0.06632   0.06627   1.44073
   X17      -22.82828   0.00124   0.00000   0.00411   0.00409 -22.82419
   Y17       -3.96247  -0.00472   0.00000  -0.01989  -0.01998  -3.98245
   Z17        1.89350  -0.00072   0.00000  -0.02840  -0.02857   1.86493
   X18      -24.70905   0.00078   0.00000  -0.00147  -0.00150 -24.71055
   Y18       -2.82447   0.00022   0.00000  -0.02754  -0.02764  -2.85211
   Z18        1.98466   0.00010   0.00000  -0.05868  -0.05889   1.92577
         Item               Value     Threshold  Converged?
 Maximum Force            0.093953     0.000450     NO 
 RMS     Force            0.024752     0.000300     NO 
 Maximum Displacement     0.066268     0.001800     NO 
 RMS     Displacement     0.024076     0.001200     NO 
 Predicted change in Energy=-9.126260D-03
 GradGradGradGradGradGradGradGradGradGradGradGradGradGradGradGradGradGrad

 Unable to Open any file for archive entry.
 1\1\GINC-X10P1N4\Force\RwB97XD\def2SVP\C12N6(2-)\MAYUMIAO\11-Oct-2024\
 0\\# wb97xd def2svp scrf=(smd,solvent=acetonitrile) g09default scf=(xq
 c,maxcycle=64) force guess=read nosymm\\Title Card\\-2,1\C,-8.93705748
 ,-0.89004999,1.11258493\C,-8.93832456,0.48054995,1.2505715\C,-8.218663
 5,-2.12862885,0.98040541\C,-7.02580935,-2.81204155,0.89914437\C,-9.662
 95159,-2.13277033,0.99272584\C,-10.85518767,-2.81439081,0.93702625\C,-
 10.16971883,1.17984217,1.33520989\N,-11.19435891,1.73940828,1.40450035
 \C,-7.70367251,1.18171491,1.31946287\N,-6.68352785,1.73871201,1.373248
 36\C,-5.80169328,-2.0955558,0.95360693\N,-4.80366156,-1.49155129,1.001
 03933\C,-7.03159248,-4.22063311,0.74844231\N,-7.05454258,-5.38849422,0
 .62344914\C,-10.84760756,-4.23766773,0.81781739\N,-10.82585826,-5.3871
 2513,0.72733586\C,-12.08020314,-2.09684913,1.00199743\N,-13.07546401,-
 1.4946475,1.0502368\\Version=ES64L-G16RevC.01\HF=-785.0231744\RMSD=3.3
 67e-09\RMSF=2.475e-02\Dipole=-0.0458897,-0.0401124,-0.0060349\Quadrupo
 le=-394.0199915,155.180249,238.8397426,-108.3143188,66.3899801,5.48611
 54\PG=C01 [X(C12N6)]\\@
 The archive entry for this job was punched.


 I FIND THAT THE THREE TRULY GREAT TIMES FOR THINKING THOUGHTS
 ARE WHEN I AM STANDING IN THE SHOWER, SITTING ON THE JOHN, OR WALKING.

                                    -- COLIN FLETCHER
 Job cpu time:       0 days  0 hours 10 minutes 49.5 seconds.
 Elapsed time:       0 days  0 hours  0 minutes 24.5 seconds.
 File lengths (MBytes):  RWF=    147 Int=      0 D2E=      0 Chk=      8 Scr=      1
 Normal termination of Gaussian 16 at Fri Oct 11 15:35:18 2024.
