 Entering Gaussian System, Link 0=g16
 Input=JOBS/8_B.gjf
 Output=JOBS/8_B.log
 Initial command:
 /data/app/gaussian/C01-avx2//g16/l1.exe "/tmp/Gau-2521762.inp" -scrdir="/tmp/"
 Entering Link 1 = /data/app/gaussian/C01-avx2//g16/l1.exe PID=   2521763.
  
 Copyright (c) 1988-2019, Gaussian, Inc.  All Rights Reserved.
  
 This is part of the Gaussian(R) 16 program.  It is based on
 the Gaussian(R) 09 system (copyright 2009, Gaussian, Inc.),
 the Gaussian(R) 03 system (copyright 2003, Gaussian, Inc.),
 the Gaussian(R) 98 system (copyright 1998, Gaussian, Inc.),
 the Gaussian(R) 94 system (copyright 1995, Gaussian, Inc.),
 the Gaussian 92(TM) system (copyright 1992, Gaussian, Inc.),
 the Gaussian 90(TM) system (copyright 1990, Gaussian, Inc.),
 the Gaussian 88(TM) system (copyright 1988, Gaussian, Inc.),
 the Gaussian 86(TM) system (copyright 1986, Carnegie Mellon
 University), and the Gaussian 82(TM) system (copyright 1983,
 Carnegie Mellon University). Gaussian is a federally registered
 trademark of Gaussian, Inc.
  
 This software contains proprietary and confidential information,
 including trade secrets, belonging to Gaussian, Inc.
  
 This software is provided under written license and may be
 used, copied, transmitted, or stored only in accord with that
 written license.
  
 The following legend is applicable only to US Government
 contracts under FAR:
  
                    RESTRICTED RIGHTS LEGEND
  
 Use, reproduction and disclosure by the US Government is
 subject to restrictions as set forth in subparagraphs (a)
 and (c) of the Commercial Computer Software - Restricted
 Rights clause in FAR 52.227-19.
  
 Gaussian, Inc.
 340 Quinnipiac St., Bldg. 40, Wallingford CT 06492
  
  
 ---------------------------------------------------------------
 Warning -- This program may not be used in any manner that
 competes with the business of Gaussian, Inc. or will provide
 assistance to any competitor of Gaussian, Inc.  The licensee
 of this program is prohibited from giving any competitor of
 Gaussian, Inc. access to this program.  By using this program,
 the user acknowledges that Gaussian, Inc. is engaged in the
 business of creating and licensing software in the field of
 computational chemistry and represents and warrants to the
 licensee that it is not a competitor of Gaussian, Inc. and that
 it will not use this program in any manner prohibited above.
 ---------------------------------------------------------------
  

 Cite this work as:
 Gaussian 16, Revision C.01,
 M. J. Frisch, G. W. Trucks, H. B. Schlegel, G. E. Scuseria, 
 M. A. Robb, J. R. Cheeseman, G. Scalmani, V. Barone, 
 G. A. Petersson, H. Nakatsuji, X. Li, M. Caricato, A. V. Marenich, 
 J. Bloino, B. G. Janesko, R. Gomperts, B. Mennucci, H. P. Hratchian, 
 J. V. Ortiz, A. F. Izmaylov, J. L. Sonnenberg, D. Williams-Young, 
 F. Ding, F. Lipparini, F. Egidi, J. Goings, B. Peng, A. Petrone, 
 T. Henderson, D. Ranasinghe, V. G. Zakrzewski, J. Gao, N. Rega, 
 G. Zheng, W. Liang, M. Hada, M. Ehara, K. Toyota, R. Fukuda, 
 J. Hasegawa, M. Ishida, T. Nakajima, Y. Honda, O. Kitao, H. Nakai, 
 T. Vreven, K. Throssell, J. A. Montgomery, Jr., J. E. Peralta, 
 F. Ogliaro, M. J. Bearpark, J. J. Heyd, E. N. Brothers, K. N. Kudin, 
 V. N. Staroverov, T. A. Keith, R. Kobayashi, J. Normand, 
 K. Raghavachari, A. P. Rendell, J. C. Burant, S. S. Iyengar, 
 J. Tomasi, M. Cossi, J. M. Millam, M. Klene, C. Adamo, R. Cammi, 
 J. W. Ochterski, R. L. Martin, K. Morokuma, O. Farkas, 
 J. B. Foresman, and D. J. Fox, Gaussian, Inc., Wallingford CT, 2019.
 
 ******************************************
 Gaussian 16:  ES64L-G16RevC.01  3-Jul-2019
                11-Oct-2024 
 ******************************************
 %chk=b.chk
 %nprocshared=28
 Will use up to   28 processors via shared memory.
 %mem=48gb
 ----------------------------------------------------------------------
 # wb97xd def2svp scrf=(smd,solvent=acetonitrile) g09default scf=(xqc,m
 axcycle=64) force guess=read nosymm
 ----------------------------------------------------------------------
 1/10=7,30=1,38=1,158=3,167=1/1,3;
 2/12=2,15=1,17=6,18=5,40=1/2;
 3/5=43,7=101,11=2,25=1,27=10,30=1,70=32201,71=1,72=2,74=-58,75=-4,116=-2,158=3/1,2,3;
 4/5=1,60=-1/1;
 5/5=2,7=64,8=3,13=1,38=6,53=2,87=10/2,8;
 6/7=2,8=2,9=2,10=2,28=1,87=10/1;
 7/29=1,30=1,87=10/1,2,3,16;
 1/10=7,30=1,158=3,167=1/3;
 99//99;
 Using 2006 physical constants.
 ----------
 Title Card
 ----------
 Symbolic Z-matrix:
 Charge = -1 Multiplicity = 2
 6                    -8.93706  -0.89005   1.11258 
 6                    -8.93832   0.48055   1.25057 
 6                    -8.21866  -2.12863   0.98041 
 6                    -7.02581  -2.81204   0.89914 
 6                    -9.66295  -2.13277   0.99273 
 6                    -10.85519  -2.81439   0.93703 
 6                    -10.16972   1.17984   1.33521 
 7                    -11.19436   1.73941   1.4045 
 6                    -7.70367   1.18171   1.31946 
 7                    -6.68353   1.73871   1.37325 
 6                    -5.80169  -2.09556   0.95361 
 7                    -4.80366  -1.49155   1.00104 
 6                    -7.03159  -4.22063   0.74844 
 7                    -7.05454  -5.38849   0.62345 
 6                    -10.84761  -4.23767   0.81782 
 7                    -10.82586  -5.38713   0.72734 
 6                    -12.0802  -2.09685   1.002 
 7                    -13.07546  -1.49465   1.05024 
 

 GradGradGradGradGradGradGradGradGradGradGradGradGradGradGradGradGradGrad
 Berny optimization.
 Initialization pass.
 Trust Radius=3.00D-01 FncErr=1.00D-07 GrdErr=1.00D-07 EigMax=2.50D+02 EigMin=1.00D-04
 Number of steps in this run=      2 maximum allowed number of steps=      2.
 GradGradGradGradGradGradGradGradGradGradGradGradGradGradGradGradGradGrad

                          Input orientation:                          
 ---------------------------------------------------------------------
 Center     Atomic      Atomic             Coordinates (Angstroms)
 Number     Number       Type             X           Y           Z
 ---------------------------------------------------------------------
      1          6           0       -8.937057   -0.890050    1.112585
      2          6           0       -8.938325    0.480550    1.250571
      3          6           0       -8.218663   -2.128629    0.980405
      4          6           0       -7.025809   -2.812042    0.899144
      5          6           0       -9.662952   -2.132770    0.992726
      6          6           0      -10.855188   -2.814391    0.937026
      7          6           0      -10.169719    1.179842    1.335210
      8          7           0      -11.194359    1.739408    1.404500
      9          6           0       -7.703673    1.181715    1.319463
     10          7           0       -6.683528    1.738712    1.373248
     11          6           0       -5.801693   -2.095556    0.953607
     12          7           0       -4.803662   -1.491551    1.001039
     13          6           0       -7.031592   -4.220633    0.748442
     14          7           0       -7.054543   -5.388494    0.623449
     15          6           0      -10.847608   -4.237668    0.817817
     16          7           0      -10.825858   -5.387125    0.727336
     17          6           0      -12.080203   -2.096849    1.001997
     18          7           0      -13.075464   -1.494648    1.050237
 ---------------------------------------------------------------------
                    Distance matrix (angstroms):
                    1          2          3          4          5
     1  C    0.000000
     2  C    1.377529   0.000000
     3  C    1.437929   2.720058   0.000000
     4  C    2.718911   3.823921   1.377156   0.000000
     5  C    1.444175   2.724153   1.444347   2.724828   0.000000
     6  C    2.722707   3.824828   2.724594   3.829566   1.374458
     7  C    2.419394   1.418628   3.857264   5.099947   3.368607
     8  N    3.477740   2.588071   4.898605   6.192567   4.184320
     9  C    2.419968   1.421529   3.367277   4.072623   3.864110
    10  N    3.472280   2.584982   4.179389   4.588168   4.900014
    11  C    3.362890   4.069762   2.417345   1.419429   3.861636
    12  N    4.178422   4.587689   3.473979   2.586893   4.901421
    13  C    3.854372   5.097929   2.416490   1.416642   3.367922
    14  N    4.900930   6.195772   3.479844   2.591320   4.188066
    15  C    3.865700   5.108250   3.374289   4.079849   2.421693
    16  N    4.892818   6.185966   4.180826   4.593577   3.466065
    17  C    3.368673   4.071385   3.861731   5.105779   2.417536
    18  N    4.182802   4.588841   4.898502   6.193277   3.472139
                    6          7          8          9         10
     6  C    0.000000
     7  C    4.072139   0.000000
     8  N    4.590278   1.169531   0.000000
     9  C    5.103642   2.466097   3.535979   0.000000
    10  N    6.190620   3.530908   4.510939   1.163544   0.000000
    11  C    5.104391   5.472979   6.632578   3.806820   3.956683
    12  N    6.194753   6.003548   7.172370   3.956995   3.755934
    13  C    4.078353   6.273537   7.299392   5.473858   6.002110
    14  N    4.601004   7.304380   8.279802   6.638784   7.176135
    15  C    1.428281   5.484218   6.015802   6.285355   7.305147
    16  N    2.581432   6.627601   7.168112   7.297144   8.267627
    17  C    1.421179   3.807583   3.957727   5.477571   6.631249
    18  N    2.585375   3.959477   3.758081   6.007624   7.170481
                   11         12         13         14         15
    11  C    0.000000
    12  N    1.167535   0.000000
    13  C    2.463879   3.532049   0.000000
    14  N    3.538655   4.516105   1.174755   0.000000
    15  C    5.483460   6.641085   3.816684   3.968567   0.000000
    16  N    6.010646   7.177553   3.969585   3.772747   1.153218
    17  C    6.278696   7.301674   5.482994   6.019592   2.477159
    18  N    7.299190   8.271949   6.637052   7.183014   3.541401
                   16         17         18
    16  N    0.000000
    17  C    3.531959   0.000000
    18  N    4.507369   1.164267   0.000000
 Symmetry turned off by external request.
 Stoichiometry    C12N6(1-,2)
 Framework group  C1[X(C12N6)]
 Deg. of freedom    48
 Full point group                 C1      NOp   1
 Rotational constants (GHZ):           0.4280389           0.4274980           0.2138991
 Standard basis: def2SVP (5D, 7F)
   252 basis functions,   450 primitive gaussians,   270 cartesian basis functions
    58 alpha electrons       57 beta electrons
       nuclear repulsion energy       962.8762014048 Hartrees.
 NAtoms=   18 NActive=   18 NUniq=   18 SFac= 1.00D+00 NAtFMM=   60 NAOKFM=F Big=F
 Integral buffers will be    131072 words long.
 Raffenetti 2 integral format.
 Two-electron integral symmetry is turned off.
 Nuclear repulsion after empirical dispersion term =      962.8645432096 Hartrees.
 Force PCM accuracy= 1.00D-10.
 ------------------------------------------------------------------------------
 Polarizable Continuum Model (PCM)
 =================================
 Model                : PCM (using non-symmetric T matrix).
 Atomic radii         : SMD-Coulomb.
 Polarization charges : Total charges.
 Charge compensation  : None.
 Solution method      : On-the-fly selection.
 Cavity type          : VdW (van der Waals Surface) (Alpha=1.000).
 Cavity algorithm     : GePol (No added spheres)
                        Default sphere list used, NSphG=   18.
                        Lebedev-Laikov grids with approx.  5.0 points / Ang**2.
                        Smoothing algorithm: York/Karplus (Gamma=1.0000).
                        Polarization charges: spherical gaussians, with
                                              point-specific exponents (IZeta= 3).
                        Self-potential: point-specific (ISelfS= 7).
                        Self-field    : sphere-specific E.n sum rule (ISelfD= 2).
 1st derivatives      : Analytical E(r).r(x)/FMM algorithm (CHGder, D1EAlg=3).
                        Cavity 1st derivative terms included.
 Solvent              : Acetonitrile, Eps=  35.688000 Eps(inf)=   1.806874
 ------------------------------------------------------------------------------
 Spheres list:
 ISph  on   Nord     Re0    Alpha      Xe            Ye            Ze
    1   C      1    1.8500  1.000     -8.937057     -0.890050      1.112585
    2   C      2    1.8500  1.000     -8.938325      0.480550      1.250571
    3   C      3    1.8500  1.000     -8.218663     -2.128629      0.980405
    4   C      4    1.8500  1.000     -7.025809     -2.812042      0.899144
    5   C      5    1.8500  1.000     -9.662952     -2.132770      0.992726
    6   C      6    1.8500  1.000    -10.855188     -2.814391      0.937026
    7   C      7    1.8500  1.000    -10.169719      1.179842      1.335210
    8   N      8    1.8900  1.000    -11.194359      1.739408      1.404500
    9   C      9    1.8500  1.000     -7.703673      1.181715      1.319463
   10   N     10    1.8900  1.000     -6.683528      1.738712      1.373248
   11   C     11    1.8500  1.000     -5.801693     -2.095556      0.953607
   12   N     12    1.8900  1.000     -4.803662     -1.491551      1.001039
   13   C     13    1.8500  1.000     -7.031592     -4.220633      0.748442
   14   N     14    1.8900  1.000     -7.054543     -5.388494      0.623449
   15   C     15    1.8500  1.000    -10.847608     -4.237668      0.817817
   16   N     16    1.8900  1.000    -10.825858     -5.387125      0.727336
   17   C     17    1.8500  1.000    -12.080203     -2.096849      1.001997
   18   N     18    1.8900  1.000    -13.075464     -1.494648      1.050237
 ------------------------------------------------------------------------------
 ------------------------------------------------------------------------------
 Atomic radii for non-electrostatic terms: SMD-CDS.
 ------------------------------------------------------------------------------
 Nuclear repulsion after PCM non-electrostatic terms =      962.8732825852 Hartrees.
 One-electron integrals computed using PRISM.
   1 Symmetry operations used in ECPInt.
 ECPInt:  NShTT=    5886 NPrTT=   23670 LenC2=    5404 LenP2D=   14953.
 LDataN:  DoStor=T MaxTD1= 4 Len=   56
 NBasis=   252 RedAO= T EigKep=  1.99D-04  NBF=   252
 NBsUse=   252 1.00D-06 EigRej= -1.00D+00 NBFU=   252
 Initial guess from the checkpoint file:  "b.chk"
 B after Tr=    -0.000237    0.000296   -0.001396
         Rot=    1.000000   -0.000042   -0.000049   -0.000003 Ang=  -0.01 deg.
 Initial guess <Sx>= 0.0000 <Sy>= 0.0000 <Sz>= 0.5000 <S**2>= 0.7894 S= 0.5195
 Requested convergence on RMS density matrix=1.00D-08 within  64 cycles.
 Requested convergence on MAX density matrix=1.00D-06.
 Requested convergence on             energy=1.00D-06.
 No special actions if energy rises.
 Inv3:  Mode=1 IEnd=    19217883.
 Iteration    1 A*A^-1 deviation from unit magnitude is 4.66D-15 for   2361.
 Iteration    1 A*A^-1 deviation from orthogonality  is 3.40D-15 for   1072    841.
 Iteration    1 A^-1*A deviation from unit magnitude is 3.11D-15 for   2046.
 Iteration    1 A^-1*A deviation from orthogonality  is 1.79D-09 for   2010   2006.
 Iteration    2 A*A^-1 deviation from unit magnitude is 4.22D-15 for   1668.
 Iteration    2 A*A^-1 deviation from orthogonality  is 4.13D-15 for   1102     50.
 Iteration    2 A^-1*A deviation from unit magnitude is 1.33D-15 for   1489.
 Iteration    2 A^-1*A deviation from orthogonality  is 8.43D-16 for    212     95.
 Error on total polarization charges =  0.01961
 SCF Done:  E(UwB97XD) =  -784.856546356     A.U. after   19 cycles
            NFock= 19  Conv=0.65D-08     -V/T= 2.0101
 <Sx>= 0.0000 <Sy>= 0.0000 <Sz>= 0.5000 <S**2>= 0.7861 S= 0.5179
 <L.S>=  0.00000000000    
 SMD-CDS (non-electrostatic) energy       (kcal/mol) =       5.48
 (included in total energy above)
 Annihilation of the first spin contaminant:
 S**2 before annihilation     0.7861,   after     0.7511
 QCSCF skips out because SCF is already converged.

 **********************************************************************

            Population analysis using the SCF Density.

 **********************************************************************

 Alpha  occ. eigenvalues --  -14.46266 -14.46153 -14.46118 -14.46047 -14.46030
 Alpha  occ. eigenvalues --  -14.45823 -10.38578 -10.38540 -10.38521 -10.38117
 Alpha  occ. eigenvalues --  -10.38059 -10.38032 -10.36423 -10.36318 -10.36287
 Alpha  occ. eigenvalues --  -10.36227 -10.36206 -10.36030  -1.04466  -1.02059
 Alpha  occ. eigenvalues --   -1.01827  -1.01084  -1.00847  -1.00591  -1.00414
 Alpha  occ. eigenvalues --   -0.92386  -0.92363  -0.89707  -0.72253  -0.72197
 Alpha  occ. eigenvalues --   -0.69057  -0.69029  -0.68754  -0.67523  -0.55070
 Alpha  occ. eigenvalues --   -0.50971  -0.50931  -0.49274  -0.49093  -0.47695
 Alpha  occ. eigenvalues --   -0.47594  -0.47559  -0.47075  -0.46653  -0.46554
 Alpha  occ. eigenvalues --   -0.45935  -0.45112  -0.44955  -0.44765  -0.44595
 Alpha  occ. eigenvalues --   -0.44470  -0.44379  -0.42952  -0.42621  -0.42541
 Alpha  occ. eigenvalues --   -0.35603  -0.35496  -0.27454
 Alpha virt. eigenvalues --    0.04315   0.04345   0.06356   0.06637   0.06924
 Alpha virt. eigenvalues --    0.09743   0.09827   0.10038   0.10501   0.12016
 Alpha virt. eigenvalues --    0.12332   0.14638   0.19269   0.19304   0.20854
 Alpha virt. eigenvalues --    0.23582   0.24933   0.24982   0.26035   0.26066
 Alpha virt. eigenvalues --    0.28060   0.31500   0.31599   0.31837   0.32034
 Alpha virt. eigenvalues --    0.32118   0.34686   0.46862   0.46911   0.49024
 Alpha virt. eigenvalues --    0.49424   0.52775   0.53036   0.53165   0.53202
 Alpha virt. eigenvalues --    0.54925   0.55050   0.55752   0.57154   0.59999
 Alpha virt. eigenvalues --    0.60103   0.60190   0.61406   0.61580   0.63613
 Alpha virt. eigenvalues --    0.64015   0.68810   0.69535   0.69593   0.71449
 Alpha virt. eigenvalues --    0.71486   0.72709   0.72744   0.73024   0.73316
 Alpha virt. eigenvalues --    0.73332   0.73496   0.74447   0.74520   0.75672
 Alpha virt. eigenvalues --    0.79211   0.79781   0.79884   0.80907   0.80916
 Alpha virt. eigenvalues --    0.85065   0.85258   0.86208   0.86895   0.92649
 Alpha virt. eigenvalues --    0.92803   0.92962   0.92986   0.93389   0.93988
 Alpha virt. eigenvalues --    0.95725   0.98484   0.98522   0.99219   0.99396
 Alpha virt. eigenvalues --    1.00248   1.00299   1.02189   1.02303   1.03217
 Alpha virt. eigenvalues --    1.05578   1.06555   1.06787   1.07370   1.09707
 Alpha virt. eigenvalues --    1.10534   1.14506   1.16286   1.17480   1.17653
 Alpha virt. eigenvalues --    1.20205   1.22417   1.22655   1.23369   1.33086
 Alpha virt. eigenvalues --    1.35445   1.35606   1.37944   1.38068   1.40936
 Alpha virt. eigenvalues --    1.43455   1.43687   1.46038   1.46539   1.57415
 Alpha virt. eigenvalues --    1.58666   1.66137   1.68319   1.68509   1.68523
 Alpha virt. eigenvalues --    1.68804   1.68940   1.76042   1.76149   1.76343
 Alpha virt. eigenvalues --    1.76475   1.78287   1.79207   1.79351   1.80108
 Alpha virt. eigenvalues --    1.81151   1.81215   1.85172   1.92816   1.93039
 Alpha virt. eigenvalues --    1.93430   1.97807   1.98424   1.98498   2.02536
 Alpha virt. eigenvalues --    2.02767   2.04172   2.04490   2.10860   2.10977
 Alpha virt. eigenvalues --    2.16085   2.19800   2.19902   2.20005   2.24952
 Alpha virt. eigenvalues --    2.26450   2.26522   2.27278   2.32602   2.32929
 Alpha virt. eigenvalues --    2.33059   2.33337   2.33497   2.33789   2.34144
 Alpha virt. eigenvalues --    2.35119   2.35171   2.35395   2.35443   2.35805
 Alpha virt. eigenvalues --    2.37153   2.37473   2.55358   2.58932   2.59183
 Alpha virt. eigenvalues --    2.68243   2.68455   2.91330   2.93788   2.94117
 Alpha virt. eigenvalues --    2.94440   2.97671   2.98002   2.98135   3.01383
 Alpha virt. eigenvalues --    3.03483   3.04191   3.07231   3.07440   3.10967
 Alpha virt. eigenvalues --    3.11489   3.12292   3.22324   3.22828   3.27537
 Alpha virt. eigenvalues --    3.38702   3.38884   3.41164   3.53133   3.56033
 Alpha virt. eigenvalues --    3.57086   3.60086   3.61231   3.73948
  Beta  occ. eigenvalues --  -14.46067 -14.45959 -14.45929 -14.45861 -14.45843
  Beta  occ. eigenvalues --  -14.45651 -10.38609 -10.38572 -10.38551 -10.37774
  Beta  occ. eigenvalues --  -10.37714 -10.37690 -10.36517 -10.36411 -10.36378
  Beta  occ. eigenvalues --  -10.36316 -10.36295 -10.36114  -1.04067  -1.01727
  Beta  occ. eigenvalues --   -1.01478  -1.00740  -1.00525  -1.00264  -1.00082
  Beta  occ. eigenvalues --   -0.91659  -0.91633  -0.88738  -0.72095  -0.72044
  Beta  occ. eigenvalues --   -0.68841  -0.68811  -0.68501  -0.67351  -0.54171
  Beta  occ. eigenvalues --   -0.49701  -0.49641  -0.49112  -0.48933  -0.47341
  Beta  occ. eigenvalues --   -0.47234  -0.47216  -0.46725  -0.46394  -0.46309
  Beta  occ. eigenvalues --   -0.45010  -0.44774  -0.44329  -0.44238  -0.44106
  Beta  occ. eigenvalues --   -0.43876  -0.43755  -0.42811  -0.42482  -0.42394
  Beta  occ. eigenvalues --   -0.32886  -0.32709
  Beta virt. eigenvalues --   -0.10139   0.05196   0.05224   0.06467   0.06740
  Beta virt. eigenvalues --    0.07019   0.09739   0.10852   0.11026   0.11325
  Beta virt. eigenvalues --    0.12065   0.12380   0.14874   0.19469   0.19501
  Beta virt. eigenvalues --    0.22408   0.23480   0.26175   0.26224   0.26528
  Beta virt. eigenvalues --    0.26579   0.28267   0.31598   0.31759   0.32331
  Beta virt. eigenvalues --    0.32480   0.32739   0.34783   0.46972   0.47024
  Beta virt. eigenvalues --    0.49114   0.49506   0.52881   0.53091   0.53110
  Beta virt. eigenvalues --    0.53152   0.55072   0.55194   0.55900   0.57298
  Beta virt. eigenvalues --    0.59929   0.60001   0.60077   0.61435   0.61607
  Beta virt. eigenvalues --    0.63815   0.63883   0.69107   0.69674   0.69740
  Beta virt. eigenvalues --    0.71594   0.71634   0.72845   0.72881   0.73196
  Beta virt. eigenvalues --    0.73510   0.73528   0.73615   0.74568   0.74645
  Beta virt. eigenvalues --    0.75696   0.79794   0.79896   0.80168   0.81646
  Beta virt. eigenvalues --    0.81658   0.85189   0.85386   0.86475   0.86992
  Beta virt. eigenvalues --    0.92809   0.92968   0.93554   0.93571   0.93621
  Beta virt. eigenvalues --    0.94583   0.96424   0.99094   0.99125   0.99434
  Beta virt. eigenvalues --    0.99608   1.00399   1.00448   1.02334   1.02449
  Beta virt. eigenvalues --    1.03361   1.05911   1.06686   1.07030   1.07684
  Beta virt. eigenvalues --    1.09827   1.10655   1.14709   1.16610   1.17709
  Beta virt. eigenvalues --    1.17891   1.20545   1.22652   1.22881   1.23930
  Beta virt. eigenvalues --    1.33233   1.35624   1.35788   1.38529   1.38649
  Beta virt. eigenvalues --    1.41679   1.44165   1.44395   1.46107   1.46629
  Beta virt. eigenvalues --    1.57432   1.58705   1.65966   1.68112   1.68287
  Beta virt. eigenvalues --    1.68303   1.68597   1.68725   1.75925   1.76034
  Beta virt. eigenvalues --    1.76507   1.76645   1.78187   1.79115   1.79251
  Beta virt. eigenvalues --    1.80359   1.81081   1.81130   1.85084   1.92855
  Beta virt. eigenvalues --    1.93169   1.93499   1.97975   1.98983   1.99064
  Beta virt. eigenvalues --    2.02858   2.03091   2.04563   2.04857   2.11284
  Beta virt. eigenvalues --    2.11416   2.16347   2.20834   2.20898   2.20937
  Beta virt. eigenvalues --    2.25585   2.27101   2.27166   2.27867   2.33294
  Beta virt. eigenvalues --    2.33585   2.33734   2.33976   2.34191   2.34458
  Beta virt. eigenvalues --    2.34787   2.35493   2.35541   2.36071   2.36089
  Beta virt. eigenvalues --    2.36371   2.37875   2.38150   2.55823   2.59030
  Beta virt. eigenvalues --    2.59282   2.68724   2.68942   2.91422   2.93915
  Beta virt. eigenvalues --    2.94300   2.94595   2.97819   2.98149   2.98262
  Beta virt. eigenvalues --    3.01881   3.04008   3.04698   3.07422   3.07628
  Beta virt. eigenvalues --    3.11465   3.11983   3.12770   3.22568   3.23066
  Beta virt. eigenvalues --    3.27726   3.38914   3.39094   3.41362   3.53309
  Beta virt. eigenvalues --    3.56213   3.57262   3.60280   3.61420   3.74109
          Condensed to atoms (all electrons):
               1          2          3          4          5          6
     1  C    4.921053   0.547471   0.279576  -0.097664   0.281362  -0.096306
     2  C    0.547471   5.311205  -0.097617  -0.007828  -0.094777  -0.007807
     3  C    0.279576  -0.097617   4.921817   0.547235   0.280413  -0.096716
     4  C   -0.097664  -0.007828   0.547235   5.312491  -0.095149  -0.007806
     5  C    0.281362  -0.094777   0.280413  -0.095149   4.912820   0.551940
     6  C   -0.096306  -0.007807  -0.096716  -0.007806   0.551940   5.310164
     7  C    0.009598   0.390283   0.006005  -0.000433  -0.020979   0.002074
     8  N   -0.001743  -0.028105  -0.000045  -0.000001  -0.000414   0.000111
     9  C    0.008802   0.389624  -0.021294   0.002090   0.005923  -0.000432
    10  N   -0.001807  -0.027718  -0.000440   0.000116  -0.000044  -0.000001
    11  C   -0.021622   0.002084   0.009088   0.389092   0.005938  -0.000425
    12  N   -0.000438   0.000114  -0.001839  -0.027926  -0.000044  -0.000001
    13  C    0.006094  -0.000433   0.009728   0.389749  -0.021296   0.002028
    14  N   -0.000044  -0.000001  -0.001766  -0.028431  -0.000420   0.000108
    15  C    0.005971  -0.000419  -0.020432   0.002022   0.008383   0.389103
    16  N   -0.000047  -0.000001  -0.000441   0.000108  -0.001899  -0.026742
    17  C   -0.020928   0.002092   0.005866  -0.000428   0.009359   0.391252
    18  N   -0.000429   0.000115  -0.000048  -0.000001  -0.001834  -0.027624
               7          8          9         10         11         12
     1  C    0.009598  -0.001743   0.008802  -0.001807  -0.021622  -0.000438
     2  C    0.390283  -0.028105   0.389624  -0.027718   0.002084   0.000114
     3  C    0.006005  -0.000045  -0.021294  -0.000440   0.009088  -0.001839
     4  C   -0.000433  -0.000001   0.002090   0.000116   0.389092  -0.027926
     5  C   -0.020979  -0.000414   0.005923  -0.000044   0.005938  -0.000044
     6  C    0.002074   0.000111  -0.000432  -0.000001  -0.000425  -0.000001
     7  C    4.841313   0.898870  -0.050139   0.002058   0.000105   0.000002
     8  N    0.898870   6.120445   0.002043   0.000063   0.000000   0.000000
     9  C   -0.050139   0.002043   4.840242   0.905950  -0.000316   0.000215
    10  N    0.002058   0.000063   0.905950   6.106115   0.000189  -0.000772
    11  C    0.000105   0.000000  -0.000316   0.000189   4.842815   0.901463
    12  N    0.000002   0.000000   0.000215  -0.000772   0.901463   6.114462
    13  C   -0.000012  -0.000000   0.000105   0.000002  -0.050585   0.002134
    14  N   -0.000000  -0.000000   0.000000   0.000000   0.002123   0.000064
    15  C    0.000100   0.000002  -0.000011  -0.000000   0.000100   0.000000
    16  N    0.000000   0.000000  -0.000000  -0.000000   0.000002   0.000000
    17  C   -0.000305   0.000229   0.000103   0.000000  -0.000012  -0.000000
    18  N    0.000169  -0.000767   0.000002   0.000000  -0.000000  -0.000000
              13         14         15         16         17         18
     1  C    0.006094  -0.000044   0.005971  -0.000047  -0.020928  -0.000429
     2  C   -0.000433  -0.000001  -0.000419  -0.000001   0.002092   0.000115
     3  C    0.009728  -0.001766  -0.020432  -0.000441   0.005866  -0.000048
     4  C    0.389749  -0.028431   0.002022   0.000108  -0.000428  -0.000001
     5  C   -0.021296  -0.000420   0.008383  -0.001899   0.009359  -0.001834
     6  C    0.002028   0.000108   0.389103  -0.026742   0.391252  -0.027624
     7  C   -0.000012  -0.000000   0.000100   0.000000  -0.000305   0.000169
     8  N   -0.000000  -0.000000   0.000002   0.000000   0.000229  -0.000767
     9  C    0.000105   0.000000  -0.000011  -0.000000   0.000103   0.000002
    10  N    0.000002   0.000000  -0.000000  -0.000000   0.000000   0.000000
    11  C   -0.050585   0.002123   0.000100   0.000002  -0.000012  -0.000000
    12  N    0.002134   0.000064   0.000000   0.000000  -0.000000  -0.000000
    13  C    4.844485   0.893293  -0.000280   0.000109   0.000104   0.000000
    14  N    0.893293   6.132175   0.000290  -0.000752   0.000002   0.000000
    15  C   -0.000280   0.000290   4.835258   0.917846  -0.050594   0.001851
    16  N    0.000109  -0.000752   0.917846   6.082104   0.001890   0.000059
    17  C    0.000104   0.000002  -0.050594   0.001890   4.839857   0.904519
    18  N    0.000000   0.000000   0.001851   0.000059   0.904519   6.108485
          Atomic-Atomic Spin Densities.
               1          2          3          4          5          6
     1  C   -0.031151  -0.070471   0.036366  -0.006332   0.034927  -0.006253
     2  C   -0.070471   0.377994  -0.006396   0.000998  -0.006049   0.001007
     3  C    0.036366  -0.006396  -0.028743  -0.071017   0.035169  -0.006287
     4  C   -0.006332   0.000998  -0.071017   0.375464  -0.006060   0.000988
     5  C    0.034927  -0.006049   0.035169  -0.006060  -0.036876  -0.068702
     6  C   -0.006253   0.001007  -0.006287   0.000988  -0.068702   0.375862
     7  C    0.000359   0.006113  -0.000138  -0.000012   0.000335  -0.000072
     8  N    0.000562  -0.005422   0.000009  -0.000000   0.000042  -0.000029
     9  C    0.000341   0.005660   0.000314  -0.000072  -0.000123  -0.000012
    10  N    0.000556  -0.005358   0.000043  -0.000028   0.000009  -0.000000
    11  C    0.000318  -0.000074   0.000404   0.005801  -0.000124  -0.000012
    12  N    0.000043  -0.000029   0.000563  -0.005372   0.000009  -0.000000
    13  C   -0.000137  -0.000012   0.000463   0.006343   0.000327  -0.000074
    14  N    0.000009  -0.000000   0.000571  -0.005424   0.000042  -0.000028
    15  C   -0.000132  -0.000011   0.000311  -0.000065   0.000158   0.005144
    16  N    0.000009  -0.000000   0.000042  -0.000027   0.000527  -0.005181
    17  C    0.000333  -0.000069  -0.000134  -0.000012   0.000229   0.005918
    18  N    0.000044  -0.000028   0.000009  -0.000000   0.000547  -0.005317
               7          8          9         10         11         12
     1  C    0.000359   0.000562   0.000341   0.000556   0.000318   0.000043
     2  C    0.006113  -0.005422   0.005660  -0.005358  -0.000074  -0.000029
     3  C   -0.000138   0.000009   0.000314   0.000043   0.000404   0.000563
     4  C   -0.000012  -0.000000  -0.000072  -0.000028   0.005801  -0.005372
     5  C    0.000335   0.000042  -0.000123   0.000009  -0.000124   0.000009
     6  C   -0.000072  -0.000029  -0.000012  -0.000000  -0.000012  -0.000000
     7  C   -0.076292  -0.002220  -0.000277   0.000139  -0.000003   0.000000
     8  N   -0.002220   0.119605   0.000140   0.000009  -0.000000   0.000000
     9  C   -0.000277   0.000140  -0.073525  -0.001943   0.000014   0.000014
    10  N    0.000139   0.000009  -0.001943   0.114680   0.000015   0.000040
    11  C   -0.000003  -0.000000   0.000014   0.000015  -0.074618  -0.002071
    12  N    0.000000   0.000000   0.000014   0.000040  -0.002071   0.116697
    13  C    0.000000  -0.000000  -0.000003   0.000000  -0.000206   0.000146
    14  N   -0.000000   0.000000  -0.000000   0.000000   0.000147   0.000009
    15  C   -0.000003   0.000000   0.000000  -0.000000  -0.000002  -0.000000
    16  N   -0.000000   0.000000  -0.000000   0.000000   0.000000   0.000000
    17  C    0.000016   0.000014  -0.000003  -0.000000   0.000000  -0.000000
    18  N    0.000015   0.000041   0.000000   0.000000  -0.000000   0.000000
              13         14         15         16         17         18
     1  C   -0.000137   0.000009  -0.000132   0.000009   0.000333   0.000044
     2  C   -0.000012  -0.000000  -0.000011  -0.000000  -0.000069  -0.000028
     3  C    0.000463   0.000571   0.000311   0.000042  -0.000134   0.000009
     4  C    0.006343  -0.005424  -0.000065  -0.000027  -0.000012  -0.000000
     5  C    0.000327   0.000042   0.000158   0.000527   0.000229   0.000547
     6  C   -0.000074  -0.000028   0.005144  -0.005181   0.005918  -0.005317
     7  C    0.000000  -0.000000  -0.000003  -0.000000   0.000016   0.000015
     8  N   -0.000000   0.000000   0.000000   0.000000   0.000014   0.000041
     9  C   -0.000003  -0.000000   0.000000  -0.000000  -0.000003   0.000000
    10  N    0.000000   0.000000  -0.000000   0.000000  -0.000000   0.000000
    11  C   -0.000206   0.000147  -0.000002   0.000000   0.000000  -0.000000
    12  N    0.000146   0.000009  -0.000000   0.000000  -0.000000   0.000000
    13  C   -0.077832  -0.002396   0.000015   0.000015  -0.000003  -0.000000
    14  N   -0.002396   0.122344   0.000013   0.000038   0.000000   0.000000
    15  C    0.000015   0.000013  -0.068787  -0.001567  -0.000273   0.000129
    16  N    0.000015   0.000038  -0.001567   0.105983   0.000129   0.000008
    17  C   -0.000003   0.000000  -0.000273   0.000129  -0.073689  -0.002026
    18  N   -0.000000   0.000000   0.000129   0.000008  -0.002026   0.114932
 Mulliken charges and spin densities:
               1          2
     1  C    0.181101  -0.040611
     2  C   -0.378281   0.297852
     3  C    0.180908  -0.038451
     4  C   -0.377238   0.295173
     5  C    0.180716  -0.045613
     6  C   -0.382921   0.296954
     7  C   -0.078708  -0.072039
     8  N    0.009313   0.112752
     9  C   -0.082907  -0.069472
    10  N    0.016289   0.108162
    11  C   -0.080039  -0.070412
    12  N    0.012565   0.110050
    13  C   -0.075226  -0.073355
    14  N    0.003359   0.115324
    15  C   -0.089190  -0.065071
    16  N    0.027762   0.099976
    17  C   -0.083007  -0.069570
    18  N    0.015503   0.108353
 Sum of Mulliken charges =  -1.00000   1.00000
 Mulliken charges and spin densities with hydrogens summed into heavy atoms:
               1          2
     1  C    0.181101  -0.040611
     2  C   -0.378281   0.297852
     3  C    0.180908  -0.038451
     4  C   -0.377238   0.295173
     5  C    0.180716  -0.045613
     6  C   -0.382921   0.296954
     7  C   -0.078708  -0.072039
     8  N    0.009313   0.112752
     9  C   -0.082907  -0.069472
    10  N    0.016289   0.108162
    11  C   -0.080039  -0.070412
    12  N    0.012565   0.110050
    13  C   -0.075226  -0.073355
    14  N    0.003359   0.115324
    15  C   -0.089190  -0.065071
    16  N    0.027762   0.099976
    17  C   -0.083007  -0.069570
    18  N    0.015503   0.108353
 Electronic spatial extent (au):  <R**2>=          39006.2107
 Charge=             -1.0000 electrons
 Dipole moment (field-independent basis, Debye):
    X=             42.8805    Y=              8.1939    Z=             -4.9547  Tot=             43.9366
 Quadrupole moment (field-independent basis, Debye-Ang):
   XX=           -553.7854   YY=           -184.2329   ZZ=           -104.3370
   XY=            -72.9144   XZ=             44.8646   YZ=              1.3578
 Traceless Quadrupole moment (field-independent basis, Debye-Ang):
   XX=           -273.0003   YY=             96.5522   ZZ=            176.4481
   XY=            -72.9144   XZ=             44.8646   YZ=              1.3578
 Octapole moment (field-independent basis, Debye-Ang**2):
  XXX=           8001.8953  YYY=            969.6067  ZZZ=           -311.6686  XYY=           1645.4107
  XXY=            871.2213  XXZ=           -588.0721  XZZ=            933.7263  YZZ=            164.6920
  YYZ=           -159.6231  XYZ=            -13.3194
 Hexadecapole moment (field-independent basis, Debye-Ang**3):
 XXXX=        -116786.0083 YYYY=          -7795.0773 ZZZZ=           -764.5872 XXXY=         -11735.6944
 XXXZ=           8575.7883 YYYX=          -8661.2528 YYYZ=            638.4711 ZZZX=           2801.9699
 ZZZY=            362.4258 XXYY=         -16389.5101 XXZZ=          -9093.7297 YYZZ=           -973.2128
 XXYZ=            278.9406 YYXZ=           1440.1958 ZZXY=          -1473.2228
 N-N= 9.628732825852D+02 E-N=-3.760934653517D+03  KE= 7.770211846660D+02
                          Isotropic Fermi Contact Couplings
        Atom                 a.u.       MegaHertz       Gauss      10(-4) cm-1
     1  C(13)             -0.01633     -18.35556      -6.54972      -6.12276
     2  C(13)              0.04852      54.54875      19.46435      18.19550
     3  C(13)             -0.01595     -17.93307      -6.39896      -5.98183
     4  C(13)              0.04803      53.99642      19.26726      18.01127
     5  C(13)             -0.01716     -19.29261      -6.88408      -6.43532
     6  C(13)              0.04848      54.49558      19.44538      18.17777
     7  C(13)             -0.03253     -36.57237     -13.04993     -12.19923
     8  N(14)              0.02639       8.52638       3.04243       2.84410
     9  C(13)             -0.03190     -35.86066     -12.79598     -11.96183
    10  N(14)              0.02520       8.14325       2.90571       2.71629
    11  C(13)             -0.03208     -36.06581     -12.86918     -12.03026
    12  N(14)              0.02572       8.30949       2.96503       2.77175
    13  C(13)             -0.03286     -36.93669     -13.17993     -12.32075
    14  N(14)              0.02709       8.75131       3.12269       2.91912
    15  C(13)             -0.03072     -34.53738     -12.32380     -11.52043
    16  N(14)              0.02311       7.46808       2.66480       2.49108
    17  C(13)             -0.03176     -35.70509     -12.74046     -11.90994
    18  N(14)              0.02527       8.16525       2.91356       2.72363
 --------------------------------------------------------
       Center         ----  Spin Dipole Couplings  ----
                      3XX-RR        3YY-RR        3ZZ-RR
 --------------------------------------------------------
     1   Atom       -0.004031      0.020666     -0.016635
     2   Atom       -0.156405     -0.153285      0.309690
     3   Atom        0.013619      0.001168     -0.014787
     4   Atom       -0.156529     -0.150554      0.307082
     5   Atom        0.017522      0.004113     -0.021635
     6   Atom       -0.157385     -0.152756      0.310141
     7   Atom        0.037985      0.008144     -0.046129
     8   Atom       -0.114103     -0.091267      0.205370
     9   Atom        0.036661      0.007807     -0.044468
    10   Atom       -0.109742     -0.088123      0.197865
    11   Atom        0.034143      0.011064     -0.045207
    12   Atom       -0.110223     -0.090738      0.200961
    13   Atom       -0.002904      0.049542     -0.046639
    14   Atom       -0.087437     -0.121453      0.208891
    15   Atom       -0.002631      0.043932     -0.041301
    16   Atom       -0.078068     -0.107283      0.185351
    17   Atom        0.033637      0.011043     -0.044680
    18   Atom       -0.108666     -0.090782      0.199448
 --------------------------------------------------------
                        XY            XZ            YZ
 --------------------------------------------------------
     1   Atom        0.000087     -0.001447      0.002887
     2   Atom       -0.000294      0.002870     -0.049191
     3   Atom       -0.010687     -0.000197      0.001683
     4   Atom        0.000140      0.006665     -0.048445
     5   Atom        0.011175      0.000606      0.002922
     6   Atom       -0.001053      0.001772     -0.040141
     7   Atom       -0.021697     -0.002958      0.005883
     8   Atom        0.014979      0.005292     -0.031920
     9   Atom        0.020963      0.001817      0.005501
    10   Atom       -0.014627     -0.000075     -0.030511
    11   Atom        0.023081      0.001202      0.005535
    12   Atom       -0.016108      0.003165     -0.030148
    13   Atom        0.001733     -0.000338      0.010265
    14   Atom       -0.001086      0.003523     -0.036257
    15   Atom       -0.001604     -0.000142      0.007127
    16   Atom        0.000517      0.000246     -0.022512
    17   Atom       -0.022756     -0.002110      0.004717
    18   Atom        0.015349      0.000622     -0.023336
 --------------------------------------------------------


 ---------------------------------------------------------------------------------
              Anisotropic Spin Dipole Couplings in Principal Axis System
 ---------------------------------------------------------------------------------

       Atom             a.u.   MegaHertz   Gauss  10(-4) cm-1        Axes

              Baa    -0.0170    -2.284    -0.815    -0.762  0.1109 -0.0762  0.9909
     1 C(13)  Bbb    -0.0039    -0.519    -0.185    -0.173  0.9938  0.0095 -0.1105
              Bcc     0.0209     2.803     1.000     0.935 -0.0010  0.9970  0.0768
 
              Baa    -0.1585   -21.263    -7.587    -7.093 -0.0037  0.9945  0.1045
     2 C(13)  Bbb    -0.1564   -20.990    -7.490    -7.002  1.0000  0.0044 -0.0057
              Bcc     0.3149    42.253    15.077    14.094  0.0061 -0.1045  0.9945
 
              Baa    -0.0150    -2.013    -0.718    -0.671 -0.0421 -0.1309  0.9905
     3 C(13)  Bbb    -0.0048    -0.643    -0.229    -0.214  0.4986  0.8564  0.1343
              Bcc     0.0198     2.656     0.948     0.886  0.8658 -0.4995 -0.0293
 
              Baa    -0.1571   -21.081    -7.522    -7.032  0.8697 -0.4895 -0.0636
     4 C(13)  Bbb    -0.1552   -20.820    -7.429    -6.945  0.4934  0.8657  0.0836
              Bcc     0.3122    41.901    14.951    13.977  0.0141 -0.1041  0.9945
 
              Baa    -0.0220    -2.949    -1.052    -0.984  0.0185 -0.1191  0.9927
     5 C(13)  Bbb    -0.0020    -0.263    -0.094    -0.088 -0.4970  0.8604  0.1125
              Bcc     0.0239     3.212     1.146     1.071  0.8675  0.4955  0.0433
 
              Baa    -0.1579   -21.185    -7.559    -7.067  0.8803  0.4730  0.0372
     6 C(13)  Bbb    -0.1557   -20.897    -7.457    -6.971 -0.4744  0.8769  0.0774
              Bcc     0.3136    42.083    15.016    14.037  0.0039 -0.0858  0.9963
 
              Baa    -0.0468    -6.275    -2.239    -2.093  0.0083 -0.1033  0.9946
     7 C(13)  Bbb    -0.0029    -0.393    -0.140    -0.131  0.4716  0.8775  0.0872
              Bcc     0.0497     6.669     2.380     2.224  0.8818 -0.4683 -0.0560
 
              Baa    -0.1227    -4.731    -1.688    -1.578  0.8755 -0.4794 -0.0608
     8 N(14)  Bbb    -0.0861    -3.322    -1.185    -1.108  0.4831  0.8713  0.0866
              Bcc     0.2088     8.053     2.874     2.686  0.0114 -0.1052  0.9944
 
              Baa    -0.0450    -6.044    -2.157    -2.016  0.0050 -0.1055  0.9944
     9 C(13)  Bbb    -0.0028    -0.379    -0.135    -0.127 -0.4702  0.8774  0.0954
              Bcc     0.0479     6.424     2.292     2.143  0.8826  0.4680  0.0452
 
              Baa    -0.1178    -4.542    -1.621    -1.515  0.8759  0.4802  0.0466
    10 N(14)  Bbb    -0.0833    -3.214    -1.147    -1.072 -0.4825  0.8708  0.0944
              Bcc     0.2011     7.756     2.767     2.587  0.0047 -0.1051  0.9944
 
              Baa    -0.0458    -6.141    -2.191    -2.048  0.0148 -0.1029  0.9946
    11 C(13)  Bbb    -0.0028    -0.377    -0.135    -0.126 -0.5296  0.8429  0.0950
              Bcc     0.0486     6.518     2.326     2.174  0.8481  0.5281  0.0420
 
              Baa    -0.1198    -4.620    -1.649    -1.541  0.8557  0.5160  0.0401
    12 N(14)  Bbb    -0.0843    -3.252    -1.161    -1.085 -0.5173  0.8504  0.0956
              Bcc     0.2041     7.872     2.809     2.626  0.0153 -0.1025  0.9946
 
              Baa    -0.0477    -6.405    -2.285    -2.136  0.0116 -0.1051  0.9944
    13 C(13)  Bbb    -0.0030    -0.396    -0.141    -0.132  0.9994 -0.0301 -0.0148
              Bcc     0.0507     6.801     2.427     2.268  0.0315  0.9940  0.1047
 
              Baa    -0.1254    -4.836    -1.726    -1.613  0.0184  0.9940  0.1076
    14 N(14)  Bbb    -0.0875    -3.373    -1.204    -1.125  0.9998 -0.0170 -0.0140
              Bcc     0.2129     8.210     2.929     2.738  0.0121 -0.1078  0.9941
 
              Baa    -0.0419    -5.622    -2.006    -1.875  0.0002 -0.0828  0.9966
    15 C(13)  Bbb    -0.0027    -0.360    -0.129    -0.120  0.9994  0.0340  0.0026
              Bcc     0.0446     5.982     2.135     1.995 -0.0341  0.9960  0.0827
 
              Baa    -0.1090    -4.204    -1.500    -1.402 -0.0173  0.9969  0.0763
    16 N(14)  Bbb    -0.0781    -3.011    -1.074    -1.004  0.9999  0.0173  0.0005
              Bcc     0.1871     7.215     2.574     2.407  0.0008 -0.0763  0.9971
 
              Baa    -0.0451    -6.049    -2.158    -2.018  0.0028 -0.0826  0.9966
    17 C(13)  Bbb    -0.0029    -0.385    -0.137    -0.128  0.5306  0.8448  0.0685
              Bcc     0.0479     6.434     2.296     2.146  0.8476 -0.5286 -0.0462
 
              Baa    -0.1180    -4.550    -1.624    -1.518  0.8552 -0.5168 -0.0397
    18 N(14)  Bbb    -0.0833    -3.214    -1.147    -1.072  0.5183  0.8524  0.0692
              Bcc     0.2013     7.764     2.770     2.590 -0.0019 -0.0797  0.9968
 

 ---------------------------------------------------------------------------------

   1 Symmetry operations used in ECPInt.
 ECPInt:  NShTT=    5886 NPrTT=   23670 LenC2=    5404 LenP2D=   14953.
 LDataN:  DoStor=T MaxTD1= 5 Len=  102
 D1PCM: PCM CHGder 1st derivatives, ID1Alg=3 FixD1E=F DoIter=F DoCFld=F I1PDM=0.
 Calling FoFJK, ICntrl=      2127 FMM=F ISym2X=0 I1Cent= 0 IOpClX= 1 NMat=1 NMatS=1 NMatT=0.
 -------------------------------------------------------------------
 Center     Atomic                   Forces (Hartrees/Bohr)
 Number     Number              X              Y              Z
 -------------------------------------------------------------------
      1        6          -0.001747153   -0.049706361   -0.005716504
      2        6           0.001614853   -0.004198281   -0.000006728
      3        6          -0.045131152    0.023840945    0.003324479
      4        6          -0.003773646    0.003809622   -0.000112903
      5        6           0.046899193    0.026856011    0.002456504
      6        6           0.002842717   -0.002707217   -0.000178627
      7        6          -0.022569579    0.014079679    0.001781723
      8        7           0.019839120   -0.011082396   -0.001351358
      9        6           0.009347483    0.006993842    0.000509473
     10        7          -0.008040503   -0.004635459   -0.000351447
     11        6           0.020024792    0.009785645    0.000983437
     12        7          -0.015926005   -0.009265326   -0.000838994
     13        6           0.001175250   -0.039258401   -0.004070655
     14        7           0.000348577    0.034029222    0.003530712
     15        6          -0.002756112    0.017224045    0.001411653
     16        7           0.000710218   -0.015091083   -0.001282684
     17        6          -0.012413552    0.004674364    0.000210185
     18        7           0.009555499   -0.005348851   -0.000298267
 -------------------------------------------------------------------
 Cartesian Forces:  Max     0.049706361 RMS     0.016081744

 GradGradGradGradGradGradGradGradGradGradGradGradGradGradGradGradGradGrad
 Berny optimization.
 Search for a local minimum.
 Step number   1 out of a maximum of    2
 All quantities printed in internal units (Hartrees-Bohrs-Radians)
 Second derivative matrix not updated -- first step.
 ITU=  0
     Eigenvalues ---    0.00140   0.00157   0.00219   0.00300   0.00301
     Eigenvalues ---    0.00917   0.01535   0.01684   0.01975   0.02015
     Eigenvalues ---    0.04131   0.04438   0.05326   0.05346   0.10314
     Eigenvalues ---    0.17822   0.21327   0.21641   0.24440   0.24617
     Eigenvalues ---    0.25471   0.26073   0.30102   0.30360   0.47090
     Eigenvalues ---    0.73723   0.75078   0.77881   0.79913   0.84016
     Eigenvalues ---    1.04483   1.04592   1.11614   1.55351   1.55727
     Eigenvalues ---    1.91552   2.66172   2.71841   2.76035   2.78144
     Eigenvalues ---    2.80596   2.92257 116.41697 143.00403 151.45903
     Eigenvalues ---  151.57735 186.64638 187.48061
 Angle between quadratic step and forces=  57.74 degrees.
 Linear search not attempted -- first point.
 B after Tr=    -0.000035    0.000041    0.000038
         Rot=    1.000000    0.000001    0.000001   -0.000003 Ang=   0.00 deg.
 Variable       Old X    -DE/DX   Delta X   Delta X   Delta X     New X
                                 (Linear)    (Quad)   (Total)
    X1      -16.88859  -0.00175   0.00000  -0.00036  -0.00040 -16.88899
    Y1       -1.68195  -0.04971   0.00000  -0.03827  -0.03832  -1.72027
    Z1        2.10248  -0.00572   0.00000  -0.00465  -0.00465   2.09784
    X2      -16.89099   0.00161   0.00000  -0.00103  -0.00108 -16.89206
    Y2        0.90811  -0.00420   0.00000  -0.03602  -0.03606   0.87204
    Z2        2.36324  -0.00001   0.00000  -0.00266  -0.00267   2.36057
    X3      -15.53102  -0.04513   0.00000  -0.03522  -0.03524 -15.56626
    Y3       -4.02253   0.02384   0.00000   0.02064   0.02060  -4.00192
    Z3        1.85270   0.00332   0.00000   0.00172   0.00174   1.85443
    X4      -13.27686  -0.00377   0.00000  -0.03264  -0.03265 -13.30951
    Y4       -5.31399   0.00381   0.00000   0.01691   0.01688  -5.29711
    Z4        1.69914  -0.00011   0.00000   0.00005   0.00007   1.69921
    X5      -18.26033   0.04690   0.00000   0.04061   0.04059 -18.21974
    Y5       -4.03035   0.02686   0.00000   0.02459   0.02454  -4.00581
    Z5        1.87598   0.00246   0.00000   0.00204   0.00205   1.87803
    X6      -20.51333   0.00284   0.00000   0.03686   0.03685 -20.47648
    Y6       -5.31843  -0.00271   0.00000   0.02145   0.02138  -5.29704
    Z6        1.77072  -0.00018   0.00000   0.00197   0.00197   1.77269
    X7      -19.21798  -0.02257   0.00000  -0.00466  -0.00472 -19.22270
    Y7        2.22958   0.01408   0.00000  -0.02433  -0.02439   2.20519
    Z7        2.52318   0.00178   0.00000   0.00002   0.00001   2.52319
    X8      -21.15427   0.01984   0.00000   0.01312   0.01306 -21.14121
    Y8        3.28701  -0.01108   0.00000  -0.03091  -0.03098   3.25603
    Z8        2.65412  -0.00135   0.00000   0.00060   0.00058   2.65470
    X9      -14.55783   0.00935   0.00000  -0.00315  -0.00321 -14.56104
    Y9        2.23312   0.00699   0.00000  -0.02090  -0.02094   2.21218
    Z9        2.49342   0.00051   0.00000  -0.00575  -0.00575   2.48767
   X10      -12.63004  -0.00804   0.00000  -0.01318  -0.01324 -12.64328
   Y10        3.28569  -0.00464   0.00000  -0.01764  -0.01766   3.26802
   Z10        2.59506  -0.00035   0.00000  -0.00937  -0.00937   2.58569
   X11      -10.96361   0.02002   0.00000  -0.01672  -0.01674 -10.98035
   Y11       -3.96003   0.00979   0.00000   0.00717   0.00715  -3.95287
   Z11        1.80206   0.00098   0.00000   0.00307   0.00309   1.80515
   X12       -9.07760  -0.01593   0.00000  -0.02564  -0.02566  -9.10327
   Y12       -2.81862  -0.00927   0.00000  -0.00727  -0.00727  -2.82590
   Z12        1.89169  -0.00084   0.00000   0.00554   0.00556   1.89725
   X13      -13.28778   0.00118   0.00000  -0.02348  -0.02347 -13.31126
   Y13       -7.97584  -0.03926   0.00000   0.00446   0.00443  -7.97141
   Z13        1.41435  -0.00407   0.00000   0.00111   0.00114   1.41549
   X14      -13.33115   0.00035   0.00000  -0.02161  -0.02160 -13.35275
   Y14      -10.18278   0.03403   0.00000   0.03291   0.03288 -10.14990
   Z14        1.17815   0.00353   0.00000   0.00609   0.00613   1.18428
   X15      -20.49901  -0.00276   0.00000   0.02135   0.02136 -20.47765
   Y15       -8.00803   0.01722   0.00000   0.02687   0.02680  -7.98123
   Z15        1.54545   0.00141   0.00000  -0.00123  -0.00122   1.54423
   X16      -20.45791   0.00071   0.00000   0.01577   0.01579 -20.44212
   Y16      -10.18019  -0.01509   0.00000   0.01538   0.01531 -10.16488
   Z16        1.37447  -0.00128   0.00000  -0.00262  -0.00260   1.37186
   X17      -22.82828  -0.01241   0.00000   0.02366   0.02364 -22.80463
   Y17       -3.96247   0.00467   0.00000   0.00877   0.00869  -3.95378
   Z17        1.89350   0.00021   0.00000   0.00279   0.00278   1.89628
   X18      -24.70905   0.00956   0.00000   0.02673   0.02670 -24.68234
   Y18       -2.82447  -0.00535   0.00000  -0.00295  -0.00304  -2.82752
   Z18        1.98466  -0.00030   0.00000   0.00115   0.00114   1.98580
         Item               Value     Threshold  Converged?
 Maximum Force            0.049706     0.000450     NO 
 RMS     Force            0.016082     0.000300     NO 
 Maximum Displacement     0.040592     0.001800     NO 
 RMS     Displacement     0.018743     0.001200     NO 
 Predicted change in Energy=-4.343583D-03
 GradGradGradGradGradGradGradGradGradGradGradGradGradGradGradGradGradGrad

 Unable to Open any file for archive entry.
 1\1\GINC-X10P1N4\Force\UwB97XD\def2SVP\C12N6(1-,2)\MAYUMIAO\11-Oct-202
 4\0\\# wb97xd def2svp scrf=(smd,solvent=acetonitrile) g09default scf=(
 xqc,maxcycle=64) force guess=read nosymm\\Title Card\\-1,2\C,-8.937057
 48,-0.89004999,1.11258493\C,-8.93832456,0.48054995,1.2505715\C,-8.2186
 635,-2.12862885,0.98040541\C,-7.02580935,-2.81204155,0.89914437\C,-9.6
 6295159,-2.13277033,0.99272584\C,-10.85518767,-2.81439081,0.93702625\C
 ,-10.16971883,1.17984217,1.33520989\N,-11.19435891,1.73940828,1.404500
 35\C,-7.70367251,1.18171491,1.31946287\N,-6.68352785,1.73871201,1.3732
 4836\C,-5.80169328,-2.0955558,0.95360693\N,-4.80366156,-1.49155129,1.0
 0103933\C,-7.03159248,-4.22063311,0.74844231\N,-7.05454258,-5.38849422
 ,0.62344914\C,-10.84760756,-4.23766773,0.81781739\N,-10.82585826,-5.38
 712513,0.72733586\C,-12.08020314,-2.09684913,1.00199743\N,-13.07546401
 ,-1.4946475,1.0502368\\Version=ES64L-G16RevC.01\HF=-784.8565464\S2=0.7
 86114\S2-1=0.\S2A=0.751068\RMSD=6.465e-09\RMSF=1.608e-02\Dipole=-0.022
 6328,-0.017047,-0.0040435\Quadrupole=-202.9690679,71.784216,131.184851
 9,-54.2100869,33.3557069,1.009501\PG=C01 [X(C12N6)]\\@
 The archive entry for this job was punched.


  ON THE CHOICE OF THE CORRECT LANGUAGE -
 I SPEAK SPANISH TO GOD, ITALIAN TO WOMEN,
 FRENCH TO MEN, AND GERMAN TO MY HORSE.
          -- CHARLES V
 Job cpu time:       0 days  0 hours 14 minutes 35.1 seconds.
 Elapsed time:       0 days  0 hours  0 minutes 32.7 seconds.
 File lengths (MBytes):  RWF=    173 Int=      0 D2E=      0 Chk=      9 Scr=      1
 Normal termination of Gaussian 16 at Fri Oct 11 15:34:54 2024.
