 Entering Gaussian System, Link 0=g16
 Input=JOBS/9_A.gjf
 Output=JOBS/9_A.log
 Initial command:
 /data/app/gaussian/C01-avx2//g16/l1.exe "/tmp/Gau-2523149.inp" -scrdir="/tmp/"
 Entering Link 1 = /data/app/gaussian/C01-avx2//g16/l1.exe PID=   2523150.
  
 Copyright (c) 1988-2019, Gaussian, Inc.  All Rights Reserved.
  
 This is part of the Gaussian(R) 16 program.  It is based on
 the Gaussian(R) 09 system (copyright 2009, Gaussian, Inc.),
 the Gaussian(R) 03 system (copyright 2003, Gaussian, Inc.),
 the Gaussian(R) 98 system (copyright 1998, Gaussian, Inc.),
 the Gaussian(R) 94 system (copyright 1995, Gaussian, Inc.),
 the Gaussian 92(TM) system (copyright 1992, Gaussian, Inc.),
 the Gaussian 90(TM) system (copyright 1990, Gaussian, Inc.),
 the Gaussian 88(TM) system (copyright 1988, Gaussian, Inc.),
 the Gaussian 86(TM) system (copyright 1986, Carnegie Mellon
 University), and the Gaussian 82(TM) system (copyright 1983,
 Carnegie Mellon University). Gaussian is a federally registered
 trademark of Gaussian, Inc.
  
 This software contains proprietary and confidential information,
 including trade secrets, belonging to Gaussian, Inc.
  
 This software is provided under written license and may be
 used, copied, transmitted, or stored only in accord with that
 written license.
  
 The following legend is applicable only to US Government
 contracts under FAR:
  
                    RESTRICTED RIGHTS LEGEND
  
 Use, reproduction and disclosure by the US Government is
 subject to restrictions as set forth in subparagraphs (a)
 and (c) of the Commercial Computer Software - Restricted
 Rights clause in FAR 52.227-19.
  
 Gaussian, Inc.
 340 Quinnipiac St., Bldg. 40, Wallingford CT 06492
  
  
 ---------------------------------------------------------------
 Warning -- This program may not be used in any manner that
 competes with the business of Gaussian, Inc. or will provide
 assistance to any competitor of Gaussian, Inc.  The licensee
 of this program is prohibited from giving any competitor of
 Gaussian, Inc. access to this program.  By using this program,
 the user acknowledges that Gaussian, Inc. is engaged in the
 business of creating and licensing software in the field of
 computational chemistry and represents and warrants to the
 licensee that it is not a competitor of Gaussian, Inc. and that
 it will not use this program in any manner prohibited above.
 ---------------------------------------------------------------
  

 Cite this work as:
 Gaussian 16, Revision C.01,
 M. J. Frisch, G. W. Trucks, H. B. Schlegel, G. E. Scuseria, 
 M. A. Robb, J. R. Cheeseman, G. Scalmani, V. Barone, 
 G. A. Petersson, H. Nakatsuji, X. Li, M. Caricato, A. V. Marenich, 
 J. Bloino, B. G. Janesko, R. Gomperts, B. Mennucci, H. P. Hratchian, 
 J. V. Ortiz, A. F. Izmaylov, J. L. Sonnenberg, D. Williams-Young, 
 F. Ding, F. Lipparini, F. Egidi, J. Goings, B. Peng, A. Petrone, 
 T. Henderson, D. Ranasinghe, V. G. Zakrzewski, J. Gao, N. Rega, 
 G. Zheng, W. Liang, M. Hada, M. Ehara, K. Toyota, R. Fukuda, 
 J. Hasegawa, M. Ishida, T. Nakajima, Y. Honda, O. Kitao, H. Nakai, 
 T. Vreven, K. Throssell, J. A. Montgomery, Jr., J. E. Peralta, 
 F. Ogliaro, M. J. Bearpark, J. J. Heyd, E. N. Brothers, K. N. Kudin, 
 V. N. Staroverov, T. A. Keith, R. Kobayashi, J. Normand, 
 K. Raghavachari, A. P. Rendell, J. C. Burant, S. S. Iyengar, 
 J. Tomasi, M. Cossi, J. M. Millam, M. Klene, C. Adamo, R. Cammi, 
 J. W. Ochterski, R. L. Martin, K. Morokuma, O. Farkas, 
 J. B. Foresman, and D. J. Fox, Gaussian, Inc., Wallingford CT, 2019.
 
 ******************************************
 Gaussian 16:  ES64L-G16RevC.01  3-Jul-2019
                11-Oct-2024 
 ******************************************
 %chk=a.chk
 %nprocshared=28
 Will use up to   28 processors via shared memory.
 %mem=48gb
 ----------------------------------------------------------------------
 # wb97xd def2svp scrf=(smd,solvent=acetonitrile) g09default scf=(xqc,m
 axcycle=64) force guess=read nosymm
 ----------------------------------------------------------------------
 1/10=7,30=1,38=1,158=3,167=1/1,3;
 2/12=2,15=1,17=6,18=5,40=1/2;
 3/5=43,7=101,11=2,25=1,27=10,30=1,70=32201,71=1,72=2,74=-58,75=-4,116=-2,158=3/1,2,3;
 4/5=1,60=-1/1;
 5/5=2,7=64,8=3,13=1,38=6,53=2,87=10/2,8;
 6/7=2,8=2,9=2,10=2,28=1,87=10/1;
 7/29=1,30=1,87=10/1,2,3,16;
 1/10=7,30=1,158=3,167=1/3;
 99//99;
 Using 2006 physical constants.
 ----------
 Title Card
 ----------
 Symbolic Z-matrix:
 Charge = -2 Multiplicity = 1
 6                    -8.93576  -0.87047   1.11571 
 6                    -8.93832   0.51158   1.25342 
 6                    -8.20064  -2.13771   0.97923 
 6                    -6.99851  -2.82777   0.89878 
 6                    -9.68194  -2.14403   0.99149 
 6                    -10.8829  -2.82963   0.93559 
 6                    -10.17539   1.19369   1.33617 
 7                    -11.21307   1.74677   1.4066 
 6                    -7.69617   1.1967    1.32146 
 7                    -6.66657   1.74519   1.37438 
 6                    -5.78592  -2.09638   0.95282 
 7                    -4.78824  -1.47943   1.00094 
 6                    -7.02318  -4.23047   0.74646 
 7                    -7.05735  -5.41045   0.61866 
 6                    -10.85531  -4.25644   0.81737 
 7                    -10.82318  -5.402     0.72815 
 6                    -12.09719  -2.09652   1.0019 
 7                    -13.09025  -1.48282   1.04967 
 

 GradGradGradGradGradGradGradGradGradGradGradGradGradGradGradGradGradGrad
 Berny optimization.
 Initialization pass.
 Trust Radius=3.00D-01 FncErr=1.00D-07 GrdErr=1.00D-07 EigMax=2.50D+02 EigMin=1.00D-04
 Number of steps in this run=      2 maximum allowed number of steps=      2.
 GradGradGradGradGradGradGradGradGradGradGradGradGradGradGradGradGradGrad

                          Input orientation:                          
 ---------------------------------------------------------------------
 Center     Atomic      Atomic             Coordinates (Angstroms)
 Number     Number       Type             X           Y           Z
 ---------------------------------------------------------------------
      1          6           0       -8.935764   -0.870471    1.115711
      2          6           0       -8.938318    0.511583    1.253418
      3          6           0       -8.200639   -2.137713    0.979226
      4          6           0       -6.998510   -2.827771    0.898783
      5          6           0       -9.681937   -2.144033    0.991492
      6          6           0      -10.882904   -2.829631    0.935589
      7          6           0      -10.175395    1.193693    1.336169
      8          7           0      -11.213068    1.746773    1.406597
      9          6           0       -7.696172    1.196702    1.321463
     10          7           0       -6.666571    1.745188    1.374379
     11          6           0       -5.785916   -2.096380    0.952823
     12          7           0       -4.788241   -1.479427    1.000944
     13          6           0       -7.023178   -4.230474    0.746457
     14          7           0       -7.057352   -5.410448    0.618661
     15          6           0      -10.855312   -4.256436    0.817373
     16          7           0      -10.823181   -5.402002    0.728151
     17          6           0      -12.097188   -2.096515    1.001898
     18          7           0      -13.090249   -1.482816    1.049669
 ---------------------------------------------------------------------
                    Distance matrix (angstroms):
                    1          2          3          4          5
     1  C    0.000000
     2  C    1.388900   0.000000
     3  C    1.471373   2.763715   0.000000
     4  C    2.762433   3.878131   1.388440   0.000000
     5  C    1.481272   2.770176   1.481362   2.770718   0.000000
     6  C    2.768052   3.878936   2.770416   3.884570   1.384013
     7  C    2.417862   1.415090   3.889130   5.143547   3.391566
     8  N    3.481479   2.593000   4.934228   6.240740   4.201791
     9  C    2.419117   1.420192   3.389681   4.106309   3.900341
    10  N    3.472437   2.587904   4.193618   4.609591   4.936100
    11  C    3.383922   4.102374   2.415222   1.417122   3.896505
    12  N    4.193560   4.609881   3.475381   2.591091   4.938629
    13  C    3.883806   5.139248   2.412518   1.411165   3.388551
    14  N    4.938307   6.245910   3.485384   2.598490   4.206770
    15  C    3.903643   5.157422   3.400363   4.113713   2.422678
    16  N    4.924156   6.228892   4.194800   4.613447   3.462101
    17  C    3.392748   4.104131   3.896832   5.151882   2.415740
    18  N    4.199890   4.610604   4.933776   6.240270   3.472346
                    6          7          8          9         10
     6  C    0.000000
     7  C    4.104652   0.000000
     8  N    4.612411   1.177975   0.000000
     9  C    5.149323   2.479268   3.560672   0.000000
    10  N    6.236904   3.552105   4.546611   1.167782   0.000000
    11  C    5.149490   5.499005   6.665562   3.824835   3.963699
    12  N    6.242776   6.023236   7.200787   3.964904   3.750430
    13  C    4.110428   6.301255   7.329287   5.498890   6.019135
    14  N    4.625571   7.338370   8.313641   6.675062   7.206035
    15  C    1.431960   5.516823   6.042657   6.322261   7.339979
    16  N    2.581412   6.655261   7.191473   7.326192   8.293210
    17  C    1.419979   3.824983   3.964381   5.506027   6.662508
    18  N    2.588300   3.967638   3.752526   6.029076   7.196463
                   11         12         13         14         15
    11  C    0.000000
    12  N    1.174011   0.000000
    13  C    2.475431   3.553585   0.000000
    14  N    3.565285   4.554989   1.187366   0.000000
    15  C    5.512074   6.674940   3.832878   3.974383   0.000000
    16  N    6.029233   7.202882   3.976535   3.767429   1.149484
    17  C    6.311463   7.334951   5.510408   6.043919   2.498312
    18  N    7.330698   8.302152   6.667152   7.211651   3.569577
                   16         17         18
    16  N    0.000000
    17  C    3.553065   0.000000
    18  N    4.539052   1.168367   0.000000
 Symmetry turned off by external request.
 Stoichiometry    C12N6(2-)
 Framework group  C1[X(C12N6)]
 Deg. of freedom    48
 Full point group                 C1      NOp   1
 Rotational constants (GHZ):           0.4236440           0.4230986           0.2117019
 Standard basis: def2SVP (5D, 7F)
   252 basis functions,   450 primitive gaussians,   270 cartesian basis functions
    58 alpha electrons       58 beta electrons
       nuclear repulsion energy       957.5474759064 Hartrees.
 NAtoms=   18 NActive=   18 NUniq=   18 SFac= 1.00D+00 NAtFMM=   60 NAOKFM=F Big=F
 Integral buffers will be    131072 words long.
 Raffenetti 2 integral format.
 Two-electron integral symmetry is turned off.
 Nuclear repulsion after empirical dispersion term =      957.5359358434 Hartrees.
 Force PCM accuracy= 1.00D-10.
 ------------------------------------------------------------------------------
 Polarizable Continuum Model (PCM)
 =================================
 Model                : PCM (using non-symmetric T matrix).
 Atomic radii         : SMD-Coulomb.
 Polarization charges : Total charges.
 Charge compensation  : None.
 Solution method      : On-the-fly selection.
 Cavity type          : VdW (van der Waals Surface) (Alpha=1.000).
 Cavity algorithm     : GePol (No added spheres)
                        Default sphere list used, NSphG=   18.
                        Lebedev-Laikov grids with approx.  5.0 points / Ang**2.
                        Smoothing algorithm: York/Karplus (Gamma=1.0000).
                        Polarization charges: spherical gaussians, with
                                              point-specific exponents (IZeta= 3).
                        Self-potential: point-specific (ISelfS= 7).
                        Self-field    : sphere-specific E.n sum rule (ISelfD= 2).
 1st derivatives      : Analytical E(r).r(x)/FMM algorithm (CHGder, D1EAlg=3).
                        Cavity 1st derivative terms included.
 Solvent              : Acetonitrile, Eps=  35.688000 Eps(inf)=   1.806874
 ------------------------------------------------------------------------------
 Spheres list:
 ISph  on   Nord     Re0    Alpha      Xe            Ye            Ze
    1   C      1    1.8500  1.000     -8.935764     -0.870471      1.115711
    2   C      2    1.8500  1.000     -8.938318      0.511583      1.253418
    3   C      3    1.8500  1.000     -8.200639     -2.137713      0.979226
    4   C      4    1.8500  1.000     -6.998510     -2.827771      0.898783
    5   C      5    1.8500  1.000     -9.681937     -2.144033      0.991492
    6   C      6    1.8500  1.000    -10.882904     -2.829631      0.935589
    7   C      7    1.8500  1.000    -10.175395      1.193693      1.336169
    8   N      8    1.8900  1.000    -11.213068      1.746773      1.406597
    9   C      9    1.8500  1.000     -7.696172      1.196702      1.321463
   10   N     10    1.8900  1.000     -6.666571      1.745188      1.374379
   11   C     11    1.8500  1.000     -5.785916     -2.096380      0.952823
   12   N     12    1.8900  1.000     -4.788241     -1.479427      1.000944
   13   C     13    1.8500  1.000     -7.023178     -4.230474      0.746457
   14   N     14    1.8900  1.000     -7.057352     -5.410448      0.618661
   15   C     15    1.8500  1.000    -10.855312     -4.256436      0.817373
   16   N     16    1.8900  1.000    -10.823181     -5.402002      0.728151
   17   C     17    1.8500  1.000    -12.097188     -2.096515      1.001898
   18   N     18    1.8900  1.000    -13.090249     -1.482816      1.049669
 ------------------------------------------------------------------------------
 ------------------------------------------------------------------------------
 Atomic radii for non-electrostatic terms: SMD-CDS.
 ------------------------------------------------------------------------------
 Nuclear repulsion after PCM non-electrostatic terms =      957.5447349629 Hartrees.
 One-electron integrals computed using PRISM.
   1 Symmetry operations used in ECPInt.
 ECPInt:  NShTT=    5886 NPrTT=   23670 LenC2=    5398 LenP2D=   14904.
 LDataN:  DoStor=T MaxTD1= 4 Len=   56
 NBasis=   252 RedAO= T EigKep=  2.07D-04  NBF=   252
 NBsUse=   252 1.00D-06 EigRej= -1.00D+00 NBFU=   252
 Initial guess from the checkpoint file:  "a.chk"
 B after Tr=    -0.000225    0.000176   -0.001532
         Rot=    1.000000   -0.000036   -0.000052   -0.000001 Ang=  -0.01 deg.
 Requested convergence on RMS density matrix=1.00D-08 within  64 cycles.
 Requested convergence on MAX density matrix=1.00D-06.
 Requested convergence on             energy=1.00D-06.
 No special actions if energy rises.
 Inv3:  Mode=1 IEnd=    19293888.
 Iteration    1 A*A^-1 deviation from unit magnitude is 4.11D-15 for   1279.
 Iteration    1 A*A^-1 deviation from orthogonality  is 4.24D-15 for   1408   1138.
 Iteration    1 A^-1*A deviation from unit magnitude is 3.33D-15 for   2008.
 Iteration    1 A^-1*A deviation from orthogonality  is 3.01D-12 for    806    787.
 Error on total polarization charges =  0.02180
 SCF Done:  E(RwB97XD) =  -785.011926251     A.U. after   13 cycles
            NFock= 13  Conv=0.39D-08     -V/T= 2.0105
 SMD-CDS (non-electrostatic) energy       (kcal/mol) =       5.52
 (included in total energy above)
 QCSCF skips out because SCF is already converged.

 **********************************************************************

            Population analysis using the SCF Density.

 **********************************************************************

 Alpha  occ. eigenvalues --  -14.43364 -14.43212 -14.43201 -14.43122 -14.43083
 Alpha  occ. eigenvalues --  -14.42875 -10.35933 -10.35847 -10.35829 -10.34336
 Alpha  occ. eigenvalues --  -10.34170 -10.34140 -10.34063 -10.34017 -10.33782
 Alpha  occ. eigenvalues --  -10.33226 -10.33051 -10.33028  -1.00142  -0.99294
 Alpha  occ. eigenvalues --   -0.98800  -0.98297  -0.97734  -0.97443  -0.97039
 Alpha  occ. eigenvalues --   -0.88586  -0.88543  -0.85309  -0.68659  -0.68542
 Alpha  occ. eigenvalues --   -0.65843  -0.65734  -0.65506  -0.63363  -0.51209
 Alpha  occ. eigenvalues --   -0.47843  -0.47709  -0.46228  -0.46095  -0.45378
 Alpha  occ. eigenvalues --   -0.45264  -0.45230  -0.44698  -0.43980  -0.43772
 Alpha  occ. eigenvalues --   -0.42759  -0.42624  -0.42455  -0.42134  -0.42063
 Alpha  occ. eigenvalues --   -0.41986  -0.41826  -0.40535  -0.39768  -0.39679
 Alpha  occ. eigenvalues --   -0.31959  -0.31727  -0.23130
 Alpha virt. eigenvalues --    0.06524   0.06570   0.08446   0.08692   0.09097
 Alpha virt. eigenvalues --    0.11729   0.11837   0.12154   0.12739   0.13930
 Alpha virt. eigenvalues --    0.14428   0.16408   0.20974   0.21062   0.23917
 Alpha virt. eigenvalues --    0.25494   0.27698   0.27799   0.28040   0.28108
 Alpha virt. eigenvalues --    0.30342   0.32542   0.32867   0.33795   0.33975
 Alpha virt. eigenvalues --    0.34357   0.35939   0.48967   0.49048   0.51175
 Alpha virt. eigenvalues --    0.51377   0.54238   0.54732   0.54785   0.54874
 Alpha virt. eigenvalues --    0.57008   0.57221   0.57678   0.59269   0.61539
 Alpha virt. eigenvalues --    0.61725   0.62043   0.63308   0.63616   0.65359
 Alpha virt. eigenvalues --    0.66223   0.70602   0.71390   0.71513   0.72855
 Alpha virt. eigenvalues --    0.72886   0.74163   0.74267   0.74525   0.74865
 Alpha virt. eigenvalues --    0.74938   0.74963   0.75890   0.76025   0.77420
 Alpha virt. eigenvalues --    0.81279   0.81562   0.81688   0.83085   0.83117
 Alpha virt. eigenvalues --    0.86057   0.86294   0.88094   0.88535   0.94160
 Alpha virt. eigenvalues --    0.94458   0.94818   0.94838   0.95346   0.95835
 Alpha virt. eigenvalues --    0.97697   1.00440   1.00486   1.01046   1.01318
 Alpha virt. eigenvalues --    1.02249   1.02335   1.03777   1.03912   1.04705
 Alpha virt. eigenvalues --    1.07597   1.08205   1.08622   1.09596   1.11050
 Alpha virt. eigenvalues --    1.12437   1.16450   1.18356   1.19024   1.19427
 Alpha virt. eigenvalues --    1.23414   1.23896   1.24297   1.27112   1.34705
 Alpha virt. eigenvalues --    1.36987   1.37263   1.41497   1.41727   1.44268
 Alpha virt. eigenvalues --    1.46778   1.47089   1.48012   1.48955   1.59664
 Alpha virt. eigenvalues --    1.60510   1.68672   1.70471   1.70847   1.70985
 Alpha virt. eigenvalues --    1.71140   1.71462   1.77607   1.77775   1.78960
 Alpha virt. eigenvalues --    1.79156   1.80720   1.81630   1.81873   1.82804
 Alpha virt. eigenvalues --    1.82940   1.82957   1.86970   1.94808   1.95537
 Alpha virt. eigenvalues --    1.96063   1.99985   2.00733   2.00857   2.04998
 Alpha virt. eigenvalues --    2.05355   2.05555   2.06354   2.13730   2.13900
 Alpha virt. eigenvalues --    2.18643   2.22904   2.23628   2.23743   2.27225
 Alpha virt. eigenvalues --    2.27937   2.28017   2.29377   2.35019   2.35429
 Alpha virt. eigenvalues --    2.35479   2.35824   2.35940   2.36312   2.36707
 Alpha virt. eigenvalues --    2.37332   2.37410   2.37921   2.38108   2.38266
 Alpha virt. eigenvalues --    2.39545   2.39998   2.56522   2.59011   2.59378
 Alpha virt. eigenvalues --    2.68324   2.68684   2.92447   2.94984   2.95513
 Alpha virt. eigenvalues --    2.96180   2.99068   2.99671   2.99758   3.02995
 Alpha virt. eigenvalues --    3.04827   3.05988   3.07958   3.08398   3.13524
 Alpha virt. eigenvalues --    3.14242   3.15502   3.23855   3.24712   3.28712
 Alpha virt. eigenvalues --    3.38816   3.39177   3.42016   3.55648   3.58447
 Alpha virt. eigenvalues --    3.59982   3.60973   3.62960   3.73469
          Condensed to atoms (all electrons):
               1          2          3          4          5          6
     1  C    4.962654   0.483004   0.304603  -0.093711   0.305686  -0.091411
     2  C    0.483004   5.497363  -0.093790  -0.005212  -0.089370  -0.005159
     3  C    0.304603  -0.093790   4.965109   0.481173   0.305204  -0.092078
     4  C   -0.093711  -0.005212   0.481173   5.499277  -0.089534  -0.005205
     5  C    0.305686  -0.089370   0.305204  -0.089534   4.947172   0.492571
     6  C   -0.091411  -0.005159  -0.092078  -0.005205   0.492571   5.487712
     7  C    0.013914   0.385266   0.006713  -0.000365  -0.020458   0.001924
     8  N   -0.000903  -0.043032  -0.000020  -0.000001  -0.000389   0.000103
     9  C    0.012420   0.384307  -0.020994   0.001951   0.006583  -0.000363
    10  N   -0.001002  -0.042335  -0.000431   0.000114  -0.000019  -0.000001
    11  C   -0.021406   0.001955   0.012783   0.382629   0.006612  -0.000357
    12  N   -0.000425   0.000110  -0.001041  -0.042570  -0.000020  -0.000001
    13  C    0.006809  -0.000370   0.014368   0.384086  -0.020986   0.001882
    14  N   -0.000020  -0.000001  -0.000925  -0.043523  -0.000394   0.000099
    15  C    0.006497  -0.000351  -0.019516   0.001890   0.010936   0.385434
    16  N   -0.000026  -0.000001  -0.000433   0.000107  -0.001257  -0.040146
    17  C   -0.020236   0.001957   0.006390  -0.000366   0.013036   0.387936
    18  N   -0.000411   0.000111  -0.000027  -0.000001  -0.001111  -0.041692
               7          8          9         10         11         12
     1  C    0.013914  -0.000903   0.012420  -0.001002  -0.021406  -0.000425
     2  C    0.385266  -0.043032   0.384307  -0.042335   0.001955   0.000110
     3  C    0.006713  -0.000020  -0.020994  -0.000431   0.012783  -0.001041
     4  C   -0.000365  -0.000001   0.001951   0.000114   0.382629  -0.042570
     5  C   -0.020458  -0.000389   0.006583  -0.000019   0.006612  -0.000020
     6  C    0.001924   0.000103  -0.000363  -0.000001  -0.000357  -0.000001
     7  C    4.865340   0.906770  -0.049696   0.002554   0.000103   0.000002
     8  N    0.906770   6.191995   0.002521   0.000075   0.000000   0.000000
     9  C   -0.049696   0.002521   4.863516   0.918745  -0.000153   0.000227
    10  N    0.002554   0.000075   0.918745   6.164996   0.000183  -0.000867
    11  C    0.000103   0.000000  -0.000153   0.000183   4.868220   0.911913
    12  N    0.000002   0.000000   0.000227  -0.000867   0.911913   6.178537
    13  C   -0.000011  -0.000000   0.000103   0.000002  -0.050414   0.002711
    14  N   -0.000000  -0.000000   0.000000   0.000000   0.002672   0.000077
    15  C    0.000096   0.000002  -0.000011  -0.000000   0.000096   0.000000
    16  N    0.000000   0.000000  -0.000000  -0.000000   0.000002   0.000000
    17  C   -0.000118   0.000267   0.000100   0.000000  -0.000011  -0.000000
    18  N    0.000133  -0.000857   0.000002   0.000000  -0.000000  -0.000000
              13         14         15         16         17         18
     1  C    0.006809  -0.000020   0.006497  -0.000026  -0.020236  -0.000411
     2  C   -0.000370  -0.000001  -0.000351  -0.000001   0.001957   0.000111
     3  C    0.014368  -0.000925  -0.019516  -0.000433   0.006390  -0.000027
     4  C    0.384086  -0.043523   0.001890   0.000107  -0.000366  -0.000001
     5  C   -0.020986  -0.000394   0.010936  -0.001257   0.013036  -0.001111
     6  C    0.001882   0.000099   0.385434  -0.040146   0.387936  -0.041692
     7  C   -0.000011  -0.000000   0.000096   0.000000  -0.000118   0.000133
     8  N   -0.000000  -0.000000   0.000002   0.000000   0.000267  -0.000857
     9  C    0.000103   0.000000  -0.000011  -0.000000   0.000100   0.000002
    10  N    0.000002   0.000000  -0.000000  -0.000000   0.000000   0.000000
    11  C   -0.050414   0.002672   0.000096   0.000002  -0.000011  -0.000000
    12  N    0.002711   0.000077   0.000000   0.000000  -0.000000  -0.000000
    13  C    4.870859   0.896597  -0.000087   0.000004   0.000102   0.000000
    14  N    0.896597   6.214942   0.000403  -0.000846   0.000002   0.000000
    15  C   -0.000087   0.000403   4.853246   0.939135  -0.050951   0.002148
    16  N    0.000004  -0.000846   0.939135   6.118655   0.002214   0.000069
    17  C    0.000102   0.000002  -0.050951   0.002214   4.861868   0.916794
    18  N    0.000000   0.000000   0.002148   0.000069   0.916794   6.167416
 Mulliken charges:
               1
     1  C    0.133964
     2  C   -0.474450
     3  C    0.132914
     4  C   -0.470737
     5  C    0.135739
     6  C   -0.481246
     7  C   -0.112164
     8  N   -0.056529
     9  C   -0.119258
    10  N   -0.042014
    11  C   -0.114825
    12  N   -0.048654
    13  C   -0.105655
    14  N   -0.069083
    15  C   -0.128967
    16  N   -0.017477
    17  C   -0.118984
    18  N   -0.042574
 Sum of Mulliken charges =  -2.00000
 Mulliken charges with hydrogens summed into heavy atoms:
               1
     1  C    0.133964
     2  C   -0.474450
     3  C    0.132914
     4  C   -0.470737
     5  C    0.135739
     6  C   -0.481246
     7  C   -0.112164
     8  N   -0.056529
     9  C   -0.119258
    10  N   -0.042014
    11  C   -0.114825
    12  N   -0.048654
    13  C   -0.105655
    14  N   -0.069083
    15  C   -0.128967
    16  N   -0.017477
    17  C   -0.118984
    18  N   -0.042574
 Electronic spatial extent (au):  <R**2>=          39393.5560
 Charge=             -2.0000 electrons
 Dipole moment (field-independent basis, Debye):
    X=             85.6800    Y=             16.3202    Z=             -9.9056  Tot=             87.7812
 Quadrupole moment (field-independent basis, Debye-Ang):
   XX=           -963.8136   YY=           -226.4150   ZZ=           -114.1321
   XY=           -144.6657   XZ=             89.2721   YZ=              7.3157
 Traceless Quadrupole moment (field-independent basis, Debye-Ang):
   XX=           -529.0267   YY=            208.3719   ZZ=            320.6548
   XY=           -144.6657   XZ=             89.2721   YZ=              7.3157
 Octapole moment (field-independent basis, Debye-Ang**2):
  XXX=          12167.3005  YYY=           1140.5661  ZZZ=           -331.4427  XYY=           2018.3940
  XXY=           1550.5935  XXZ=          -1015.8821  XZZ=           1021.5236  YZZ=            176.2590
  YYZ=           -194.8364  XYZ=            -66.4994
 Hexadecapole moment (field-independent basis, Debye-Ang**3):
 XXXX=        -161164.9538 YYYY=          -8746.8025 ZZZZ=           -809.0197 XXXY=         -18552.3460
 XXXZ=          12940.8926 YYYX=         -10165.8853 YYYZ=            761.0935 ZZZX=           2979.9259
 ZZZY=            380.3648 XXYY=         -19895.5735 XXZZ=          -9939.3848 YYZZ=          -1044.1469
 XXYZ=            789.9960 YYXZ=           1755.4561 ZZXY=          -1575.8736
 N-N= 9.575447349629D+02 E-N=-3.768383370993D+03  KE= 7.768602906667D+02
   1 Symmetry operations used in ECPInt.
 ECPInt:  NShTT=    5886 NPrTT=   23670 LenC2=    5398 LenP2D=   14904.
 LDataN:  DoStor=T MaxTD1= 5 Len=  102
 D1PCM: PCM CHGder 1st derivatives, ID1Alg=3 FixD1E=F DoIter=F DoCFld=F I1PDM=0.
 Calling FoFJK, ICntrl=      2127 FMM=F ISym2X=0 I1Cent= 0 IOpClX= 0 NMat=1 NMatS=1 NMatT=0.
 -------------------------------------------------------------------
 Center     Atomic                   Forces (Hartrees/Bohr)
 Number     Number              X              Y              Z
 -------------------------------------------------------------------
      1        6          -0.001629279   -0.117149047   -0.012614415
      2        6           0.002529457    0.010921715    0.001498551
      3        6          -0.104709385    0.058094466    0.007280236
      4        6           0.009651022   -0.002258527   -0.000903966
      5        6           0.105552841    0.060378377    0.005479361
      6        6          -0.010079554   -0.012518290   -0.000916093
      7        6          -0.023915908    0.017882078    0.002432890
      8        7           0.026665451   -0.015025802   -0.001918299
      9        6           0.002354213    0.006531484    0.000352973
     10        7          -0.007473928   -0.004801000   -0.000266291
     11        6           0.020634479    0.006535906    0.000759012
     12        7          -0.019692239   -0.011126670   -0.001084053
     13        6           0.003738840   -0.051162430   -0.005442726
     14        7           0.000525585    0.049437795    0.005122778
     15        6          -0.007207479    0.044664905    0.003719644
     16        7           0.002033025   -0.033899145   -0.002646613
     17        6          -0.008173830   -0.001981320   -0.000664628
     18        7           0.009196686   -0.004524497   -0.000188360
 -------------------------------------------------------------------
 Cartesian Forces:  Max     0.117149047 RMS     0.031930832

 GradGradGradGradGradGradGradGradGradGradGradGradGradGradGradGradGradGrad
 Berny optimization.
 Search for a local minimum.
 Step number   1 out of a maximum of    2
 All quantities printed in internal units (Hartrees-Bohrs-Radians)
 Second derivative matrix not updated -- first step.
 ITU=  0
     Eigenvalues ---    0.00134   0.00190   0.00203   0.00298   0.00298
     Eigenvalues ---    0.00793   0.01504   0.01630   0.01947   0.01956
     Eigenvalues ---    0.02946   0.03635   0.05171   0.05212   0.10038
     Eigenvalues ---    0.13449   0.21133   0.21368   0.24154   0.24394
     Eigenvalues ---    0.24729   0.25052   0.25339   0.26275   0.29934
     Eigenvalues ---    0.30148   0.38360   0.42935   0.46214   0.69751
     Eigenvalues ---    0.72130   0.72626   0.75220   0.76283   1.03995
     Eigenvalues ---    1.04196   1.10989   1.47449   1.49003   1.77921
     Eigenvalues ---    2.53544   2.62858   2.68664   2.73656   2.75435
     Eigenvalues ---    2.96747 155.62990 205.15749
 Angle between quadratic step and forces=  55.82 degrees.
 Linear search not attempted -- first point.
 B after Tr=    -0.000022    0.000044    0.000165
         Rot=    1.000000    0.000008    0.000007   -0.000005 Ang=   0.00 deg.
 Variable       Old X    -DE/DX   Delta X   Delta X   Delta X     New X
                                 (Linear)    (Quad)   (Total)
    X1      -16.88615  -0.00163   0.00000  -0.00075  -0.00078 -16.88693
    Y1       -1.64495  -0.11715   0.00000  -0.09071  -0.09080  -1.73575
    Z1        2.10839  -0.01261   0.00000  -0.00914  -0.00918   2.09920
    X2      -16.89097   0.00253   0.00000  -0.00259  -0.00265 -16.89362
    Y2        0.96675   0.01092   0.00000  -0.05844  -0.05852   0.90823
    Z2        2.36862   0.00150   0.00000  -0.00099  -0.00108   2.36754
    X3      -15.49696  -0.10471   0.00000  -0.08443  -0.08444 -15.58140
    Y3       -4.03969   0.05809   0.00000   0.05047   0.05040  -3.98930
    Z3        1.85047   0.00728   0.00000   0.00532   0.00533   1.85580
    X4      -13.22527   0.00965   0.00000  -0.05643  -0.05643 -13.28169
    Y4       -5.34371  -0.00226   0.00000   0.02739   0.02734  -5.31637
    Z4        1.69845  -0.00090   0.00000  -0.00267  -0.00261   1.69585
    X5      -18.29621   0.10555   0.00000   0.09146   0.09145 -18.20476
    Y5       -4.05164   0.06038   0.00000   0.05630   0.05620  -3.99544
    Z5        1.87365   0.00548   0.00000   0.00619   0.00616   1.87981
    X6      -20.56571  -0.01008   0.00000   0.06369   0.06369 -20.50202
    Y6       -5.34723  -0.01252   0.00000   0.03630   0.03617  -5.31105
    Z6        1.76801  -0.00092   0.00000   0.00528   0.00524   1.77325
    X7      -19.22871  -0.02392   0.00000   0.01283   0.01275 -19.21596
    Y7        2.25575   0.01788   0.00000  -0.03623  -0.03633   2.21942
    Z7        2.52499   0.00243   0.00000   0.00704   0.00690   2.53190
    X8      -21.18963   0.02667   0.00000   0.04045   0.04036 -21.14926
    Y8        3.30092  -0.01503   0.00000  -0.04117  -0.04129   3.25964
    Z8        2.65808  -0.00192   0.00000   0.01351   0.01333   2.67141
    X9      -14.54366   0.00235   0.00000  -0.02772  -0.02780 -14.57146
    Y9        2.26144   0.00653   0.00000  -0.03099  -0.03105   2.23039
    Z9        2.49720   0.00035   0.00000   0.00229   0.00222   2.49942
   X10      -12.59799  -0.00747   0.00000  -0.04190  -0.04199 -12.63999
   Y10        3.29793  -0.00480   0.00000  -0.01975  -0.01979   3.27814
   Z10        2.59720  -0.00027   0.00000   0.00260   0.00253   2.59973
   X11      -10.93380   0.02063   0.00000  -0.03699  -0.03699 -10.97079
   Y11       -3.96158   0.00654   0.00000  -0.01208  -0.01211  -3.97370
   Z11        1.80057   0.00076   0.00000  -0.00091  -0.00084   1.79974
   X12       -9.04846  -0.01969   0.00000  -0.04328  -0.04330  -9.09176
   Y12       -2.79571  -0.01113   0.00000  -0.03798  -0.03799  -2.83370
   Z12        1.89151  -0.00108   0.00000  -0.00215  -0.00207   1.88944
   X13      -13.27188   0.00374   0.00000  -0.03123  -0.03120 -13.30308
   Y13       -7.99444  -0.05116   0.00000   0.02447   0.02441  -7.97003
   Z13        1.41060  -0.00544   0.00000  -0.01512  -0.01502   1.39558
   X14      -13.33646   0.00053   0.00000  -0.02661  -0.02655 -13.36301
   Y14      -10.22426   0.04944   0.00000   0.07012   0.07006 -10.15421
   Z14        1.16910   0.00512   0.00000  -0.02353  -0.02340   1.14570
   X15      -20.51357  -0.00721   0.00000   0.02823   0.02826 -20.48530
   Y15       -8.04350   0.04466   0.00000   0.05985   0.05972  -7.98378
   Z15        1.54461   0.00372   0.00000   0.03750   0.03750   1.58211
   X16      -20.45285   0.00203   0.00000   0.02124   0.02129 -20.43156
   Y16      -10.20830  -0.03390   0.00000   0.03256   0.03243 -10.17587
   Z16        1.37601  -0.00265   0.00000   0.06021   0.06024   1.43624
   X17      -22.86037  -0.00817   0.00000   0.04847   0.04846 -22.81191
   Y17       -3.96184  -0.00198   0.00000  -0.00528  -0.00542  -3.96726
   Z17        1.89331  -0.00066   0.00000  -0.02937  -0.02946   1.86385
   X18      -24.73699   0.00920   0.00000   0.04590   0.04587 -24.69111
   Y18       -2.80212  -0.00452   0.00000  -0.02326  -0.02342  -2.82553
   Z18        1.98359  -0.00019   0.00000  -0.05566  -0.05580   1.92779
         Item               Value     Threshold  Converged?
 Maximum Force            0.117149     0.000450     NO 
 RMS     Force            0.031931     0.000300     NO 
 Maximum Displacement     0.091447     0.001800     NO 
 RMS     Displacement     0.039442     0.001200     NO 
 Predicted change in Energy=-1.910244D-02
 GradGradGradGradGradGradGradGradGradGradGradGradGradGradGradGradGradGrad

 Unable to Open any file for archive entry.
 1\1\GINC-X10P1N4\Force\RwB97XD\def2SVP\C12N6(2-)\MAYUMIAO\11-Oct-2024\
 0\\# wb97xd def2svp scrf=(smd,solvent=acetonitrile) g09default scf=(xq
 c,maxcycle=64) force guess=read nosymm\\Title Card\\-2,1\C,-8.93576398
 ,-0.87047105,1.11571089\C,-8.93831796,0.5115828,1.25341843\C,-8.200639
 22,-2.13771291,0.9792262\C,-6.99850959,-2.82777064,0.89878347\C,-9.681
 9374,-2.1440335,0.99149237\C,-10.88290446,-2.82963145,0.93558941\C,-10
 .17539487,1.1936925,1.33616947\N,-11.21306794,1.7467734,1.40659739\C,-
 7.69617214,1.19670211,1.32146278\N,-6.66657127,1.74518804,1.37437948\C
 ,-5.78591572,-2.09638026,0.95282323\N,-4.78824069,-1.47942728,1.000943
 66\C,-7.023178,-4.23047355,0.74645652\N,-7.05735249,-5.41044756,0.6186
 6058\C,-10.85531173,-4.25643627,0.81737335\N,-10.82318076,-5.4020018,0
 .72815074\C,-12.09718755,-2.0965152,1.0018981\N,-13.09024945,-1.482815
 54,1.04966886\\Version=ES64L-G16RevC.01\HF=-785.0119263\RMSD=3.866e-09
 \RMSF=3.193e-02\Dipole=-0.0771273,-0.060679,-0.0066025\Quadrupole=-393
 .3183812,154.919399,238.3989822,-107.5554009,66.3716387,5.4390483\PG=C
 01 [X(C12N6)]\\@
 The archive entry for this job was punched.


 NOTHING RESEMBLES A NEW PHENOMENON AS MUCH AS A MISTAKE.

                               -- ENRICO FERMI (?)
 Job cpu time:       0 days  0 hours  9 minutes 41.1 seconds.
 Elapsed time:       0 days  0 hours  0 minutes 22.1 seconds.
 File lengths (MBytes):  RWF=    148 Int=      0 D2E=      0 Chk=      8 Scr=      1
 Normal termination of Gaussian 16 at Fri Oct 11 15:36:12 2024.
