 Entering Gaussian System, Link 0=g16
 Input=JOBS/77_B.gjf
 Output=JOBS/77_B.log
 Initial command:
 /data/app/gaussian/C01-avx2//g16/l1.exe "/tmp/Gau-728182.inp" -scrdir="/tmp/"
 Entering Link 1 = /data/app/gaussian/C01-avx2//g16/l1.exe PID=    728183.
  
 Copyright (c) 1988-2019, Gaussian, Inc.  All Rights Reserved.
  
 This is part of the Gaussian(R) 16 program.  It is based on
 the Gaussian(R) 09 system (copyright 2009, Gaussian, Inc.),
 the Gaussian(R) 03 system (copyright 2003, Gaussian, Inc.),
 the Gaussian(R) 98 system (copyright 1998, Gaussian, Inc.),
 the Gaussian(R) 94 system (copyright 1995, Gaussian, Inc.),
 the Gaussian 92(TM) system (copyright 1992, Gaussian, Inc.),
 the Gaussian 90(TM) system (copyright 1990, Gaussian, Inc.),
 the Gaussian 88(TM) system (copyright 1988, Gaussian, Inc.),
 the Gaussian 86(TM) system (copyright 1986, Carnegie Mellon
 University), and the Gaussian 82(TM) system (copyright 1983,
 Carnegie Mellon University). Gaussian is a federally registered
 trademark of Gaussian, Inc.
  
 This software contains proprietary and confidential information,
 including trade secrets, belonging to Gaussian, Inc.
  
 This software is provided under written license and may be
 used, copied, transmitted, or stored only in accord with that
 written license.
  
 The following legend is applicable only to US Government
 contracts under FAR:
  
                    RESTRICTED RIGHTS LEGEND
  
 Use, reproduction and disclosure by the US Government is
 subject to restrictions as set forth in subparagraphs (a)
 and (c) of the Commercial Computer Software - Restricted
 Rights clause in FAR 52.227-19.
  
 Gaussian, Inc.
 340 Quinnipiac St., Bldg. 40, Wallingford CT 06492
  
  
 ---------------------------------------------------------------
 Warning -- This program may not be used in any manner that
 competes with the business of Gaussian, Inc. or will provide
 assistance to any competitor of Gaussian, Inc.  The licensee
 of this program is prohibited from giving any competitor of
 Gaussian, Inc. access to this program.  By using this program,
 the user acknowledges that Gaussian, Inc. is engaged in the
 business of creating and licensing software in the field of
 computational chemistry and represents and warrants to the
 licensee that it is not a competitor of Gaussian, Inc. and that
 it will not use this program in any manner prohibited above.
 ---------------------------------------------------------------
  

 Cite this work as:
 Gaussian 16, Revision C.01,
 M. J. Frisch, G. W. Trucks, H. B. Schlegel, G. E. Scuseria, 
 M. A. Robb, J. R. Cheeseman, G. Scalmani, V. Barone, 
 G. A. Petersson, H. Nakatsuji, X. Li, M. Caricato, A. V. Marenich, 
 J. Bloino, B. G. Janesko, R. Gomperts, B. Mennucci, H. P. Hratchian, 
 J. V. Ortiz, A. F. Izmaylov, J. L. Sonnenberg, D. Williams-Young, 
 F. Ding, F. Lipparini, F. Egidi, J. Goings, B. Peng, A. Petrone, 
 T. Henderson, D. Ranasinghe, V. G. Zakrzewski, J. Gao, N. Rega, 
 G. Zheng, W. Liang, M. Hada, M. Ehara, K. Toyota, R. Fukuda, 
 J. Hasegawa, M. Ishida, T. Nakajima, Y. Honda, O. Kitao, H. Nakai, 
 T. Vreven, K. Throssell, J. A. Montgomery, Jr., J. E. Peralta, 
 F. Ogliaro, M. J. Bearpark, J. J. Heyd, E. N. Brothers, K. N. Kudin, 
 V. N. Staroverov, T. A. Keith, R. Kobayashi, J. Normand, 
 K. Raghavachari, A. P. Rendell, J. C. Burant, S. S. Iyengar, 
 J. Tomasi, M. Cossi, J. M. Millam, M. Klene, C. Adamo, R. Cammi, 
 J. W. Ochterski, R. L. Martin, K. Morokuma, O. Farkas, 
 J. B. Foresman, and D. J. Fox, Gaussian, Inc., Wallingford CT, 2019.
 
 ******************************************
 Gaussian 16:  ES64L-G16RevC.01  3-Jul-2019
                 3-Jun-2024 
 ******************************************
 %chk=b.chk
 %nprocshared=56
 Will use up to   56 processors via shared memory.
 %mem=96gb
 ----------------------------------------------------------------------
 # def2svp wb97xd scrf=(smd,solvent=acetonitrile) g09default scf=(xqc,m
 axcycle=64) force guess=read nosymm
 ----------------------------------------------------------------------
 1/10=7,30=1,38=1,158=3,167=1/1,3;
 2/12=2,15=1,17=6,18=5,40=1/2;
 3/5=43,7=101,11=2,25=1,27=10,30=1,70=32201,71=1,72=2,74=-58,75=-4,116=-2,158=3/1,2,3;
 4/5=1,60=-1/1;
 5/5=2,7=64,8=3,13=1,38=6,53=2,87=10/2,8;
 6/7=2,8=2,9=2,10=2,28=1,87=10/1;
 7/29=1,30=1,87=10/1,2,3,16;
 1/10=7,30=1,158=3,167=1/3;
 99//99;
 Using 2006 physical constants.
 ----------
 Title Card
 ----------
 Symbolic Z-matrix:
 Charge = -1 Multiplicity = 1
 17                   -9.72416   8.28528   10.54292 
 6                    -8.40711   4.30759   12.19671 
 6                    -9.22546   3.98896   11.09643 
 6                    -10.12248   2.91236   11.22971 
 6                    -10.20965   2.19394   12.41894 
 6                    -9.39242   2.52594   13.50051 
 6                    -8.48867   3.58409   13.38153 
 1                    -7.69859   5.13542   12.12739 
 1                    -10.76631   2.64535   10.38669 
 1                    -10.92095   1.36877   12.50507 
 1                    -9.44916   1.95538   14.42982 
 1                    -7.84536   3.85325   14.22289 
 6                    -9.18758   4.75028   9.84551 
 6                    -8.44529   5.85386   9.61746 
 1                    -9.84629   4.38534   9.04934 
 1                    -8.46587   6.35531   8.6495 
 1                    -7.73617   6.24356   10.34872 
 8                    -0.97229  -1.83093   7.44879 
 8                    -8.37081  -1.31764   7.45791 
 8                    -7.00354   1.32552   10.49607 
 8                    -2.32164  -4.40171   10.5564 
 74                   -3.36719   0.71782   6.51632 
 74                   -6.00005  -3.85139   6.58339 
 74                   -3.57144   0.88152   11.39006 
 74                   -5.77032  -3.90356   11.45784 
 74                   -2.45304  -2.58755   6.3653 
 74                   -6.8919   -0.54804   6.34281 
 74                   -6.76912  -0.27414   11.60138 
 74                   -2.55901  -2.74604   11.62966 
 8                    -3.11839   1.91747   5.35548 
 8                    -6.14758  -5.10213   5.44337 
 8                    -2.64449   1.72706   12.53598 
 8                    -6.68019  -4.72285   12.63369 
 8                    -2.65554  -0.90526   5.58726 
 8                    -6.68546  -2.28298   5.62322 
 8                    -5.26337   0.53617   12.36541 
 8                    -4.05541  -3.5547    12.4069 
 8                     0.35416  -0.09828   9.26508 
 8                    -9.70038  -2.98898   9.31936 
 8                    -6.38532   3.40553   8.68648 
 8                    -2.96299  -6.49366   8.74486 
 8                    -1.74945   0.7274    7.49047 
 8                    -7.60242  -3.87922   7.55443 
 8                    -4.47651   2.19137   10.42357 
 8                    -4.85963  -5.24722   10.51141 
 8                    -1.63127  -3.52087   5.20631 
 8                    -7.76304   0.25658   5.14147 
 8                    -7.98054  -0.17367   12.78693 
 8                    -1.32909  -2.87606   12.79511 
 74                   -1.2132   -0.59639   8.83661 
 74                   -8.1336   -2.50142   8.87546 
 74                   -5.89236   1.8366    9.05508 
 74                   -3.45482  -4.92014   9.15756 
 8                    -4.22124  -3.12469   6.06408 
 8                    -5.12037  -0.05311   6.01843 
 8                    -6.1577   -2.028     11.92326 
 8                    -3.14994  -0.99564   11.92344 
 8                    -4.33824   1.58088   7.85368 
 8                    -4.9986   -4.70431   7.92113 
 8                    -2.2839    0.54639   10.07354 
 8                    -7.05389  -3.62303   10.13003 
 8                    -2.56542  -3.91637   7.85007 
 8                    -6.79295   0.78154   7.80171 
 8                    -7.80521  -1.17754   10.16044 
 8                    -1.53862  -1.89889   10.14935 
 8                    -3.34224  -1.17021   8.01293 
 8                    -6.00199  -1.96882   8.03732 
 8                    -5.09214  -0.22201   9.94822 
 8                    -4.22904  -2.85844   9.97514 
 19                   -3.22717  -6.15402   5.64824 
 19                   -0.11715  -0.04163   12.32692 
 19                   -9.3018   -2.82278   12.39071 
 23                   -4.66842  -1.55065   8.99065 
 

 GradGradGradGradGradGradGradGradGradGradGradGradGradGradGradGradGradGrad
 Berny optimization.
 Initialization pass.
 Trust Radius=3.00D-01 FncErr=1.00D-07 GrdErr=1.00D-07 EigMax=2.50D+02 EigMin=1.00D-04
 Number of steps in this run=      2 maximum allowed number of steps=      2.
 GradGradGradGradGradGradGradGradGradGradGradGradGradGradGradGradGradGrad

 Symmetry turned off by external request.
 Stoichiometry    C8H8ClK3O40VW12(1-)
 Framework group  C1[X(C8H8ClK3O40VW12)]
 Deg. of freedom   213
 Full point group                 C1      NOp   1
                          Input orientation:                          
 ---------------------------------------------------------------------
 Center     Atomic      Atomic             Coordinates (Angstroms)
 Number     Number       Type             X           Y           Z
 ---------------------------------------------------------------------
      1         17           0       -9.724159    8.285278   10.542920
      2          6           0       -8.407112    4.307592   12.196710
      3          6           0       -9.225458    3.988962   11.096430
      4          6           0      -10.122479    2.912356   11.229711
      5          6           0      -10.209652    2.193939   12.418940
      6          6           0       -9.392422    2.525940   13.500508
      7          6           0       -8.488670    3.584094   13.381526
      8          1           0       -7.698593    5.135416   12.127387
      9          1           0      -10.766310    2.645349   10.386687
     10          1           0      -10.920950    1.368767   12.505069
     11          1           0       -9.449158    1.955383   14.429825
     12          1           0       -7.845364    3.853254   14.222888
     13          6           0       -9.187579    4.750285    9.845510
     14          6           0       -8.445285    5.853857    9.617460
     15          1           0       -9.846290    4.385338    9.049344
     16          1           0       -8.465869    6.355310    8.649499
     17          1           0       -7.736174    6.243561   10.348716
     18          8           0       -0.972292   -1.830928    7.448785
     19          8           0       -8.370813   -1.317638    7.457908
     20          8           0       -7.003535    1.325524   10.496073
     21          8           0       -2.321640   -4.401713   10.556399
     22         74           0       -3.367191    0.717824    6.516322
     23         74           0       -6.000045   -3.851386    6.583389
     24         74           0       -3.571442    0.881525   11.390063
     25         74           0       -5.770318   -3.903558   11.457840
     26         74           0       -2.453042   -2.587545    6.365303
     27         74           0       -6.891895   -0.548044    6.342809
     28         74           0       -6.769117   -0.274140   11.601381
     29         74           0       -2.559011   -2.746037   11.629658
     30          8           0       -3.118393    1.917470    5.355480
     31          8           0       -6.147580   -5.102135    5.443371
     32          8           0       -2.644489    1.727058   12.535979
     33          8           0       -6.680187   -4.722852   12.633694
     34          8           0       -2.655538   -0.905257    5.587259
     35          8           0       -6.685465   -2.282984    5.623222
     36          8           0       -5.263368    0.536170   12.365414
     37          8           0       -4.055414   -3.554700   12.406903
     38          8           0        0.354156   -0.098277    9.265076
     39          8           0       -9.700377   -2.988979    9.319361
     40          8           0       -6.385325    3.405529    8.686479
     41          8           0       -2.962986   -6.493655    8.744865
     42          8           0       -1.749447    0.727404    7.490468
     43          8           0       -7.602422   -3.879215    7.554434
     44          8           0       -4.476509    2.191370   10.423574
     45          8           0       -4.859629   -5.247219   10.511408
     46          8           0       -1.631267   -3.520874    5.206313
     47          8           0       -7.763045    0.256583    5.141474
     48          8           0       -7.980538   -0.173670   12.786926
     49          8           0       -1.329088   -2.876060   12.795114
     50         74           0       -1.213202   -0.596390    8.836607
     51         74           0       -8.133601   -2.501416    8.875464
     52         74           0       -5.892362    1.836604    9.055084
     53         74           0       -3.454816   -4.920142    9.157557
     54          8           0       -4.221244   -3.124693    6.064080
     55          8           0       -5.120368   -0.053105    6.018434
     56          8           0       -6.157703   -2.028005   11.923256
     57          8           0       -3.149944   -0.995641   11.923442
     58          8           0       -4.338245    1.580876    7.853676
     59          8           0       -4.998596   -4.704307    7.921134
     60          8           0       -2.283900    0.546389   10.073535
     61          8           0       -7.053890   -3.623025   10.130033
     62          8           0       -2.565424   -3.916370    7.850068
     63          8           0       -6.792949    0.781535    7.801713
     64          8           0       -7.805206   -1.177539   10.160443
     65          8           0       -1.538617   -1.898893   10.149352
     66          8           0       -3.342238   -1.170207    8.012930
     67          8           0       -6.001987   -1.968815    8.037317
     68          8           0       -5.092136   -0.222006    9.948223
     69          8           0       -4.229039   -2.858443    9.975141
     70         19           0       -3.227167   -6.154021    5.648239
     71         19           0       -0.117149   -0.041630   12.326916
     72         19           0       -9.301798   -2.822783   12.390707
     73         23           0       -4.668423   -1.550655    8.990647
 ---------------------------------------------------------------------
 Rotational constants (GHZ):           0.0171968           0.0131642           0.0129446
 Standard basis: def2SVP (5D, 7F)
  1217 basis functions,  2313 primitive gaussians,  1337 cartesian basis functions
   321 alpha electrons      321 beta electrons
       nuclear repulsion energy     20951.3464126754 Hartrees.
 NAtoms=   73 NActive=   73 NUniq=   73 SFac= 1.00D+00 NAtFMM=   60 NAOKFM=T Big=T
 Integral buffers will be    131072 words long.
 Raffenetti 2 integral format.
 Two-electron integral symmetry is turned off.
 Nuclear repulsion after empirical dispersion term =    20951.0704700837 Hartrees.
 Force PCM accuracy= 1.00D-10.
 ------------------------------------------------------------------------------
 Polarizable Continuum Model (PCM)
 =================================
 Model                : PCM (using non-symmetric T matrix).
 Atomic radii         : SMD-Coulomb.
 Polarization charges : Total charges.
 Charge compensation  : None.
 Solution method      : On-the-fly selection.
 Cavity type          : VdW (van der Waals Surface) (Alpha=1.000).
 Cavity algorithm     : GePol (No added spheres)
                        Default sphere list used, NSphG=   73.
                        Lebedev-Laikov grids with approx.  5.0 points / Ang**2.
                        Smoothing algorithm: York/Karplus (Gamma=1.0000).
                        Polarization charges: spherical gaussians, with
                                              point-specific exponents (IZeta= 3).
                        Self-potential: point-specific (ISelfS= 7).
                        Self-field    : sphere-specific E.n sum rule (ISelfD= 2).
 1st derivatives      : Analytical E(r).r(x)/FMM algorithm (CHGder, D1EAlg=3).
                        Cavity 1st derivative terms included.
 Solvent              : Acetonitrile, Eps=  35.688000 Eps(inf)=   1.806874
 ------------------------------------------------------------------------------
 ------------------------------------------------------------------------------
 Atomic radii for non-electrostatic terms: SMD-CDS.
 ------------------------------------------------------------------------------
 Nuclear repulsion after PCM non-electrostatic terms =    20951.0646636041 Hartrees.
 One-electron integrals computed using PRISM.
   1 Symmetry operations used in ECPInt.
 ECPInt:  NShTT=  127765 NPrTT=  468030 LenC2=   96359 LenP2D=  220478.
 LDataN:  DoStor=T MaxTD1= 8 Len=  415
 NBasis=  1217 RedAO= T EigKep=  1.38D-04  NBF=  1217
 NBsUse=  1217 1.00D-06 EigRej= -1.00D+00 NBFU=  1217
 Defaulting to unpruned grid for atomic number  74.
 Defaulting to unpruned grid for atomic number  74.
 Defaulting to unpruned grid for atomic number  74.
 Defaulting to unpruned grid for atomic number  74.
 Defaulting to unpruned grid for atomic number  74.
 Defaulting to unpruned grid for atomic number  74.
 Defaulting to unpruned grid for atomic number  74.
 Defaulting to unpruned grid for atomic number  74.
 Initial guess from the checkpoint file:  "b.chk"
 B after Tr=     0.000320    0.000420    0.000215
         Rot=    1.000000   -0.000033   -0.000005    0.000016 Ang=  -0.00 deg.
 Initial guess <Sx>= 0.0000 <Sy>= 0.0000 <Sz>= 0.0000 <S**2>= 1.0215 S= 0.6276
 Requested convergence on RMS density matrix=1.00D-08 within  64 cycles.
 Requested convergence on MAX density matrix=1.00D-06.
 Requested convergence on             energy=1.00D-06.
 No special actions if energy rises.
 Defaulting to unpruned grid for atomic number  74.
 Defaulting to unpruned grid for atomic number  74.
 Defaulting to unpruned grid for atomic number  74.
 Defaulting to unpruned grid for atomic number  74.
 Defaulting to unpruned grid for atomic number  74.
 Defaulting to unpruned grid for atomic number  74.
 Defaulting to unpruned grid for atomic number  74.
 Defaulting to unpruned grid for atomic number  74.
 Defaulting to unpruned grid for atomic number  74.
 Defaulting to unpruned grid for atomic number  74.
 Defaulting to unpruned grid for atomic number  74.
 Defaulting to unpruned grid for atomic number  74.
 Defaulting to unpruned grid for atomic number  74.
 Defaulting to unpruned grid for atomic number  74.
 Defaulting to unpruned grid for atomic number  74.
 Defaulting to unpruned grid for atomic number  74.
 Defaulting to unpruned grid for atomic number  74.
 Defaulting to unpruned grid for atomic number  74.
 Defaulting to unpruned grid for atomic number  74.
 Defaulting to unpruned grid for atomic number  74.
 Defaulting to unpruned grid for atomic number  74.
 Defaulting to unpruned grid for atomic number  74.
 Defaulting to unpruned grid for atomic number  74.
 Defaulting to unpruned grid for atomic number  74.
 Defaulting to unpruned grid for atomic number  74.
 Defaulting to unpruned grid for atomic number  74.
 Defaulting to unpruned grid for atomic number  74.
 Defaulting to unpruned grid for atomic number  74.
 Defaulting to unpruned grid for atomic number  74.
 Defaulting to unpruned grid for atomic number  74.
 Defaulting to unpruned grid for atomic number  74.
 Defaulting to unpruned grid for atomic number  74.
 Defaulting to unpruned grid for atomic number  74.
 Defaulting to unpruned grid for atomic number  74.
 Defaulting to unpruned grid for atomic number  74.
 Defaulting to unpruned grid for atomic number  74.
 Defaulting to unpruned grid for atomic number  74.
 Defaulting to unpruned grid for atomic number  74.
 Defaulting to unpruned grid for atomic number  74.
 Defaulting to unpruned grid for atomic number  74.
 Defaulting to unpruned grid for atomic number  74.
 Defaulting to unpruned grid for atomic number  74.
 Defaulting to unpruned grid for atomic number  74.
 Defaulting to unpruned grid for atomic number  74.
 Defaulting to unpruned grid for atomic number  74.
 Defaulting to unpruned grid for atomic number  74.
 Defaulting to unpruned grid for atomic number  74.
 Defaulting to unpruned grid for atomic number  74.
 Defaulting to unpruned grid for atomic number  74.
 Defaulting to unpruned grid for atomic number  74.
 Defaulting to unpruned grid for atomic number  74.
 Defaulting to unpruned grid for atomic number  74.
 Defaulting to unpruned grid for atomic number  74.
 Defaulting to unpruned grid for atomic number  74.
 Defaulting to unpruned grid for atomic number  74.
 Defaulting to unpruned grid for atomic number  74.
 Inv3:  Mode=1 IEnd=    87934188.
 Iteration    1 A*A^-1 deviation from unit magnitude is 3.44D-15 for   1267.
 Iteration    1 A*A^-1 deviation from orthogonality  is 2.63D-15 for    518    207.
 Iteration    1 A^-1*A deviation from unit magnitude is 4.00D-15 for   2399.
 Iteration    1 A^-1*A deviation from orthogonality  is 8.62D-12 for   4053   4029.
