 Entering Gaussian System, Link 0=g16
 Input=a.gjf
 Output=a.log
 Initial command:
 /data/app/gaussian/C01-avx2//g16/l1.exe "/tmp/Gau-254230.inp" -scrdir="/tmp/"
 Entering Link 1 = /data/app/gaussian/C01-avx2//g16/l1.exe PID=    254231.
  
 Copyright (c) 1988-2019, Gaussian, Inc.  All Rights Reserved.
  
 This is part of the Gaussian(R) 16 program.  It is based on
 the Gaussian(R) 09 system (copyright 2009, Gaussian, Inc.),
 the Gaussian(R) 03 system (copyright 2003, Gaussian, Inc.),
 the Gaussian(R) 98 system (copyright 1998, Gaussian, Inc.),
 the Gaussian(R) 94 system (copyright 1995, Gaussian, Inc.),
 the Gaussian 92(TM) system (copyright 1992, Gaussian, Inc.),
 the Gaussian 90(TM) system (copyright 1990, Gaussian, Inc.),
 the Gaussian 88(TM) system (copyright 1988, Gaussian, Inc.),
 the Gaussian 86(TM) system (copyright 1986, Carnegie Mellon
 University), and the Gaussian 82(TM) system (copyright 1983,
 Carnegie Mellon University). Gaussian is a federally registered
 trademark of Gaussian, Inc.
  
 This software contains proprietary and confidential information,
 including trade secrets, belonging to Gaussian, Inc.
  
 This software is provided under written license and may be
 used, copied, transmitted, or stored only in accord with that
 written license.
  
 The following legend is applicable only to US Government
 contracts under FAR:
  
                    RESTRICTED RIGHTS LEGEND
  
 Use, reproduction and disclosure by the US Government is
 subject to restrictions as set forth in subparagraphs (a)
 and (c) of the Commercial Computer Software - Restricted
 Rights clause in FAR 52.227-19.
  
 Gaussian, Inc.
 340 Quinnipiac St., Bldg. 40, Wallingford CT 06492
  
  
 ---------------------------------------------------------------
 Warning -- This program may not be used in any manner that
 competes with the business of Gaussian, Inc. or will provide
 assistance to any competitor of Gaussian, Inc.  The licensee
 of this program is prohibited from giving any competitor of
 Gaussian, Inc. access to this program.  By using this program,
 the user acknowledges that Gaussian, Inc. is engaged in the
 business of creating and licensing software in the field of
 computational chemistry and represents and warrants to the
 licensee that it is not a competitor of Gaussian, Inc. and that
 it will not use this program in any manner prohibited above.
 ---------------------------------------------------------------
  

 Cite this work as:
 Gaussian 16, Revision C.01,
 M. J. Frisch, G. W. Trucks, H. B. Schlegel, G. E. Scuseria, 
 M. A. Robb, J. R. Cheeseman, G. Scalmani, V. Barone, 
 G. A. Petersson, H. Nakatsuji, X. Li, M. Caricato, A. V. Marenich, 
 J. Bloino, B. G. Janesko, R. Gomperts, B. Mennucci, H. P. Hratchian, 
 J. V. Ortiz, A. F. Izmaylov, J. L. Sonnenberg, D. Williams-Young, 
 F. Ding, F. Lipparini, F. Egidi, J. Goings, B. Peng, A. Petrone, 
 T. Henderson, D. Ranasinghe, V. G. Zakrzewski, J. Gao, N. Rega, 
 G. Zheng, W. Liang, M. Hada, M. Ehara, K. Toyota, R. Fukuda, 
 J. Hasegawa, M. Ishida, T. Nakajima, Y. Honda, O. Kitao, H. Nakai, 
 T. Vreven, K. Throssell, J. A. Montgomery, Jr., J. E. Peralta, 
 F. Ogliaro, M. J. Bearpark, J. J. Heyd, E. N. Brothers, K. N. Kudin, 
 V. N. Staroverov, T. A. Keith, R. Kobayashi, J. Normand, 
 K. Raghavachari, A. P. Rendell, J. C. Burant, S. S. Iyengar, 
 J. Tomasi, M. Cossi, J. M. Millam, M. Klene, C. Adamo, R. Cammi, 
 J. W. Ochterski, R. L. Martin, K. Morokuma, O. Farkas, 
 J. B. Foresman, and D. J. Fox, Gaussian, Inc., Wallingford CT, 2019.
 
 ******************************************
 Gaussian 16:  ES64L-G16RevC.01  3-Jul-2019
                31-May-2024 
 ******************************************
 %chk=a.chk
 %nprocshared=56
 Will use up to   56 processors via shared memory.
 %mem=96GB
 ----------------------------------------------------------------------
 # wb97xd nosymm geom=modredundant guess=fragment=2 def2svp g09default 
 scf=(xqc,maxcycle=64)
 ----------------------------------------------------------------------
 1/18=120,38=1,62=2,158=3,160=20,167=1,172=1/1;
 2/12=2,15=1,17=6,18=5,40=1/2;
 1/18=120,38=1,53=2,62=2,63=1,158=3,160=20,167=1/22;
 3/5=43,7=101,11=2,25=1,27=10,30=1,74=-58,75=-4,89=1,158=3/1,2,3;
 4/60=-1/1;
 6/7=2,8=2,9=2,10=2,11=2,28=1,87=10/1;
 1/18=120,53=2,62=2,63=1,158=3,160=20,167=1/22;
 3/5=7,6=11,7=101,11=2,25=1,27=10,30=1,74=-58,75=-4,82=7,158=3/1,2,3;
 4/60=-1/1;
 5/5=2,7=64,8=3,13=1,38=5,87=10/2,8;
 6/7=2,8=2,9=2,10=2,28=1,87=10/1;
 1/18=120,53=2,62=2,63=1,158=3,160=20,167=1/22(-4);
 99/5=1,9=1/99;
 Using 2006 physical constants.
 ----------
 Title Card
 ----------
 Symbolic Z-matrix:
 Charge = -1 Multiplicity = 1 in supermolecule
 Charge =  0 Multiplicity = 1 in fragment      1.
 Charge = -1 Multiplicity = 1 in fragment      2.
 Cl(Fragment=2)       -10.55491   8.5858    10.58171 
 C(Fragment=2)        -9.06733   5.06982   12.52835 
 C(Fragment=2)        -9.79935   4.65375   11.39825 
 C(Fragment=2)        -10.6634   3.55273   11.55513 
 C(Fragment=2)        -10.79716   2.90131   12.77959 
 C(Fragment=2)        -10.06511   3.32999   13.88781 
 C(Fragment=2)        -9.1987    4.41674   13.75162 
 H(Fragment=2)        -8.38362   5.91853   12.45267 
 H(Fragment=2)        -11.24206   3.20587   10.69479 
 H(Fragment=2)        -11.4788   2.05181   12.86887 
 H(Fragment=2)        -10.16902   2.82254   14.84955 
 H(Fragment=2)        -8.61908   4.76401   14.61068 
 C(Fragment=2)        -9.73025   5.34113   10.10193 
 C(Fragment=2)        -9.12625   6.52969   9.88073 
 H(Fragment=2)        -10.35727   4.91465   9.31114 
 H(Fragment=2)        -9.09725   6.93397   8.86805 
 H(Fragment=2)        -8.38779   6.93177   10.57455 
 O(Fragment=1)        -0.67304  -2.07415   7.25482 
 O(Fragment=1)        -8.28358  -1.40974   7.34814 
 O(Fragment=1)        -6.81808   1.25643   10.50491 
 O(Fragment=1)        -2.10825  -4.75242   10.48016 
 W(Fragment=1)        -3.10475   0.46438   6.53787 
 W(Fragment=1)        -5.93295  -3.99965   6.57884 
 W(Fragment=1)        -3.35783   0.65294   11.22366 
 W(Fragment=1)        -5.55611  -4.14575   11.26644 
 W(Fragment=1)        -2.37529  -2.74612   6.25607 
 W(Fragment=1)        -6.64927  -0.81036   6.28848 
 W(Fragment=1)        -6.42312  -0.46911   11.54896 
 W(Fragment=1)        -2.48066  -3.0331    11.53114 
 O(Fragment=1)        -2.9896    1.64655   5.29339 
 O(Fragment=1)        -6.02755  -5.22995   5.38003 
 O(Fragment=1)        -2.3498    1.38428   12.41069 
 O(Fragment=1)        -6.52065  -4.87995   12.48653 
 O(Fragment=1)        -2.37895  -1.10176   5.37274 
 O(Fragment=1)        -6.59854  -2.44721   5.42258 
 O(Fragment=1)        -5.00055   0.37474   12.39494 
 O(Fragment=1)        -3.8778   -3.86542   12.41217 
 O(Fragment=1)         0.51144  -0.39555   9.1474 
 O(Fragment=1)        -9.46534  -3.07861   9.28596 
 O(Fragment=1)        -6.07722   3.16145   8.56991 
 O(Fragment=1)        -2.88663  -6.66339   8.56547 
 O(Fragment=1)        -1.40428   0.53923   7.30712 
 O(Fragment=1)        -7.57212  -4.07929   7.42973 
 O(Fragment=1)        -4.18345   2.0879    10.39313 
 O(Fragment=1)        -4.73818  -5.58412   10.42374 
 O(Fragment=1)        -1.51261  -3.74758   5.1534 
 O(Fragment=1)        -7.46467   0.21962   5.17744 
 O(Fragment=1)        -7.71461  -0.32479   12.67535 
 O(Fragment=1)        -1.16218  -3.15911   12.62949 
 W(Fragment=1)        -1.05229  -0.96071   8.703 
 W(Fragment=1)        -7.91302  -2.55543   8.76257 
 W(Fragment=1)        -5.67396   1.57084   9.08856 
 W(Fragment=1)        -3.2863   -5.07377   9.08816 
 O(Fragment=1)        -4.10243  -3.27185   5.95171 
 O(Fragment=1)        -4.89489  -0.29569   5.98365 
 O(Fragment=1)        -5.92025  -2.2164    11.84294 
 O(Fragment=1)        -2.96821  -1.27703   11.80009 
 O(Fragment=1)        -4.06306   1.36236   7.81277 
 O(Fragment=1)        -4.9014   -4.85134   7.84599 
 O(Fragment=1)        -2.10246   0.27477   9.91532 
 O(Fragment=1)        -6.84328  -3.78214   9.9988 
 O(Fragment=1)        -2.43247  -4.07804   7.7791 
 O(Fragment=1)        -6.52874   0.57874   7.79124 
 O(Fragment=1)        -7.53949  -1.28927   10.04767 
 O(Fragment=1)        -1.36748  -2.21941   9.99578 
 O(Fragment=1)        -2.9926   -1.32376   7.77966 
 O(Fragment=1)        -5.9755   -2.2066    7.81859 
 O(Fragment=1)        -4.90854  -0.25859   9.99253 
 O(Fragment=1)        -4.02265  -3.23803   10.00708 
 K(Fragment=1)        -3.22808  -6.21356   5.64913 
 K(Fragment=1)        -0.03853  -0.44344   12.163 
 K(Fragment=1)        -8.8724   -3.0475    12.23061 
 V(Fragment=1)        -4.47714  -1.75706   8.90181 
 
 Add virtual bond connecting atoms C14        and Cl1        Dist= 4.91D+00.
 Add virtual bond connecting atoms H17        and Cl1        Dist= 5.15D+00.
 Add virtual bond connecting atoms O20        and C3         Dist= 8.71D+00.
 Add virtual bond connecting atoms O20        and C4         Dist= 8.69D+00.
 Add virtual bond connecting atoms O40        and C13        Dist= 8.54D+00.
 Add virtual bond connecting atoms O48        and C5         Dist= 8.43D+00.
 Add virtual bond connecting atoms O48        and C6         Dist= 8.53D+00.
 The following ModRedundant input section has been read:
 B       1      14 F                                                           
 
                           ----------------------------
                           !    Current Parameters    !
                           ! (Angstroms and Degrees)  !
 --------------------------                            --------------------------
 ! Name  Definition              Value                                          !
 --------------------------------------------------------------------------------
 ! R1    R(1,14)                 2.6            Frozen                          !
 ! R2    R(1,17)                 2.7262                                         !
 ! R3    R(2,3)                  1.4093                                         !
 ! R4    R(2,7)                  1.3929                                         !
 ! R5    R(2,8)                  1.0925                                         !
 ! R6    R(3,4)                  1.4083                                         !
 ! R7    R(3,13)                 1.4689                                         !
 ! R8    R(3,20)                 4.6074                                         !
 ! R9    R(4,5)                  1.3934                                         !
 ! R10   R(4,9)                  1.0933                                         !
 ! R11   R(4,20)                 4.6003                                         !
 ! R12   R(5,6)                  1.3956                                         !
 ! R13   R(5,10)                 1.0928                                         !
 ! R14   R(5,48)                 4.4633                                         !
 ! R15   R(6,7)                  1.3965                                         !
 ! R16   R(6,11)                 1.0924                                         !
 ! R17   R(6,48)                 4.5114                                         !
 ! R18   R(7,12)                 1.093                                          !
 ! R19   R(13,14)                1.3515                                         !
 ! R20   R(13,15)                1.0956                                         !
 ! R21   R(13,40)                4.5214                                         !
 ! R22   R(14,16)                1.0908                                         !
 ! R23   R(14,17)                1.0901                                         !
 ! R24   R(18,26)                2.0849                                         !
 ! R25   R(18,50)                1.8657                                         !
 ! R26   R(19,27)                2.0379                                         !
 ! R27   R(19,51)                1.8576                                         !
 ! R28   R(20,28)                2.0551                                         !
 ! R29   R(20,52)                1.8477                                         !
 ! R30   R(21,29)                2.0492                                         !
 ! R31   R(21,53)                1.8517                                         !
 ! R32   R(22,30)                1.7203                                         !
 ! R33   R(22,34)                2.0826                                         !
 ! R34   R(22,42)                1.8679                                         !
 ! R35   R(22,55)                2.0223                                         !
 ! R36   R(22,58)                1.8303                                         !
 ! R37   R(22,66)                2.1799                                         !
 ! R38   R(23,31)                1.7204                                         !
 ! R39   R(23,35)                2.047                                          !
 ! R40   R(23,43)                1.8486                                         !
 ! R41   R(23,54)                2.0673                                         !
 ! R42   R(23,59)                1.8426                                         !
 ! R43   R(23,67)                2.1803                                         !
 ! R44   R(23,70)                3.6169                                         !
 ! R45   R(24,32)                1.7205                                         !
 ! R46   R(24,36)                2.0366                                         !
 ! R47   R(24,44)                1.8522                                         !
 ! R48   R(24,57)                2.0516                                         !
 ! R49   R(24,60)                1.8522                                         !
 ! R50   R(24,68)                2.1797                                         !
 ! R51   R(24,71)                3.6197                                         !
 ! R52   R(25,33)                1.7199                                         !
 ! R53   R(25,37)                2.0513                                         !
 ! R54   R(25,45)                1.8569                                         !
 ! R55   R(25,56)                2.0463                                         !
 ! R56   R(25,61)                1.8428                                         !
 ! R57   R(25,69)                2.1821                                         !
 ! R58   R(25,72)                3.624                                          !
 ! R59   R(26,34)                1.8666                                         !
 ! R60   R(26,46)                1.7213                                         !
 ! R61   R(26,54)                1.8309                                         !
 ! R62   R(26,62)                2.0241                                         !
 ! R63   R(26,66)                2.1738                                         !
 ! R64   R(26,70)                3.622                                          !
 ! R65   R(27,35)                1.8525                                         !
 ! R66   R(27,47)                1.7205                                         !
 ! R67   R(27,55)                1.8536                                         !
 ! R68   R(27,63)                2.05                                           !
 ! R69   R(27,67)                2.1782                                         !
 ! R70   R(28,36)                1.8578                                         !
 ! R71   R(28,48)                1.7197                                         !
 ! R72   R(28,56)                1.8418                                         !
 ! R73   R(28,64)                2.0427                                         !
 ! R74   R(28,68)                2.1819                                         !
 ! R75   R(28,72)                3.621                                          !
 ! R76   R(29,37)                1.8496                                         !
 ! R77   R(29,49)                1.7207                                         !
 ! R78   R(29,57)                1.8422                                         !
 ! R79   R(29,65)                2.0636                                         !
 ! R80   R(29,69)                2.1777                                         !
 ! R81   R(29,71)                3.6152                                         !
 ! R82   R(31,70)                2.9794                                         !
 ! R83   R(32,71)                2.957                                          !
 ! R84   R(33,72)                2.9923                                         !
 ! R85   R(38,50)                1.7211                                         !
 ! R86   R(38,71)                3.0657                                         !
 ! R87   R(39,51)                1.7197                                         !
 ! R88   R(39,72)                3.0039                                         !
 ! R89   R(40,52)                1.721                                          !
 ! R90   R(41,53)                1.7204                                         !
 ! R91   R(41,70)                2.9705                                         !
 ! R92   R(42,50)                2.079                                          !
 ! R93   R(43,51)                2.053                                          !
 ! R94   R(44,52)                2.0472                                         !
 ! R95   R(45,53)                2.0377                                         !
 ! R96   R(46,70)                3.0446                                         !
 ! R97   R(48,72)                2.9919                                         !
 ! R98   R(49,71)                2.9757                                         !
 ! R99   R(50,60)                2.0246                                         !
 ! R100  R(50,65)                1.8316                                         !
 ! R101  R(50,66)                2.1793                                         !
 ! R102  R(50,71)                3.6424                                         !
 ! R103  R(51,61)                2.0439                                         !
 ! R104  R(51,64)                1.8423                                         !
 ! R105  R(51,67)                2.1833                                         !
 ! R106  R(51,72)                3.6318                                         !
 ! R107  R(52,58)                2.0654                                         !
 ! R108  R(52,63)                1.8434                                         !
 ! R109  R(52,68)                2.1794                                         !
 ! R110  R(53,59)                2.0496                                         !
 ! R111  R(53,62)                1.8531                                         !
 ! R112  R(53,69)                2.1809                                         !
 ! R113  R(53,70)                3.6235                                         !
 ! R114  R(54,70)                3.0838                                         !
 ! R115  R(56,72)                3.0913                                         !
 ! R116  R(57,71)                3.0675                                         !
 ! R117  R(59,70)                3.0793                                         !
 ! R118  R(61,72)                3.1045                                         !
 ! R119  R(62,70)                3.1193                                         !
 ! R120  R(64,72)                3.1037                                         !
 ! R121  R(65,71)                3.1011                                         !
 ! R122  R(66,73)                1.9107                                         !
 ! R123  R(67,73)                1.9028                                         !
 ! R124  R(68,73)                1.9029                                         !
 ! R125  R(69,73)                1.903                                          !
 ! A1    A(3,2,7)              121.1195                                         !
 ! A2    A(3,2,8)              119.9265                                         !
 ! A3    A(7,2,8)              118.9539                                         !
 ! A4    A(2,3,4)              117.3978                                         !
 ! A5    A(2,3,13)             123.0302                                         !
 ! A6    A(2,3,20)              92.1245                                         !
 ! A7    A(4,3,13)             119.5379                                         !
 ! A8    A(13,3,20)             98.2505                                         !
 ! A9    A(3,4,5)              121.4846                                         !
 ! A10   A(3,4,9)              119.0184                                         !
 ! A11   A(5,4,9)              119.4969                                         !
 ! A12   A(5,4,20)              92.7222                                         !
 ! A13   A(9,4,20)              95.9922                                         !
 ! A14   A(4,5,6)              120.2542                                         !
 ! A15   A(4,5,10)             119.6755                                         !
 ! A16   A(4,5,48)             104.5426                                         !
 ! A17   A(6,5,10)             120.0704                                         !
 ! A18   A(10,5,48)             82.5777                                         !
 ! A19   A(5,6,7)              119.1442                                         !
 ! A20   A(5,6,11)             120.4327                                         !
 ! A21   A(7,6,11)             120.4231                                         !
 ! A22   A(7,6,48)             106.3183                                         !
 ! A23   A(11,6,48)             84.8274                                         !
 ! A24   A(2,7,6)              120.5989                                         !
 ! A25   A(2,7,12)             119.4256                                         !
 ! A26   A(6,7,12)             119.9751                                         !
 ! A27   A(3,13,14)            125.2412                                         !
 ! A28   A(3,13,15)            115.3338                                         !
 ! A29   A(3,13,40)             96.3985                                         !
 ! A30   A(14,13,15)           118.6837                                         !
 ! A31   A(14,13,40)            90.4253                                         !
 ! A32   A(15,13,40)            91.7283                                         !
 ! A33   A(1,14,13)            113.9404                                         !
 ! A34   A(1,14,16)             88.3849                                         !
 ! A35   A(13,14,16)           119.3277                                         !
 ! A36   A(13,14,17)           121.5305                                         !
 ! A37   A(16,14,17)           115.86                                           !
 ! A38   A(26,18,50)           113.467                                          !
 ! A39   A(27,19,51)           114.6674                                         !
 ! A40   A(3,20,28)            130.1631                                         !
 ! A41   A(3,20,52)            115.0771                                         !
 ! A42   A(4,20,28)            117.6312                                         !
 ! A43   A(4,20,52)            127.4208                                         !
 ! A44   A(28,20,52)           114.4122                                         !
 ! A45   A(29,21,53)           114.5527                                         !
 ! A46   A(30,22,34)            95.0905                                         !
 ! A47   A(30,22,42)           102.09                                           !
 ! A48   A(30,22,55)            96.8502                                         !
 ! A49   A(30,22,58)           101.6416                                         !
 ! A50   A(34,22,42)            86.7478                                         !
 ! A51   A(34,22,55)            82.6764                                         !
 ! A52   A(34,22,58)           160.2389                                         !
 ! A53   A(34,22,66)            71.573                                          !
 ! A54   A(42,22,55)           159.038                                          !
 ! A55   A(42,22,58)            99.7956                                         !
 ! A56   A(42,22,66)            75.6075                                         !
 ! A57   A(55,22,58)            84.9405                                         !
 ! A58   A(55,22,66)            83.8779                                         !
 ! A59   A(58,22,66)            91.8672                                         !
 ! A60   A(31,23,35)            97.5199                                         !
 ! A61   A(31,23,43)           103.9563                                         !
 ! A62   A(31,23,54)            95.1098                                         !
 ! A63   A(31,23,59)           100.3376                                         !
 ! A64   A(35,23,43)            90.2493                                         !
 ! A65   A(35,23,54)            81.3476                                         !
 ! A66   A(35,23,59)           157.0806                                         !
 ! A67   A(35,23,67)            72.0091                                         !
 ! A68   A(35,23,70)           124.208                                          !
 ! A69   A(43,23,54)           160.0435                                         !
 ! A70   A(43,23,59)            99.2045                                         !
 ! A71   A(43,23,67)            75.9007                                         !
 ! A72   A(43,23,70)           139.0315                                         !
 ! A73   A(54,23,59)            82.8558                                         !
 ! A74   A(54,23,67)            84.2751                                         !
 ! A75   A(59,23,67)            90.0008                                         !
 ! A76   A(67,23,70)           131.6156                                         !
 ! A77   A(32,24,36)            97.6925                                         !
 ! A78   A(32,24,44)           103.9584                                         !
 ! A79   A(32,24,57)            95.4374                                         !
 ! A80   A(32,24,60)           100.197                                          !
 ! A81   A(36,24,44)            90.239                                          !
 ! A82   A(36,24,57)            82.1307                                         !
 ! A83   A(36,24,60)           157.6722                                         !
 ! A84   A(36,24,68)            72.1742                                         !
 ! A85   A(36,24,71)           123.3005                                         !
 ! A86   A(44,24,57)           159.9644                                         !
 ! A87   A(44,24,60)            98.2542                                         !
 ! A88   A(44,24,68)            75.7356                                         !
 ! A89   A(44,24,71)           139.4462                                         !
 ! A90   A(57,24,60)            82.9738                                         !
 ! A91   A(57,24,68)            84.2843                                         !
 ! A92   A(60,24,68)            89.8762                                         !
 ! A93   A(60,24,71)            59.9964                                         !
 ! A94   A(68,24,71)           132.244                                          !
 ! A95   A(33,25,37)            96.9472                                         !
 ! A96   A(33,25,45)           103.786                                          !
 ! A97   A(33,25,56)            95.9028                                         !
 ! A98   A(33,25,61)           100.3987                                         !
 ! A99   A(37,25,45)            89.9398                                         !
 ! A100  A(37,25,56)            81.9171                                         !
 ! A101  A(37,25,61)           158.2338                                         !
 ! A102  A(37,25,69)            71.9735                                         !
 ! A103  A(37,25,72)           123.9639                                         !
 ! A104  A(45,25,56)           159.4846                                         !
 ! A105  A(45,25,61)            98.5301                                         !
 ! A106  A(45,25,69)            75.5673                                         !
 ! A107  A(45,25,72)           139.3373                                         !
 ! A108  A(56,25,61)            83.3077                                         !
 ! A109  A(56,25,69)            83.9981                                         !
 ! A110  A(61,25,69)            90.6745                                         !
 ! A111  A(69,25,72)           132.1106                                         !
 ! A112  A(18,26,34)            86.8111                                         !
 ! A113  A(18,26,46)            94.887                                          !
 ! A114  A(18,26,54)           160.4605                                         !
 ! A115  A(18,26,62)            82.8018                                         !
 ! A116  A(18,26,66)            71.6524                                         !
 ! A117  A(18,26,70)           125.5254                                         !
 ! A118  A(34,26,46)           102.1433                                         !
 ! A119  A(34,26,54)            99.9298                                         !
 ! A120  A(34,26,62)           159.3448                                         !
 ! A121  A(34,26,66)            75.8013                                         !
 ! A122  A(34,26,70)           139.7813                                         !
 ! A123  A(46,26,54)           101.4915                                         !
 ! A124  A(46,26,62)            96.5072                                         !
 ! A125  A(54,26,62)            84.8065                                         !
 ! A126  A(54,26,66)            92.0926                                         !
 ! A127  A(62,26,66)            83.9822                                         !
 ! A128  A(66,26,70)           132.6082                                         !
 ! A129  A(19,27,35)            90.2941                                         !
 ! A130  A(19,27,47)            97.5725                                         !
 ! A131  A(19,27,55)           157.8535                                         !
 ! A132  A(19,27,63)            82.2574                                         !
 ! A133  A(19,27,67)            72.1984                                         !
 ! A134  A(35,27,47)           103.8922                                         !
 ! A135  A(35,27,55)            98.1957                                         !
 ! A136  A(35,27,63)           160.0164                                         !
 ! A137  A(35,27,67)            75.7288                                         !
 ! A138  A(47,27,55)           100.1454                                         !
 ! A139  A(47,27,63)            95.4858                                         !
 ! A140  A(55,27,63)            82.9205                                         !
 ! A141  A(55,27,67)            90.0422                                         !
 ! A142  A(63,27,67)            84.3312                                         !
 ! A143  A(20,28,36)            89.835                                          !
 ! A144  A(20,28,48)            96.7742                                         !
 ! A145  A(20,28,56)           158.4489                                         !
 ! A146  A(20,28,64)            81.8776                                         !
 ! A147  A(20,28,68)            71.9407                                         !
 ! A148  A(20,28,72)           124.2989                                         !
 ! A149  A(36,28,48)           103.8084                                         !
 ! A150  A(36,28,56)            98.5781                                         !
 ! A151  A(36,28,64)           159.3092                                         !
 ! A152  A(36,28,68)            75.4912                                         !
 ! A153  A(36,28,72)           139.0824                                         !
 ! A154  A(48,28,56)           100.3762                                         !
 ! A155  A(48,28,64)            96.0066                                         !
 ! A156  A(56,28,64)            83.4325                                         !
 ! A157  A(56,28,68)            90.9091                                         !
 ! A158  A(64,28,68)            83.906                                          !
 ! A159  A(68,28,72)           132.2617                                         !
 ! A160  A(21,29,37)            90.2304                                         !
 ! A161  A(21,29,49)            97.2776                                         !
 ! A162  A(21,29,57)           157.3304                                         !
 ! A163  A(21,29,65)            81.4434                                         !
 ! A164  A(21,29,69)            71.9891                                         !
 ! A165  A(21,29,71)           124.6025                                         !
 ! A166  A(37,29,49)           103.9929                                         !
 ! A167  A(37,29,57)            99.178                                          !
 ! A168  A(37,29,65)           159.9361                                         !
 ! A169  A(37,29,69)            75.8863                                         !
 ! A170  A(37,29,71)           138.5355                                         !
 ! A171  A(49,29,57)           100.3353                                         !
 ! A172  A(49,29,65)            95.1896                                         !
 ! A173  A(57,29,65)            82.8494                                         !
 ! A174  A(57,29,69)            90.2571                                         !
 ! A175  A(65,29,69)            84.1674                                         !
 ! A176  A(69,29,71)           131.9165                                         !
 ! A177  A(22,34,26)           113.479                                          !
 ! A178  A(23,35,27)           114.52                                           !
 ! A179  A(24,36,28)           114.6949                                         !
 ! A180  A(25,37,29)           114.4224                                         !
 ! A181  A(13,40,52)           122.1932                                         !
 ! A182  A(22,42,50)           113.6867                                         !
 ! A183  A(23,43,51)           114.4622                                         !
 ! A184  A(24,44,52)           114.4952                                         !
 ! A185  A(25,45,53)           114.6639                                         !
 ! A186  A(5,48,28)            126.4853                                         !
 ! A187  A(5,48,72)            113.203                                          !
 ! A188  A(6,48,28)            129.4413                                         !
 ! A189  A(6,48,72)            125.1397                                         !
 ! A190  A(18,50,38)           102.2224                                         !
 ! A191  A(18,50,42)            86.7797                                         !
 ! A192  A(18,50,60)           159.1352                                         !
 ! A193  A(18,50,65)            99.9461                                         !
 ! A194  A(18,50,66)            75.6816                                         !
 ! A195  A(18,50,71)           139.954                                          !
 ! A196  A(38,50,42)            95.1797                                         !
 ! A197  A(38,50,60)            96.6774                                         !
 ! A198  A(38,50,65)           101.5226                                         !
 ! A199  A(42,50,60)            82.7588                                         !
 ! A200  A(42,50,65)           160.1441                                         !
 ! A201  A(42,50,66)            71.6375                                         !
 ! A202  A(42,50,71)           125.624                                          !
 ! A203  A(60,50,65)            84.6901                                         !
 ! A204  A(60,50,66)            83.8884                                         !
 ! A205  A(60,50,71)            59.2622                                         !
 ! A206  A(65,50,66)            91.7969                                         !
 ! A207  A(66,50,71)           132.3723                                         !
 ! A208  A(19,51,39)           103.8459                                         !
 ! A209  A(19,51,43)            89.8045                                         !
 ! A210  A(19,51,61)           159.2517                                         !
 ! A211  A(19,51,64)            98.4938                                         !
 ! A212  A(19,51,67)            75.4791                                         !
 ! A213  A(19,51,72)           139.2867                                         !
 ! A214  A(39,51,43)            96.9879                                         !
 ! A215  A(39,51,61)            96.0714                                         !
 ! A216  A(39,51,64)           100.3581                                         !
 ! A217  A(43,51,61)            81.9679                                         !
 ! A218  A(43,51,64)           158.3283                                         !
 ! A219  A(43,51,67)            71.973                                          !
 ! A220  A(43,51,72)           124.2801                                         !
 ! A221  A(61,51,64)            83.3655                                         !
 ! A222  A(61,51,67)            83.8541                                         !
 ! A223  A(64,51,67)            90.68                                           !
 ! A224  A(67,51,72)           131.9859                                         !
 ! A225  A(20,52,40)           104.0754                                         !
 ! A226  A(20,52,44)            90.3057                                         !
 ! A227  A(20,52,58)           159.9274                                         !
 ! A228  A(20,52,63)            99.2513                                         !
 ! A229  A(20,52,68)            75.9177                                         !
 ! A230  A(40,52,44)            97.4242                                         !
 ! A231  A(40,52,58)            95.1574                                         !
 ! A232  A(40,52,63)           100.1765                                         !
 ! A233  A(44,52,58)            81.4464                                         !
 ! A234  A(44,52,63)           157.2275                                         !
 ! A235  A(44,52,68)            72.0607                                         !
 ! A236  A(58,52,63)            82.6818                                         !
 ! A237  A(58,52,68)            84.1204                                         !
 ! A238  A(63,52,68)            90.1716                                         !
 ! A239  A(21,53,41)           103.9424                                         !
 ! A240  A(21,53,45)            90.2319                                         !
 ! A241  A(21,53,59)           159.7323                                         !
 ! A242  A(21,53,62)            98.3174                                         !
 ! A243  A(21,53,69)            75.64                                           !
 ! A244  A(21,53,70)           139.2753                                         !
 ! A245  A(41,53,45)            97.657                                          !
 ! A246  A(41,53,59)            95.6935                                         !
 ! A247  A(41,53,62)           100.0679                                         !
 ! A248  A(45,53,59)            82.1227                                         !
 ! A249  A(45,53,62)           157.7989                                         !
 ! A250  A(45,53,69)            72.187                                          !
 ! A251  A(45,53,70)           123.6929                                         !
 ! A252  A(59,53,62)            82.9142                                         !
 ! A253  A(59,53,69)            84.143                                          !
 ! A254  A(62,53,69)            90.053                                          !
 ! A255  A(69,53,70)           132.0737                                         !
 ! A256  A(23,54,26)           152.3698                                         !
 ! A257  A(22,55,27)           153.7863                                         !
 ! A258  A(25,56,28)           153.9061                                         !
 ! A259  A(24,57,29)           154.9552                                         !
 ! A260  A(22,58,52)           152.6369                                         !
 ! A261  A(23,59,53)           155.2422                                         !
 ! A262  A(24,60,50)           154.043                                          !
 ! A263  A(25,61,51)           154.167                                          !
 ! A264  A(26,62,53)           153.9129                                         !
 ! A265  A(27,63,52)           155.2135                                         !
 ! A266  A(28,64,51)           154.0774                                         !
 ! A267  A(29,65,50)           152.7357                                         !
 ! A268  A(22,66,26)            98.7468                                         !
 ! A269  A(22,66,50)            98.6565                                         !
 ! A270  A(22,66,73)           118.7246                                         !
 ! A271  A(26,66,50)            98.808                                          !
 ! A272  A(26,66,73)           118.939                                          !
 ! A273  A(50,66,73)           118.7319                                         !
 ! A274  A(23,67,27)            97.6869                                         !
 ! A275  A(23,67,51)            97.572                                          !
 ! A276  A(23,67,73)           120.1739                                         !
 ! A277  A(27,67,51)            97.5638                                         !
 ! A278  A(27,67,73)           119.4744                                         !
 ! A279  A(51,67,73)           119.3683                                         !
 ! A280  A(24,68,28)            97.5441                                         !
 ! A281  A(24,68,52)            97.6483                                         !
 ! A282  A(24,68,73)           119.4553                                         !
 ! A283  A(28,68,52)            97.6476                                         !
 ! A284  A(28,68,73)           119.3573                                         !
 ! A285  A(52,68,73)           120.1904                                         !
 ! A286  A(25,69,29)            97.6336                                         !
 ! A287  A(25,69,53)            97.4868                                         !
 ! A288  A(25,69,73)           119.413                                          !
 ! A289  A(29,69,53)            97.7594                                         !
 ! A290  A(29,69,73)           120.1545                                         !
 ! A291  A(53,69,73)           119.4042                                         !
 ! A292  A(23,70,26)            63.065                                          !
 ! A293  A(23,70,41)            85.7731                                         !
 ! A294  A(23,70,46)            88.1346                                         !
 ! A295  A(23,70,53)            63.3512                                         !
 ! A296  A(23,70,62)            66.1825                                         !
 ! A297  A(26,70,31)            85.4293                                         !
 ! A298  A(26,70,41)            87.3283                                         !
 ! A299  A(26,70,53)            62.8451                                         !
 ! A300  A(26,70,59)            65.4733                                         !
 ! A301  A(31,70,41)           104.2805                                         !
 ! A302  A(31,70,46)           104.3186                                         !
 ! A303  A(31,70,53)            88.0962                                         !
 ! A304  A(31,70,54)            55.0773                                         !
 ! A305  A(31,70,59)            53.6864                                         !
 ! A306  A(31,70,62)            94.3191                                         !
 ! A307  A(41,70,46)           102.576                                          !
 ! A308  A(41,70,54)            94.6295                                         !
 ! A309  A(41,70,59)            55.1819                                         !
 ! A310  A(41,70,62)            53.4143                                         !
 ! A311  A(46,70,53)            84.7679                                         !
 ! A312  A(46,70,54)            53.3513                                         !
 ! A313  A(46,70,59)            93.6715                                         !
 ! A314  A(46,70,62)            54.0534                                         !
 ! A315  A(53,70,54)            66.5624                                         !
 ! A316  A(54,70,59)            49.753                                          !
 ! A317  A(54,70,62)            49.6276                                         !
 ! A318  A(59,70,62)            49.3515                                         !
 ! A319  A(24,71,29)            63.3943                                         !
 ! A320  A(24,71,38)            84.5202                                         !
 ! A321  A(24,71,49)            88.3287                                         !
 ! A322  A(24,71,50)            62.6949                                         !
 ! A323  A(24,71,65)            66.3674                                         !
 ! A324  A(29,71,32)            85.9514                                         !
 ! A325  A(29,71,38)            87.7332                                         !
 ! A326  A(29,71,50)            62.8852                                         !
 ! A327  A(32,71,38)           102.2956                                         !
 ! A328  A(32,71,49)           104.8211                                         !
 ! A329  A(32,71,50)            87.1226                                         !
 ! A330  A(32,71,57)            55.3453                                         !
 ! A331  A(32,71,65)            94.4481                                         !
 ! A332  A(38,71,49)           103.662                                          !
 ! A333  A(38,71,57)            93.394                                          !
 ! A334  A(38,71,65)            53.0152                                         !
 ! A335  A(49,71,50)            85.0787                                         !
 ! A336  A(49,71,57)            53.8367                                         !
 ! A337  A(49,71,65)            54.9076                                         !
 ! A338  A(50,71,57)            65.3675                                         !
 ! A339  A(57,71,65)            49.6401                                         !
 ! A340  A(25,72,28)            63.0466                                         !
 ! A341  A(25,72,39)            85.2211                                         !
 ! A342  A(25,72,48)            87.7771                                         !
 ! A343  A(25,72,51)            62.9527                                         !
 ! A344  A(25,72,64)            65.8937                                         !
 ! A345  A(28,72,33)            85.443                                          !
 ! A346  A(28,72,39)            87.4985                                         !
 ! A347  A(28,72,51)            62.9402                                         !
 ! A348  A(28,72,61)            65.8621                                         !
 ! A349  A(33,72,39)           103.4518                                         !
 ! A350  A(33,72,48)           103.9124                                         !
 ! A351  A(33,72,51)            87.5371                                         !
 ! A352  A(33,72,56)            54.8878                                         !
 ! A353  A(33,72,61)            53.3369                                         !
 ! A354  A(33,72,64)            93.9876                                         !
 ! A355  A(39,72,48)           103.3867                                         !
 ! A356  A(39,72,56)            93.9194                                         !
 ! A357  A(39,72,61)            54.6797                                         !
 ! A358  A(39,72,64)            53.2151                                         !
 ! A359  A(48,72,51)            85.2056                                         !
 ! A360  A(48,72,56)            53.4463                                         !
 ! A361  A(48,72,61)            93.9725                                         !
 ! A362  A(48,72,64)            54.749                                          !
 ! A363  A(51,72,56)            65.8924                                         !
 ! A364  A(56,72,61)            49.4045                                         !
 ! A365  A(56,72,64)            49.4115                                         !
 ! A366  A(61,72,64)            49.2882                                         !
 ! A367  A(66,73,67)           109.3331                                         !
 ! A368  A(66,73,68)           109.5233                                         !
 ! A369  A(66,73,69)           109.3917                                         !
 ! A370  A(67,73,68)           109.5008                                         !
 ! A371  A(67,73,69)           109.5629                                         !
 ! A372  A(68,73,69)           109.5154                                         !
 ! A373  L(30,22,66,34,-1)     166.6635                                         !
 ! A374  L(31,23,67,35,-1)     169.5291                                         !
 ! A375  L(32,24,68,36,-1)     169.8668                                         !
 ! A376  L(33,25,69,37,-1)     168.9207                                         !
 ! A377  L(46,26,66,18,-1)     166.5393                                         !
 ! A378  L(47,27,67,19,-1)     169.7709                                         !
 ! A379  L(48,28,68,20,-1)     168.7149                                         !
 ! A380  L(49,29,69,21,-1)     169.2667                                         !
 ! A381  L(38,50,66,18,-1)     177.9041                                         !
 ! A382  L(39,51,67,19,-1)     179.325                                          !
 ! A383  L(40,52,68,20,-1)     179.9932                                         !
 ! A384  L(41,53,69,21,-1)     179.5824                                         !
 ! A385  L(30,22,66,34,-2)     177.7696                                         !
 ! A386  L(31,23,67,35,-2)     179.1897                                         !
 ! A387  L(32,24,68,36,-2)     179.0412                                         !
 ! A388  L(33,25,69,37,-2)     178.7076                                         !
 ! A389  L(46,26,66,18,-2)     178.0214                                         !
 ! A390  L(47,27,67,19,-2)     178.9541                                         !
 ! A391  L(48,28,68,20,-2)     178.6645                                         !
 ! A392  L(49,29,69,21,-2)     179.2044                                         !
 ! A393  L(38,50,66,18,-2)     193.5288                                         !
 ! A394  L(39,51,67,19,-2)     191.4404                                         !
 ! A395  L(40,52,68,20,-2)     190.8634                                         !
 ! A396  L(41,53,69,21,-2)     190.5214                                         !
 ! D1    D(7,2,3,4)             -0.1496                                         !
 ! D2    D(7,2,3,13)           177.7145                                         !
 ! D3    D(7,2,3,20)           -81.0174                                         !
 ! D4    D(8,2,3,4)            179.9001                                         !
 ! D5    D(8,2,3,13)            -2.2358                                         !
 ! D6    D(8,2,3,20)            99.0323                                         !
 ! D7    D(3,2,7,6)             -0.1023                                         !
 ! D8    D(3,2,7,12)          -179.8749                                         !
 ! D9    D(8,2,7,6)            179.8485                                         !
 ! D10   D(8,2,7,12)             0.0758                                         !
 ! D11   D(2,3,4,5)              0.2997                                         !
 ! D12   D(2,3,4,9)           -179.8337                                         !
 ! D13   D(13,3,4,5)          -177.6422                                         !
 ! D14   D(13,3,4,9)             2.2245                                         !
 ! D15   D(2,3,13,14)           -9.6397                                         !
 ! D16   D(2,3,13,15)         -179.5977                                         !
 ! D17   D(2,3,13,40)           85.4303                                         !
 ! D18   D(4,3,13,14)          168.1807                                         !
 ! D19   D(4,3,13,15)           -1.7773                                         !
 ! D20   D(4,3,13,40)          -96.7493                                         !
 ! D21   D(20,3,13,14)        -107.627                                          !
 ! D22   D(20,3,13,15)          82.415                                          !
 ! D23   D(20,3,13,40)         -12.557                                          !
 ! D24   D(2,3,20,28)           68.2304                                         !
 ! D25   D(2,3,20,52)         -104.5311                                         !
 ! D26   D(13,3,20,28)        -167.9528                                         !
 ! D27   D(13,3,20,52)          19.2857                                         !
 ! D28   D(3,4,5,6)             -0.1983                                         !
 ! D29   D(3,4,5,10)           179.8033                                         !
 ! D30   D(3,4,5,48)           -90.5282                                         !
 ! D31   D(9,4,5,6)            179.9357                                         !
 ! D32   D(9,4,5,10)            -0.0628                                         !
 ! D33   D(9,4,5,48)            89.6057                                         !
 ! D34   D(20,4,5,6)            81.4841                                         !
 ! D35   D(20,4,5,10)          -98.5143                                         !
 ! D36   D(20,4,5,48)           -8.8458                                         !
 ! D37   D(5,4,20,28)           17.8093                                         !
 ! D38   D(5,4,20,52)         -171.1032                                         !
 ! D39   D(9,4,20,28)         -102.2326                                         !
 ! D40   D(9,4,20,52)           68.8549                                         !
 ! D41   D(4,5,6,7)             -0.0615                                         !
 ! D42   D(4,5,6,11)           179.8926                                         !
 ! D43   D(10,5,6,7)           179.9369                                         !
 ! D44   D(10,5,6,11)           -0.109                                          !
 ! D45   D(4,5,48,28)           13.1866                                         !
 ! D46   D(4,5,48,72)         -105.1851                                         !
 ! D47   D(10,5,48,28)         132.0028                                         !
 ! D48   D(10,5,48,72)          13.6311                                         !
 ! D49   D(5,6,7,2)              0.2098                                         !
 ! D50   D(5,6,7,12)           179.9812                                         !
 ! D51   D(11,6,7,2)          -179.7443                                         !
 ! D52   D(11,6,7,12)            0.0271                                         !
 ! D53   D(48,6,7,2)            86.6446                                         !
 ! D54   D(48,6,7,12)          -93.584                                          !
 ! D55   D(7,6,48,28)          -29.8263                                         !
 ! D56   D(7,6,48,72)         -169.6508                                         !
 ! D57   D(11,6,48,28)        -150.0443                                         !
 ! D58   D(11,6,48,72)          70.1312                                         !
 ! D59   D(3,13,14,1)          -80.1371                                         !
 ! D60   D(3,13,14,16)         177.5024                                         !
 ! D61   D(3,13,14,17)          18.8103                                         !
 ! D62   D(15,13,14,1)          89.5137                                         !
 ! D63   D(15,13,14,16)        -12.8468                                         !
 ! D64   D(15,13,14,17)       -171.5389                                         !
 ! D65   D(40,13,14,1)        -178.2832                                         !
 ! D66   D(40,13,14,16)         79.3563                                         !
 ! D67   D(40,13,14,17)        -79.3358                                         !
 ! D68   D(3,13,40,52)          27.3723                                         !
 ! D69   D(14,13,40,52)        152.9273                                         !
 ! D70   D(15,13,40,52)        -88.3592                                         !
 ! D71   D(50,18,26,34)         81.4188                                         !
 ! D72   D(50,18,26,46)       -176.6528                                         !
 ! D73   D(50,18,26,54)        -29.6442                                         !
 ! D74   D(50,18,26,62)        -80.6921                                         !
 ! D75   D(50,18,26,66)          5.3258                                         !
 ! D76   D(50,18,26,70)       -124.4354                                         !
 ! D77   D(26,18,50,38)       -171.675                                          !
 ! D78   D(26,18,50,42)        -77.0673                                         !
 ! D79   D(26,18,50,60)        -17.2046                                         !
 ! D80   D(26,18,50,65)         84.1142                                         !
 ! D81   D(26,18,50,66)         -5.2038                                         !
 ! D82   D(26,18,50,71)        135.8164                                         !
 ! D83   D(51,19,27,35)         77.5013                                         !
 ! D84   D(51,19,27,47)       -178.4413                                         !
 ! D85   D(51,19,27,55)        -35.501                                          !
 ! D86   D(51,19,27,63)        -83.8957                                         !
 ! D87   D(51,19,27,67)          2.6046                                         !
 ! D88   D(27,19,51,39)       -171.1153                                         !
 ! D89   D(27,19,51,43)        -73.9657                                         !
 ! D90   D(27,19,51,61)         -7.7582                                         !
 ! D91   D(27,19,51,64)         85.9381                                         !
 ! D92   D(27,19,51,67)         -2.5557                                         !
 ! D93   D(27,19,51,72)        136.7693                                         !
 ! D94   D(3,20,28,36)         -95.5652                                         !
 ! D95   D(3,20,28,48)           8.322                                          !
 ! D96   D(3,20,28,56)         150.9336                                         !
 ! D97   D(3,20,28,64)         103.4565                                         !
 ! D98   D(3,20,28,68)        -170.3425                                         !
 ! D99   D(3,20,28,72)          60.3232                                         !
 ! D100  D(4,20,28,36)        -110.5306                                         !
 ! D101  D(4,20,28,48)          -6.6433                                         !
 ! D102  D(4,20,28,56)         135.9682                                         !
 ! D103  D(4,20,28,64)          88.4911                                         !
 ! D104  D(4,20,28,68)         174.6922                                         !
 ! D105  D(4,20,28,72)          45.3578                                         !
 ! D106  D(52,20,28,36)         77.2351                                         !
 ! D107  D(52,20,28,48)       -178.8777                                         !
 ! D108  D(52,20,28,56)        -36.2661                                         !
 ! D109  D(52,20,28,64)        -83.7432                                         !
 ! D110  D(52,20,28,68)          2.4578                                         !
 ! D111  D(52,20,28,72)       -126.8765                                         !
 ! D112  D(3,20,52,40)           2.3814                                         !
 ! D113  D(3,20,52,44)         100.1142                                         !
 ! D114  D(3,20,52,58)         165.3574                                         !
 ! D115  D(3,20,52,63)        -100.6443                                         !
 ! D116  D(3,20,52,68)         171.518                                          !
 ! D117  D(4,20,52,40)          17.1209                                         !
 ! D118  D(4,20,52,44)         114.8537                                         !
 ! D119  D(4,20,52,58)        -179.9032                                         !
 ! D120  D(4,20,52,63)         -85.9048                                         !
 ! D121  D(4,20,52,68)        -173.7425                                         !
 ! D122  D(28,20,52,40)       -171.5485                                         !
 ! D123  D(28,20,52,44)        -73.8157                                         !
 ! D124  D(28,20,52,58)         -8.5726                                         !
 ! D125  D(28,20,52,63)         85.4257                                         !
 ! D126  D(28,20,52,68)         -2.4119                                         !
 ! D127  D(53,21,29,37)         77.1522                                         !
 ! D128  D(53,21,29,49)       -178.7085                                         !
 ! D129  D(53,21,29,57)        -37.902                                          !
 ! D130  D(53,21,29,65)        -84.5224                                         !
 ! D131  D(53,21,29,69)          2.0871                                         !
 ! D132  D(53,21,29,71)       -126.8981                                         !
 ! D133  D(29,21,53,41)       -171.5244                                         !
 ! D134  D(29,21,53,45)        -73.5753                                         !
 ! D135  D(29,21,53,59)         -6.1992                                         !
 ! D136  D(29,21,53,62)         85.8647                                         !
 ! D137  D(29,21,53,69)         -2.0458                                         !
 ! D138  D(29,21,53,70)        137.6668                                         !
 ! D139  D(30,22,34,26)       -176.8545                                         !
 ! D140  D(42,22,34,26)         81.2835                                         !
 ! D141  D(55,22,34,26)        -80.5805                                         !
 ! D142  D(58,22,34,26)        -28.9503                                         !
 ! D143  D(66,22,34,26)          5.376                                          !
 ! D144  D(30,22,42,50)       -171.677                                          !
 ! D145  D(34,22,42,50)        -77.1622                                         !
 ! D146  D(55,22,42,50)        -17.508                                          !
 ! D147  D(58,22,42,50)         84.0583                                         !
 ! D148  D(66,22,42,50)         -5.3591                                         !
 ! D149  D(30,22,55,27)       -127.358                                          !
 ! D150  D(34,22,55,27)        138.3602                                         !
 ! D151  D(42,22,55,27)         78.0536                                         !
 ! D152  D(58,22,55,27)        -26.2067                                         !
 ! D153  D(66,22,55,27)         66.223                                          !
 ! D154  D(30,22,58,52)        123.805                                          !
 ! D155  D(34,22,58,52)        -23.487                                          !
 ! D156  D(42,22,58,52)       -131.5646                                         !
 ! D157  D(55,22,58,52)         27.8345                                         !
 ! D158  D(66,22,58,52)        -55.8497                                         !
 ! D159  D(34,22,66,26)         -4.2815                                         !
 ! D160  D(34,22,66,50)         96.0961                                         !
 ! D161  D(34,22,66,73)       -134.267                                          !
 ! D162  D(42,22,66,26)        -95.6433                                         !
 ! D163  D(42,22,66,50)          4.7343                                         !
 ! D164  D(42,22,66,73)        134.3713                                         !
 ! D165  D(55,22,66,26)         80.014                                          !
 ! D166  D(55,22,66,50)       -179.6084                                         !
 ! D167  D(55,22,66,73)        -49.9714                                         !
 ! D168  D(58,22,66,26)        164.7215                                         !
 ! D169  D(58,22,66,50)        -94.9009                                         !
 ! D170  D(58,22,66,73)         34.7361                                         !
 ! D171  D(31,23,35,27)       -178.7902                                         !
 ! D172  D(43,23,35,27)         77.0959                                         !
 ! D173  D(54,23,35,27)        -84.7311                                         !
 ! D174  D(59,23,35,27)        -37.8041                                         !
 ! D175  D(67,23,35,27)          2.0201                                         !
 ! D176  D(70,23,35,27)       -126.5578                                         !
 ! D177  D(31,23,43,51)       -171.739                                          !
 ! D178  D(35,23,43,51)        -73.9263                                         !
 ! D179  D(54,23,43,51)         -9.3177                                         !
 ! D180  D(59,23,43,51)         85.1059                                         !
 ! D181  D(67,23,43,51)         -2.5623                                         !
 ! D182  D(70,23,43,51)        136.4759                                         !
 ! D183  D(31,23,54,26)       -129.554                                          !
 ! D184  D(35,23,54,26)        133.5944                                         !
 ! D185  D(43,23,54,26)         67.5598                                         !
 ! D186  D(59,23,54,26)        -29.7449                                         !
 ! D187  D(67,23,54,26)         60.9758                                         !
 ! D188  D(31,23,59,53)        123.1149                                         !
 ! D189  D(35,23,59,53)        -17.5102                                         !
 ! D190  D(43,23,59,53)       -130.7492                                         !
 ! D191  D(54,23,59,53)         29.1939                                         !
 ! D192  D(67,23,59,53)        -55.0361                                         !
 ! D193  D(35,23,67,27)         -1.5771                                         !
 ! D194  D(35,23,67,51)         97.162                                          !
 ! D195  D(35,23,67,73)       -132.3292                                         !
 ! D196  D(43,23,67,27)        -96.5268                                         !
 ! D197  D(43,23,67,51)          2.2122                                         !
 ! D198  D(43,23,67,73)        132.721                                          !
 ! D199  D(54,23,67,27)         81.1607                                         !
 ! D200  D(54,23,67,51)        179.8998                                         !
 ! D201  D(54,23,67,73)        -49.5915                                         !
 ! D202  D(59,23,67,27)        163.9804                                         !
 ! D203  D(59,23,67,51)        -97.2805                                         !
 ! D204  D(59,23,67,73)         33.2283                                         !
 ! D205  D(70,23,67,27)        118.5663                                         !
 ! D206  D(70,23,67,51)       -142.6946                                         !
 ! D207  D(70,23,67,73)        -12.1858                                         !
 ! D208  D(35,23,70,26)         65.9749                                         !
 ! D209  D(35,23,70,41)        155.1226                                         !
 ! D210  D(35,23,70,46)         52.3636                                         !
 ! D211  D(35,23,70,53)        137.445                                          !
 ! D212  D(35,23,70,62)        103.4871                                         !
 ! D213  D(43,23,70,26)       -151.7538                                         !
 ! D214  D(43,23,70,41)        -62.6062                                         !
 ! D215  D(43,23,70,46)       -165.3652                                         !
 ! D216  D(43,23,70,53)        -80.2837                                         !
 ! D217  D(43,23,70,62)       -114.2416                                         !
 ! D218  D(67,23,70,26)        -30.0139                                         !
 ! D219  D(67,23,70,41)         59.1338                                         !
 ! D220  D(67,23,70,46)        -43.6252                                         !
 ! D221  D(67,23,70,53)         41.4562                                         !
 ! D222  D(67,23,70,62)          7.4983                                         !
 ! D223  D(32,24,36,28)       -178.2955                                         !
 ! D224  D(44,24,36,28)         77.5833                                         !
 ! D225  D(57,24,36,28)        -83.83                                           !
 ! D226  D(60,24,36,28)        -35.2504                                         !
 ! D227  D(68,24,36,28)          2.6633                                         !
 ! D228  D(71,24,36,28)       -126.6601                                         !
 ! D229  D(32,24,44,52)       -171.5831                                         !
 ! D230  D(36,24,44,52)        -73.595                                          !
 ! D231  D(57,24,44,52)         -6.4369                                         !
 ! D232  D(60,24,44,52)         85.6851                                         !
 ! D233  D(68,24,44,52)         -2.072                                          !
 ! D234  D(71,24,44,52)        138.2658                                         !
 ! D235  D(32,24,57,29)       -128.9669                                         !
 ! D236  D(36,24,57,29)        133.9919                                         !
 ! D237  D(44,24,57,29)         65.5052                                         !
 ! D238  D(60,24,57,29)        -29.3274                                         !
 ! D239  D(68,24,57,29)         61.254                                          !
 ! D240  D(32,24,60,50)        119.0914                                         !
 ! D241  D(36,24,60,50)        -23.6555                                         !
 ! D242  D(44,24,60,50)       -135.0212                                         !
 ! D243  D(57,24,60,50)         24.7995                                         !
 ! D244  D(68,24,60,50)        -59.4567                                         !
 ! D245  D(71,24,60,50)         81.582                                          !
 ! D246  D(36,24,68,28)         -2.078                                          !
 ! D247  D(36,24,68,52)         96.7362                                         !
 ! D248  D(36,24,68,73)       -132.0745                                         !
 ! D249  D(44,24,68,28)        -97.0273                                         !
 ! D250  D(44,24,68,52)          1.7869                                         !
 ! D251  D(44,24,68,73)        132.9763                                         !
 ! D252  D(57,24,68,28)         81.4711                                         !
 ! D253  D(57,24,68,52)       -179.7147                                         !
 ! D254  D(57,24,68,73)        -48.5253                                         !
 ! D255  D(60,24,68,28)        164.4222                                         !
 ! D256  D(60,24,68,52)        -96.7636                                         !
 ! D257  D(60,24,68,73)         34.4257                                         !
 ! D258  D(71,24,68,28)        117.0669                                         !
 ! D259  D(71,24,68,52)       -144.1189                                         !
 ! D260  D(71,24,68,73)        -12.9296                                         !
 ! D261  D(36,24,71,29)         66.6393                                         !
 ! D262  D(36,24,71,38)        156.8463                                         !
 ! D263  D(36,24,71,49)         52.9493                                         !
 ! D264  D(36,24,71,50)        138.2731                                         !
 ! D265  D(36,24,71,65)        104.9956                                         !
 ! D266  D(44,24,71,29)       -152.5254                                         !
 ! D267  D(44,24,71,38)        -62.3185                                         !
 ! D268  D(44,24,71,49)       -166.2155                                         !
 ! D269  D(44,24,71,50)        -80.8916                                         !
 ! D270  D(44,24,71,65)       -114.1691                                         !
 ! D271  D(60,24,71,29)        -87.3486                                         !
 ! D272  D(60,24,71,38)          2.8583                                         !
 ! D273  D(60,24,71,49)       -101.0387                                         !
 ! D274  D(60,24,71,50)        -15.7148                                         !
 ! D275  D(60,24,71,65)        -48.9923                                         !
 ! D276  D(68,24,71,29)        -29.2032                                         !
 ! D277  D(68,24,71,38)         61.0038                                         !
 ! D278  D(68,24,71,49)        -42.8933                                         !
 ! D279  D(68,24,71,50)         42.4306                                         !
 ! D280  D(68,24,71,65)          9.1531                                         !
 ! D281  D(33,25,37,29)       -178.7993                                         !
 ! D282  D(45,25,37,29)         77.3182                                         !
 ! D283  D(56,25,37,29)        -83.7889                                         !
 ! D284  D(61,25,37,29)        -36.0956                                         !
 ! D285  D(69,25,37,29)          2.4931                                         !
 ! D286  D(72,25,37,29)       -126.6331                                         !
 ! D287  D(33,25,45,53)       -171.1288                                         !
 ! D288  D(37,25,45,53)        -73.9894                                         !
 ! D289  D(56,25,45,53)         -7.8189                                         !
 ! D290  D(61,25,45,53)         85.8841                                         !
 ! D291  D(69,25,45,53)         -2.6082                                         !
 ! D292  D(72,25,45,53)        137.1232                                         !
 ! D293  D(33,25,56,28)       -128.5623                                         !
 ! D294  D(37,25,56,28)        135.2298                                         !
 ! D295  D(45,25,56,28)         67.7222                                         !
 ! D296  D(61,25,56,28)        -28.7412                                         !
 ! D297  D(69,25,56,28)         62.6486                                         !
 ! D298  D(33,25,61,51)        122.3459                                         !
 ! D299  D(37,25,61,51)        -19.9537                                         !
 ! D300  D(45,25,61,51)       -131.8404                                         !
 ! D301  D(56,25,61,51)         27.5422                                         !
 ! D302  D(69,25,61,51)        -56.3346                                         !
 ! D303  D(37,25,69,29)         -1.9449                                         !
 ! D304  D(37,25,69,53)         96.9722                                         !
 ! D305  D(37,25,69,73)       -133.0453                                         !
 ! D306  D(45,25,69,29)        -96.6837                                         !
 ! D307  D(45,25,69,53)          2.2334                                         !
 ! D308  D(45,25,69,73)        132.2159                                         !
 ! D309  D(56,25,69,29)         81.4823                                         !
 ! D310  D(56,25,69,53)       -179.6005                                         !
 ! D311  D(56,25,69,73)        -49.6181                                         !
 ! D312  D(61,25,69,29)        164.6811                                         !
 ! D313  D(61,25,69,53)        -96.4018                                         !
 ! D314  D(61,25,69,73)         33.5807                                         !
 ! D315  D(72,25,69,29)        117.9091                                         !
 ! D316  D(72,25,69,53)       -143.1738                                         !
 ! D317  D(72,25,69,73)        -13.1913                                         !
 ! D318  D(37,25,72,28)         66.7068                                         !
 ! D319  D(37,25,72,39)        156.3273                                         !
 ! D320  D(37,25,72,48)         52.6914                                         !
 ! D321  D(37,25,72,51)        138.4422                                         !
 ! D322  D(37,25,72,64)        104.7096                                         !
 ! D323  D(45,25,72,28)       -151.8298                                         !
 ! D324  D(45,25,72,39)        -62.2094                                         !
 ! D325  D(45,25,72,48)       -165.8452                                         !
 ! D326  D(45,25,72,51)        -80.0945                                         !
 ! D327  D(45,25,72,64)       -113.827                                          !
 ! D328  D(69,25,72,28)        -29.3731                                         !
 ! D329  D(69,25,72,39)         60.2474                                         !
 ! D330  D(69,25,72,48)        -43.3885                                         !
 ! D331  D(69,25,72,51)         42.3623                                         !
 ! D332  D(69,25,72,64)          8.6297                                         !
 ! D333  D(18,26,34,22)        -77.1495                                         !
 ! D334  D(46,26,34,22)       -171.4673                                         !
 ! D335  D(54,26,34,22)         84.3775                                         !
 ! D336  D(62,26,34,22)        -17.3859                                         !
[...]
 Alpha virt. eigenvalues --  576.48033 576.48337 576.48686
          Condensed to atoms (all electrons):
 Mulliken charges:
               1
     1  Cl   0.000000
     2  C    0.000000
     3  C    0.000000
     4  C    0.000000
     5  C    0.000000
     6  C    0.000000
     7  C    0.000000
     8  H    0.000000
     9  H    0.000000
    10  H    0.000000
    11  H    0.000000
    12  H    0.000000
    13  C    0.000000
    14  C    0.000000
    15  H    0.000000
    16  H    0.000000
    17  H    0.000000
    18  O   -0.619567
    19  O   -0.612600
    20  O   -0.628485
    21  O   -0.618958
    22  W    1.710754
    23  W    1.664041
    24  W    1.676878
    25  W    1.684286
    26  W    1.648019
    27  W    1.731566
    28  W    1.664473
    29  W    1.683244
    30  O   -0.303924
    31  O   -0.377316
    32  O   -0.381633
    33  O   -0.374648
    34  O   -0.609395
    35  O   -0.627783
    36  O   -0.623371
    37  O   -0.620947
    38  O   -0.374848
    39  O   -0.376133
    40  O   -0.299152
    41  O   -0.377605
    42  O   -0.629899
    43  O   -0.620704
    44  O   -0.608793
    45  O   -0.622567
    46  O   -0.377712
    47  O   -0.297971
    48  O   -0.375169
    49  O   -0.376862
    50  W    1.642235
    51  W    1.674371
    52  W    1.723373
    53  W    1.690191
    54  O   -0.710284
    55  O   -0.701678
    56  O   -0.721115
    57  O   -0.718037
    58  O   -0.691133
    59  O   -0.725002
    60  O   -0.717272
    61  O   -0.715631
    62  O   -0.718821
    63  O   -0.698075
    64  O   -0.714546
    65  O   -0.718598
    66  O   -0.836312
    67  O   -0.854263
    68  O   -0.853591
    69  O   -0.876273
    70  K    0.824647
    71  K    0.825139
    72  K    0.825434
    73  V    1.038020
 Sum of Mulliken charges =  -0.00000
 Mulliken charges with hydrogens summed into heavy atoms:
               1
     1  Cl   0.000000
     2  C    0.000000
     3  C    0.000000
     4  C    0.000000
     5  C    0.000000
     6  C    0.000000
     7  C    0.000000
    13  C    0.000000
    14  C    0.000000
    18  O   -0.619567
    19  O   -0.612600
    20  O   -0.628485
    21  O   -0.618958
    22  W    1.710754
    23  W    1.664041
    24  W    1.676878
    25  W    1.684286
    26  W    1.648019
    27  W    1.731566
    28  W    1.664473
    29  W    1.683244
    30  O   -0.303924
    31  O   -0.377316
    32  O   -0.381633
    33  O   -0.374648
    34  O   -0.609395
    35  O   -0.627783
    36  O   -0.623371
    37  O   -0.620947
    38  O   -0.374848
    39  O   -0.376133
    40  O   -0.299152
    41  O   -0.377605
    42  O   -0.629899
    43  O   -0.620704
    44  O   -0.608793
    45  O   -0.622567
    46  O   -0.377712
    47  O   -0.297971
    48  O   -0.375169
    49  O   -0.376862
    50  W    1.642235
    51  W    1.674371
    52  W    1.723373
    53  W    1.690191
    54  O   -0.710284
    55  O   -0.701678
    56  O   -0.721115
    57  O   -0.718037
    58  O   -0.691133
    59  O   -0.725002
    60  O   -0.717272
    61  O   -0.715631
    62  O   -0.718821
    63  O   -0.698075
    64  O   -0.714546
    65  O   -0.718598
    66  O   -0.836312
    67  O   -0.854263
    68  O   -0.853591
    69  O   -0.876273
    70  K    0.824647
    71  K    0.825139
    72  K    0.825434
    73  V    1.038020
         Mulliken charges condensed to fragments:
      1     -0.000000
      2      0.000000
 Electronic spatial extent (au):  <R**2>=         246171.4621
 Charge=             -0.0000 electrons
 Dipole moment (field-independent basis, Debye):
    X=              1.9649    Y=            -13.3796    Z=             11.0009  Tot=             17.4325
 Quadrupole moment (field-independent basis, Debye-Ang):
   XX=           -547.2553   YY=           -537.8767   ZZ=           -360.0622
   XY=             75.5885   XZ=            -42.3693   YZ=            -87.3534
 Traceless Quadrupole moment (field-independent basis, Debye-Ang):
   XX=            -65.5239   YY=            -56.1453   ZZ=            121.6692
   XY=             75.5885   XZ=            -42.3693   YZ=            -87.3534
 Octapole moment (field-independent basis, Debye-Ang**2):
  XXX=           7170.7921  YYY=           2789.5448  ZZZ=         -12206.8136  XYY=           2424.7320
  XXY=            551.0448  XXZ=          -4127.7656  XZZ=           1595.5530  YZZ=            353.7559
  YYZ=          -5159.1164  XYZ=            757.8468
 Hexadecapole moment (field-independent basis, Debye-Ang**3):
 XXXX=         -80009.8809 YYYY=         -26272.0261 ZZZZ=        -249983.8285 XXXY=         -10124.6471
 XXXZ=          56648.0314 YYYX=         -13171.8697 YYYZ=          27150.8287 ZZZX=          53933.7084
 ZZZY=          20868.1679 XXYY=         -18587.0674 XXZZ=         -46256.6332 YYZZ=         -55937.3076
 XXYZ=           2686.3161 YYXZ=          22188.5043 ZZXY=           3878.0500
 N-N= 1.801848270971D+04 E-N=-5.125345922979D+04  KE= 5.998821430778D+03
 CPIOFr:  IOpCl= 0 IRwI=-1 IRwCP=  731 ICalc=  1 LCPTot=     2259418 Len1MO=     4456679 IndFrg=    11172776
 CPIOFr:  IOpCl= 0 IRwI= 2 IRwCP=  731 ICalc=  0 LCPTot=     2259418 Len1MO=     4456679 IndFrg=     6716097
 CPIOFr:  IOpCl= 0 IRwI= 1 IRwCP=  731 ICalc=  0 LCPTot=     2259418 Len1MO=     4456679 IndFrg=     6716097
 Fragment guess: doing calculation for fragment   2 using the basis set of the fragment.
 Basis read from rwf:  (5D, 7F)
 Pseudo-potential data read from rwf file.
   170 basis functions,   293 primitive gaussians,   179 cartesian basis functions
    37 alpha electrons       37 beta electrons
       nuclear repulsion energy       436.7548488364 Hartrees.
 NAtoms=   73 NActive=   17 NUniq=   17 SFac= 1.00D+00 NAtFMM=   60 NAOKFM=F Big=F
 Integral buffers will be    131072 words long.
 Raffenetti 2 integral format.
 Two-electron integral symmetry is turned off.
 Nuclear repulsion after empirical dispersion term =      436.7463171454 Hartrees.
 One-electron integrals computed using PRISM.
   1 Symmetry operations used in ECPInt.
 ECPInt:  NShTT=    3240 NPrTT=   12086 LenC2=    3154 LenP2D=    9108.
 LDataN:  DoStor=T MaxTD1= 4 Len=   56
 NBasis=   170 RedAO= T EigKep=  3.01D-04  NBF=   170
 NBsUse=   170 1.00D-06 EigRej= -1.00D+00 NBFU=   170
 ExpMin= 1.22D-01 ExpMax= 1.04D+04 ExpMxC= 1.57D+03 IAcc=2 IRadAn=         4 AccDes= 0.00D+00
 Harris functional with IExCor= 4639 and IRadAn=      -1 diagonalized for initial guess.
 HarFok:  IExCor= 4639 AccDes= 0.00D+00 IRadAn=        -1 IDoV= 1 UseB2=F ITyADJ=14
 ICtDFT=  3500011 ScaDFX=  1.000000  1.000000  1.000000  1.000000
 FoFCou: FMM=F IPFlag=           0 FMFlag=      100000 FMFlg1=           0
         NFxFlg=           0 DoJE=T BraDBF=F KetDBF=T FulRan=T
         wScrn=  0.000000 ICntrl=       500 IOpCl=  0 I1Cent=   200000004 NGrid=           0
         NMat0=    1 NMatS0=      1 NMatT0=    0 NMatD0=    1 NMtDS0=    0 NMtDT0=    0
 Symmetry not used in FoFCou.
 Requested convergence on RMS density matrix=1.00D-08 within  64 cycles.
 Requested convergence on MAX density matrix=1.00D-06.
 Requested convergence on             energy=1.00D-06.
 No special actions if energy rises.
 Integral accuracy reduced to 1.0D-05 until final iterations.
 Initial convergence to 1.0D-05 achieved.  Increase integral accuracy.
 SCF Done:  E(RwB97XD) =  -769.412638217     A.U. after   16 cycles
            NFock= 16  Conv=0.66D-08     -V/T= 2.0059
 QCSCF skips out because SCF is already converged.

 **********************************************************************

            Population analysis using the SCF Density.

 **********************************************************************

 Alpha  occ. eigenvalues -- -101.33620 -10.18354 -10.18182 -10.17778 -10.17731
 Alpha  occ. eigenvalues --  -10.17205 -10.16897 -10.15750 -10.12996  -9.24104
 Alpha  occ. eigenvalues --   -6.99050  -6.98807  -6.98804  -0.82452  -0.73889
 Alpha  occ. eigenvalues --   -0.71218  -0.67282  -0.58036  -0.56675  -0.55974
 Alpha  occ. eigenvalues --   -0.50809  -0.46835  -0.42493  -0.40962  -0.39037
 Alpha  occ. eigenvalues --   -0.37931  -0.34925  -0.33733  -0.31717  -0.29467
 Alpha  occ. eigenvalues --   -0.27937  -0.24585  -0.20866  -0.16965  -0.09536
 Alpha  occ. eigenvalues --   -0.09487  -0.07560
 Alpha virt. eigenvalues --    0.17333   0.18675   0.24993   0.27472   0.28191
 Alpha virt. eigenvalues --    0.30195   0.31344   0.31955   0.34232   0.37641
 Alpha virt. eigenvalues --    0.38578   0.41635   0.46268   0.48631   0.49151
 Alpha virt. eigenvalues --    0.51367   0.52982   0.56084   0.59372   0.60667
 Alpha virt. eigenvalues --    0.61148   0.62323   0.64595   0.65243   0.67789
 Alpha virt. eigenvalues --    0.69025   0.70186   0.72525   0.72619   0.74467
 Alpha virt. eigenvalues --    0.74973   0.77089   0.78943   0.80337   0.83580
 Alpha virt. eigenvalues --    0.84484   0.85211   0.87236   0.88182   0.88844
 Alpha virt. eigenvalues --    0.90152   0.91440   0.91951   0.92740   0.94113
 Alpha virt. eigenvalues --    0.95524   0.96094   0.98030   1.00380   1.01089
 Alpha virt. eigenvalues --    1.03446   1.07656   1.08660   1.10367   1.16286
 Alpha virt. eigenvalues --    1.18928   1.18968   1.20707   1.22136   1.24794
 Alpha virt. eigenvalues --    1.27410   1.28782   1.29117   1.33358   1.37125
 Alpha virt. eigenvalues --    1.38937   1.45038   1.45189   1.47015   1.48186
 Alpha virt. eigenvalues --    1.49397   1.50769   1.53215   1.54309   1.58423
 Alpha virt. eigenvalues --    1.61911   1.72712   1.85076   1.86280   1.87302
 Alpha virt. eigenvalues --    1.88151   1.91324   1.92569   1.94362   1.95973
 Alpha virt. eigenvalues --    1.96357   1.96964   1.98558   2.00096   2.01228
 Alpha virt. eigenvalues --    2.04719   2.06314   2.09690   2.13320   2.15336
 Alpha virt. eigenvalues --    2.18254   2.19000   2.19274   2.20958   2.26779
 Alpha virt. eigenvalues --    2.30971   2.31911   2.34689   2.36168   2.36215
 Alpha virt. eigenvalues --    2.41709   2.46852   2.48002   2.52067   2.52638
 Alpha virt. eigenvalues --    2.55149   2.56214   2.59978   2.63110   2.71457
 Alpha virt. eigenvalues --    2.77605   2.80530   2.81914   2.85612   2.87187
 Alpha virt. eigenvalues --    2.92839   2.94166   2.96240   3.03314   3.07593
 Alpha virt. eigenvalues --    3.09189   3.12093   3.22783   3.27959   3.34571
 Alpha virt. eigenvalues --    3.43597   3.59292   3.85559
          Condensed to atoms (all electrons):
 Mulliken charges:
               1
     1  Cl  -0.753001
     2  C   -0.045242
     3  C    0.089266
     4  C   -0.067349
     5  C   -0.015080
     6  C   -0.048703
     7  C   -0.017459
     8  H   -0.003989
     9  H   -0.022689
    10  H   -0.020569
    11  H   -0.023919
    12  H   -0.016085
    13  C   -0.132613
    14  C    0.086402
    15  H   -0.038964
    16  H    0.014893
    17  H    0.015102
    18  O    0.000000
    19  O    0.000000
    20  O    0.000000
    21  O    0.000000
    22  W    0.000000
    23  W    0.000000
    24  W    0.000000
    25  W    0.000000
    26  W    0.000000
    27  W    0.000000
    28  W    0.000000
    29  W    0.000000
    30  O    0.000000
    31  O    0.000000
    32  O    0.000000
    33  O    0.000000
    34  O    0.000000
    35  O    0.000000
    36  O    0.000000
    37  O    0.000000
    38  O    0.000000
    39  O    0.000000
    40  O    0.000000
    41  O    0.000000
    42  O    0.000000
    43  O    0.000000
    44  O    0.000000
    45  O    0.000000
    46  O    0.000000
    47  O    0.000000
    48  O    0.000000
    49  O    0.000000
    50  W    0.000000
    51  W    0.000000
    52  W    0.000000
    53  W    0.000000
    54  O    0.000000
    55  O    0.000000
    56  O    0.000000
    57  O    0.000000
    58  O    0.000000
    59  O    0.000000
    60  O    0.000000
    61  O    0.000000
    62  O    0.000000
    63  O    0.000000
    64  O    0.000000
    65  O    0.000000
    66  O    0.000000
    67  O    0.000000
    68  O    0.000000
    69  O    0.000000
    70  K    0.000000
    71  K    0.000000
    72  K    0.000000
    73  V    0.000000
 Sum of Mulliken charges =  -1.00000
 Mulliken charges with hydrogens summed into heavy atoms:
               1
     1  Cl  -0.753001
     2  C   -0.049231
     3  C    0.089266
     4  C   -0.090038
     5  C   -0.035649
     6  C   -0.072622
     7  C   -0.033544
    13  C   -0.171577
    14  C    0.116396
    18  O    0.000000
    19  O    0.000000
    20  O    0.000000
    21  O    0.000000
    22  W    0.000000
    23  W    0.000000
    24  W    0.000000
    25  W    0.000000
    26  W    0.000000
    27  W    0.000000
    28  W    0.000000
    29  W    0.000000
    30  O    0.000000
    31  O    0.000000
    32  O    0.000000
    33  O    0.000000
    34  O    0.000000
    35  O    0.000000
    36  O    0.000000
    37  O    0.000000
    38  O    0.000000
    39  O    0.000000
    40  O    0.000000
    41  O    0.000000
    42  O    0.000000
    43  O    0.000000
    44  O    0.000000
    45  O    0.000000
    46  O    0.000000
    47  O    0.000000
    48  O    0.000000
    49  O    0.000000
    50  W    0.000000
    51  W    0.000000
    52  W    0.000000
    53  W    0.000000
    54  O    0.000000
    55  O    0.000000
    56  O    0.000000
    57  O    0.000000
    58  O    0.000000
    59  O    0.000000
    60  O    0.000000
    61  O    0.000000
    62  O    0.000000
    63  O    0.000000
    64  O    0.000000
    65  O    0.000000
    66  O    0.000000
    67  O    0.000000
    68  O    0.000000
    69  O    0.000000
    70  K    0.000000
    71  K    0.000000
    72  K    0.000000
    73  V    0.000000
         Mulliken charges condensed to fragments:
      1      0.000000
      2     -1.000000
 Electronic spatial extent (au):  <R**2>=          71918.8267
 Charge=             -1.0000 electrons
 Dipole moment (field-independent basis, Debye):
    X=             50.0320    Y=            -35.0010    Z=            -52.8510  Tot=             80.7558
 Quadrupole moment (field-independent basis, Debye-Ang):
   XX=           -585.5335   YY=           -341.3938   ZZ=           -647.5990
   XY=            371.2114   XZ=            551.3168   YZ=           -377.9354
 Traceless Quadrupole moment (field-independent basis, Debye-Ang):
   XX=            -60.6914   YY=            183.4483   ZZ=           -122.7569
   XY=            371.2114   XZ=            551.3168   YZ=           -377.9354
 Octapole moment (field-independent basis, Debye-Ang**2):
  XXX=           7353.3627  YYY=          -3337.4950  ZZZ=          -8705.9191  XYY=           3597.0325
  XXY=          -4276.2413  XXZ=          -6499.4836  XZZ=           6736.7499  YZZ=          -4432.7450
  YYZ=          -3709.5799  XYZ=           4015.5689
 Hexadecapole moment (field-independent basis, Debye-Ang**3):
 XXXX=         -95174.3681 YYYY=         -32315.1923 ZZZZ=        -124978.3239 XXXY=          51897.6314
 XXXZ=          82352.5160 YYYX=          34884.7922 YYYZ=         -36169.7768 ZZZX=          90039.9332
 ZZZY=         -56005.3337 XXYY=         -40017.1467 XXZZ=         -78986.3587 YYZZ=         -42639.1771
 XXYZ=         -46483.8111 YYXZ=          39089.7206 ZZXY=          46973.9227
 N-N= 4.367463171454D+02 E-N=-2.696292240782D+03  KE= 7.649360187972D+02
 CPIOFr:  IOpCl= 0 IRwI=-1 IRwCP=  731 ICalc=  2 LCPTot=     2259418 Len1MO=     4456679 IndFrg=    15629455
 CPIOFr:  IOpCl= 0 IRwI= 2 IRwCP=  731 ICalc=  0 LCPTot=     2259418 Len1MO=     4456679 IndFrg=     6716097
 CPIOFr:  IOpCl= 0 IRwI= 1 IRwCP=  731 ICalc=  0 LCPTot=     2259418 Len1MO=     4456679 IndFrg=     6716097
 CPIOFr:  IOpCl= 0 IRwI= 2 IRwCP=  731 ICalc= -1 LCPTot=     2259418 Len1MO=     4456679 IndFrg=     2259418
 CPIOFr:  IOpCl= 0 IRwI= 2 IRwCP=  731 ICalc=  0 LCPTot=     2259418 Len1MO=     4456679 IndFrg=     6716097
 FinFrg:  NACore=   137 NAVal2=   184 NAVal1=     0 NBCore=   137 NBVal2=   184 NBVal1=     0
 Alpha deviation from unit magnitude is 1.18D-13 for orbital   1217.
 Alpha deviation from orthogonality  is 1.70D-13 for orbitals  1167  1001.
 Beta  deviation from unit magnitude is 1.16D-13 for orbital   1217.
 Beta  deviation from orthogonality  is 2.17D-13 for orbitals  1217  1195.
 Unable to Open any file for archive entry.
 1\1\GINC-X11P1N11\SP\RwB97XD\def2SVP\C8H8Cl1K3O40V1W12(1-)\MAYUMIAO\31
 -May-2024\0\\# wb97xd nosymm geom=modredundant guess=fragment=2 def2sv
 p g09default scf=(xqc,maxcycle=64)\\Title Card\\-1,1\Cl,0,-10.55490575
 ,8.58580054,10.58171048\C,0,-9.06732688,5.06981507,12.52834553\C,0,-9.
 79935216,4.65375132,11.39825396\C,0,-10.66340403,3.55273254,11.5551296
 3\C,0,-10.7971609,2.90131032,12.77958708\C,0,-10.06511303,3.32999309,1
 3.88780819\C,0,-9.19869695,4.41673646,13.7516152\H,0,-8.3836234,5.9185
 3291,12.45267287\H,0,-11.242058,3.20586716,10.69478901\H,0,-11.4787996
 9,2.0518082,12.86886954\H,0,-10.16902478,2.82254449,14.84955191\H,0,-8
 .61908391,4.76401098,14.61068382\C,0,-9.73025292,5.34113342,10.1019336
 8\C,0,-9.12625353,6.52969271,9.88073016\H,0,-10.35727267,4.91465024,9.
 31113594\H,0,-9.09724771,6.93397218,8.86805114\H,0,-8.38778973,6.93176
 585,10.57455431\O,0,-0.67304072,-2.07415447,7.25481812\O,0,-8.28357972
 ,-1.40973747,7.34814012\O,0,-6.81808272,1.25642753,10.50490612\O,0,-2.
 10824772,-4.75241847,10.48016112\W,0,-3.10474572,0.46438353,6.53787012
 \W,0,-5.93295072,-3.99965347,6.57883912\W,0,-3.35783172,0.65294153,11.
 22365612\W,0,-5.55610672,-4.14574747,11.26644412\W,0,-2.37529272,-2.74
 611547,6.25607312\W,0,-6.64927272,-0.81036047,6.28848112\W,0,-6.423121
 72,-0.46911347,11.54896212\W,0,-2.48066472,-3.03309847,11.53113612\O,0
 ,-2.98959872,1.64654853,5.29338912\O,0,-6.02754772,-5.22994647,5.38002
 512\O,0,-2.34979672,1.38428153,12.41068612\O,0,-6.52064672,-4.87995147
 ,12.48652812\O,0,-2.37895472,-1.10176247,5.37274212\O,0,-6.59854272,-2
 .44720547,5.42258412\O,0,-5.00054872,0.37473953,12.39494012\O,0,-3.877
 79872,-3.86541647,12.41217012\O,0,0.51143728,-0.39555247,9.14740112\O,
 0,-9.46533572,-3.07861047,9.28595812\O,0,-6.07721572,3.16145453,8.5699
 0812\O,0,-2.88662972,-6.66338747,8.56547212\O,0,-1.40428272,0.53923353
 ,7.30711912\O,0,-7.57211572,-4.07929147,7.42972712\O,0,-4.18344672,2.0
 8789953,10.39313212\O,0,-4.73817872,-5.58412247,10.42373812\O,0,-1.512
 60972,-3.74757747,5.15339912\O,0,-7.46467372,0.21961653,5.17743612\O,0
 ,-7.71461272,-0.32479447,12.67534712\O,0,-1.16218072,-3.15911047,12.62
 948912\W,0,-1.05229372,-0.96071447,8.70299912\W,0,-7.91301672,-2.55543
 047,8.76257012\W,0,-5.67395672,1.57083553,9.08856212\W,0,-3.28630272,-
 5.07377047,9.08816112\O,0,-4.10242672,-3.27184647,5.95171112\O,0,-4.89
 489472,-0.29569247,5.98364912\O,0,-5.92024872,-2.21639847,11.84293612\
 O,0,-2.96820972,-1.27702647,11.80009412\O,0,-4.06306372,1.36235653,7.8
 1277112\O,0,-4.90140472,-4.85133847,7.84599312\O,0,-2.10246372,0.27476
 553,9.91532412\O,0,-6.84328072,-3.78213747,9.99879712\O,0,-2.43247472,
 -4.07804247,7.77909612\O,0,-6.52873672,0.57874053,7.79124212\O,0,-7.53
 949272,-1.28927047,10.04767212\O,0,-1.36747672,-2.21940747,9.99578312\
 O,0,-2.99260172,-1.32375747,7.77966412\O,0,-5.97549972,-2.20660247,7.8
 1858612\O,0,-4.90854472,-0.25858747,9.99253012\O,0,-4.02265172,-3.2380
 3447,10.00707612\K,0,-3.22808472,-6.21356447,5.64912512\K,0,-0.0385277
 2,-0.44343747,12.16300412\K,0,-8.87239872,-3.04750447,12.23061112\V,0,
 -4.47713672,-1.75705647,8.90181312\\Version=ES64L-G16RevC.01\HF=-769.4
 126382\RMSD=6.581e-09\Dipole=10.1157106,-15.7861345,-3.1981946\Quadrup
 ole=-45.1225735,136.3893179,-91.2667444,275.9865688,409.8905228,-280.9
 85721\PG=C01 [X(C8H8Cl1K3O40V1W12)]\\@
 The archive entry for this job was punched.


 LOGIC IS A SYSTEMATIC METHOD OF COMING TO THE
 WRONG CONCLUSION WITH CONFIDENCE.
 Job cpu time:       1 days  9 hours 11 minutes 52.1 seconds.
 Elapsed time:       0 days  0 hours 35 minutes 50.9 seconds.
 File lengths (MBytes):  RWF=    725 Int=      0 D2E=      0 Chk=    179 Scr=      1
 Normal termination of Gaussian 16 at Fri May 31 18:03:48 2024.
