 Entering Gaussian System, Link 0=g16
 Input=c.gjf
 Output=c.log
 Initial command:
 /data/app/gaussian/C01-avx2//g16/l1.exe "/tmp/Gau-257611.inp" -scrdir="/tmp/"
 Entering Link 1 = /data/app/gaussian/C01-avx2//g16/l1.exe PID=    257612.
  
 Copyright (c) 1988-2019, Gaussian, Inc.  All Rights Reserved.
  
 This is part of the Gaussian(R) 16 program.  It is based on
 the Gaussian(R) 09 system (copyright 2009, Gaussian, Inc.),
 the Gaussian(R) 03 system (copyright 2003, Gaussian, Inc.),
 the Gaussian(R) 98 system (copyright 1998, Gaussian, Inc.),
 the Gaussian(R) 94 system (copyright 1995, Gaussian, Inc.),
 the Gaussian 92(TM) system (copyright 1992, Gaussian, Inc.),
 the Gaussian 90(TM) system (copyright 1990, Gaussian, Inc.),
 the Gaussian 88(TM) system (copyright 1988, Gaussian, Inc.),
 the Gaussian 86(TM) system (copyright 1986, Carnegie Mellon
 University), and the Gaussian 82(TM) system (copyright 1983,
 Carnegie Mellon University). Gaussian is a federally registered
 trademark of Gaussian, Inc.
  
 This software contains proprietary and confidential information,
 including trade secrets, belonging to Gaussian, Inc.
  
 This software is provided under written license and may be
 used, copied, transmitted, or stored only in accord with that
 written license.
  
 The following legend is applicable only to US Government
 contracts under FAR:
  
                    RESTRICTED RIGHTS LEGEND
  
 Use, reproduction and disclosure by the US Government is
 subject to restrictions as set forth in subparagraphs (a)
 and (c) of the Commercial Computer Software - Restricted
 Rights clause in FAR 52.227-19.
  
 Gaussian, Inc.
 340 Quinnipiac St., Bldg. 40, Wallingford CT 06492
  
  
 ---------------------------------------------------------------
 Warning -- This program may not be used in any manner that
 competes with the business of Gaussian, Inc. or will provide
 assistance to any competitor of Gaussian, Inc.  The licensee
 of this program is prohibited from giving any competitor of
 Gaussian, Inc. access to this program.  By using this program,
 the user acknowledges that Gaussian, Inc. is engaged in the
 business of creating and licensing software in the field of
 computational chemistry and represents and warrants to the
 licensee that it is not a competitor of Gaussian, Inc. and that
 it will not use this program in any manner prohibited above.
 ---------------------------------------------------------------
  

 Cite this work as:
 Gaussian 16, Revision C.01,
 M. J. Frisch, G. W. Trucks, H. B. Schlegel, G. E. Scuseria, 
 M. A. Robb, J. R. Cheeseman, G. Scalmani, V. Barone, 
 G. A. Petersson, H. Nakatsuji, X. Li, M. Caricato, A. V. Marenich, 
 J. Bloino, B. G. Janesko, R. Gomperts, B. Mennucci, H. P. Hratchian, 
 J. V. Ortiz, A. F. Izmaylov, J. L. Sonnenberg, D. Williams-Young, 
 F. Ding, F. Lipparini, F. Egidi, J. Goings, B. Peng, A. Petrone, 
 T. Henderson, D. Ranasinghe, V. G. Zakrzewski, J. Gao, N. Rega, 
 G. Zheng, W. Liang, M. Hada, M. Ehara, K. Toyota, R. Fukuda, 
 J. Hasegawa, M. Ishida, T. Nakajima, Y. Honda, O. Kitao, H. Nakai, 
 T. Vreven, K. Throssell, J. A. Montgomery, Jr., J. E. Peralta, 
 F. Ogliaro, M. J. Bearpark, J. J. Heyd, E. N. Brothers, K. N. Kudin, 
 V. N. Staroverov, T. A. Keith, R. Kobayashi, J. Normand, 
 K. Raghavachari, A. P. Rendell, J. C. Burant, S. S. Iyengar, 
 J. Tomasi, M. Cossi, J. M. Millam, M. Klene, C. Adamo, R. Cammi, 
 J. W. Ochterski, R. L. Martin, K. Morokuma, O. Farkas, 
 J. B. Foresman, and D. J. Fox, Gaussian, Inc., Wallingford CT, 2019.
 
 ******************************************
 Gaussian 16:  ES64L-G16RevC.01  3-Jul-2019
                31-May-2024 
 ******************************************
 %chk=b.chk
 %nprocshared=56
 Will use up to   56 processors via shared memory.
 %mem=96GB
 ----------------------------------------------------------------------
 # opt=modredundant wb97xd scrf=(smd,solvent=acetonitrile) nosymm guess
 =read def2svp g09default scf=(xqc,maxcycle=64)
 ----------------------------------------------------------------------
 1/14=-1,18=120,19=15,26=3,38=1,158=3,167=1/1,3;
 2/9=110,12=2,15=1,17=6,18=5,40=1/2;
 3/5=43,7=101,11=2,25=1,27=10,30=1,70=32201,71=1,72=2,74=-58,75=-4,116=-2,158=3/1,2,3;
 4/5=1,60=-1/1;
 5/5=2,7=64,8=3,13=1,38=6,53=2,87=10/2,8;
 6/7=2,8=2,9=2,10=2,28=1,87=10/1;
 7/30=1,87=10/1,2,3,16;
 1/14=-1,18=20,19=15,26=3,158=3,167=1/3(2);
 2/9=110,15=1/2;
 99//99;
 2/9=110,15=1/2;
 3/5=43,7=101,11=2,25=1,27=10,30=1,70=32205,71=1,72=2,74=-58,75=-4,158=3/1,2,3;
 4/5=5,16=3,60=-1,69=1/1;
 5/5=2,7=64,8=3,13=1,38=5,53=2,87=10/2,8;
 7/30=1,87=10/1,2,3,16;
 1/14=-1,18=20,19=15,26=3,158=3,167=1/3(-5);
 2/9=110,15=1/2;
 6/7=2,8=2,9=2,10=2,19=2,28=1,87=10/1;
 99/9=1/99;
 Using 2006 physical constants.
 ----------
 Title Card
 ----------
 Symbolic Z-matrix:
 Charge = -1 Multiplicity = 1
 Cl(Fragment=2)       -10.55491   8.5858    10.58171 
 C(Fragment=2)        -9.06733   5.06982   12.52835 
 C(Fragment=2)        -9.79935   4.65375   11.39825 
 C(Fragment=2)        -10.6634   3.55273   11.55513 
 C(Fragment=2)        -10.79716   2.90131   12.77959 
 C(Fragment=2)        -10.06511   3.32999   13.88781 
 C(Fragment=2)        -9.1987    4.41674   13.75162 
 H(Fragment=2)        -8.38362   5.91853   12.45267 
 H(Fragment=2)        -11.24206   3.20587   10.69479 
 H(Fragment=2)        -11.4788   2.05181   12.86887 
 H(Fragment=2)        -10.16902   2.82254   14.84955 
 H(Fragment=2)        -8.61908   4.76401   14.61068 
 C(Fragment=2)        -9.73025   5.34113   10.10193 
 C(Fragment=2)        -9.12625   6.52969   9.88073 
 H(Fragment=2)        -10.35727   4.91465   9.31114 
 H(Fragment=2)        -9.09725   6.93397   8.86805 
 H(Fragment=2)        -8.38779   6.93177   10.57455 
 O(Fragment=1)        -0.67304  -2.07415   7.25482 
 O(Fragment=1)        -8.28358  -1.40974   7.34814 
 O(Fragment=1)        -6.81808   1.25643   10.50491 
 O(Fragment=1)        -2.10825  -4.75242   10.48016 
 W(Fragment=1)        -3.10475   0.46438   6.53787 
 W(Fragment=1)        -5.93295  -3.99965   6.57884 
 W(Fragment=1)        -3.35783   0.65294   11.22366 
 W(Fragment=1)        -5.55611  -4.14575   11.26644 
 W(Fragment=1)        -2.37529  -2.74612   6.25607 
 W(Fragment=1)        -6.64927  -0.81036   6.28848 
 W(Fragment=1)        -6.42312  -0.46911   11.54896 
 W(Fragment=1)        -2.48066  -3.0331    11.53114 
 O(Fragment=1)        -2.9896    1.64655   5.29339 
 O(Fragment=1)        -6.02755  -5.22995   5.38003 
 O(Fragment=1)        -2.3498    1.38428   12.41069 
 O(Fragment=1)        -6.52065  -4.87995   12.48653 
 O(Fragment=1)        -2.37895  -1.10176   5.37274 
 O(Fragment=1)        -6.59854  -2.44721   5.42258 
 O(Fragment=1)        -5.00055   0.37474   12.39494 
 O(Fragment=1)        -3.8778   -3.86542   12.41217 
 O(Fragment=1)         0.51144  -0.39555   9.1474 
 O(Fragment=1)        -9.46534  -3.07861   9.28596 
 O(Fragment=1)        -6.07722   3.16145   8.56991 
 O(Fragment=1)        -2.88663  -6.66339   8.56547 
 O(Fragment=1)        -1.40428   0.53923   7.30712 
 O(Fragment=1)        -7.57212  -4.07929   7.42973 
 O(Fragment=1)        -4.18345   2.0879    10.39313 
 O(Fragment=1)        -4.73818  -5.58412   10.42374 
 O(Fragment=1)        -1.51261  -3.74758   5.1534 
 O(Fragment=1)        -7.46467   0.21962   5.17744 
 O(Fragment=1)        -7.71461  -0.32479   12.67535 
 O(Fragment=1)        -1.16218  -3.15911   12.62949 
 W(Fragment=1)        -1.05229  -0.96071   8.703 
 W(Fragment=1)        -7.91302  -2.55543   8.76257 
 W(Fragment=1)        -5.67396   1.57084   9.08856 
 W(Fragment=1)        -3.2863   -5.07377   9.08816 
 O(Fragment=1)        -4.10243  -3.27185   5.95171 
 O(Fragment=1)        -4.89489  -0.29569   5.98365 
 O(Fragment=1)        -5.92025  -2.2164    11.84294 
 O(Fragment=1)        -2.96821  -1.27703   11.80009 
 O(Fragment=1)        -4.06306   1.36236   7.81277 
 O(Fragment=1)        -4.9014   -4.85134   7.84599 
 O(Fragment=1)        -2.10246   0.27477   9.91532 
 O(Fragment=1)        -6.84328  -3.78214   9.9988 
 O(Fragment=1)        -2.43247  -4.07804   7.7791 
 O(Fragment=1)        -6.52874   0.57874   7.79124 
 O(Fragment=1)        -7.53949  -1.28927   10.04767 
 O(Fragment=1)        -1.36748  -2.21941   9.99578 
 O(Fragment=1)        -2.9926   -1.32376   7.77966 
 O(Fragment=1)        -5.9755   -2.2066    7.81859 
 O(Fragment=1)        -4.90854  -0.25859   9.99253 
 O(Fragment=1)        -4.02265  -3.23803   10.00708 
 K(Fragment=1)        -3.22808  -6.21356   5.64913 
 K(Fragment=1)        -0.03853  -0.44344   12.163 
 K(Fragment=1)        -8.8724   -3.0475    12.23061 
 V(Fragment=1)        -4.47714  -1.75706   8.90181 
 
 Add virtual bond connecting atoms C14        and Cl1        Dist= 4.91D+00.
 Add virtual bond connecting atoms H17        and Cl1        Dist= 5.15D+00.
 Add virtual bond connecting atoms O20        and C3         Dist= 8.71D+00.
 Add virtual bond connecting atoms O20        and C4         Dist= 8.69D+00.
 Add virtual bond connecting atoms O40        and C13        Dist= 8.54D+00.
 Add virtual bond connecting atoms O48        and C5         Dist= 8.43D+00.
 Add virtual bond connecting atoms O48        and C6         Dist= 8.53D+00.
 The following ModRedundant input section has been read:
 B       1      14 F                                                           
 

 GradGradGradGradGradGradGradGradGradGradGradGradGradGradGradGradGradGrad
 Berny optimization.
 Initialization pass.
                           ----------------------------
                           !    Initial Parameters    !
                           ! (Angstroms and Degrees)  !
 --------------------------                            --------------------------
 ! Name  Definition              Value          Derivative Info.                !
 --------------------------------------------------------------------------------
 ! R1    R(1,14)                 2.6            Frozen                          !
 ! R2    R(1,17)                 2.7262         estimate D2E/DX2                !
 ! R3    R(2,3)                  1.4093         estimate D2E/DX2                !
 ! R4    R(2,7)                  1.3929         estimate D2E/DX2                !
 ! R5    R(2,8)                  1.0925         estimate D2E/DX2                !
 ! R6    R(3,4)                  1.4083         estimate D2E/DX2                !
 ! R7    R(3,13)                 1.4689         estimate D2E/DX2                !
 ! R8    R(3,20)                 4.6074         estimate D2E/DX2                !
 ! R9    R(4,5)                  1.3934         estimate D2E/DX2                !
 ! R10   R(4,9)                  1.0933         estimate D2E/DX2                !
 ! R11   R(4,20)                 4.6003         estimate D2E/DX2                !
 ! R12   R(5,6)                  1.3956         estimate D2E/DX2                !
 ! R13   R(5,10)                 1.0928         estimate D2E/DX2                !
 ! R14   R(5,48)                 4.4633         estimate D2E/DX2                !
 ! R15   R(6,7)                  1.3965         estimate D2E/DX2                !
 ! R16   R(6,11)                 1.0924         estimate D2E/DX2                !
 ! R17   R(6,48)                 4.5114         estimate D2E/DX2                !
 ! R18   R(7,12)                 1.093          estimate D2E/DX2                !
 ! R19   R(13,14)                1.3515         estimate D2E/DX2                !
 ! R20   R(13,15)                1.0956         estimate D2E/DX2                !
 ! R21   R(13,40)                4.5214         estimate D2E/DX2                !
 ! R22   R(14,16)                1.0908         estimate D2E/DX2                !
 ! R23   R(14,17)                1.0901         estimate D2E/DX2                !
 ! R24   R(18,26)                2.0849         estimate D2E/DX2                !
 ! R25   R(18,50)                1.8657         estimate D2E/DX2                !
 ! R26   R(19,27)                2.0379         estimate D2E/DX2                !
 ! R27   R(19,51)                1.8576         estimate D2E/DX2                !
 ! R28   R(20,28)                2.0551         estimate D2E/DX2                !
 ! R29   R(20,52)                1.8477         estimate D2E/DX2                !
 ! R30   R(21,29)                2.0492         estimate D2E/DX2                !
 ! R31   R(21,53)                1.8517         estimate D2E/DX2                !
 ! R32   R(22,30)                1.7203         estimate D2E/DX2                !
 ! R33   R(22,34)                2.0826         estimate D2E/DX2                !
 ! R34   R(22,42)                1.8679         estimate D2E/DX2                !
 ! R35   R(22,55)                2.0223         estimate D2E/DX2                !
 ! R36   R(22,58)                1.8303         estimate D2E/DX2                !
 ! R37   R(22,66)                2.1799         estimate D2E/DX2                !
 ! R38   R(23,31)                1.7204         estimate D2E/DX2                !
 ! R39   R(23,35)                2.047          estimate D2E/DX2                !
 ! R40   R(23,43)                1.8486         estimate D2E/DX2                !
 ! R41   R(23,54)                2.0673         estimate D2E/DX2                !
 ! R42   R(23,59)                1.8426         estimate D2E/DX2                !
 ! R43   R(23,67)                2.1803         estimate D2E/DX2                !
 ! R44   R(23,70)                3.6169         estimate D2E/DX2                !
 ! R45   R(24,32)                1.7205         estimate D2E/DX2                !
 ! R46   R(24,36)                2.0366         estimate D2E/DX2                !
 ! R47   R(24,44)                1.8522         estimate D2E/DX2                !
 ! R48   R(24,57)                2.0516         estimate D2E/DX2                !
 ! R49   R(24,60)                1.8522         estimate D2E/DX2                !
 ! R50   R(24,68)                2.1797         estimate D2E/DX2                !
 ! R51   R(24,71)                3.6197         estimate D2E/DX2                !
 ! R52   R(25,33)                1.7199         estimate D2E/DX2                !
 ! R53   R(25,37)                2.0513         estimate D2E/DX2                !
 ! R54   R(25,45)                1.8569         estimate D2E/DX2                !
 ! R55   R(25,56)                2.0463         estimate D2E/DX2                !
 ! R56   R(25,61)                1.8428         estimate D2E/DX2                !
 ! R57   R(25,69)                2.1821         estimate D2E/DX2                !
 ! R58   R(25,72)                3.624          estimate D2E/DX2                !
 ! R59   R(26,34)                1.8666         estimate D2E/DX2                !
 ! R60   R(26,46)                1.7213         estimate D2E/DX2                !
 ! R61   R(26,54)                1.8309         estimate D2E/DX2                !
 ! R62   R(26,62)                2.0241         estimate D2E/DX2                !
 ! R63   R(26,66)                2.1738         estimate D2E/DX2                !
 ! R64   R(26,70)                3.622          estimate D2E/DX2                !
 ! R65   R(27,35)                1.8525         estimate D2E/DX2                !
 ! R66   R(27,47)                1.7205         estimate D2E/DX2                !
 ! R67   R(27,55)                1.8536         estimate D2E/DX2                !
 ! R68   R(27,63)                2.05           estimate D2E/DX2                !
 ! R69   R(27,67)                2.1782         estimate D2E/DX2                !
 ! R70   R(28,36)                1.8578         estimate D2E/DX2                !
 ! R71   R(28,48)                1.7197         estimate D2E/DX2                !
 ! R72   R(28,56)                1.8418         estimate D2E/DX2                !
 ! R73   R(28,64)                2.0427         estimate D2E/DX2                !
 ! R74   R(28,68)                2.1819         estimate D2E/DX2                !
 ! R75   R(28,72)                3.621          estimate D2E/DX2                !
 ! R76   R(29,37)                1.8496         estimate D2E/DX2                !
 ! R77   R(29,49)                1.7207         estimate D2E/DX2                !
 ! R78   R(29,57)                1.8422         estimate D2E/DX2                !
 ! R79   R(29,65)                2.0636         estimate D2E/DX2                !
 ! R80   R(29,69)                2.1777         estimate D2E/DX2                !
 ! R81   R(29,71)                3.6152         estimate D2E/DX2                !
 ! R82   R(31,70)                2.9794         estimate D2E/DX2                !
 ! R83   R(32,71)                2.957          estimate D2E/DX2                !
 ! R84   R(33,72)                2.9923         estimate D2E/DX2                !
 ! R85   R(38,50)                1.7211         estimate D2E/DX2                !
 ! R86   R(38,71)                3.0657         estimate D2E/DX2                !
 ! R87   R(39,51)                1.7197         estimate D2E/DX2                !
 ! R88   R(39,72)                3.0039         estimate D2E/DX2                !
 ! R89   R(40,52)                1.721          estimate D2E/DX2                !
 ! R90   R(41,53)                1.7204         estimate D2E/DX2                !
 ! R91   R(41,70)                2.9705         estimate D2E/DX2                !
 ! R92   R(42,50)                2.079          estimate D2E/DX2                !
 ! R93   R(43,51)                2.053          estimate D2E/DX2                !
 ! R94   R(44,52)                2.0472         estimate D2E/DX2                !
 ! R95   R(45,53)                2.0377         estimate D2E/DX2                !
 ! R96   R(46,70)                3.0446         estimate D2E/DX2                !
 ! R97   R(48,72)                2.9919         estimate D2E/DX2                !
 ! R98   R(49,71)                2.9757         estimate D2E/DX2                !
 ! R99   R(50,60)                2.0246         estimate D2E/DX2                !
 ! R100  R(50,65)                1.8316         estimate D2E/DX2                !
 ! R101  R(50,66)                2.1793         estimate D2E/DX2                !
 ! R102  R(50,71)                3.6424         estimate D2E/DX2                !
 ! R103  R(51,61)                2.0439         estimate D2E/DX2                !
 ! R104  R(51,64)                1.8423         estimate D2E/DX2                !
 ! R105  R(51,67)                2.1833         estimate D2E/DX2                !
 ! R106  R(51,72)                3.6318         estimate D2E/DX2                !
 ! R107  R(52,58)                2.0654         estimate D2E/DX2                !
 ! R108  R(52,63)                1.8434         estimate D2E/DX2                !
 ! R109  R(52,68)                2.1794         estimate D2E/DX2                !
 ! R110  R(53,59)                2.0496         estimate D2E/DX2                !
 ! R111  R(53,62)                1.8531         estimate D2E/DX2                !
 ! R112  R(53,69)                2.1809         estimate D2E/DX2                !
 ! R113  R(53,70)                3.6235         estimate D2E/DX2                !
 ! R114  R(54,70)                3.0838         estimate D2E/DX2                !
 ! R115  R(56,72)                3.0913         estimate D2E/DX2                !
 ! R116  R(57,71)                3.0675         estimate D2E/DX2                !
 ! R117  R(59,70)                3.0793         estimate D2E/DX2                !
 ! R118  R(61,72)                3.1045         estimate D2E/DX2                !
 ! R119  R(62,70)                3.1193         estimate D2E/DX2                !
 ! R120  R(64,72)                3.1037         estimate D2E/DX2                !
 ! R121  R(65,71)                3.1011         estimate D2E/DX2                !
 ! R122  R(66,73)                1.9107         estimate D2E/DX2                !
 ! R123  R(67,73)                1.9028         estimate D2E/DX2                !
 ! R124  R(68,73)                1.9029         estimate D2E/DX2                !
 ! R125  R(69,73)                1.903          estimate D2E/DX2                !
 ! A1    A(3,2,7)              121.1195         estimate D2E/DX2                !
 ! A2    A(3,2,8)              119.9265         estimate D2E/DX2                !
 ! A3    A(7,2,8)              118.9539         estimate D2E/DX2                !
 ! A4    A(2,3,4)              117.3978         estimate D2E/DX2                !
 ! A5    A(2,3,13)             123.0302         estimate D2E/DX2                !
 ! A6    A(2,3,20)              92.1245         estimate D2E/DX2                !
 ! A7    A(4,3,13)             119.5379         estimate D2E/DX2                !
 ! A8    A(13,3,20)             98.2505         estimate D2E/DX2                !
 ! A9    A(3,4,5)              121.4846         estimate D2E/DX2                !
 ! A10   A(3,4,9)              119.0184         estimate D2E/DX2                !
 ! A11   A(5,4,9)              119.4969         estimate D2E/DX2                !
 ! A12   A(5,4,20)              92.7222         estimate D2E/DX2                !
 ! A13   A(9,4,20)              95.9922         estimate D2E/DX2                !
 ! A14   A(4,5,6)              120.2542         estimate D2E/DX2                !
 ! A15   A(4,5,10)             119.6755         estimate D2E/DX2                !
 ! A16   A(4,5,48)             104.5426         estimate D2E/DX2                !
 ! A17   A(6,5,10)             120.0704         estimate D2E/DX2                !
 ! A18   A(10,5,48)             82.5777         estimate D2E/DX2                !
 ! A19   A(5,6,7)              119.1442         estimate D2E/DX2                !
 ! A20   A(5,6,11)             120.4327         estimate D2E/DX2                !
 ! A21   A(7,6,11)             120.4231         estimate D2E/DX2                !
 ! A22   A(7,6,48)             106.3183         estimate D2E/DX2                !
 ! A23   A(11,6,48)             84.8274         estimate D2E/DX2                !
 ! A24   A(2,7,6)              120.5989         estimate D2E/DX2                !
 ! A25   A(2,7,12)             119.4256         estimate D2E/DX2                !
 ! A26   A(6,7,12)             119.9751         estimate D2E/DX2                !
 ! A27   A(3,13,14)            125.2412         estimate D2E/DX2                !
 ! A28   A(3,13,15)            115.3338         estimate D2E/DX2                !
 ! A29   A(3,13,40)             96.3985         estimate D2E/DX2                !
 ! A30   A(14,13,15)           118.6837         estimate D2E/DX2                !
 ! A31   A(14,13,40)            90.4253         estimate D2E/DX2                !
 ! A32   A(15,13,40)            91.7283         estimate D2E/DX2                !
 ! A33   A(1,14,13)            113.9404         estimate D2E/DX2                !
 ! A34   A(1,14,16)             88.3849         estimate D2E/DX2                !
 ! A35   A(13,14,16)           119.3277         estimate D2E/DX2                !
 ! A36   A(13,14,17)           121.5305         estimate D2E/DX2                !
 ! A37   A(16,14,17)           115.86           estimate D2E/DX2                !
 ! A38   A(26,18,50)           113.467          estimate D2E/DX2                !
 ! A39   A(27,19,51)           114.6674         estimate D2E/DX2                !
 ! A40   A(3,20,28)            130.1631         estimate D2E/DX2                !
 ! A41   A(3,20,52)            115.0771         estimate D2E/DX2                !
 ! A42   A(4,20,28)            117.6312         estimate D2E/DX2                !
 ! A43   A(4,20,52)            127.4208         estimate D2E/DX2                !
 ! A44   A(28,20,52)           114.4122         estimate D2E/DX2                !
 ! A45   A(29,21,53)           114.5527         estimate D2E/DX2                !
 ! A46   A(30,22,34)            95.0905         estimate D2E/DX2                !
 ! A47   A(30,22,42)           102.09           estimate D2E/DX2                !
 ! A48   A(30,22,55)            96.8502         estimate D2E/DX2                !
 ! A49   A(30,22,58)           101.6416         estimate D2E/DX2                !
 ! A50   A(34,22,42)            86.7478         estimate D2E/DX2                !
 ! A51   A(34,22,55)            82.6764         estimate D2E/DX2                !
 ! A52   A(34,22,58)           160.2389         estimate D2E/DX2                !
 ! A53   A(34,22,66)            71.573          estimate D2E/DX2                !
 ! A54   A(42,22,55)           159.038          estimate D2E/DX2                !
 ! A55   A(42,22,58)            99.7956         estimate D2E/DX2                !
 ! A56   A(42,22,66)            75.6075         estimate D2E/DX2                !
 ! A57   A(55,22,58)            84.9405         estimate D2E/DX2                !
 ! A58   A(55,22,66)            83.8779         estimate D2E/DX2                !
 ! A59   A(58,22,66)            91.8672         estimate D2E/DX2                !
 ! A60   A(31,23,35)            97.5199         estimate D2E/DX2                !
 ! A61   A(31,23,43)           103.9563         estimate D2E/DX2                !
 ! A62   A(31,23,54)            95.1098         estimate D2E/DX2                !
 ! A63   A(31,23,59)           100.3376         estimate D2E/DX2                !
 ! A64   A(35,23,43)            90.2493         estimate D2E/DX2                !
 ! A65   A(35,23,54)            81.3476         estimate D2E/DX2                !
 ! A66   A(35,23,59)           157.0806         estimate D2E/DX2                !
 ! A67   A(35,23,67)            72.0091         estimate D2E/DX2                !
 ! A68   A(35,23,70)           124.208          estimate D2E/DX2                !
 ! A69   A(43,23,54)           160.0435         estimate D2E/DX2                !
 ! A70   A(43,23,59)            99.2045         estimate D2E/DX2                !
 ! A71   A(43,23,67)            75.9007         estimate D2E/DX2                !
 ! A72   A(43,23,70)           139.0315         estimate D2E/DX2                !
 ! A73   A(54,23,59)            82.8558         estimate D2E/DX2                !
 ! A74   A(54,23,67)            84.2751         estimate D2E/DX2                !
 ! A75   A(59,23,67)            90.0008         estimate D2E/DX2                !
 ! A76   A(67,23,70)           131.6156         estimate D2E/DX2                !
 ! A77   A(32,24,36)            97.6925         estimate D2E/DX2                !
 ! A78   A(32,24,44)           103.9584         estimate D2E/DX2                !
 ! A79   A(32,24,57)            95.4374         estimate D2E/DX2                !
 ! A80   A(32,24,60)           100.197          estimate D2E/DX2                !
 ! A81   A(36,24,44)            90.239          estimate D2E/DX2                !
 ! A82   A(36,24,57)            82.1307         estimate D2E/DX2                !
 ! A83   A(36,24,60)           157.6722         estimate D2E/DX2                !
 ! A84   A(36,24,68)            72.1742         estimate D2E/DX2                !
 ! A85   A(36,24,71)           123.3005         estimate D2E/DX2                !
 ! A86   A(44,24,57)           159.9644         estimate D2E/DX2                !
 ! A87   A(44,24,60)            98.2542         estimate D2E/DX2                !
 ! A88   A(44,24,68)            75.7356         estimate D2E/DX2                !
 ! A89   A(44,24,71)           139.4462         estimate D2E/DX2                !
 ! A90   A(57,24,60)            82.9738         estimate D2E/DX2                !
 ! A91   A(57,24,68)            84.2843         estimate D2E/DX2                !
 ! A92   A(60,24,68)            89.8762         estimate D2E/DX2                !
 ! A93   A(60,24,71)            59.9964         estimate D2E/DX2                !
 ! A94   A(68,24,71)           132.244          estimate D2E/DX2                !
 ! A95   A(33,25,37)            96.9472         estimate D2E/DX2                !
 ! A96   A(33,25,45)           103.786          estimate D2E/DX2                !
 ! A97   A(33,25,56)            95.9028         estimate D2E/DX2                !
 ! A98   A(33,25,61)           100.3987         estimate D2E/DX2                !
 ! A99   A(37,25,45)            89.9398         estimate D2E/DX2                !
 ! A100  A(37,25,56)            81.9171         estimate D2E/DX2                !
 ! A101  A(37,25,61)           158.2338         estimate D2E/DX2                !
 ! A102  A(37,25,69)            71.9735         estimate D2E/DX2                !
 ! A103  A(37,25,72)           123.9639         estimate D2E/DX2                !
 ! A104  A(45,25,56)           159.4846         estimate D2E/DX2                !
 ! A105  A(45,25,61)            98.5301         estimate D2E/DX2                !
 ! A106  A(45,25,69)            75.5673         estimate D2E/DX2                !
 ! A107  A(45,25,72)           139.3373         estimate D2E/DX2                !
 ! A108  A(56,25,61)            83.3077         estimate D2E/DX2                !
 ! A109  A(56,25,69)            83.9981         estimate D2E/DX2                !
 ! A110  A(61,25,69)            90.6745         estimate D2E/DX2                !
 ! A111  A(69,25,72)           132.1106         estimate D2E/DX2                !
 ! A112  A(18,26,34)            86.8111         estimate D2E/DX2                !
 ! A113  A(18,26,46)            94.887          estimate D2E/DX2                !
 ! A114  A(18,26,54)           160.4605         estimate D2E/DX2                !
 ! A115  A(18,26,62)            82.8018         estimate D2E/DX2                !
 ! A116  A(18,26,66)            71.6524         estimate D2E/DX2                !
 ! A117  A(18,26,70)           125.5254         estimate D2E/DX2                !
 ! A118  A(34,26,46)           102.1433         estimate D2E/DX2                !
 ! A119  A(34,26,54)            99.9298         estimate D2E/DX2                !
 ! A120  A(34,26,62)           159.3448         estimate D2E/DX2                !
 ! A121  A(34,26,66)            75.8013         estimate D2E/DX2                !
 ! A122  A(34,26,70)           139.7813         estimate D2E/DX2                !
 ! A123  A(46,26,54)           101.4915         estimate D2E/DX2                !
 ! A124  A(46,26,62)            96.5072         estimate D2E/DX2                !
 ! A125  A(54,26,62)            84.8065         estimate D2E/DX2                !
 ! A126  A(54,26,66)            92.0926         estimate D2E/DX2                !
 ! A127  A(62,26,66)            83.9822         estimate D2E/DX2                !
 ! A128  A(66,26,70)           132.6082         estimate D2E/DX2                !
 ! A129  A(19,27,35)            90.2941         estimate D2E/DX2                !
 ! A130  A(19,27,47)            97.5725         estimate D2E/DX2                !
 ! A131  A(19,27,55)           157.8535         estimate D2E/DX2                !
 ! A132  A(19,27,63)            82.2574         estimate D2E/DX2                !
 ! A133  A(19,27,67)            72.1984         estimate D2E/DX2                !
 ! A134  A(35,27,47)           103.8922         estimate D2E/DX2                !
 ! A135  A(35,27,55)            98.1957         estimate D2E/DX2                !
 ! A136  A(35,27,63)           160.0164         estimate D2E/DX2                !
 ! A137  A(35,27,67)            75.7288         estimate D2E/DX2                !
 ! A138  A(47,27,55)           100.1454         estimate D2E/DX2                !
 ! A139  A(47,27,63)            95.4858         estimate D2E/DX2                !
 ! A140  A(55,27,63)            82.9205         estimate D2E/DX2                !
 ! A141  A(55,27,67)            90.0422         estimate D2E/DX2                !
 ! A142  A(63,27,67)            84.3312         estimate D2E/DX2                !
 ! A143  A(20,28,36)            89.835          estimate D2E/DX2                !
 ! A144  A(20,28,48)            96.7742         estimate D2E/DX2                !
 ! A145  A(20,28,56)           158.4489         estimate D2E/DX2                !
 ! A146  A(20,28,64)            81.8776         estimate D2E/DX2                !
 ! A147  A(20,28,68)            71.9407         estimate D2E/DX2                !
 ! A148  A(20,28,72)           124.2989         estimate D2E/DX2                !
 ! A149  A(36,28,48)           103.8084         estimate D2E/DX2                !
 ! A150  A(36,28,56)            98.5781         estimate D2E/DX2                !
 ! A151  A(36,28,64)           159.3092         estimate D2E/DX2                !
 ! A152  A(36,28,68)            75.4912         estimate D2E/DX2                !
 ! A153  A(36,28,72)           139.0824         estimate D2E/DX2                !
 ! A154  A(48,28,56)           100.3762         estimate D2E/DX2                !
 ! A155  A(48,28,64)            96.0066         estimate D2E/DX2                !
 ! A156  A(56,28,64)            83.4325         estimate D2E/DX2                !
 ! A157  A(56,28,68)            90.9091         estimate D2E/DX2                !
 ! A158  A(64,28,68)            83.906          estimate D2E/DX2                !
 ! A159  A(68,28,72)           132.2617         estimate D2E/DX2                !
 ! A160  A(21,29,37)            90.2304         estimate D2E/DX2                !
 ! A161  A(21,29,49)            97.2776         estimate D2E/DX2                !
 ! A162  A(21,29,57)           157.3304         estimate D2E/DX2                !
 ! A163  A(21,29,65)            81.4434         estimate D2E/DX2                !
 ! A164  A(21,29,69)            71.9891         estimate D2E/DX2                !
 ! A165  A(21,29,71)           124.6025         estimate D2E/DX2                !
 ! A166  A(37,29,49)           103.9929         estimate D2E/DX2                !
 ! A167  A(37,29,57)            99.178          estimate D2E/DX2                !
 ! A168  A(37,29,65)           159.9361         estimate D2E/DX2                !
 ! A169  A(37,29,69)            75.8863         estimate D2E/DX2                !
 ! A170  A(37,29,71)           138.5355         estimate D2E/DX2                !
 ! A171  A(49,29,57)           100.3353         estimate D2E/DX2                !
 ! A172  A(49,29,65)            95.1896         estimate D2E/DX2                !
 ! A173  A(57,29,65)            82.8494         estimate D2E/DX2                !
 ! A174  A(57,29,69)            90.2571         estimate D2E/DX2                !
 ! A175  A(65,29,69)            84.1674         estimate D2E/DX2                !
 ! A176  A(69,29,71)           131.9165         estimate D2E/DX2                !
 ! A177  A(22,34,26)           113.479          estimate D2E/DX2                !
 ! A178  A(23,35,27)           114.52           estimate D2E/DX2                !
 ! A179  A(24,36,28)           114.6949         estimate D2E/DX2                !
 ! A180  A(25,37,29)           114.4224         estimate D2E/DX2                !
 ! A181  A(13,40,52)           122.1932         estimate D2E/DX2                !
 ! A182  A(22,42,50)           113.6867         estimate D2E/DX2                !
 ! A183  A(23,43,51)           114.4622         estimate D2E/DX2                !
 ! A184  A(24,44,52)           114.4952         estimate D2E/DX2                !
 ! A185  A(25,45,53)           114.6639         estimate D2E/DX2                !
 ! A186  A(5,48,28)            126.4853         estimate D2E/DX2                !
 ! A187  A(5,48,72)            113.203          estimate D2E/DX2                !
 ! A188  A(6,48,28)            129.4413         estimate D2E/DX2                !
 ! A189  A(6,48,72)            125.1397         estimate D2E/DX2                !
 ! A190  A(18,50,38)           102.2224         estimate D2E/DX2                !
 ! A191  A(18,50,42)            86.7797         estimate D2E/DX2                !
 ! A192  A(18,50,60)           159.1352         estimate D2E/DX2                !
 ! A193  A(18,50,65)            99.9461         estimate D2E/DX2                !
 ! A194  A(18,50,66)            75.6816         estimate D2E/DX2                !
 ! A195  A(18,50,71)           139.954          estimate D2E/DX2                !
 ! A196  A(38,50,42)            95.1797         estimate D2E/DX2                !
 ! A197  A(38,50,60)            96.6774         estimate D2E/DX2                !
 ! A198  A(38,50,65)           101.5226         estimate D2E/DX2                !
 ! A199  A(42,50,60)            82.7588         estimate D2E/DX2                !
 ! A200  A(42,50,65)           160.1441         estimate D2E/DX2                !
 ! A201  A(42,50,66)            71.6375         estimate D2E/DX2                !
 ! A202  A(42,50,71)           125.624          estimate D2E/DX2                !
 ! A203  A(60,50,65)            84.6901         estimate D2E/DX2                !
 ! A204  A(60,50,66)            83.8884         estimate D2E/DX2                !
 ! A205  A(60,50,71)            59.2622         estimate D2E/DX2                !
 ! A206  A(65,50,66)            91.7969         estimate D2E/DX2                !
 ! A207  A(66,50,71)           132.3723         estimate D2E/DX2                !
 ! A208  A(19,51,39)           103.8459         estimate D2E/DX2                !
 ! A209  A(19,51,43)            89.8045         estimate D2E/DX2                !
 ! A210  A(19,51,61)           159.2517         estimate D2E/DX2                !
 ! A211  A(19,51,64)            98.4938         estimate D2E/DX2                !
 ! A212  A(19,51,67)            75.4791         estimate D2E/DX2                !
 ! A213  A(19,51,72)           139.2867         estimate D2E/DX2                !
 ! A214  A(39,51,43)            96.9879         estimate D2E/DX2                !
 ! A215  A(39,51,61)            96.0714         estimate D2E/DX2                !
 ! A216  A(39,51,64)           100.3581         estimate D2E/DX2                !
 ! A217  A(43,51,61)            81.9679         estimate D2E/DX2                !
 ! A218  A(43,51,64)           158.3283         estimate D2E/DX2                !
 ! A219  A(43,51,67)            71.973          estimate D2E/DX2                !
 ! A220  A(43,51,72)           124.2801         estimate D2E/DX2                !
 ! A221  A(61,51,64)            83.3655         estimate D2E/DX2                !
 ! A222  A(61,51,67)            83.8541         estimate D2E/DX2                !
 ! A223  A(64,51,67)            90.68           estimate D2E/DX2                !
 ! A224  A(67,51,72)           131.9859         estimate D2E/DX2                !
 ! A225  A(20,52,40)           104.0754         estimate D2E/DX2                !
 ! A226  A(20,52,44)            90.3057         estimate D2E/DX2                !
 ! A227  A(20,52,58)           159.9274         estimate D2E/DX2                !
 ! A228  A(20,52,63)            99.2513         estimate D2E/DX2                !
 ! A229  A(20,52,68)            75.9177         estimate D2E/DX2                !
 ! A230  A(40,52,44)            97.4242         estimate D2E/DX2                !
 ! A231  A(40,52,58)            95.1574         estimate D2E/DX2                !
 ! A232  A(40,52,63)           100.1765         estimate D2E/DX2                !
 ! A233  A(44,52,58)            81.4464         estimate D2E/DX2                !
 ! A234  A(44,52,63)           157.2275         estimate D2E/DX2                !
 ! A235  A(44,52,68)            72.0607         estimate D2E/DX2                !
 ! A236  A(58,52,63)            82.6818         estimate D2E/DX2                !
 ! A237  A(58,52,68)            84.1204         estimate D2E/DX2                !
 ! A238  A(63,52,68)            90.1716         estimate D2E/DX2                !
 ! A239  A(21,53,41)           103.9424         estimate D2E/DX2                !
 ! A240  A(21,53,45)            90.2319         estimate D2E/DX2                !
 ! A241  A(21,53,59)           159.7323         estimate D2E/DX2                !
 ! A242  A(21,53,62)            98.3174         estimate D2E/DX2                !
 ! A243  A(21,53,69)            75.64           estimate D2E/DX2                !
 ! A244  A(21,53,70)           139.2753         estimate D2E/DX2                !
 ! A245  A(41,53,45)            97.657          estimate D2E/DX2                !
 ! A246  A(41,53,59)            95.6935         estimate D2E/DX2                !
 ! A247  A(41,53,62)           100.0679         estimate D2E/DX2                !
 ! A248  A(45,53,59)            82.1227         estimate D2E/DX2                !
 ! A249  A(45,53,62)           157.7989         estimate D2E/DX2                !
 ! A250  A(45,53,69)            72.187          estimate D2E/DX2                !
 ! A251  A(45,53,70)           123.6929         estimate D2E/DX2                !
 ! A252  A(59,53,62)            82.9142         estimate D2E/DX2                !
 ! A253  A(59,53,69)            84.143          estimate D2E/DX2                !
 ! A254  A(62,53,69)            90.053          estimate D2E/DX2                !
 ! A255  A(69,53,70)           132.0737         estimate D2E/DX2                !
 ! A256  A(23,54,26)           152.3698         estimate D2E/DX2                !
 ! A257  A(22,55,27)           153.7863         estimate D2E/DX2                !
 ! A258  A(25,56,28)           153.9061         estimate D2E/DX2                !
 ! A259  A(24,57,29)           154.9552         estimate D2E/DX2                !
 ! A260  A(22,58,52)           152.6369         estimate D2E/DX2                !
 ! A261  A(23,59,53)           155.2422         estimate D2E/DX2                !
 ! A262  A(24,60,50)           154.043          estimate D2E/DX2                !
 ! A263  A(25,61,51)           154.167          estimate D2E/DX2                !
 ! A264  A(26,62,53)           153.9129         estimate D2E/DX2                !
 ! A265  A(27,63,52)           155.2135         estimate D2E/DX2                !
 ! A266  A(28,64,51)           154.0774         estimate D2E/DX2                !
 ! A267  A(29,65,50)           152.7357         estimate D2E/DX2                !
 ! A268  A(22,66,26)            98.7468         estimate D2E/DX2                !
 ! A269  A(22,66,50)            98.6565         estimate D2E/DX2                !
 ! A270  A(22,66,73)           118.7246         estimate D2E/DX2                !
 ! A271  A(26,66,50)            98.808          estimate D2E/DX2                !
 ! A272  A(26,66,73)           118.939          estimate D2E/DX2                !
 ! A273  A(50,66,73)           118.7319         estimate D2E/DX2                !
 ! A274  A(23,67,27)            97.6869         estimate D2E/DX2                !
 ! A275  A(23,67,51)            97.572          estimate D2E/DX2                !
 ! A276  A(23,67,73)           120.1739         estimate D2E/DX2                !
 ! A277  A(27,67,51)            97.5638         estimate D2E/DX2                !
 ! A278  A(27,67,73)           119.4744         estimate D2E/DX2                !
 ! A279  A(51,67,73)           119.3683         estimate D2E/DX2                !
 ! A280  A(24,68,28)            97.5441         estimate D2E/DX2                !
 ! A281  A(24,68,52)            97.6483         estimate D2E/DX2                !
 ! A282  A(24,68,73)           119.4553         estimate D2E/DX2                !
 ! A283  A(28,68,52)            97.6476         estimate D2E/DX2                !
 ! A284  A(28,68,73)           119.3573         estimate D2E/DX2                !
 ! A285  A(52,68,73)           120.1904         estimate D2E/DX2                !
 ! A286  A(25,69,29)            97.6336         estimate D2E/DX2                !
 ! A287  A(25,69,53)            97.4868         estimate D2E/DX2                !
 ! A288  A(25,69,73)           119.413          estimate D2E/DX2                !
 ! A289  A(29,69,53)            97.7594         estimate D2E/DX2                !
 ! A290  A(29,69,73)           120.1545         estimate D2E/DX2                !
 ! A291  A(53,69,73)           119.4042         estimate D2E/DX2                !
 ! A292  A(23,70,26)            63.065          estimate D2E/DX2                !
 ! A293  A(23,70,41)            85.7731         estimate D2E/DX2                !
 ! A294  A(23,70,46)            88.1346         estimate D2E/DX2                !
 ! A295  A(23,70,53)            63.3512         estimate D2E/DX2                !
 ! A296  A(23,70,62)            66.1825         estimate D2E/DX2                !
 ! A297  A(26,70,31)            85.4293         estimate D2E/DX2                !
 ! A298  A(26,70,41)            87.3283         estimate D2E/DX2                !
 ! A299  A(26,70,53)            62.8451         estimate D2E/DX2                !
 ! A300  A(26,70,59)            65.4733         estimate D2E/DX2                !
 ! A301  A(31,70,41)           104.2805         estimate D2E/DX2                !
 ! A302  A(31,70,46)           104.3186         estimate D2E/DX2                !
 ! A303  A(31,70,53)            88.0962         estimate D2E/DX2                !
 ! A304  A(31,70,54)            55.0773         estimate D2E/DX2                !
 ! A305  A(31,70,59)            53.6864         estimate D2E/DX2                !
 ! A306  A(31,70,62)            94.3191         estimate D2E/DX2                !
 ! A307  A(41,70,46)           102.576          estimate D2E/DX2                !
 ! A308  A(41,70,54)            94.6295         estimate D2E/DX2                !
 ! A309  A(41,70,59)            55.1819         estimate D2E/DX2                !
 ! A310  A(41,70,62)            53.4143         estimate D2E/DX2                !
 ! A311  A(46,70,53)            84.7679         estimate D2E/DX2                !
 ! A312  A(46,70,54)            53.3513         estimate D2E/DX2                !
 ! A313  A(46,70,59)            93.6715         estimate D2E/DX2                !
 ! A314  A(46,70,62)            54.0534         estimate D2E/DX2                !
 ! A315  A(53,70,54)            66.5624         estimate D2E/DX2                !
 ! A316  A(54,70,59)            49.753          estimate D2E/DX2                !
 ! A317  A(54,70,62)            49.6276         estimate D2E/DX2                !
 ! A318  A(59,70,62)            49.3515         estimate D2E/DX2                !
 ! A319  A(24,71,29)            63.3943         estimate D2E/DX2                !
 ! A320  A(24,71,38)            84.5202         estimate D2E/DX2                !
 ! A321  A(24,71,49)            88.3287         estimate D2E/DX2                !
 ! A322  A(24,71,50)            62.6949         estimate D2E/DX2                !
 ! A323  A(24,71,65)            66.3674         estimate D2E/DX2                !
 ! A324  A(29,71,32)            85.9514         estimate D2E/DX2                !
 ! A325  A(29,71,38)            87.7332         estimate D2E/DX2                !
 ! A326  A(29,71,50)            62.8852         estimate D2E/DX2                !
 ! A327  A(32,71,38)           102.2956         estimate D2E/DX2                !
 ! A328  A(32,71,49)           104.8211         estimate D2E/DX2                !
 ! A329  A(32,71,50)            87.1226         estimate D2E/DX2                !
 ! A330  A(32,71,57)            55.3453         estimate D2E/DX2                !
 ! A331  A(32,71,65)            94.4481         estimate D2E/DX2                !
 ! A332  A(38,71,49)           103.662          estimate D2E/DX2                !
 ! A333  A(38,71,57)            93.394          estimate D2E/DX2                !
 ! A334  A(38,71,65)            53.0152         estimate D2E/DX2                !
 ! A335  A(49,71,50)            85.0787         estimate D2E/DX2                !
 ! A336  A(49,71,57)            53.8367         estimate D2E/DX2                !
 ! A337  A(49,71,65)            54.9076         estimate D2E/DX2                !
 ! A338  A(50,71,57)            65.3675         estimate D2E/DX2                !
 ! A339  A(57,71,65)            49.6401         estimate D2E/DX2                !
 ! A340  A(25,72,28)            63.0466         estimate D2E/DX2                !
 ! A341  A(25,72,39)            85.2211         estimate D2E/DX2                !
 ! A342  A(25,72,48)            87.7771         estimate D2E/DX2                !
 ! A343  A(25,72,51)            62.9527         estimate D2E/DX2                !
 ! A344  A(25,72,64)            65.8937         estimate D2E/DX2                !
 ! A345  A(28,72,33)            85.443          estimate D2E/DX2                !
 ! A346  A(28,72,39)            87.4985         estimate D2E/DX2                !
 ! A347  A(28,72,51)            62.9402         estimate D2E/DX2                !
 ! A348  A(28,72,61)            65.8621         estimate D2E/DX2                !
 ! A349  A(33,72,39)           103.4518         estimate D2E/DX2                !
 ! A350  A(33,72,48)           103.9124         estimate D2E/DX2                !
 ! A351  A(33,72,51)            87.5371         estimate D2E/DX2                !
 ! A352  A(33,72,56)            54.8878         estimate D2E/DX2                !
 ! A353  A(33,72,61)            53.3369         estimate D2E/DX2                !
 ! A354  A(33,72,64)            93.9876         estimate D2E/DX2                !
 ! A355  A(39,72,48)           103.3867         estimate D2E/DX2                !
 ! A356  A(39,72,56)            93.9194         estimate D2E/DX2                !
 ! A357  A(39,72,61)            54.6797         estimate D2E/DX2                !
 ! A358  A(39,72,64)            53.2151         estimate D2E/DX2                !
 ! A359  A(48,72,51)            85.2056         estimate D2E/DX2                !
 ! A360  A(48,72,56)            53.4463         estimate D2E/DX2                !
 ! A361  A(48,72,61)            93.9725         estimate D2E/DX2                !
 ! A362  A(48,72,64)            54.749          estimate D2E/DX2                !
 ! A363  A(51,72,56)            65.8924         estimate D2E/DX2                !
 ! A364  A(56,72,61)            49.4045         estimate D2E/DX2                !
 ! A365  A(56,72,64)            49.4115         estimate D2E/DX2                !
 ! A366  A(61,72,64)            49.2882         estimate D2E/DX2                !
 ! A367  A(66,73,67)           109.3331         estimate D2E/DX2                !
 ! A368  A(66,73,68)           109.5233         estimate D2E/DX2                !
 ! A369  A(66,73,69)           109.3917         estimate D2E/DX2                !
 ! A370  A(67,73,68)           109.5008         estimate D2E/DX2                !
 ! A371  A(67,73,69)           109.5629         estimate D2E/DX2                !
 ! A372  A(68,73,69)           109.5154         estimate D2E/DX2                !
 ! A373  L(30,22,66,34,-1)     166.6635         estimate D2E/DX2                !
 ! A374  L(31,23,67,35,-1)     169.5291         estimate D2E/DX2                !
 ! A375  L(32,24,68,36,-1)     169.8668         estimate D2E/DX2                !
 ! A376  L(33,25,69,37,-1)     168.9207         estimate D2E/DX2                !
 ! A377  L(46,26,66,18,-1)     166.5393         estimate D2E/DX2                !
 ! A378  L(47,27,67,19,-1)     169.7709         estimate D2E/DX2                !
 ! A379  L(48,28,68,20,-1)     168.7149         estimate D2E/DX2                !
 ! A380  L(49,29,69,21,-1)     169.2667         estimate D2E/DX2                !
 ! A381  L(38,50,66,18,-1)     177.9041         estimate D2E/DX2                !
 ! A382  L(39,51,67,19,-1)     179.325          estimate D2E/DX2                !
 ! A383  L(40,52,68,20,-1)     179.9932         estimate D2E/DX2                !
 ! A384  L(41,53,69,21,-1)     179.5824         estimate D2E/DX2                !
 ! A385  L(30,22,66,34,-2)     177.7696         estimate D2E/DX2                !
 ! A386  L(31,23,67,35,-2)     179.1897         estimate D2E/DX2                !
 ! A387  L(32,24,68,36,-2)     179.0412         estimate D2E/DX2                !
 ! A388  L(33,25,69,37,-2)     178.7076         estimate D2E/DX2                !
 ! A389  L(46,26,66,18,-2)     178.0214         estimate D2E/DX2                !
 ! A390  L(47,27,67,19,-2)     178.9541         estimate D2E/DX2                !
 ! A391  L(48,28,68,20,-2)     178.6645         estimate D2E/DX2                !
 ! A392  L(49,29,69,21,-2)     179.2044         estimate D2E/DX2                !
 ! A393  L(38,50,66,18,-2)     193.5288         estimate D2E/DX2                !
 ! A394  L(39,51,67,19,-2)     191.4404         estimate D2E/DX2                !
 ! A395  L(40,52,68,20,-2)     190.8634         estimate D2E/DX2                !
 ! A396  L(41,53,69,21,-2)     190.5214         estimate D2E/DX2                !
 ! D1    D(7,2,3,4)             -0.1496         estimate D2E/DX2                !
 ! D2    D(7,2,3,13)           177.7145         estimate D2E/DX2                !
 ! D3    D(7,2,3,20)           -81.0174         estimate D2E/DX2                !
 ! D4    D(8,2,3,4)            179.9001         estimate D2E/DX2                !
 ! D5    D(8,2,3,13)            -2.2358         estimate D2E/DX2                !
 ! D6    D(8,2,3,20)            99.0323         estimate D2E/DX2                !
 ! D7    D(3,2,7,6)             -0.1023         estimate D2E/DX2                !
 ! D8    D(3,2,7,12)          -179.8749         estimate D2E/DX2                !
 ! D9    D(8,2,7,6)            179.8485         estimate D2E/DX2                !
 ! D10   D(8,2,7,12)             0.0758         estimate D2E/DX2                !
 ! D11   D(2,3,4,5)              0.2997         estimate D2E/DX2                !
 ! D12   D(2,3,4,9)           -179.8337         estimate D2E/DX2                !
 ! D13   D(13,3,4,5)          -177.6422         estimate D2E/DX2                !
 ! D14   D(13,3,4,9)             2.2245         estimate D2E/DX2                !
 ! D15   D(2,3,13,14)           -9.6397         estimate D2E/DX2                !
 ! D16   D(2,3,13,15)         -179.5977         estimate D2E/DX2                !
 ! D17   D(2,3,13,40)           85.4303         estimate D2E/DX2                !
 ! D18   D(4,3,13,14)          168.1807         estimate D2E/DX2                !
 ! D19   D(4,3,13,15)           -1.7773         estimate D2E/DX2                !
 ! D20   D(4,3,13,40)          -96.7493         estimate D2E/DX2                !
 ! D21   D(20,3,13,14)        -107.627          estimate D2E/DX2                !
 ! D22   D(20,3,13,15)          82.415          estimate D2E/DX2                !
 ! D23   D(20,3,13,40)         -12.557          estimate D2E/DX2                !
 ! D24   D(2,3,20,28)           68.2304         estimate D2E/DX2                !
 ! D25   D(2,3,20,52)         -104.5311         estimate D2E/DX2                !
 ! D26   D(13,3,20,28)        -167.9528         estimate D2E/DX2                !
 ! D27   D(13,3,20,52)          19.2857         estimate D2E/DX2                !
 ! D28   D(3,4,5,6)             -0.1983         estimate D2E/DX2                !
 ! D29   D(3,4,5,10)           179.8033         estimate D2E/DX2                !
 ! D30   D(3,4,5,48)           -90.5282         estimate D2E/DX2                !
 ! D31   D(9,4,5,6)            179.9357         estimate D2E/DX2                !
 ! D32   D(9,4,5,10)            -0.0628         estimate D2E/DX2                !
 ! D33   D(9,4,5,48)            89.6057         estimate D2E/DX2                !
 ! D34   D(20,4,5,6)            81.4841         estimate D2E/DX2                !
 ! D35   D(20,4,5,10)          -98.5143         estimate D2E/DX2                !
 ! D36   D(20,4,5,48)           -8.8458         estimate D2E/DX2                !
 ! D37   D(5,4,20,28)           17.8093         estimate D2E/DX2                !
 ! D38   D(5,4,20,52)         -171.1032         estimate D2E/DX2                !
 ! D39   D(9,4,20,28)         -102.2326         estimate D2E/DX2                !
 ! D40   D(9,4,20,52)           68.8549         estimate D2E/DX2                !
 ! D41   D(4,5,6,7)             -0.0615         estimate D2E/DX2                !
 ! D42   D(4,5,6,11)           179.8926         estimate D2E/DX2                !
 ! D43   D(10,5,6,7)           179.9369         estimate D2E/DX2                !
 ! D44   D(10,5,6,11)           -0.109          estimate D2E/DX2                !
 ! D45   D(4,5,48,28)           13.1866         estimate D2E/DX2                !
 ! D46   D(4,5,48,72)         -105.1851         estimate D2E/DX2                !
 ! D47   D(10,5,48,28)         132.0028         estimate D2E/DX2                !
 ! D48   D(10,5,48,72)          13.6311         estimate D2E/DX2                !
 ! D49   D(5,6,7,2)              0.2098         estimate D2E/DX2                !
 ! D50   D(5,6,7,12)           179.9812         estimate D2E/DX2                !
 ! D51   D(11,6,7,2)          -179.7443         estimate D2E/DX2                !
 ! D52   D(11,6,7,12)            0.0271         estimate D2E/DX2                !
 ! D53   D(48,6,7,2)            86.6446         estimate D2E/DX2                !
 ! D54   D(48,6,7,12)          -93.584          estimate D2E/DX2                !
 ! D55   D(7,6,48,28)          -29.8263         estimate D2E/DX2                !
 ! D56   D(7,6,48,72)         -169.6508         estimate D2E/DX2                !
 ! D57   D(11,6,48,28)        -150.0443         estimate D2E/DX2                !
 ! D58   D(11,6,48,72)          70.1312         estimate D2E/DX2                !
 ! D59   D(3,13,14,1)          -80.1371         estimate D2E/DX2                !
 ! D60   D(3,13,14,16)         177.5024         estimate D2E/DX2                !
 ! D61   D(3,13,14,17)          18.8103         estimate D2E/DX2                !
 ! D62   D(15,13,14,1)          89.5137         estimate D2E/DX2                !
 ! D63   D(15,13,14,16)        -12.8468         estimate D2E/DX2                !
 ! D64   D(15,13,14,17)       -171.5389         estimate D2E/DX2                !
 ! D65   D(40,13,14,1)        -178.2832         estimate D2E/DX2                !
 ! D66   D(40,13,14,16)         79.3563         estimate D2E/DX2                !
 ! D67   D(40,13,14,17)        -79.3358         estimate D2E/DX2                !
 ! D68   D(3,13,40,52)          27.3723         estimate D2E/DX2                !
 ! D69   D(14,13,40,52)        152.9273         estimate D2E/DX2                !
 ! D70   D(15,13,40,52)        -88.3592         estimate D2E/DX2                !
 ! D71   D(50,18,26,34)         81.4188         estimate D2E/DX2                !
 ! D72   D(50,18,26,46)       -176.6528         estimate D2E/DX2                !
 ! D73   D(50,18,26,54)        -29.6442         estimate D2E/DX2                !
 ! D74   D(50,18,26,62)        -80.6921         estimate D2E/DX2                !
 ! D75   D(50,18,26,66)          5.3258         estimate D2E/DX2                !
 ! D76   D(50,18,26,70)       -124.4354         estimate D2E/DX2                !
 ! D77   D(26,18,50,38)       -171.675          estimate D2E/DX2                !
 ! D78   D(26,18,50,42)        -77.0673         estimate D2E/DX2                !
 ! D79   D(26,18,50,60)        -17.2046         estimate D2E/DX2                !
 ! D80   D(26,18,50,65)         84.1142         estimate D2E/DX2                !
 ! D81   D(26,18,50,66)         -5.2038         estimate D2E/DX2                !
 ! D82   D(26,18,50,71)        135.8164         estimate D2E/DX2                !
 ! D83   D(51,19,27,35)         77.5013         estimate D2E/DX2                !
 ! D84   D(51,19,27,47)       -178.4413         estimate D2E/DX2                !
 ! D85   D(51,19,27,55)        -35.501          estimate D2E/DX2                !
 ! D86   D(51,19,27,63)        -83.8957         estimate D2E/DX2                !
 ! D87   D(51,19,27,67)          2.6046         estimate D2E/DX2                !
 ! D88   D(27,19,51,39)       -171.1153         estimate D2E/DX2                !
 ! D89   D(27,19,51,43)        -73.9657         estimate D2E/DX2                !
 ! D90   D(27,19,51,61)         -7.7582         estimate D2E/DX2                !
 ! D91   D(27,19,51,64)         85.9381         estimate D2E/DX2                !
 ! D92   D(27,19,51,67)         -2.5557         estimate D2E/DX2                !
 ! D93   D(27,19,51,72)        136.7693         estimate D2E/DX2                !
 ! D94   D(3,20,28,36)         -95.5652         estimate D2E/DX2                !
 ! D95   D(3,20,28,48)           8.322          estimate D2E/DX2                !
 ! D96   D(3,20,28,56)         150.9336         estimate D2E/DX2                !
 ! D97   D(3,20,28,64)         103.4565         estimate D2E/DX2                !
 ! D98   D(3,20,28,68)        -170.3425         estimate D2E/DX2                !
 ! D99   D(3,20,28,72)          60.3232         estimate D2E/DX2                !
 ! D100  D(4,20,28,36)        -110.5306         estimate D2E/DX2                !
 ! D101  D(4,20,28,48)          -6.6433         estimate D2E/DX2                !
 ! D102  D(4,20,28,56)         135.9682         estimate D2E/DX2                !
 ! D103  D(4,20,28,64)          88.4911         estimate D2E/DX2                !
 ! D104  D(4,20,28,68)         174.6922         estimate D2E/DX2                !
 ! D105  D(4,20,28,72)          45.3578         estimate D2E/DX2                !
 ! D106  D(52,20,28,36)         77.2351         estimate D2E/DX2                !
 ! D107  D(52,20,28,48)       -178.8777         estimate D2E/DX2                !
 ! D108  D(52,20,28,56)        -36.2661         estimate D2E/DX2                !
 ! D109  D(52,20,28,64)        -83.7432         estimate D2E/DX2                !
 ! D110  D(52,20,28,68)          2.4578         estimate D2E/DX2                !
 ! D111  D(52,20,28,72)       -126.8765         estimate D2E/DX2                !
 ! D112  D(3,20,52,40)           2.3814         estimate D2E/DX2                !
 ! D113  D(3,20,52,44)         100.1142         estimate D2E/DX2                !
 ! D114  D(3,20,52,58)         165.3574         estimate D2E/DX2                !
 ! D115  D(3,20,52,63)        -100.6443         estimate D2E/DX2                !
 ! D116  D(3,20,52,68)         171.518          estimate D2E/DX2                !
 ! D117  D(4,20,52,40)          17.1209         estimate D2E/DX2                !
 ! D118  D(4,20,52,44)         114.8537         estimate D2E/DX2                !
 ! D119  D(4,20,52,58)        -179.9032         estimate D2E/DX2                !
 ! D120  D(4,20,52,63)         -85.9048         estimate D2E/DX2                !
 ! D121  D(4,20,52,68)        -173.7425         estimate D2E/DX2                !
 ! D122  D(28,20,52,40)       -171.5485         estimate D2E/DX2                !
 ! D123  D(28,20,52,44)        -73.8157         estimate D2E/DX2                !
 ! D124  D(28,20,52,58)         -8.5726         estimate D2E/DX2                !
 ! D125  D(28,20,52,63)         85.4257         estimate D2E/DX2                !
 ! D126  D(28,20,52,68)         -2.4119         estimate D2E/DX2                !
 ! D127  D(53,21,29,37)         77.1522         estimate D2E/DX2                !
 ! D128  D(53,21,29,49)       -178.7085         estimate D2E/DX2                !
 ! D129  D(53,21,29,57)        -37.902          estimate D2E/DX2                !
 ! D130  D(53,21,29,65)        -84.5224         estimate D2E/DX2                !
 ! D131  D(53,21,29,69)          2.0871         estimate D2E/DX2                !
 ! D132  D(53,21,29,71)       -126.8981         estimate D2E/DX2                !
 ! D133  D(29,21,53,41)       -171.5244         estimate D2E/DX2                !
 ! D134  D(29,21,53,45)        -73.5753         estimate D2E/DX2                !
 ! D135  D(29,21,53,59)         -6.1992         estimate D2E/DX2                !
 ! D136  D(29,21,53,62)         85.8647         estimate D2E/DX2                !
 ! D137  D(29,21,53,69)         -2.0458         estimate D2E/DX2                !
 ! D138  D(29,21,53,70)        137.6668         estimate D2E/DX2                !
 ! D139  D(30,22,34,26)       -176.8545         estimate D2E/DX2                !
 ! D140  D(42,22,34,26)         81.2835         estimate D2E/DX2                !
 ! D141  D(55,22,34,26)        -80.5805         estimate D2E/DX2                !
 ! D142  D(58,22,34,26)        -28.9503         estimate D2E/DX2                !
 ! D143  D(66,22,34,26)          5.376          estimate D2E/DX2                !
 ! D144  D(30,22,42,50)       -171.677          estimate D2E/DX2                !
 ! D145  D(34,22,42,50)        -77.1622         estimate D2E/DX2                !
 ! D146  D(55,22,42,50)        -17.508          estimate D2E/DX2                !
 ! D147  D(58,22,42,50)         84.0583         estimate D2E/DX2                !
 ! D148  D(66,22,42,50)         -5.3591         estimate D2E/DX2                !
 ! D149  D(30,22,55,27)       -127.358          estimate D2E/DX2                !
 ! D150  D(34,22,55,27)        138.3602         estimate D2E/DX2                !
 ! D151  D(42,22,55,27)         78.0536         estimate D2E/DX2                !
 ! D152  D(58,22,55,27)        -26.2067         estimate D2E/DX2                !
 ! D153  D(66,22,55,27)         66.223          estimate D2E/DX2                !
 ! D154  D(30,22,58,52)        123.805          estimate D2E/DX2                !
 ! D155  D(34,22,58,52)        -23.487          estimate D2E/DX2                !
 ! D156  D(42,22,58,52)       -131.5646         estimate D2E/DX2                !
 ! D157  D(55,22,58,52)         27.8345         estimate D2E/DX2                !
 ! D158  D(66,22,58,52)        -55.8497         estimate D2E/DX2                !
 ! D159  D(34,22,66,26)         -4.2815         estimate D2E/DX2                !
 ! D160  D(34,22,66,50)         96.0961         estimate D2E/DX2                !
 ! D161  D(34,22,66,73)       -134.267          estimate D2E/DX2                !
 ! D162  D(42,22,66,26)        -95.6433         estimate D2E/DX2                !
 ! D163  D(42,22,66,50)          4.7343         estimate D2E/DX2                !
 ! D164  D(42,22,66,73)        134.3713         estimate D2E/DX2                !
 ! D165  D(55,22,66,26)         80.014          estimate D2E/DX2                !
 ! D166  D(55,22,66,50)       -179.6084         estimate D2E/DX2                !
 ! D167  D(55,22,66,73)        -49.9714         estimate D2E/DX2                !
 ! D168  D(58,22,66,26)        164.7215         estimate D2E/DX2                !
 ! D169  D(58,22,66,50)        -94.9009         estimate D2E/DX2                !
 ! D170  D(58,22,66,73)         34.7361         estimate D2E/DX2                !
 ! D171  D(31,23,35,27)       -178.7902         estimate D2E/DX2                !
 ! D172  D(43,23,35,27)         77.0959         estimate D2E/DX2                !
 ! D173  D(54,23,35,27)        -84.7311         estimate D2E/DX2                !
 ! D174  D(59,23,35,27)        -37.8041         estimate D2E/DX2                !
 ! D175  D(67,23,35,27)          2.0201         estimate D2E/DX2                !
 ! D176  D(70,23,35,27)       -126.5578         estimate D2E/DX2                !
 ! D177  D(31,23,43,51)       -171.739          estimate D2E/DX2                !
 ! D178  D(35,23,43,51)        -73.9263         estimate D2E/DX2                !
 ! D179  D(54,23,43,51)         -9.3177         estimate D2E/DX2                !
 ! D180  D(59,23,43,51)         85.1059         estimate D2E/DX2                !
 ! D181  D(67,23,43,51)         -2.5623         estimate D2E/DX2                !
 ! D182  D(70,23,43,51)        136.4759         estimate D2E/DX2                !
 ! D183  D(31,23,54,26)       -129.554          estimate D2E/DX2                !
 ! D184  D(35,23,54,26)        133.5944         estimate D2E/DX2                !
 ! D185  D(43,23,54,26)         67.5598         estimate D2E/DX2                !
 ! D186  D(59,23,54,26)        -29.7449         estimate D2E/DX2                !
 ! D187  D(67,23,54,26)         60.9758         estimate D2E/DX2                !
 ! D188  D(31,23,59,53)        123.1149         estimate D2E/DX2                !
 ! D189  D(35,23,59,53)        -17.5102         estimate D2E/DX2                !
 ! D190  D(43,23,59,53)       -130.7492         estimate D2E/DX2                !
 ! D191  D(54,23,59,53)         29.1939         estimate D2E/DX2                !
 ! D192  D(67,23,59,53)        -55.0361         estimate D2E/DX2                !
 ! D193  D(35,23,67,27)         -1.5771         estimate D2E/DX2                !
 ! D194  D(35,23,67,51)         97.162          estimate D2E/DX2                !
 ! D195  D(35,23,67,73)       -132.3292         estimate D2E/DX2                !
 ! D196  D(43,23,67,27)        -96.5268         estimate D2E/DX2                !
 ! D197  D(43,23,67,51)          2.2122         estimate D2E/DX2                !
 ! D198  D(43,23,67,73)        132.721          estimate D2E/DX2                !
 ! D199  D(54,23,67,27)         81.1607         estimate D2E/DX2                !
 ! D200  D(54,23,67,51)        179.8998         estimate D2E/DX2                !
 ! D201  D(54,23,67,73)        -49.5915         estimate D2E/DX2                !
 ! D202  D(59,23,67,27)        163.9804         estimate D2E/DX2                !
 ! D203  D(59,23,67,51)        -97.2805         estimate D2E/DX2                !
 ! D204  D(59,23,67,73)         33.2283         estimate D2E/DX2                !
 ! D205  D(70,23,67,27)        118.5663         estimate D2E/DX2                !
 ! D206  D(70,23,67,51)       -142.6946         estimate D2E/DX2                !
 ! D207  D(70,23,67,73)        -12.1858         estimate D2E/DX2                !
 ! D208  D(35,23,70,26)         65.9749         estimate D2E/DX2                !
 ! D209  D(35,23,70,41)        155.1226         estimate D2E/DX2                !
 ! D210  D(35,23,70,46)         52.3636         estimate D2E/DX2                !
 ! D211  D(35,23,70,53)        137.445          estimate D2E/DX2                !
 ! D212  D(35,23,70,62)        103.4871         estimate D2E/DX2                !
 ! D213  D(43,23,70,26)       -151.7538         estimate D2E/DX2                !
 ! D214  D(43,23,70,41)        -62.6062         estimate D2E/DX2                !
 ! D215  D(43,23,70,46)       -165.3652         estimate D2E/DX2                !
 ! D216  D(43,23,70,53)        -80.2837         estimate D2E/DX2                !
 ! D217  D(43,23,70,62)       -114.2416         estimate D2E/DX2                !
 ! D218  D(67,23,70,26)        -30.0139         estimate D2E/DX2                !
 ! D219  D(67,23,70,41)         59.1338         estimate D2E/DX2                !
 ! D220  D(67,23,70,46)        -43.6252         estimate D2E/DX2                !
 ! D221  D(67,23,70,53)         41.4562         estimate D2E/DX2                !
 ! D222  D(67,23,70,62)          7.4983         estimate D2E/DX2                !
 ! D223  D(32,24,36,28)       -178.2955         estimate D2E/DX2                !
 ! D224  D(44,24,36,28)         77.5833         estimate D2E/DX2                !
 ! D225  D(57,24,36,28)        -83.83           estimate D2E/DX2                !
 ! D226  D(60,24,36,28)        -35.2504         estimate D2E/DX2                !
 ! D227  D(68,24,36,28)          2.6633         estimate D2E/DX2                !
 ! D228  D(71,24,36,28)       -126.6601         estimate D2E/DX2                !
 ! D229  D(32,24,44,52)       -171.5831         estimate D2E/DX2                !
 ! D230  D(36,24,44,52)        -73.595          estimate D2E/DX2                !
 ! D231  D(57,24,44,52)         -6.4369         estimate D2E/DX2                !
 ! D232  D(60,24,44,52)         85.6851         estimate D2E/DX2                !
 ! D233  D(68,24,44,52)         -2.072          estimate D2E/DX2                !
 ! D234  D(71,24,44,52)        138.2658         estimate D2E/DX2                !
 ! D235  D(32,24,57,29)       -128.9669         estimate D2E/DX2                !
 ! D236  D(36,24,57,29)        133.9919         estimate D2E/DX2                !
 ! D237  D(44,24,57,29)         65.5052         estimate D2E/DX2                !
 ! D238  D(60,24,57,29)        -29.3274         estimate D2E/DX2                !
 ! D239  D(68,24,57,29)         61.254          estimate D2E/DX2                !
 ! D240  D(32,24,60,50)        119.0914         estimate D2E/DX2                !
 ! D241  D(36,24,60,50)        -23.6555         estimate D2E/DX2                !
 ! D242  D(44,24,60,50)       -135.0212         estimate D2E/DX2                !
 ! D243  D(57,24,60,50)         24.7995         estimate D2E/DX2                !
 ! D244  D(68,24,60,50)        -59.4567         estimate D2E/DX2                !
 ! D245  D(71,24,60,50)         81.582          estimate D2E/DX2                !
 ! D246  D(36,24,68,28)         -2.078          estimate D2E/DX2                !
 ! D247  D(36,24,68,52)         96.7362         estimate D2E/DX2                !
 ! D248  D(36,24,68,73)       -132.0745         estimate D2E/DX2                !
 ! D249  D(44,24,68,28)        -97.0273         estimate D2E/DX2                !
 ! D250  D(44,24,68,52)          1.7869         estimate D2E/DX2                !
 ! D251  D(44,24,68,73)        132.9763         estimate D2E/DX2                !
 ! D252  D(57,24,68,28)         81.4711         estimate D2E/DX2                !
 ! D253  D(57,24,68,52)       -179.7147         estimate D2E/DX2                !
 ! D254  D(57,24,68,73)        -48.5253         estimate D2E/DX2                !
 ! D255  D(60,24,68,28)        164.4222         estimate D2E/DX2                !
 ! D256  D(60,24,68,52)        -96.7636         estimate D2E/DX2                !
 ! D257  D(60,24,68,73)         34.4257         estimate D2E/DX2                !
 ! D258  D(71,24,68,28)        117.0669         estimate D2E/DX2                !
 ! D259  D(71,24,68,52)       -144.1189         estimate D2E/DX2                !
 ! D260  D(71,24,68,73)        -12.9296         estimate D2E/DX2                !
 ! D261  D(36,24,71,29)         66.6393         estimate D2E/DX2                !
 ! D262  D(36,24,71,38)        156.8463         estimate D2E/DX2                !
 ! D263  D(36,24,71,49)         52.9493         estimate D2E/DX2                !
 ! D264  D(36,24,71,50)        138.2731         estimate D2E/DX2                !
 ! D265  D(36,24,71,65)        104.9956         estimate D2E/DX2                !
 ! D266  D(44,24,71,29)       -152.5254         estimate D2E/DX2                !
 ! D267  D(44,24,71,38)        -62.3185         estimate D2E/DX2                !
 ! D268  D(44,24,71,49)       -166.2155         estimate D2E/DX2                !
 ! D269  D(44,24,71,50)        -80.8916         estimate D2E/DX2                !
 ! D270  D(44,24,71,65)       -114.1691         estimate D2E/DX2                !
 ! D271  D(60,24,71,29)        -87.3486         estimate D2E/DX2                !
 ! D272  D(60,24,71,38)          2.8583         estimate D2E/DX2                !
 ! D273  D(60,24,71,49)       -101.0387         estimate D2E/DX2                !
 ! D274  D(60,24,71,50)        -15.7148         estimate D2E/DX2                !
 ! D275  D(60,24,71,65)        -48.9923         estimate D2E/DX2                !
 ! D276  D(68,24,71,29)        -29.2032         estimate D2E/DX2                !
 ! D277  D(68,24,71,38)         61.0038         estimate D2E/DX2                !
 ! D278  D(68,24,71,49)        -42.8933         estimate D2E/DX2                !
 ! D279  D(68,24,71,50)         42.4306         estimate D2E/DX2                !
 ! D280  D(68,24,71,65)          9.1531         estimate D2E/DX2                !
 ! D281  D(33,25,37,29)       -178.7993         estimate D2E/DX2                !
 ! D282  D(45,25,37,29)         77.3182         estimate D2E/DX2                !
 ! D283  D(56,25,37,29)        -83.7889         estimate D2E/DX2                !
 ! D284  D(61,25,37,29)        -36.0956         estimate D2E/DX2                !
 ! D285  D(69,25,37,29)          2.4931         estimate D2E/DX2                !
 ! D286  D(72,25,37,29)       -126.6331         estimate D2E/DX2                !
 ! D287  D(33,25,45,53)       -171.1288         estimate D2E/DX2                !
 ! D288  D(37,25,45,53)        -73.9894         estimate D2E/DX2                !
 ! D289  D(56,25,45,53)         -7.8189         estimate D2E/DX2                !
 ! D290  D(61,25,45,53)         85.8841         estimate D2E/DX2                !
 ! D291  D(69,25,45,53)         -2.6082         estimate D2E/DX2                !
 ! D292  D(72,25,45,53)        137.1232         estimate D2E/DX2                !
 ! D293  D(33,25,56,28)       -128.5623         estimate D2E/DX2                !
 ! D294  D(37,25,56,28)        135.2298         estimate D2E/DX2                !
 ! D295  D(45,25,56,28)         67.7222         estimate D2E/DX2                !
 ! D296  D(61,25,56,28)        -28.7412         estimate D2E/DX2                !
 ! D297  D(69,25,56,28)         62.6486         estimate D2E/DX2                !
 ! D298  D(33,25,61,51)        122.3459         estimate D2E/DX2                !
 ! D299  D(37,25,61,51)        -19.9537         estimate D2E/DX2                !
 ! D300  D(45,25,61,51)       -131.8404         estimate D2E/DX2                !
 ! D301  D(56,25,61,51)         27.5422         estimate D2E/DX2                !
 ! D302  D(69,25,61,51)        -56.3346         estimate D2E/DX2                !
 ! D303  D(37,25,69,29)         -1.9449         estimate D2E/DX2                !
 ! D304  D(37,25,69,53)         96.9722         estimate D2E/DX2                !
 ! D305  D(37,25,69,73)       -133.0453         estimate D2E/DX2                !
 ! D306  D(45,25,69,29)        -96.6837         estimate D2E/DX2                !
 ! D307  D(45,25,69,53)          2.2334         estimate D2E/DX2                !
 ! D308  D(45,25,69,73)        132.2159         estimate D2E/DX2                !
 ! D309  D(56,25,69,29)         81.4823         estimate D2E/DX2                !
 ! D310  D(56,25,69,53)       -179.6005         estimate D2E/DX2                !
 ! D311  D(56,25,69,73)        -49.6181         estimate D2E/DX2                !
 ! D312  D(61,25,69,29)        164.6811         estimate D2E/DX2                !
 ! D313  D(61,25,69,53)        -96.4018         estimate D2E/DX2                !
 ! D314  D(61,25,69,73)         33.5807         estimate D2E/DX2                !
 ! D315  D(72,25,69,29)        117.9091         estimate D2E/DX2                !
 ! D316  D(72,25,69,53)       -143.1738         estimate D2E/DX2                !
 ! D317  D(72,25,69,73)        -13.1913         estimate D2E/DX2                !
 ! D318  D(37,25,72,28)         66.7068         estimate D2E/DX2                !
 ! D319  D(37,25,72,39)        156.3273         estimate D2E/DX2                !
 ! D320  D(37,25,72,48)         52.6914         estimate D2E/DX2                !
 ! D321  D(37,25,72,51)        138.4422         estimate D2E/DX2                !
 ! D322  D(37,25,72,64)        104.7096         estimate D2E/DX2                !
 ! D323  D(45,25,72,28)       -151.8298         estimate D2E/DX2                !
 ! D324  D(45,25,72,39)        -62.2094         estimate D2E/DX2                !
 ! D325  D(45,25,72,48)       -165.8452         estimate D2E/DX2                !
 ! D326  D(45,25,72,51)        -80.0945         estimate D2E/DX2                !
 ! D327  D(45,25,72,64)       -113.827          estimate D2E/DX2                !
 ! D328  D(69,25,72,28)        -29.3731         estimate D2E/DX2                !
 ! D329  D(69,25,72,39)         60.2474         estimate D2E/DX2                !
 ! D330  D(69,25,72,48)        -43.3885         estimate D2E/DX2                !
 ! D331  D(69,25,72,51)         42.3623         estimate D2E/DX2                !
 ! D332  D(69,25,72,64)          8.6297         estimate D2E/DX2                !
 ! D333  D(18,26,34,22)        -77.1495         estimate D2E/DX2                !
 ! D334  D(46,26,34,22)       -171.4673         estimate D2E/DX2                !
[...]
   D642       2.35583   0.00003   0.00192   0.00095   0.00285   2.35868
   D643      -0.00954   0.00002   0.00026   0.00071   0.00098  -0.00856
   D644       1.62158   0.00001  -0.00034   0.00038   0.00006   1.62164
   D645      -2.29825   0.00003   0.00174   0.00107   0.00280  -2.29545
   D646       1.48687   0.00002  -0.00199  -0.00139  -0.00341   1.48346
   D647       3.11799   0.00000  -0.00260  -0.00172  -0.00434   3.11365
   D648      -0.80184   0.00003  -0.00052  -0.00103  -0.00159  -0.80343
   D649       2.96814   0.00001  -0.00158  -0.00213  -0.00372   2.96442
   D650      -1.68392  -0.00000  -0.00219  -0.00246  -0.00465  -1.68857
   D651       0.67943   0.00002  -0.00010  -0.00177  -0.00190   0.67753
   D652       1.09610   0.00002   0.00398   0.00051   0.00451   1.10061
   D653      -2.17487  -0.00003  -0.00036  -0.00347  -0.00380  -2.17867
   D654       2.35161   0.00000  -0.00058  -0.00305  -0.00363   2.34798
   D655      -0.43998  -0.00002   0.00009  -0.00322  -0.00313  -0.44311
   D656       1.08741  -0.00004  -0.00120  -0.00347  -0.00467   1.08274
   D657      -2.23016  -0.00003  -0.00155  -0.00003  -0.00157  -2.23172
   D658       2.19568  -0.00001  -0.00147  -0.00060  -0.00207   2.19361
   D659      -0.51625   0.00006   0.00216   0.00489   0.00701  -0.50924
   D660       0.48188   0.00001  -0.00088   0.00075  -0.00012   0.48176
   D661      -0.96324   0.00001  -0.00139   0.00056  -0.00082  -0.96405
   D662      -1.64530  -0.00000  -0.00010   0.00015   0.00004  -1.64526
   D663      -0.00899  -0.00002  -0.00049  -0.00038  -0.00087  -0.00986
   D664       2.36494   0.00001   0.00084   0.00046   0.00129   2.36623
   D665      -0.00528  -0.00000   0.00029   0.00025   0.00054  -0.00475
   D666       1.63103  -0.00002  -0.00010  -0.00027  -0.00038   1.63065
   D667      -2.27823   0.00002   0.00123   0.00056   0.00179  -2.27644
   D668       1.49252  -0.00003  -0.00236  -0.00157  -0.00391   1.48861
   D669       3.12884  -0.00004  -0.00275  -0.00209  -0.00482   3.12401
   D670      -0.78042  -0.00001  -0.00141  -0.00126  -0.00266  -0.78308
   D671       2.95076  -0.00001  -0.00173  -0.00181  -0.00355   2.94721
   D672      -1.69612  -0.00003  -0.00212  -0.00233  -0.00446  -1.70058
   D673       0.67781   0.00001  -0.00078  -0.00150  -0.00229   0.67552
   D674       2.18223  -0.00000  -0.00115  -0.00196  -0.00310   2.17912
   D675      -2.46465  -0.00002  -0.00155  -0.00248  -0.00402  -2.46866
   D676      -0.09072   0.00001  -0.00021  -0.00164  -0.00185  -0.09257
   D677      -2.54158  -0.00005  -0.00137  -0.00189  -0.00326  -2.54484
   D678      -1.29898  -0.00003  -0.00147  -0.00196  -0.00343  -1.30241
   D679      -2.80189  -0.00003  -0.00089  -0.00145  -0.00234  -2.80422
   D680      -1.01454  -0.00003  -0.00166  -0.00164  -0.00330  -1.01784
   D681      -1.89744  -0.00003  -0.00100  -0.00158  -0.00257  -1.90002
   D682       1.13905  -0.00000  -0.00101  -0.00120  -0.00220   1.13685
   D683       2.38164   0.00002  -0.00111  -0.00127  -0.00237   2.37927
   D684       0.87873   0.00002  -0.00053  -0.00076  -0.00128   0.87746
   D685       2.66608   0.00001  -0.00130  -0.00095  -0.00224   2.66384
   D686       1.78318   0.00001  -0.00064  -0.00089  -0.00151   1.78167
   D687      -0.57749  -0.00002  -0.00016   0.00054   0.00037  -0.57712
   D688       0.66511  -0.00000  -0.00026   0.00047   0.00020   0.66531
   D689      -0.83780  -0.00000   0.00032   0.00099   0.00130  -0.83650
   D690       0.94954  -0.00001  -0.00045   0.00079   0.00033   0.94988
   D691       0.06665  -0.00001   0.00021   0.00085   0.00106   0.06770
   D692       1.10315   0.00002   0.00149   0.00148   0.00298   1.10613
   D693      -0.96609   0.00003   0.00346   0.00253   0.00601  -0.96007
   D694      -3.07060  -0.00000   0.00107   0.00106   0.00215  -3.06845
   D695      -0.95118   0.00002   0.00139   0.00065   0.00205  -0.94913
   D696      -3.02041   0.00003   0.00336   0.00171   0.00508  -3.01533
   D697       1.15826  -0.00000   0.00097   0.00024   0.00122   1.15948
   D698      -3.13425   0.00001   0.00188   0.00186   0.00374  -3.13050
   D699       1.07970   0.00001   0.00384   0.00292   0.00678   1.08648
   D700      -1.02481  -0.00001   0.00145   0.00145   0.00291  -1.02190
   D701       1.08421  -0.00002   0.00148   0.00159   0.00308   1.08730
   D702      -3.07984   0.00000   0.00098   0.00111   0.00210  -3.07774
   D703      -0.97204   0.00001   0.00228   0.00184   0.00412  -0.96792
   D704      -0.96026   0.00000   0.00181   0.00123   0.00303  -0.95723
   D705       1.15887   0.00002   0.00131   0.00074   0.00204   1.16091
   D706      -3.01651   0.00003   0.00260   0.00148   0.00406  -3.01245
   D707      -3.12591  -0.00003   0.00109   0.00123   0.00234  -3.12357
   D708      -1.00678  -0.00001   0.00059   0.00075   0.00136  -1.00542
   D709       1.10102  -0.00001   0.00189   0.00149   0.00338   1.10440
   D710      -0.95557  -0.00001  -0.00067  -0.00045  -0.00112  -0.95669
   D711      -3.07527  -0.00003   0.00036   0.00041   0.00077  -3.07450
   D712       1.09776  -0.00001   0.00030   0.00050   0.00081   1.09858
   D713      -3.02673   0.00002   0.00217   0.00133   0.00348  -3.02325
   D714       1.13675   0.00001   0.00320   0.00218   0.00537   1.14212
   D715      -0.97340   0.00002   0.00314   0.00227   0.00541  -0.96799
   D716       1.11334  -0.00001  -0.00067   0.00020  -0.00045   1.11289
   D717      -1.00636  -0.00003   0.00036   0.00105   0.00143  -1.00493
   D718      -3.11651  -0.00001   0.00030   0.00114   0.00148  -3.11503
   D719      -3.07033   0.00002   0.00014   0.00096   0.00108  -3.06925
   D720      -0.95802   0.00002  -0.00044   0.00041  -0.00003  -0.95806
   D721       1.10368  -0.00001  -0.00138   0.00007  -0.00133   1.10235
   D722       1.15717   0.00004   0.00179   0.00213   0.00391   1.16108
   D723      -3.01370   0.00004   0.00121   0.00159   0.00280  -3.01091
   D724      -0.95200   0.00001   0.00027   0.00124   0.00150  -0.95050
   D725      -1.00668   0.00000  -0.00003   0.00101   0.00098  -1.00570
   D726       1.10563   0.00000  -0.00061   0.00047  -0.00013   1.10550
   D727      -3.11585  -0.00002  -0.00154   0.00013  -0.00143  -3.11728
         Item               Value     Threshold  Converged?
 Maximum Force            0.001096     0.000450     NO 
 RMS     Force            0.000060     0.000300     YES
 Maximum Displacement     0.130833     0.001800     NO 
 RMS     Displacement     0.014061     0.001200     NO 
 Predicted change in Energy=-5.537592D-05
 GradGradGradGradGradGradGradGradGradGradGradGradGradGradGradGradGradGrad

 Symmetry turned off by external request.
 Stoichiometry    C8H8ClK3O40VW12(1-)
 Framework group  C1[X(C8H8ClK3O40VW12)]
 Deg. of freedom   213
 Full point group                 C1      NOp   1
                          Input orientation:                          
 ---------------------------------------------------------------------
 Center     Atomic      Atomic             Coordinates (Angstroms)
 Number     Number       Type             X           Y           Z
 ---------------------------------------------------------------------
      1         17           0       -9.841306    7.499368   10.361452
      2          6           0       -8.306861    4.256640   12.241319
      3          6           0       -9.077859    3.940136   11.104968
      4          6           0      -10.010850    2.889255   11.191795
      5          6           0      -10.184395    2.190205   12.379553
      6          6           0       -9.425520    2.524640   13.500262
      7          6           0       -8.481606    3.553388   13.425795
      8          1           0       -7.571117    5.061660   12.198808
      9          1           0      -10.599775    2.628238   10.308795
     10          1           0      -10.912492    1.378269   12.433440
     11          1           0       -9.559006    1.976320   14.434914
     12          1           0       -7.882726    3.808586   14.302952
     13          6           0       -8.954606    4.655168    9.853344
     14          6           0       -8.112944    5.713774    9.596980
     15          1           0       -9.609544    4.320853    9.042953
     16          1           0       -8.041569    6.115888    8.585884
     17          1           0       -7.358226    6.040702   10.313927
     18          8           0       -0.969952   -1.765159    7.441976
     19          8           0       -8.450934   -1.322018    7.449723
     20          8           0       -7.089964    1.369734   10.506087
     21          8           0       -2.309377   -4.377573   10.579573
     22         74           0       -3.420091    0.735915    6.534231
     23         74           0       -6.024574   -3.814902    6.612660
     24         74           0       -3.651525    0.923061   11.374776
     25         74           0       -5.759418   -3.870221   11.445949
     26         74           0       -2.482441   -2.524532    6.383973
     27         74           0       -6.936296   -0.556160    6.361058
     28         74           0       -6.806178   -0.250556   11.592033
     29         74           0       -2.596844   -2.693775   11.620668
     30          8           0       -3.209513    1.935649    5.360234
     31          8           0       -6.133986   -5.074045    5.470900
     32          8           0       -2.714316    1.756797   12.527812
     33          8           0       -6.690126   -4.667514   12.629366
     34          8           0       -2.681537   -0.857949    5.570274
     35          8           0       -6.732003   -2.279060    5.609581
     36          8           0       -5.330113    0.586804   12.385441
     37          8           0       -4.065815   -3.527051   12.433306
     38          8           0        0.283060   -0.005078    9.283063
     39          8           0       -9.704452   -3.013900    9.345179
     40          8           0       -6.455188    3.409101    8.674173
     41          8           0       -2.973429   -6.437583    8.738770
     42          8           0       -1.787950    0.798126    7.481325
     43          8           0       -7.639926   -3.888129    7.553409
     44          8           0       -4.547488    2.254519   10.434253
     45          8           0       -4.861376   -5.239461   10.532287
     46          8           0       -1.655148   -3.474705    5.233975
     47          8           0       -7.812307    0.259484    5.163257
     48          8           0       -8.029513   -0.181012   12.774865
     49          8           0       -1.349698   -2.790039   12.780098
     50         74           0       -1.270138   -0.541977    8.826576
     51         74           0       -8.152699   -2.486254    8.870612
     52         74           0       -5.963473    1.838228    9.067311
     53         74           0       -3.453663   -4.861186    9.179213
     54          8           0       -4.242587   -3.073041    6.086843
     55          8           0       -5.171068   -0.051781    6.035802
     56          8           0       -6.167399   -1.989879   11.908739
     57          8           0       -3.214949   -0.957953   11.915158
     58          8           0       -4.399329    1.591339    7.867709
     59          8           0       -5.013242   -4.649750    7.949128
     60          8           0       -2.365947    0.591739   10.061887
     61          8           0       -7.046914   -3.597431   10.122834
     62          8           0       -2.569892   -3.863190    7.870430
     63          8           0       -6.861367    0.788812    7.812508
     64          8           0       -7.847968   -1.159120   10.153248
     65          8           0       -1.573396   -1.844265   10.143714
     66          8           0       -3.330673   -1.134888    8.000143
     67          8           0       -6.090229   -1.937368    8.024758
     68          8           0       -5.184432   -0.151062    9.963654
     69          8           0       -4.213008   -2.856234    9.999600
     70         19           0       -3.247572   -6.066808    5.704043
     71         19           0       -0.200515    0.016222   12.311466
     72         19           0       -9.213918   -2.917958   12.364533
     73         23           0       -4.705580   -1.516462    8.994553
 ---------------------------------------------------------------------
 Rotational constants (GHZ):           0.0173822           0.0134935           0.0132720
 Standard basis: def2SVP (5D, 7F)
  1217 basis functions,  2313 primitive gaussians,  1337 cartesian basis functions
   321 alpha electrons      321 beta electrons
       nuclear repulsion energy     21075.9515093832 Hartrees.
 NAtoms=   73 NActive=   73 NUniq=   73 SFac= 1.00D+00 NAtFMM=   60 NAOKFM=T Big=T
 Integral buffers will be    131072 words long.
 Raffenetti 2 integral format.
 Two-electron integral symmetry is turned off.
 Nuclear repulsion after empirical dispersion term =    21075.6736499718 Hartrees.
 Force PCM accuracy= 1.00D-10.
 ------------------------------------------------------------------------------
 Polarizable Continuum Model (PCM)
 =================================
 Model                : PCM (using non-symmetric T matrix).
 Atomic radii         : SMD-Coulomb.
 Polarization charges : Total charges.
 Charge compensation  : None.
 Solution method      : On-the-fly selection.
 Cavity type          : VdW (van der Waals Surface) (Alpha=1.000).
 Cavity algorithm     : GePol (No added spheres)
                        Default sphere list used, NSphG=   73.
                        Lebedev-Laikov grids with approx.  5.0 points / Ang**2.
                        Smoothing algorithm: York/Karplus (Gamma=1.0000).
                        Polarization charges: spherical gaussians, with
                                              point-specific exponents (IZeta= 3).
                        Self-potential: point-specific (ISelfS= 7).
                        Self-field    : sphere-specific E.n sum rule (ISelfD= 2).
 1st derivatives      : Analytical E(r).r(x)/FMM algorithm (CHGder, D1EAlg=3).
                        Cavity 1st derivative terms included.
 Solvent              : Acetonitrile, Eps=  35.688000 Eps(inf)=   1.806874
 ------------------------------------------------------------------------------
 ------------------------------------------------------------------------------
 Atomic radii for non-electrostatic terms: SMD-CDS.
 ------------------------------------------------------------------------------
 Nuclear repulsion after PCM non-electrostatic terms =    21075.6679258864 Hartrees.
 One-electron integrals computed using PRISM.
   1 Symmetry operations used in ECPInt.
 ECPInt:  NShTT=  127765 NPrTT=  468030 LenC2=   96957 LenP2D=  222075.
 LDataN:  DoStor=T MaxTD1= 8 Len=  415
 NBasis=  1217 RedAO= T EigKep=  1.34D-04  NBF=  1217
 NBsUse=  1217 1.00D-06 EigRej= -1.00D+00 NBFU=  1217
 Defaulting to unpruned grid for atomic number  74.
 Defaulting to unpruned grid for atomic number  74.
 Defaulting to unpruned grid for atomic number  74.
 Defaulting to unpruned grid for atomic number  74.
 Defaulting to unpruned grid for atomic number  74.
 Defaulting to unpruned grid for atomic number  74.
 Defaulting to unpruned grid for atomic number  74.
 Defaulting to unpruned grid for atomic number  74.
 Initial guess from the checkpoint file:  "b.chk"
 StAtR1:  DoIntr=F IAtCor=1 NETot=     642 Failed=F Sum= -1.96D-01 SumC=  0.00D+00
 B after Tr=     0.019475    0.032193    0.024096
         Rot=    0.999999   -0.001048    0.000584    0.000575 Ang=  -0.15 deg.
 Initial guess <Sx>= 0.0000 <Sy>= 0.0000 <Sz>= 0.0000 <S**2>= 1.0250 S= 0.6292
 ExpMin= 1.21D-02 ExpMax= 4.72D+04 ExpMxC= 7.08D+03 IAcc=3 IRadAn=         5 AccDes= 0.00D+00
 Harris functional with IExCor= 4639 and IRadAn=      -1 diagonalized for initial guess.
 HarFok:  IExCor= 4639 AccDes= 0.00D+00 IRadAn=        -1 IDoV= 1 UseB2=F ITyADJ=14
 ICtDFT=  3500011 ScaDFX=  1.000000  1.000000  1.000000  1.000000
 Defaulting to unpruned grid for atomic number  74.
 FoFCou: FMM=F IPFlag=           0 FMFlag=      100000 FMFlg1=        2001
         NFxFlg=           0 DoJE=T BraDBF=F KetDBF=T FulRan=T
         wScrn=  0.000000 ICntrl=       500 IOpCl=  0 I1Cent=   200000004 NGrid=           0
         NMat0=    1 NMatS0=      1 NMatT0=    0 NMatD0=    1 NMtDS0=    0 NMtDT0=    0
 Symmetry not used in FoFCou.
 Requested convergence on RMS density matrix=1.00D-08 within  64 cycles.
 Requested convergence on MAX density matrix=1.00D-06.
 Requested convergence on             energy=1.00D-06.
 No special actions if energy rises.
 Defaulting to unpruned grid for atomic number  74.
 Defaulting to unpruned grid for atomic number  74.
 Defaulting to unpruned grid for atomic number  74.
 Defaulting to unpruned grid for atomic number  74.
 Defaulting to unpruned grid for atomic number  74.
 Defaulting to unpruned grid for atomic number  74.
 Defaulting to unpruned grid for atomic number  74.
 Defaulting to unpruned grid for atomic number  74.
 Defaulting to unpruned grid for atomic number  74.
 Defaulting to unpruned grid for atomic number  74.
 Defaulting to unpruned grid for atomic number  74.
 Defaulting to unpruned grid for atomic number  74.
 Defaulting to unpruned grid for atomic number  74.
 Defaulting to unpruned grid for atomic number  74.
 Defaulting to unpruned grid for atomic number  74.
 Defaulting to unpruned grid for atomic number  74.
 Defaulting to unpruned grid for atomic number  74.
 Defaulting to unpruned grid for atomic number  74.
 Defaulting to unpruned grid for atomic number  74.
 Defaulting to unpruned grid for atomic number  74.
 Defaulting to unpruned grid for atomic number  74.
 Defaulting to unpruned grid for atomic number  74.
 Defaulting to unpruned grid for atomic number  74.
 Defaulting to unpruned grid for atomic number  74.
 Defaulting to unpruned grid for atomic number  74.
 Defaulting to unpruned grid for atomic number  74.
 Defaulting to unpruned grid for atomic number  74.
 Defaulting to unpruned grid for atomic number  74.
 Defaulting to unpruned grid for atomic number  74.
 Defaulting to unpruned grid for atomic number  74.
 Defaulting to unpruned grid for atomic number  74.
 Defaulting to unpruned grid for atomic number  74.
 Defaulting to unpruned grid for atomic number  74.
 Defaulting to unpruned grid for atomic number  74.
 Defaulting to unpruned grid for atomic number  74.
 Defaulting to unpruned grid for atomic number  74.
 Defaulting to unpruned grid for atomic number  74.
 Defaulting to unpruned grid for atomic number  74.
 Defaulting to unpruned grid for atomic number  74.
 Defaulting to unpruned grid for atomic number  74.
 Defaulting to unpruned grid for atomic number  74.
 Defaulting to unpruned grid for atomic number  74.
 Defaulting to unpruned grid for atomic number  74.
 Defaulting to unpruned grid for atomic number  74.
 Defaulting to unpruned grid for atomic number  74.
 Defaulting to unpruned grid for atomic number  74.
 Defaulting to unpruned grid for atomic number  74.
 Defaulting to unpruned grid for atomic number  74.
 Defaulting to unpruned grid for atomic number  74.
 Defaulting to unpruned grid for atomic number  74.
 Defaulting to unpruned grid for atomic number  74.
 Defaulting to unpruned grid for atomic number  74.
 Defaulting to unpruned grid for atomic number  74.
 Defaulting to unpruned grid for atomic number  74.
 Defaulting to unpruned grid for atomic number  74.
 Defaulting to unpruned grid for atomic number  74.
 Inv3:  Mode=1 IEnd=    83540187.
 Iteration    1 A*A^-1 deviation from unit magnitude is 3.55D-15 for    510.
 Iteration    1 A*A^-1 deviation from orthogonality  is 3.33D-15 for   3296   1764.
 Iteration    1 A^-1*A deviation from unit magnitude is 3.55D-15 for   4774.
 Iteration    1 A^-1*A deviation from orthogonality  is 3.62D-13 for   4182    807.
 Restarting incremental Fock formation.
