 Entering Gaussian System, Link 0=g16
 Input=JOBS/10_A.gjf
 Output=JOBS/10_A.log
 Initial command:
 /data/app/gaussian/C01-avx2//g16/l1.exe "/tmp/Gau-594620.inp" -scrdir="/tmp/"
 Entering Link 1 = /data/app/gaussian/C01-avx2//g16/l1.exe PID=    594621.
  
 Copyright (c) 1988-2019, Gaussian, Inc.  All Rights Reserved.
  
 This is part of the Gaussian(R) 16 program.  It is based on
 the Gaussian(R) 09 system (copyright 2009, Gaussian, Inc.),
 the Gaussian(R) 03 system (copyright 2003, Gaussian, Inc.),
 the Gaussian(R) 98 system (copyright 1998, Gaussian, Inc.),
 the Gaussian(R) 94 system (copyright 1995, Gaussian, Inc.),
 the Gaussian 92(TM) system (copyright 1992, Gaussian, Inc.),
 the Gaussian 90(TM) system (copyright 1990, Gaussian, Inc.),
 the Gaussian 88(TM) system (copyright 1988, Gaussian, Inc.),
 the Gaussian 86(TM) system (copyright 1986, Carnegie Mellon
 University), and the Gaussian 82(TM) system (copyright 1983,
 Carnegie Mellon University). Gaussian is a federally registered
 trademark of Gaussian, Inc.
  
 This software contains proprietary and confidential information,
 including trade secrets, belonging to Gaussian, Inc.
  
 This software is provided under written license and may be
 used, copied, transmitted, or stored only in accord with that
 written license.
  
 The following legend is applicable only to US Government
 contracts under FAR:
  
                    RESTRICTED RIGHTS LEGEND
  
 Use, reproduction and disclosure by the US Government is
 subject to restrictions as set forth in subparagraphs (a)
 and (c) of the Commercial Computer Software - Restricted
 Rights clause in FAR 52.227-19.
  
 Gaussian, Inc.
 340 Quinnipiac St., Bldg. 40, Wallingford CT 06492
  
  
 ---------------------------------------------------------------
 Warning -- This program may not be used in any manner that
 competes with the business of Gaussian, Inc. or will provide
 assistance to any competitor of Gaussian, Inc.  The licensee
 of this program is prohibited from giving any competitor of
 Gaussian, Inc. access to this program.  By using this program,
 the user acknowledges that Gaussian, Inc. is engaged in the
 business of creating and licensing software in the field of
 computational chemistry and represents and warrants to the
 licensee that it is not a competitor of Gaussian, Inc. and that
 it will not use this program in any manner prohibited above.
 ---------------------------------------------------------------
  

 Cite this work as:
 Gaussian 16, Revision C.01,
 M. J. Frisch, G. W. Trucks, H. B. Schlegel, G. E. Scuseria, 
 M. A. Robb, J. R. Cheeseman, G. Scalmani, V. Barone, 
 G. A. Petersson, H. Nakatsuji, X. Li, M. Caricato, A. V. Marenich, 
 J. Bloino, B. G. Janesko, R. Gomperts, B. Mennucci, H. P. Hratchian, 
 J. V. Ortiz, A. F. Izmaylov, J. L. Sonnenberg, D. Williams-Young, 
 F. Ding, F. Lipparini, F. Egidi, J. Goings, B. Peng, A. Petrone, 
 T. Henderson, D. Ranasinghe, V. G. Zakrzewski, J. Gao, N. Rega, 
 G. Zheng, W. Liang, M. Hada, M. Ehara, K. Toyota, R. Fukuda, 
 J. Hasegawa, M. Ishida, T. Nakajima, Y. Honda, O. Kitao, H. Nakai, 
 T. Vreven, K. Throssell, J. A. Montgomery, Jr., J. E. Peralta, 
 F. Ogliaro, M. J. Bearpark, J. J. Heyd, E. N. Brothers, K. N. Kudin, 
 V. N. Staroverov, T. A. Keith, R. Kobayashi, J. Normand, 
 K. Raghavachari, A. P. Rendell, J. C. Burant, S. S. Iyengar, 
 J. Tomasi, M. Cossi, J. M. Millam, M. Klene, C. Adamo, R. Cammi, 
 J. W. Ochterski, R. L. Martin, K. Morokuma, O. Farkas, 
 J. B. Foresman, and D. J. Fox, Gaussian, Inc., Wallingford CT, 2019.
 
 ******************************************
 Gaussian 16:  ES64L-G16RevC.01  3-Jul-2019
                 1-Jun-2024 
 ******************************************
 %chk=a.chk
 %nprocshared=56
 Will use up to   56 processors via shared memory.
 %mem=96gb
 ----------------------------------------------------------------------
 # def2svp wb97xd scrf=(smd,solvent=acetonitrile) g09default scf=(xqc,m
 axcycle=64) force guess=read nosymm
 ----------------------------------------------------------------------
 1/10=7,30=1,38=1,158=3,167=1/1,3;
 2/12=2,15=1,17=6,18=5,40=1/2;
 3/5=43,7=101,11=2,25=1,27=10,30=1,70=32201,71=1,72=2,74=-58,75=-4,116=-2,158=3/1,2,3;
 4/5=1,60=-1/1;
 5/5=2,7=64,8=3,13=1,38=6,53=2,87=10/2,8;
 6/7=2,8=2,9=2,10=2,28=1,87=10/1;
 7/29=1,30=1,87=10/1,2,3,16;
 1/10=7,30=1,158=3,167=1/3;
 99//99;
 Using 2006 physical constants.
 ----------
 Title Card
 ----------
 Symbolic Z-matrix:
 Charge = -1 Multiplicity = 1
 17                   -9.93988   7.74634   10.42574 
 6                    -8.31261   4.24732   12.23848 
 6                    -9.06173   3.92126   11.09425 
 6                    -10.00675   2.88725   11.20005 
 6                    -10.1879   2.19307   12.39233 
 6                    -9.4286    2.52066   13.51608 
 6                    -8.49064   3.55156   13.43088 
 1                    -7.57758   5.05518   12.19932 
 1                    -10.59783   2.62545   10.31893 
 1                    -10.91449   1.37942   12.43629 
 1                    -9.55791   1.96689   14.44911 
 1                    -7.88515   3.81073   14.30368 
 6                    -8.91277   4.61414   9.81268 
 6                    -8.07962   5.63856   9.56479 
 1                    -9.60356   4.30302   9.02263 
 1                    -8.06066   6.12381   8.58843 
 1                    -7.38736   6.03036   10.31163 
 8                    -1.01745  -1.76294   7.46199 
 8                    -8.40259  -1.32534   7.46599 
 8                    -7.05848   1.3346    10.49056 
 8                    -2.3392   -4.34261   10.56112 
 74                   -3.43392   0.74831   6.50564 
 74                   -6.00943  -3.82455   6.58914 
 74                   -3.63616   0.91625   11.40046 
 74                   -5.77679  -3.86483   11.46726 
 74                   -2.46957  -2.54721   6.37879 
 74                   -6.95169  -0.52822   6.34986 
 74                   -6.83279  -0.25426   11.59718 
 74                   -2.57024  -2.69104   11.62803 
 8                    -3.20751   1.95489   5.34719 
 8                    -6.13672  -5.08941   5.46074 
 8                    -2.70264   1.7696    12.53722 
 8                    -6.7028   -4.67936   12.63882 
 8                    -2.69806  -0.86482   5.60159 
 8                    -6.71661  -2.26797   5.64207 
 8                    -5.32321   0.5649    12.35787 
 8                    -4.06867  -3.50924   12.40257 
 8                     0.29855  -0.00718   9.28512 
 8                    -9.7214   -3.01174   9.34598 
 8                    -6.42049   3.41656   8.63546 
 8                    -2.96151  -6.44926   8.73707 
 8                    -1.81789   0.77637   7.49122 
 8                    -7.61013  -3.86725   7.56654 
 8                    -4.54812   2.21409   10.421 
 8                    -4.86084  -5.20441   10.51892 
 8                    -1.65097  -3.47969   5.21723 
 8                    -7.81778   0.272     5.14272 
 8                    -8.03809  -0.18676   12.79131 
 8                    -1.34025  -2.79021   12.79873 
 74                   -1.26197  -0.51727   8.84577 
 74                   -8.1638   -2.50927   8.88729 
 74                   -5.94443   1.85615   9.0468 
 74                   -3.46644  -4.88172   9.16257 
 8                    -4.24131  -3.08668   6.08119 
 8                    -5.17449  -0.03847   6.02761 
 8                    -6.18087  -1.99761   11.91377 
 8                    -3.19832  -0.95117   11.91914 
 8                    -4.40221   1.59789   7.8561 
 8                    -5.00341  -4.66136   7.93981 
 8                    -2.34951   0.59209   10.07037 
 8                    -7.06181  -3.59919   10.13018 
 8                    -2.57594  -3.8645    7.86185 
 8                    -6.85451   0.78598   7.80512 
 8                    -7.84582  -1.1674    10.16052 
 8                    -1.57503  -1.84023   10.15064 
 8                    -3.39547  -1.12275   8.01685 
 8                    -6.02457  -1.95592   8.04648 
 8                    -5.12745  -0.20115   9.95183 
 8                    -4.26167  -2.81656   9.98074 
 19                   -3.23926  -6.09615   5.68268 
 19                   -0.17217   0.02875   12.33272 
 19                   -9.24505  -2.92591   12.38907 
 23                   -4.70481  -1.52026   8.99608 
 

 GradGradGradGradGradGradGradGradGradGradGradGradGradGradGradGradGradGrad
 Berny optimization.
 Initialization pass.
 Trust Radius=3.00D-01 FncErr=1.00D-07 GrdErr=1.00D-07 EigMax=2.50D+02 EigMin=1.00D-04
 Number of steps in this run=      2 maximum allowed number of steps=      2.
 GradGradGradGradGradGradGradGradGradGradGradGradGradGradGradGradGradGrad

 Symmetry turned off by external request.
 Stoichiometry    C8H8ClK3O40VW12(1-)
 Framework group  C1[X(C8H8ClK3O40VW12)]
 Deg. of freedom   213
 Full point group                 C1      NOp   1
                          Input orientation:                          
 ---------------------------------------------------------------------
 Center     Atomic      Atomic             Coordinates (Angstroms)
 Number     Number       Type             X           Y           Z
 ---------------------------------------------------------------------
      1         17           0       -9.939881    7.746336   10.425738
      2          6           0       -8.312611    4.247315   12.238476
      3          6           0       -9.061731    3.921256   11.094252
      4          6           0      -10.006747    2.887254   11.200046
      5          6           0      -10.187897    2.193071   12.392327
      6          6           0       -9.428602    2.520658   13.516078
      7          6           0       -8.490644    3.551555   13.430879
      8          1           0       -7.577583    5.055177   12.199320
      9          1           0      -10.597832    2.625445   10.318929
     10          1           0      -10.914488    1.379424   12.436295
     11          1           0       -9.557906    1.966889   14.449106
     12          1           0       -7.885149    3.810727   14.303684
     13          6           0       -8.912771    4.614135    9.812682
     14          6           0       -8.079618    5.638555    9.564787
     15          1           0       -9.603556    4.303017    9.022633
     16          1           0       -8.060656    6.123808    8.588432
     17          1           0       -7.387360    6.030364   10.311628
     18          8           0       -1.017452   -1.762936    7.461989
     19          8           0       -8.402588   -1.325340    7.465992
     20          8           0       -7.058476    1.334596   10.490564
     21          8           0       -2.339203   -4.342608   10.561117
     22         74           0       -3.433920    0.748311    6.505643
     23         74           0       -6.009435   -3.824549    6.589136
     24         74           0       -3.636155    0.916254   11.400462
     25         74           0       -5.776790   -3.864826   11.467264
     26         74           0       -2.469573   -2.547209    6.378794
     27         74           0       -6.951694   -0.528223    6.349863
     28         74           0       -6.832793   -0.254256   11.597176
     29         74           0       -2.570235   -2.691038   11.628034
     30          8           0       -3.207513    1.954891    5.347193
     31          8           0       -6.136718   -5.089413    5.460737
     32          8           0       -2.702640    1.769602   12.537219
     33          8           0       -6.702800   -4.679355   12.638819
     34          8           0       -2.698056   -0.864817    5.601591
     35          8           0       -6.716611   -2.267975    5.642066
     36          8           0       -5.323213    0.564897   12.357869
     37          8           0       -4.068670   -3.509241   12.402572
     38          8           0        0.298550   -0.007179    9.285120
     39          8           0       -9.721402   -3.011736    9.345975
     40          8           0       -6.420491    3.416561    8.635461
     41          8           0       -2.961510   -6.449257    8.737071
     42          8           0       -1.817887    0.776368    7.491224
     43          8           0       -7.610131   -3.867250    7.566543
     44          8           0       -4.548124    2.214093   10.420996
     45          8           0       -4.860838   -5.204414   10.518921
     46          8           0       -1.650969   -3.479687    5.217232
     47          8           0       -7.817783    0.272004    5.142715
     48          8           0       -8.038086   -0.186760   12.791306
     49          8           0       -1.340252   -2.790211   12.798728
     50         74           0       -1.261969   -0.517274    8.845774
     51         74           0       -8.163796   -2.509269    8.887286
     52         74           0       -5.944432    1.856153    9.046803
     53         74           0       -3.466436   -4.881718    9.162567
     54          8           0       -4.241306   -3.086683    6.081188
     55          8           0       -5.174494   -0.038466    6.027611
     56          8           0       -6.180872   -1.997613   11.913775
     57          8           0       -3.198317   -0.951174   11.919141
     58          8           0       -4.402206    1.597887    7.856105
     59          8           0       -5.003412   -4.661358    7.939807
     60          8           0       -2.349511    0.592094   10.070368
     61          8           0       -7.061810   -3.599189   10.130182
     62          8           0       -2.575936   -3.864499    7.861849
     63          8           0       -6.854507    0.785982    7.805118
     64          8           0       -7.845824   -1.167405   10.160519
     65          8           0       -1.575027   -1.840228   10.150639
     66          8           0       -3.395466   -1.122745    8.016853
     67          8           0       -6.024570   -1.955916    8.046482
     68          8           0       -5.127450   -0.201153    9.951829
     69          8           0       -4.261675   -2.816557    9.980741
     70         19           0       -3.239256   -6.096151    5.682675
     71         19           0       -0.172166    0.028754   12.332722
     72         19           0       -9.245045   -2.925906   12.389073
     73         23           0       -4.704810   -1.520262    8.996084
 ---------------------------------------------------------------------
 Rotational constants (GHZ):           0.0172383           0.0133682           0.0131586
 Standard basis: def2SVP (5D, 7F)
  1217 basis functions,  2313 primitive gaussians,  1337 cartesian basis functions
   321 alpha electrons      321 beta electrons
       nuclear repulsion energy     21050.0064290235 Hartrees.
 NAtoms=   73 NActive=   73 NUniq=   73 SFac= 1.00D+00 NAtFMM=   60 NAOKFM=T Big=T
 Integral buffers will be    131072 words long.
 Raffenetti 2 integral format.
 Two-electron integral symmetry is turned off.
 Nuclear repulsion after empirical dispersion term =    21049.7280706225 Hartrees.
 Force PCM accuracy= 1.00D-10.
 ------------------------------------------------------------------------------
 Polarizable Continuum Model (PCM)
 =================================
 Model                : PCM (using non-symmetric T matrix).
 Atomic radii         : SMD-Coulomb.
 Polarization charges : Total charges.
 Charge compensation  : None.
 Solution method      : On-the-fly selection.
 Cavity type          : VdW (van der Waals Surface) (Alpha=1.000).
 Cavity algorithm     : GePol (No added spheres)
                        Default sphere list used, NSphG=   73.
                        Lebedev-Laikov grids with approx.  5.0 points / Ang**2.
                        Smoothing algorithm: York/Karplus (Gamma=1.0000).
                        Polarization charges: spherical gaussians, with
                                              point-specific exponents (IZeta= 3).
                        Self-potential: point-specific (ISelfS= 7).
                        Self-field    : sphere-specific E.n sum rule (ISelfD= 2).
 1st derivatives      : Analytical E(r).r(x)/FMM algorithm (CHGder, D1EAlg=3).
                        Cavity 1st derivative terms included.
 Solvent              : Acetonitrile, Eps=  35.688000 Eps(inf)=   1.806874
 ------------------------------------------------------------------------------
 ------------------------------------------------------------------------------
 Atomic radii for non-electrostatic terms: SMD-CDS.
 ------------------------------------------------------------------------------
 Nuclear repulsion after PCM non-electrostatic terms =    21049.7222732035 Hartrees.
 One-electron integrals computed using PRISM.
   1 Symmetry operations used in ECPInt.
 ECPInt:  NShTT=  127765 NPrTT=  468030 LenC2=   96904 LenP2D=  221918.
 LDataN:  DoStor=T MaxTD1= 8 Len=  415
 NBasis=  1217 RedAO= T EigKep=  1.35D-04  NBF=  1217
 NBsUse=  1217 1.00D-06 EigRej= -1.00D+00 NBFU=  1217
 Defaulting to unpruned grid for atomic number  74.
 Defaulting to unpruned grid for atomic number  74.
 Defaulting to unpruned grid for atomic number  74.
 Defaulting to unpruned grid for atomic number  74.
 Defaulting to unpruned grid for atomic number  74.
 Defaulting to unpruned grid for atomic number  74.
 Defaulting to unpruned grid for atomic number  74.
 Defaulting to unpruned grid for atomic number  74.
 Initial guess from the checkpoint file:  "a.chk"
 B after Tr=     0.000429    0.000117   -0.000041
         Rot=    1.000000   -0.000015    0.000005    0.000039 Ang=  -0.00 deg.
 Requested convergence on RMS density matrix=1.00D-08 within  64 cycles.
 Requested convergence on MAX density matrix=1.00D-06.
 Requested convergence on             energy=1.00D-06.
 No special actions if energy rises.
 Defaulting to unpruned grid for atomic number  74.
 Defaulting to unpruned grid for atomic number  74.
 Defaulting to unpruned grid for atomic number  74.
 Defaulting to unpruned grid for atomic number  74.
 Defaulting to unpruned grid for atomic number  74.
 Defaulting to unpruned grid for atomic number  74.
 Defaulting to unpruned grid for atomic number  74.
 Defaulting to unpruned grid for atomic number  74.
 Defaulting to unpruned grid for atomic number  74.
 Defaulting to unpruned grid for atomic number  74.
 Defaulting to unpruned grid for atomic number  74.
 Defaulting to unpruned grid for atomic number  74.
 Defaulting to unpruned grid for atomic number  74.
 Defaulting to unpruned grid for atomic number  74.
 Defaulting to unpruned grid for atomic number  74.
 Defaulting to unpruned grid for atomic number  74.
 Defaulting to unpruned grid for atomic number  74.
 Defaulting to unpruned grid for atomic number  74.
 Defaulting to unpruned grid for atomic number  74.
 Defaulting to unpruned grid for atomic number  74.
 Defaulting to unpruned grid for atomic number  74.
 Defaulting to unpruned grid for atomic number  74.
 Defaulting to unpruned grid for atomic number  74.
 Defaulting to unpruned grid for atomic number  74.
 Defaulting to unpruned grid for atomic number  74.
 Defaulting to unpruned grid for atomic number  74.
 Defaulting to unpruned grid for atomic number  74.
 Defaulting to unpruned grid for atomic number  74.
 Defaulting to unpruned grid for atomic number  74.
 Defaulting to unpruned grid for atomic number  74.
 Defaulting to unpruned grid for atomic number  74.
 Defaulting to unpruned grid for atomic number  74.
 Defaulting to unpruned grid for atomic number  74.
 Defaulting to unpruned grid for atomic number  74.
 Defaulting to unpruned grid for atomic number  74.
 Defaulting to unpruned grid for atomic number  74.
 Defaulting to unpruned grid for atomic number  74.
 Defaulting to unpruned grid for atomic number  74.
 Defaulting to unpruned grid for atomic number  74.
 Defaulting to unpruned grid for atomic number  74.
 Defaulting to unpruned grid for atomic number  74.
 Defaulting to unpruned grid for atomic number  74.
 Defaulting to unpruned grid for atomic number  74.
 Defaulting to unpruned grid for atomic number  74.
 Defaulting to unpruned grid for atomic number  74.
 Defaulting to unpruned grid for atomic number  74.
 Defaulting to unpruned grid for atomic number  74.
 Defaulting to unpruned grid for atomic number  74.
 Defaulting to unpruned grid for atomic number  74.
 Defaulting to unpruned grid for atomic number  74.
 Defaulting to unpruned grid for atomic number  74.
 Defaulting to unpruned grid for atomic number  74.
 Defaulting to unpruned grid for atomic number  74.
 Defaulting to unpruned grid for atomic number  74.
 Defaulting to unpruned grid for atomic number  74.
 Defaulting to unpruned grid for atomic number  74.
 Inv3:  Mode=1 IEnd=    85354668.
 Iteration    1 A*A^-1 deviation from unit magnitude is 3.33D-15 for    731.
 Iteration    1 A*A^-1 deviation from orthogonality  is 3.33D-15 for    787    152.
 Iteration    1 A^-1*A deviation from unit magnitude is 3.55D-15 for   2543.
 Iteration    1 A^-1*A deviation from orthogonality  is 1.20D-12 for   3471   3180.
 Error on total polarization charges =  0.01614
 SCF Done:  E(RwB97XD) =  -7327.69917862     A.U. after   14 cycles
            NFock= 14  Conv=0.23D-08     -V/T= 2.0831
 SMD-CDS (non-electrostatic) energy       (kcal/mol) =      -3.64
 (included in total energy above)
 QCSCF skips out because SCF is already converged.

 **********************************************************************

            Population analysis using the SCF Density.

 **********************************************************************

 Alpha  occ. eigenvalues -- -197.28243-129.99987-129.99957-129.99864-101.47687
 Alpha  occ. eigenvalues --  -22.61464 -19.33035 -19.32990 -19.32988 -19.32985
 Alpha  occ. eigenvalues --  -19.30623 -19.30620 -19.30618 -19.30615 -19.30584
 Alpha  occ. eigenvalues --  -19.30574 -19.30570 -19.30539 -19.30444 -19.30272
 Alpha  occ. eigenvalues --  -19.30241 -19.30001 -19.29297 -19.29290 -19.29278
 Alpha  occ. eigenvalues --  -19.29273 -19.29269 -19.29262 -19.29240 -19.29208
 Alpha  occ. eigenvalues --  -19.29144 -19.29133 -19.29131 -19.29106 -19.29090
 Alpha  occ. eigenvalues --  -19.29073 -19.29068 -19.29043 -19.29031 -19.29025
 Alpha  occ. eigenvalues --  -19.29012 -19.28993 -19.28956 -19.28895 -19.28874
 Alpha  occ. eigenvalues --  -19.28712 -19.10408 -19.10397 -19.10396 -13.37385
 Alpha  occ. eigenvalues --  -13.37354 -13.37249 -10.70316 -10.70308 -10.70307
 Alpha  occ. eigenvalues --  -10.70285 -10.70277 -10.70277 -10.70182 -10.70173
 Alpha  occ. eigenvalues --  -10.70171 -10.29616 -10.29258 -10.29173 -10.28960
 Alpha  occ. eigenvalues --  -10.28823 -10.28765 -10.27814 -10.27003  -9.38156
 Alpha  occ. eigenvalues --   -7.12980  -7.12936  -7.12929  -3.23257  -3.23244
 Alpha  occ. eigenvalues --   -3.23223  -3.23222  -3.23220  -3.23191  -3.23168
 Alpha  occ. eigenvalues --   -3.23162  -3.23099  -3.22872  -3.22856  -3.22572
 Alpha  occ. eigenvalues --   -2.90964  -1.93416  -1.93393  -1.93378  -1.87641
 Alpha  occ. eigenvalues --   -1.87570  -1.87560  -1.87493  -1.87410  -1.87388
 Alpha  occ. eigenvalues --   -1.87376  -1.87361  -1.87298  -1.87175  -1.87142
 Alpha  occ. eigenvalues --   -1.86926  -1.86581  -1.86461  -1.86451  -1.86440
 Alpha  occ. eigenvalues --   -1.86401  -1.86364  -1.86284  -1.86261  -1.86249
 Alpha  occ. eigenvalues --   -1.86239  -1.86211  -1.86182  -1.86108  -1.86079
 Alpha  occ. eigenvalues --   -1.86065  -1.86038  -1.86008  -1.85942  -1.85918
 Alpha  occ. eigenvalues --   -1.85848  -1.85823  -1.85726  -1.85572  -1.85498
 Alpha  occ. eigenvalues --   -1.51085  -1.51056  -1.50953  -1.12704  -1.10919
 Alpha  occ. eigenvalues --   -1.10800  -1.10789  -1.08787  -1.08498  -1.08474
 Alpha  occ. eigenvalues --   -1.08274  -1.07404  -1.07328  -1.07315  -1.06880
 Alpha  occ. eigenvalues --   -1.06864  -1.06826  -1.06280  -1.06249  -1.05333
 Alpha  occ. eigenvalues --   -1.05320  -1.04947  -1.04936  -1.04898  -1.04196
 Alpha  occ. eigenvalues --   -1.04179  -1.04153  -1.03976  -1.03961  -1.03947
 Alpha  occ. eigenvalues --   -1.03883  -1.03855  -1.03822  -1.03697  -1.03654
 Alpha  occ. eigenvalues --   -1.03548  -1.03503  -1.03217  -1.03195  -1.03118
 Alpha  occ. eigenvalues --   -1.03090  -1.03043  -1.02873  -0.94262  -0.86571
 Alpha  occ. eigenvalues --   -0.86544  -0.86451  -0.86366  -0.86361  -0.86335
 Alpha  occ. eigenvalues --   -0.86331  -0.86314  -0.86237  -0.86222  -0.82674
 Alpha  occ. eigenvalues --   -0.79607  -0.70899  -0.69585  -0.67875  -0.64615
 Alpha  occ. eigenvalues --   -0.63961  -0.63907  -0.63877  -0.62977  -0.62949
 Alpha  occ. eigenvalues --   -0.62897  -0.62861  -0.62435  -0.62413  -0.61662
 Alpha  occ. eigenvalues --   -0.61528  -0.61508  -0.61399  -0.61267  -0.61253
 Alpha  occ. eigenvalues --   -0.61206  -0.60417  -0.59388  -0.59324  -0.59306
 Alpha  occ. eigenvalues --   -0.59240  -0.59230  -0.58556  -0.57998  -0.57965
 Alpha  occ. eigenvalues --   -0.57896  -0.56858  -0.56840  -0.56775  -0.56174
 Alpha  occ. eigenvalues --   -0.56163  -0.56020  -0.55646  -0.54820  -0.54764
 Alpha  occ. eigenvalues --   -0.54742  -0.54420  -0.54204  -0.54093  -0.54045
 Alpha  occ. eigenvalues --   -0.53886  -0.53859  -0.53333  -0.53310  -0.53045
 Alpha  occ. eigenvalues --   -0.53017  -0.52888  -0.52714  -0.52690  -0.52662
 Alpha  occ. eigenvalues --   -0.52643  -0.52506  -0.52472  -0.52312  -0.51441
 Alpha  occ. eigenvalues --   -0.51414  -0.51218  -0.51199  -0.51145  -0.51095
 Alpha  occ. eigenvalues --   -0.51051  -0.51001  -0.50912  -0.50839  -0.50649
 Alpha  occ. eigenvalues --   -0.50633  -0.50595  -0.49917  -0.49890  -0.49217
 Alpha  occ. eigenvalues --   -0.49203  -0.49118  -0.49101  -0.49095  -0.49049
 Alpha  occ. eigenvalues --   -0.48780  -0.47918  -0.47886  -0.47781  -0.47454
 Alpha  occ. eigenvalues --   -0.47299  -0.47232  -0.47169  -0.46948  -0.46864
 Alpha  occ. eigenvalues --   -0.46784  -0.46521  -0.46511  -0.46410  -0.46000
 Alpha  occ. eigenvalues --   -0.45949  -0.45904  -0.45490  -0.45038  -0.44853
 Alpha  occ. eigenvalues --   -0.44816  -0.44086  -0.44044  -0.43922  -0.43396
 Alpha  occ. eigenvalues --   -0.43269  -0.43204  -0.43071  -0.43060  -0.43008
 Alpha  occ. eigenvalues --   -0.42661  -0.42653  -0.42633  -0.42508  -0.42491
 Alpha  occ. eigenvalues --   -0.42434  -0.42428  -0.42379  -0.42267  -0.42246
 Alpha  occ. eigenvalues --   -0.42205  -0.41982  -0.41867  -0.41806  -0.41798
 Alpha  occ. eigenvalues --   -0.41191  -0.41171  -0.41026  -0.41009  -0.40552
 Alpha  occ. eigenvalues --   -0.40518  -0.40497  -0.40235  -0.39382  -0.39380
 Alpha  occ. eigenvalues --   -0.36640  -0.32433  -0.28837  -0.24628  -0.24574
 Alpha  occ. eigenvalues --   -0.22714
 Alpha virt. eigenvalues --   -0.08454  -0.08400  -0.08282  -0.08277  -0.06861
 Alpha virt. eigenvalues --   -0.06838  -0.06753  -0.03741  -0.03663  -0.03607
 Alpha virt. eigenvalues --   -0.03439  -0.03210  -0.03182  -0.03019  -0.02824
 Alpha virt. eigenvalues --   -0.02763  -0.02697  -0.02076  -0.02034  -0.01978
 Alpha virt. eigenvalues --   -0.01330  -0.01297  -0.01252  -0.01130  -0.01076
 Alpha virt. eigenvalues --    0.00056   0.00098   0.00181   0.01515   0.01624
 Alpha virt. eigenvalues --    0.02051   0.02088   0.02170   0.02275   0.02319
 Alpha virt. eigenvalues --    0.02328   0.02350   0.02470   0.02853   0.02943
 Alpha virt. eigenvalues --    0.03039   0.03130   0.03184   0.04546   0.04685
 Alpha virt. eigenvalues --    0.06891   0.07405   0.07534   0.07613   0.07857
 Alpha virt. eigenvalues --    0.08043   0.08566   0.08618   0.08894   0.09160
 Alpha virt. eigenvalues --    0.09338   0.09391   0.09643   0.09898   0.10267
 Alpha virt. eigenvalues --    0.10320   0.10353   0.10419   0.10467   0.10678
 Alpha virt. eigenvalues --    0.10930   0.11094   0.11135   0.11729   0.11736
 Alpha virt. eigenvalues --    0.12406   0.13178   0.13285   0.13417   0.13609
 Alpha virt. eigenvalues --    0.13762   0.14554   0.14608   0.14728   0.15107
 Alpha virt. eigenvalues --    0.15568   0.16237   0.16406   0.16689   0.16759
 Alpha virt. eigenvalues --    0.16810   0.17001   0.17098   0.17274   0.17756
 Alpha virt. eigenvalues --    0.17990   0.18161   0.18211   0.18406   0.18603
 Alpha virt. eigenvalues --    0.18846   0.19025   0.19249   0.19353   0.19517
 Alpha virt. eigenvalues --    0.19582   0.20170   0.20321   0.20418   0.20666
 Alpha virt. eigenvalues --    0.20738   0.20932   0.20970   0.21353   0.21422
 Alpha virt. eigenvalues --    0.21513   0.21642   0.21752   0.21921   0.22301
 Alpha virt. eigenvalues --    0.22624   0.22825   0.23023   0.23310   0.23424
 Alpha virt. eigenvalues --    0.23608   0.23946   0.24112   0.24293   0.24661
 Alpha virt. eigenvalues --    0.24832   0.25245   0.25637   0.25734   0.25994
 Alpha virt. eigenvalues --    0.26176   0.26357   0.26468   0.26574   0.26792
 Alpha virt. eigenvalues --    0.27156   0.27317   0.27516   0.27656   0.27873
 Alpha virt. eigenvalues --    0.28163   0.28363   0.28419   0.28720   0.28771
 Alpha virt. eigenvalues --    0.29432   0.29807   0.30062   0.30297   0.30670
 Alpha virt. eigenvalues --    0.30828   0.31208   0.31330   0.31816   0.31912
 Alpha virt. eigenvalues --    0.32382   0.35066   0.35345   0.35941   0.36509
 Alpha virt. eigenvalues --    0.36717   0.37095   0.37334   0.38178   0.38698
 Alpha virt. eigenvalues --    0.38878   0.39371   0.39630   0.39904   0.40319
 Alpha virt. eigenvalues --    0.40845   0.41041   0.41113   0.41310   0.41868
 Alpha virt. eigenvalues --    0.42215   0.42518   0.42792   0.43345   0.43560
 Alpha virt. eigenvalues --    0.43746   0.44511   0.44726   0.44905   0.45273
 Alpha virt. eigenvalues --    0.45817   0.46336   0.46627   0.46843   0.47210
 Alpha virt. eigenvalues --    0.47389   0.47709   0.47902   0.48047   0.48150
 Alpha virt. eigenvalues --    0.48371   0.48454   0.48649   0.48908   0.48982
 Alpha virt. eigenvalues --    0.49116   0.49261   0.49454   0.49699   0.49920
 Alpha virt. eigenvalues --    0.50144   0.50406   0.50634   0.50858   0.51288
 Alpha virt. eigenvalues --    0.51759   0.51809   0.51991   0.52312   0.52599
 Alpha virt. eigenvalues --    0.52677   0.52977   0.53161   0.53275   0.53414
 Alpha virt. eigenvalues --    0.53739   0.54244   0.54459   0.54480   0.54840
 Alpha virt. eigenvalues --    0.54977   0.55439   0.55789   0.56515   0.56564
 Alpha virt. eigenvalues --    0.56867   0.57415   0.57906   0.58320   0.58533
 Alpha virt. eigenvalues --    0.58802   0.59387   0.59657   0.60565   0.61106
 Alpha virt. eigenvalues --    0.61650   0.62850   0.62904   0.62970   0.63867
 Alpha virt. eigenvalues --    0.64440   0.65709   0.65825   0.65927   0.66080
 Alpha virt. eigenvalues --    0.66536   0.67111   0.67520   0.67570   0.67852
 Alpha virt. eigenvalues --    0.68210   0.68693   0.70379   0.70774   0.71441
 Alpha virt. eigenvalues --    0.71681   0.72220   0.72363   0.72444   0.72546
 Alpha virt. eigenvalues --    0.72716   0.72943   0.73311   0.73678   0.74090
 Alpha virt. eigenvalues --    0.74722   0.74996   0.75842   0.76065   0.76170
 Alpha virt. eigenvalues --    0.76406   0.76855   0.77194   0.77524   0.77718
 Alpha virt. eigenvalues --    0.77913   0.78586   0.79349   0.79635   0.79725
 Alpha virt. eigenvalues --    0.79853   0.80456   0.80805   0.81229   0.81593
 Alpha virt. eigenvalues --    0.81720   0.81847   0.82219   0.82913   0.83279
 Alpha virt. eigenvalues --    0.84364   0.84448   0.85070   0.85523   0.86220
 Alpha virt. eigenvalues --    0.87450   0.87644   0.88195   0.88315   0.89034
 Alpha virt. eigenvalues --    0.89224   0.89315   0.89700   0.89772   0.90646
 Alpha virt. eigenvalues --    0.90941   0.91107   0.91477   0.91758   0.92006
 Alpha virt. eigenvalues --    0.92888   0.93196   0.94021   0.94090   0.94273
 Alpha virt. eigenvalues --    0.94616   0.95053   0.96057   0.96172   0.97127
 Alpha virt. eigenvalues --    0.97239   0.97311   0.97559   0.97983   0.98058
 Alpha virt. eigenvalues --    0.98373   0.98530   0.98714   0.98815   0.98997
 Alpha virt. eigenvalues --    0.99383   0.99978   1.00469   1.00540   1.00709
 Alpha virt. eigenvalues --    1.00918   1.01457   1.01577   1.01816   1.02287
 Alpha virt. eigenvalues --    1.02315   1.02477   1.02685   1.02784   1.02807
 Alpha virt. eigenvalues --    1.03019   1.03783   1.03961   1.04082   1.04110
 Alpha virt. eigenvalues --    1.04397   1.04550   1.04642   1.04729   1.04964
 Alpha virt. eigenvalues --    1.05177   1.05286   1.05412   1.05718   1.05869
 Alpha virt. eigenvalues --    1.06147   1.06486   1.07040   1.07200   1.07498
 Alpha virt. eigenvalues --    1.07676   1.08157   1.08931   1.09381   1.09454
 Alpha virt. eigenvalues --    1.09734   1.09826   1.10075   1.10233   1.10323
 Alpha virt. eigenvalues --    1.10857   1.10899   1.11122   1.11402   1.11595
 Alpha virt. eigenvalues --    1.11662   1.11948   1.12109   1.12792   1.13045
 Alpha virt. eigenvalues --    1.13440   1.13789   1.13887   1.14625   1.15256
 Alpha virt. eigenvalues --    1.15446   1.16091   1.16425   1.16770   1.17183
 Alpha virt. eigenvalues --    1.17647   1.17877   1.18088   1.18774   1.19187
 Alpha virt. eigenvalues --    1.20618   1.20815   1.21157   1.21329   1.21348
 Alpha virt. eigenvalues --    1.21508   1.22020   1.22127   1.22956   1.23902
 Alpha virt. eigenvalues --    1.25083   1.25943   1.26062   1.26717   1.26894
 Alpha virt. eigenvalues --    1.27092   1.28073   1.28452   1.28714   1.28788
 Alpha virt. eigenvalues --    1.28890   1.29075   1.29272   1.29649   1.30137
 Alpha virt. eigenvalues --    1.30294   1.30461   1.30750   1.30902   1.31116
 Alpha virt. eigenvalues --    1.31481   1.32278   1.32460   1.32896   1.33158
 Alpha virt. eigenvalues --    1.33389   1.33689   1.33911   1.34040   1.34208
 Alpha virt. eigenvalues --    1.34421   1.34471   1.34697   1.34964   1.35104
 Alpha virt. eigenvalues --    1.35231   1.35318   1.35482   1.35964   1.36156
 Alpha virt. eigenvalues --    1.36300   1.36454   1.36794   1.36995   1.37199
 Alpha virt. eigenvalues --    1.37456   1.37595   1.37904   1.38209   1.38366
 Alpha virt. eigenvalues --    1.38414   1.38764   1.39003   1.39097   1.39226
 Alpha virt. eigenvalues --    1.39499   1.39794   1.39834   1.40133   1.40469
 Alpha virt. eigenvalues --    1.40636   1.40730   1.40813   1.40987   1.41300
 Alpha virt. eigenvalues --    1.41416   1.41723   1.41943   1.41995   1.42483
 Alpha virt. eigenvalues --    1.42770   1.43300   1.43405   1.43512   1.43629
 Alpha virt. eigenvalues --    1.44188   1.44582   1.44892   1.45792   1.46401
 Alpha virt. eigenvalues --    1.46703   1.47279   1.47562   1.47906   1.48050
 Alpha virt. eigenvalues --    1.48439   1.48962   1.49385   1.49936   1.50438
 Alpha virt. eigenvalues --    1.50757   1.51067   1.51581   1.51932   1.53338
 Alpha virt. eigenvalues --    1.53504   1.55543   1.55785   1.55924   1.56076
 Alpha virt. eigenvalues --    1.56375   1.56636   1.56955   1.57059   1.57364
 Alpha virt. eigenvalues --    1.57590   1.58193   1.58737   1.59497   1.59642
 Alpha virt. eigenvalues --    1.60043   1.60474   1.60751   1.60947   1.61133
 Alpha virt. eigenvalues --    1.61178   1.61584   1.62552   1.62599   1.62877
 Alpha virt. eigenvalues --    1.64423   1.64668   1.65286   1.66095   1.67348
 Alpha virt. eigenvalues --    1.67982   1.68314   1.69687   1.70678   1.71081
 Alpha virt. eigenvalues --    1.71538   1.71888   1.72813   1.73826   1.74600
 Alpha virt. eigenvalues --    1.75406   1.75495   1.75642   1.76213   1.76950
 Alpha virt. eigenvalues --    1.77069   1.77262   1.77760   1.78018   1.78899
 Alpha virt. eigenvalues --    1.78958   1.79544   1.79778   1.80688   1.80752
 Alpha virt. eigenvalues --    1.81674   1.81876   1.82070   1.82616   1.83088
 Alpha virt. eigenvalues --    1.83501   1.83619   1.84335   1.84540   1.84781
 Alpha virt. eigenvalues --    1.85445   1.85573   1.86029   1.86416   1.86714
 Alpha virt. eigenvalues --    1.86933   1.87556   1.87883   1.88504   1.88765
 Alpha virt. eigenvalues --    1.89382   1.90040   1.90404   1.90563   1.90763
 Alpha virt. eigenvalues --    1.91009   1.91261   1.91662   1.92362   1.93927
 Alpha virt. eigenvalues --    1.94830   1.95136   1.95355   1.95751   1.96269
 Alpha virt. eigenvalues --    1.98854   1.99258   1.99364   1.99399   2.05427
 Alpha virt. eigenvalues --    2.06967   2.08169   2.08511   2.08656   2.09070
 Alpha virt. eigenvalues --    2.09312   2.09605   2.09671   2.10379   2.11036
 Alpha virt. eigenvalues --    2.11533   2.11987   2.12851   2.14980   2.15379
 Alpha virt. eigenvalues --    2.15918   2.17122   2.17472   2.17839   2.18190
 Alpha virt. eigenvalues --    2.20528   2.21158   2.21433   2.21524   2.21715
 Alpha virt. eigenvalues --    2.22166   2.22569   2.24218   2.25283   2.25954
 Alpha virt. eigenvalues --    2.26379   2.26534   2.27163   2.28308   2.28691
 Alpha virt. eigenvalues --    2.29453   2.29735   2.30129   2.34893   2.35159
 Alpha virt. eigenvalues --    2.36853   2.39392   2.41201   2.41573   2.44154
 Alpha virt. eigenvalues --    2.44244   2.51371   2.52028   2.57793   2.64903
 Alpha virt. eigenvalues --    2.64961   2.65145   2.66001   2.66299   2.66596
 Alpha virt. eigenvalues --    2.66879   2.66901   2.66960   2.67079   2.67115
 Alpha virt. eigenvalues --    2.67204   2.67308   2.67390   2.67416   2.67670
 Alpha virt. eigenvalues --    2.67746   2.67956   2.67989   2.68084   2.68385
 Alpha virt. eigenvalues --    2.68943   2.69176   2.69211   2.69277   2.69877
 Alpha virt. eigenvalues --    2.70237   2.70278   2.70445   2.70605   2.70777
 Alpha virt. eigenvalues --    2.70804   2.71418   2.71472   2.71585   2.71661
 Alpha virt. eigenvalues --    2.71709   2.72007   2.72590   2.72763   2.72934
 Alpha virt. eigenvalues --    2.72978   2.73103   2.73167   2.73304   2.73331
 Alpha virt. eigenvalues --    2.73585   2.73697   2.73821   2.73850   2.73912
 Alpha virt. eigenvalues --    2.74113   2.74229   2.74395   2.74554   2.74714
 Alpha virt. eigenvalues --    2.74814   2.74978   2.75347   2.75900   2.76053
 Alpha virt. eigenvalues --    2.76112   2.76364   2.76432   2.76706   2.76832
 Alpha virt. eigenvalues --    2.77004   2.77171   2.77220   2.78286   2.78407
 Alpha virt. eigenvalues --    2.78664   2.78826   2.79919   2.80061   2.80224
 Alpha virt. eigenvalues --    2.81141   2.81859   2.81872   2.82206   2.82324
 Alpha virt. eigenvalues --    2.82516   2.82997   2.83386   2.83473   2.83837
 Alpha virt. eigenvalues --    2.83999   2.84059   2.84170   2.84480   2.85354
 Alpha virt. eigenvalues --    2.85963   2.86336   2.86494   2.86574   2.86712
 Alpha virt. eigenvalues --    2.86852   2.87027   2.87253   2.87933   2.88601
 Alpha virt. eigenvalues --    2.88941   2.89371   2.89824   2.89876   2.89997
 Alpha virt. eigenvalues --    2.90193   2.90257   2.90368   2.90476   2.90574
 Alpha virt. eigenvalues --    2.90718   2.91870   2.92024   2.92113   2.92234
 Alpha virt. eigenvalues --    2.92619   2.92777   2.92968   2.93224   2.93325
 Alpha virt. eigenvalues --    2.93630   2.93803   2.94096   2.94192   2.94290
 Alpha virt. eigenvalues --    2.94379   2.94870   2.95243   2.95426   2.95941
 Alpha virt. eigenvalues --    2.96063   2.96270   2.96752   2.96910   2.97016
 Alpha virt. eigenvalues --    2.97259   2.97307   2.97454   2.97559   2.97820
 Alpha virt. eigenvalues --    2.97896   2.98053   2.98265   2.98647   2.99386
 Alpha virt. eigenvalues --    2.99634   2.99648   2.99921   3.00040   3.00339
 Alpha virt. eigenvalues --    3.00611   3.00749   3.01568   3.02121   3.02758
 Alpha virt. eigenvalues --    3.03520   3.04273   3.04279   3.04501   3.05201
 Alpha virt. eigenvalues --    3.06717   3.06857   3.07425   3.11354   3.11979
 Alpha virt. eigenvalues --    3.12112   3.12273   3.12805   3.13036   3.14195
 Alpha virt. eigenvalues --    3.14364   3.14408   3.17217   3.20609   3.21605
 Alpha virt. eigenvalues --    3.21714   3.24098   3.32862   3.40297   3.40970
 Alpha virt. eigenvalues --    3.41910   3.42129   3.44278   3.44430   3.45277
 Alpha virt. eigenvalues --    3.45639   3.45745   3.46822   3.46920   3.47339
 Alpha virt. eigenvalues --    3.49400   3.51016   3.51372   3.51982   3.53261
 Alpha virt. eigenvalues --    3.53370   3.54003   3.54399   3.54495   3.54625
 Alpha virt. eigenvalues --    3.54731   3.54990   3.55268   3.56231   3.57267
 Alpha virt. eigenvalues --    3.57617   3.58205   3.59090   3.59354   3.60219
 Alpha virt. eigenvalues --    3.60235   3.60885   3.61435   3.61776   3.62417
 Alpha virt. eigenvalues --    3.70386   3.75115  68.64597  68.65653  68.66952
 Alpha virt. eigenvalues --   68.69374  68.72959  68.73885  68.81643  68.82750
 Alpha virt. eigenvalues --   68.83258  68.86157  68.87256  68.88551 576.23025
 Alpha virt. eigenvalues --  576.24056 576.25329 576.27697 576.31299 576.32210
 Alpha virt. eigenvalues --  576.39822 576.40907 576.41399 576.44194 576.45274
 Alpha virt. eigenvalues --  576.46558
          Condensed to atoms (all electrons):
 Mulliken charges:
               1
     1  Cl  -0.915640
     2  C   -0.086111
     3  C    0.042048
     4  C   -0.080496
     5  C   -0.033442
     6  C   -0.033768
     7  C   -0.050281
     8  H    0.026106
     9  H    0.027145
    10  H    0.039196
    11  H    0.036446
    12  H    0.038748
    13  C   -0.080739
    14  C    0.036991
    15  H    0.011522
    16  H    0.031610
    17  H    0.032882
    18  O   -0.662306
    19  O   -0.660489
    20  O   -0.654341
    21  O   -0.661811
    22  W    1.736559
    23  W    1.676535
    24  W    1.687916
    25  W    1.697804
    26  W    1.673802
    27  W    1.725801
    28  W    1.619075
    29  W    1.683990
    30  O   -0.322514
    31  O   -0.369593
    32  O   -0.369279
    33  O   -0.368238
    34  O   -0.662979
    35  O   -0.669989
    36  O   -0.660558
    37  O   -0.662533
    38  O   -0.368155
    39  O   -0.368612
    40  O   -0.289619
    41  O   -0.368603
    42  O   -0.669460
    43  O   -0.662006
    44  O   -0.658422
    45  O   -0.664045
    46  O   -0.368442
    47  O   -0.321397
    48  O   -0.357423
    49  O   -0.368530
    50  W    1.670642
    51  W    1.674554
    52  W    1.670746
    53  W    1.681581
    54  O   -0.722747
    55  O   -0.705803
    56  O   -0.724105
    57  O   -0.720316
    58  O   -0.703326
    59  O   -0.725191
    60  O   -0.723614
    61  O   -0.720718
    62  O   -0.722424
    63  O   -0.706817
    64  O   -0.721757
    65  O   -0.725536
    66  O   -0.798908
    67  O   -0.797701
    68  O   -0.796749
    69  O   -0.810520
    70  K    0.860337
    71  K    0.859650
    72  K    0.855165
    73  V    1.199197
 Sum of Mulliken charges =  -1.00000
 Mulliken charges with hydrogens summed into heavy atoms:
               1
     1  Cl  -0.915640
     2  C   -0.060005
     3  C    0.042048
     4  C   -0.053351
     5  C    0.005754
     6  C    0.002678
     7  C   -0.011533
    13  C   -0.069218
    14  C    0.101484
    18  O   -0.662306
    19  O   -0.660489
    20  O   -0.654341
    21  O   -0.661811
    22  W    1.736559
    23  W    1.676535
    24  W    1.687916
    25  W    1.697804
    26  W    1.673802
    27  W    1.725801
    28  W    1.619075
    29  W    1.683990
    30  O   -0.322514
    31  O   -0.369593
    32  O   -0.369279
    33  O   -0.368238
    34  O   -0.662979
    35  O   -0.669989
    36  O   -0.660558
    37  O   -0.662533
    38  O   -0.368155
    39  O   -0.368612
    40  O   -0.289619
    41  O   -0.368603
    42  O   -0.669460
    43  O   -0.662006
    44  O   -0.658422
    45  O   -0.664045
    46  O   -0.368442
    47  O   -0.321397
    48  O   -0.357423
    49  O   -0.368530
    50  W    1.670642
    51  W    1.674554
    52  W    1.670746
    53  W    1.681581
    54  O   -0.722747
    55  O   -0.705803
    56  O   -0.724105
    57  O   -0.720316
    58  O   -0.703326
    59  O   -0.725191
    60  O   -0.723614
    61  O   -0.720718
    62  O   -0.722424
    63  O   -0.706817
    64  O   -0.721757
    65  O   -0.725536
    66  O   -0.798908
    67  O   -0.797701
    68  O   -0.796749
    69  O   -0.810520
    70  K    0.860337
    71  K    0.859650
    72  K    0.855165
    73  V    1.199197
 Electronic spatial extent (au):  <R**2>=         316914.1210
 Charge=             -1.0000 electrons
 Dipole moment (field-independent basis, Debye):
    X=             51.5279    Y=            -48.9983    Z=            -38.6769  Tot=             80.9435
 Quadrupole moment (field-independent basis, Debye-Ang):
   XX=          -1069.8762   YY=           -853.3980   ZZ=           -915.3625
   XY=            436.7261   XZ=            462.0668   YZ=           -453.2591
 Traceless Quadrupole moment (field-independent basis, Debye-Ang):
   XX=           -123.6639   YY=             92.8142   ZZ=             30.8497
   XY=            436.7261   XZ=            462.0668   YZ=           -453.2591
 Octapole moment (field-independent basis, Debye-Ang**2):
  XXX=          13663.4071  YYY=           -675.8851  ZZZ=         -19181.5195  XYY=           5790.2120
  XXY=          -3543.1711  XXZ=          -9579.9112  XZZ=           7387.0876  YZZ=          -3893.8991
  YYZ=          -8626.3327  XYZ=           4586.5861
 Hexadecapole moment (field-independent basis, Debye-Ang**3):
 XXXX=        -162076.4346 YYYY=         -48686.5800 ZZZZ=        -347198.7120 XXXY=          36241.8730
 XXXZ=         125130.1430 YYYX=          17266.2859 YYYZ=          -8447.3620 ZZZX=         128345.0062
 ZZZY=         -32329.1140 XXYY=         -53275.0694 XXZZ=        -109611.7356 YYZZ=         -94911.0810
 XXYZ=         -40740.0846 YYXZ=          58222.0768 ZZXY=          47803.3007
 N-N= 2.104972227320D+04 E-N=-5.918538579715D+04  KE= 6.765432619311D+03
   1 Symmetry operations used in ECPInt.
 ECPInt:  NShTT=  127765 NPrTT=  468030 LenC2=   96904 LenP2D=  221918.
 LDataN:  DoStor=T MaxTD1= 9 Len=  602
 D1PCM: PCM CHGder 1st derivatives, ID1Alg=3 FixD1E=F DoIter=F DoCFld=F I1PDM=0.
 Calling FoFJK, ICntrl=      2127 FMM=T ISym2X=0 I1Cent= 0 IOpClX= 0 NMat=1 NMatS=1 NMatT=0.
 Defaulting to unpruned grid for atomic number  74.
 Defaulting to unpruned grid for atomic number  74.
 Defaulting to unpruned grid for atomic number  74.
 Defaulting to unpruned grid for atomic number  74.
 Defaulting to unpruned grid for atomic number  74.
 Defaulting to unpruned grid for atomic number  74.
 Defaulting to unpruned grid for atomic number  74.
 Defaulting to unpruned grid for atomic number  74.
 Defaulting to unpruned grid for atomic number  74.
 Defaulting to unpruned grid for atomic number  74.
 Defaulting to unpruned grid for atomic number  74.
 Defaulting to unpruned grid for atomic number  74.
 Defaulting to unpruned grid for atomic number  74.
 Defaulting to unpruned grid for atomic number  74.
 Defaulting to unpruned grid for atomic number  74.
 Defaulting to unpruned grid for atomic number  74.
 Defaulting to unpruned grid for atomic number  74.
 Defaulting to unpruned grid for atomic number  74.
 Defaulting to unpruned grid for atomic number  74.
 Defaulting to unpruned grid for atomic number  74.
 Defaulting to unpruned grid for atomic number  74.
 Defaulting to unpruned grid for atomic number  74.
 Defaulting to unpruned grid for atomic number  74.
 Defaulting to unpruned grid for atomic number  74.
 Defaulting to unpruned grid for atomic number  74.
 Defaulting to unpruned grid for atomic number  74.
 Defaulting to unpruned grid for atomic number  74.
 Defaulting to unpruned grid for atomic number  74.
 Defaulting to unpruned grid for atomic number  74.
 Defaulting to unpruned grid for atomic number  74.
 Defaulting to unpruned grid for atomic number  74.
 Defaulting to unpruned grid for atomic number  74.
 Defaulting to unpruned grid for atomic number  74.
 Defaulting to unpruned grid for atomic number  74.
 Defaulting to unpruned grid for atomic number  74.
 Defaulting to unpruned grid for atomic number  74.
 Defaulting to unpruned grid for atomic number  74.
 Defaulting to unpruned grid for atomic number  74.
 Defaulting to unpruned grid for atomic number  74.
 Defaulting to unpruned grid for atomic number  74.
 Defaulting to unpruned grid for atomic number  74.
 Defaulting to unpruned grid for atomic number  74.
 Defaulting to unpruned grid for atomic number  74.
 Defaulting to unpruned grid for atomic number  74.
 Defaulting to unpruned grid for atomic number  74.
 Defaulting to unpruned grid for atomic number  74.
 Defaulting to unpruned grid for atomic number  74.
 Defaulting to unpruned grid for atomic number  74.
 Defaulting to unpruned grid for atomic number  74.
 Defaulting to unpruned grid for atomic number  74.
 Defaulting to unpruned grid for atomic number  74.
 Defaulting to unpruned grid for atomic number  74.
 Defaulting to unpruned grid for atomic number  74.
 Defaulting to unpruned grid for atomic number  74.
 Defaulting to unpruned grid for atomic number  74.
 Defaulting to unpruned grid for atomic number  74.
 -------------------------------------------------------------------
 Center     Atomic                   Forces (Hartrees/Bohr)
 Number     Number              X              Y              Z
 -------------------------------------------------------------------
      1       17          -0.003914484    0.009906527    0.002962060
      2        6           0.000498387   -0.000002229   -0.001003502
      3        6          -0.001446310   -0.000922980    0.000402154
      4        6           0.001270391   -0.000254688    0.000934021
      5        6           0.000528213   -0.000014347    0.000066358
      6        6          -0.000433255   -0.000199831    0.000551649
      7        6          -0.000070875   -0.000976807    0.000755030
      8        1          -0.000068905   -0.000488097   -0.000169088
      9        1          -0.000583380   -0.000859284   -0.000337932
     10        1          -0.000941482   -0.000383806    0.000745510
     11        1           0.000100181    0.000395805   -0.000161223
     12        1          -0.000365204    0.000415848    0.000094654
     13        6           0.007837449    0.009195858   -0.003423724
     14        6          -0.008048788   -0.009612369    0.001182789
     15        1           0.000485479   -0.001907970   -0.000510158
     16        1           0.000039393   -0.000342725   -0.000382786
     17        1           0.000652083   -0.000207423    0.000048929
     18        8          -0.000529558    0.000001345    0.000291093
     19        8           0.000321332   -0.000260120    0.000611035
     20        8           0.000554052   -0.000829250   -0.000147218
     21        8          -0.000257326    0.000277331   -0.000455481
     22       74           0.001855153    0.006560496   -0.006622253
     23       74          -0.002337811   -0.007059927   -0.007150783
     24       74           0.004838822    0.006828303    0.007518244
     25       74          -0.005892599   -0.006434634    0.008313984
     26       74           0.005098807   -0.004035122   -0.006790578
     27       74          -0.004532031    0.004057493   -0.006078145
     28       74          -0.007730071    0.002762137    0.007399842
     29       74           0.008029944   -0.001462960    0.008303600
     30        8          -0.000162447   -0.002989707    0.001806268
     31        8           0.000055752    0.003407532    0.002192095
     32        8          -0.002903335   -0.002291833   -0.002493552
     33        8           0.003335800    0.002365147   -0.003252427
     34        8          -0.000486805   -0.000690648   -0.000052270
     35        8           0.000619051   -0.000233525   -0.000015859
     36        8           0.000237494   -0.000699798   -0.000195210
     37        8          -0.000071421    0.000585241   -0.000291230
     38        8          -0.003523408   -0.000905084   -0.001509558
     39        8           0.003371188    0.000878864   -0.001675947
     40        8           0.003439357   -0.005756877    0.000834888
     41        8          -0.001611800    0.004629337    0.001764505
     42        8          -0.000070950   -0.000200760    0.000398974
     43        8           0.000658862   -0.000059962    0.000150812
     44        8           0.001212157   -0.000936324    0.000253694
     45        8          -0.000160371    0.000226497   -0.000344319
     46        8          -0.001172110    0.002377786    0.002677198
     47        8           0.001139303   -0.001667969    0.002630077
     48        8           0.003466134    0.000314468   -0.003849882
     49        8          -0.003775178   -0.000391647   -0.003879995
     50       74           0.008841655    0.002892607    0.001186805
     51       74          -0.008768258   -0.001901902    0.001286740
     52       74          -0.004067712    0.011517396   -0.002579809
     53       74           0.003729938   -0.010477581   -0.002004188
     54        8          -0.000036106    0.000666325    0.000814166
     55        8           0.000044030   -0.000499083    0.000476301
     56        8           0.000834490   -0.000205346   -0.000803422
     57        8          -0.000393467   -0.000576923   -0.000695390
     58        8           0.001008981   -0.001741934    0.000001895
     59        8           0.000027663    0.000693653    0.000391744
     60        8          -0.000678450   -0.000468824   -0.000358358
     61        8           0.000961018    0.000260690   -0.000262921
     62        8          -0.001155423    0.000782873    0.000539483
     63        8           0.001187203   -0.001448600    0.000127215
     64        8           0.001358127   -0.000600653   -0.000693411
     65        8          -0.001442360    0.000230256   -0.000407322
     66        8          -0.018300553   -0.004999804    0.013095483
     67        8           0.018637962    0.005555019    0.012823196
     68        8           0.006255089   -0.018306870   -0.012861355
     69        8          -0.006389798    0.017110373   -0.012798923
     70       19           0.000331184   -0.001469629   -0.001063026
     71       19           0.001302469    0.000603611    0.001059475
     72       19          -0.001426668   -0.000278926    0.001230240
     73       23          -0.000415891    0.000555961   -0.000600961
 -------------------------------------------------------------------
 Cartesian Forces:  Max     0.018637962 RMS     0.004384698

 GradGradGradGradGradGradGradGradGradGradGradGradGradGradGradGradGradGrad
 Berny optimization.
 Search for a local minimum.
 Step number   1 out of a maximum of    2
 All quantities printed in internal units (Hartrees-Bohrs-Radians)
 Second derivative matrix not updated -- first step.
 ITU=  0
     Eigenvalues ---    0.00000   0.00000   0.00000   0.00010   0.00091
     Eigenvalues ---    0.00093   0.00256   0.00572   0.00618   0.01649
     Eigenvalues ---    0.01987   0.02893   0.02952   0.03219   0.03426
     Eigenvalues ---    0.03469   0.03716   0.03732   0.04154   0.04514
     Eigenvalues ---    0.04613   0.04618   0.04640   0.04862   0.04869
     Eigenvalues ---    0.05015   0.05371   0.05576   0.05622   0.06398
     Eigenvalues ---    0.06444   0.06578   0.06786   0.06863   0.07053
     Eigenvalues ---    0.07324   0.07415   0.07623   0.08418   0.08446
     Eigenvalues ---    0.08779   0.08835   0.08952   0.08971   0.09757
     Eigenvalues ---    0.09990   0.10202   0.10413   0.10484   0.10582
     Eigenvalues ---    0.10935   0.10958   0.11592   0.11730   0.12041
     Eigenvalues ---    0.12106   0.12141   0.12542   0.12556   0.12778
     Eigenvalues ---    0.12844   0.12891   0.12948   0.13182   0.13212
     Eigenvalues ---    0.13928   0.13938   0.14448   0.14768   0.14791
     Eigenvalues ---    0.16827   0.16886   0.17063   0.17167   0.17618
     Eigenvalues ---    0.17691   0.18701   0.19876   0.20014   0.20319
     Eigenvalues ---    0.20960   0.21044   0.22011   0.22105   0.22250
     Eigenvalues ---    0.22711   0.23268   0.23431   0.23932   0.24047
     Eigenvalues ---    0.24691   0.24881   0.25097   0.25882   0.26250
     Eigenvalues ---    0.26374   0.26867   0.27644   0.27839   0.28040
     Eigenvalues ---    0.28506   0.28590   0.29145   0.29867   0.30034
     Eigenvalues ---    0.30748   0.30854   0.30942   0.31051   0.31193
     Eigenvalues ---    0.31238   0.31319   0.31593   0.31791   0.32784
     Eigenvalues ---    0.32893   0.32994   0.33077   0.33224   0.33700
     Eigenvalues ---    0.33876   0.35336   0.35787   0.36167   0.37086
     Eigenvalues ---    0.37615   0.37739   0.37809   0.38593   0.38842
     Eigenvalues ---    0.39238   0.39555   0.40531   0.40802   0.41975
     Eigenvalues ---    0.42625   0.42891   0.43655   0.44562   0.45040
     Eigenvalues ---    0.45703   0.45887   0.46318   0.48487   0.48707
     Eigenvalues ---    0.48886   0.49531   0.49770   0.50136   0.50256
     Eigenvalues ---    0.50449   0.50934   0.51411   0.52465   0.53029
     Eigenvalues ---    0.53929   0.54387   0.57411   0.59567   0.64476
     Eigenvalues ---    0.67563   0.77229   0.82172   0.83308   0.96944
     Eigenvalues ---    0.97286   0.99399   1.00149   1.02506   1.04529
     Eigenvalues ---    1.08184   1.12366   1.12621   1.13393   1.17661
     Eigenvalues ---    1.20503   1.20712   1.20909   1.22503   1.23401
     Eigenvalues ---    1.23635   1.26854   1.27374   1.27461   1.28056
     Eigenvalues ---    1.28525   1.30372   1.31337   1.45260   1.46004
     Eigenvalues ---    1.46185   1.48597   1.51727   1.51824   1.52354
     Eigenvalues ---    1.52678   1.55495   1.55602   1.56686   1.58471
     Eigenvalues ---    1.58584   1.59835   1.61412   1.65621   1.81425
     Eigenvalues ---    1.91369   1.95640   1.99369   2.01432   2.07832
     Eigenvalues ---    2.09981   2.12879   3.85270
 Eigenvalue     1 is   0.00D+00 Eigenvector:
                          Y16       Y15       Y14       Y13       Y9
   1                    0.17526   0.17526   0.17526   0.17526   0.17526
                          Y17       Y3        Y4        Y8        Y2
   1                    0.17526   0.17526   0.17526   0.17526   0.17526
 Eigenvalue     2 is   3.60D-07 Eigenvector:
                          Y16       X16       X11       Y11       Y14
   1                    0.33834  -0.26220   0.26164  -0.25234   0.25029
                          Y15       Y17       Y13       X14       X6
   1                    0.23662   0.21008   0.19383  -0.18439   0.18226
 Eigenvalue     3 is   2.62D-06 Eigenvector:
                          X9        X10       Y12       Y9        X12
   1                    0.32637   0.29472   0.27777  -0.26112  -0.25076
                          Y8        Y10       X8        Y17       X15
   1                    0.24825  -0.23254  -0.22015   0.21172   0.20804
 Quadratic step=2.008D+01 exceeds max=3.000D-01 adjusted using Lamda=-8.486D-03.
 Angle between NR and scaled steps=  35.76 degrees.
 Angle between quadratic step and forces=  72.65 degrees.
 Linear search not attempted -- first point.
 B after Tr=     0.003256    0.004170    0.001822
         Rot=    1.000000   -0.000149    0.000067    0.000237 Ang=  -0.03 deg.
 Variable       Old X    -DE/DX   Delta X   Delta X   Delta X     New X
                                 (Linear)    (Quad)   (Total)
    X1      -18.78365  -0.00391   0.00000  -0.00390   0.00367 -18.77999
    Y1       14.63845   0.00991   0.00000   0.00999   0.01718  14.65563
    Z1       19.70179   0.00296   0.00000   0.00317   0.00685  19.70864
    X2      -15.70856   0.00050   0.00000  -0.00112   0.00283 -15.70573
    Y2        8.02626  -0.00000   0.00000  -0.02872  -0.02400   8.00226
    Z2       23.12737  -0.00100   0.00000  -0.01135  -0.00924  23.11813
    X3      -17.12419  -0.00145   0.00000   0.00216   0.00610 -17.11809
    Y3        7.41010  -0.00092   0.00000  -0.05018  -0.04415   7.36595
    Z3       20.96510   0.00040   0.00000  -0.00814  -0.00641  20.95869
    X4      -18.91001   0.00127   0.00000   0.00153   0.00451 -18.90550
    Y4        5.45612  -0.00025   0.00000  -0.04749  -0.04069   5.41543
    Z4       21.16502   0.00093   0.00000   0.01447   0.01537  21.18039
    X5      -19.25233   0.00053   0.00000  -0.01045  -0.00838 -19.26071
    Y5        4.14430  -0.00001   0.00000  -0.01634  -0.01004   4.13426
    Z5       23.41810   0.00007   0.00000   0.03152   0.03199  23.45009
    X6      -17.81748  -0.00043   0.00000  -0.01396  -0.01187 -17.82934
    Y6        4.76335  -0.00020   0.00000   0.00540   0.01038   4.77374
    Z6       25.54169   0.00055   0.00000   0.02691   0.02776  25.56945
    X7      -16.04499  -0.00007   0.00000  -0.00992  -0.00689 -16.05188
    Y7        6.71147  -0.00098   0.00000  -0.00067   0.00353   6.71500
    Z7       25.38068   0.00076   0.00000   0.00630   0.00797  25.38866
    X8      -14.31956  -0.00007   0.00000   0.00216   0.00684 -14.31272
    Y8        9.55290  -0.00049   0.00000  -0.03312  -0.02904   9.52386
    Z8       23.05337  -0.00017   0.00000  -0.02505  -0.02230  23.03107
    X9      -20.02700  -0.00058   0.00000  -0.00069   0.00227 -20.02473
    Y9        4.96137  -0.00086   0.00000  -0.06727  -0.05943   4.90194
    Z9       19.49995  -0.00034   0.00000   0.01914   0.01974  19.51969
   X10      -20.62539  -0.00094   0.00000  -0.02420  -0.02287 -20.64826
   Y10        2.60673  -0.00038   0.00000  -0.00574   0.00118   2.60792
   Z10       23.50119   0.00075   0.00000   0.05298   0.05281  23.55400
   X11      -18.06182   0.00010   0.00000  -0.01875  -0.01738 -18.07920
   Y11        3.71688   0.00040   0.00000   0.02849   0.03306   3.74995
   Z11       27.30485  -0.00016   0.00000   0.03823   0.03874  27.34360
   X12      -14.90077  -0.00037   0.00000  -0.01832  -0.01526 -14.91603
   Y12        7.20123   0.00042   0.00000   0.02341   0.02657   7.22781
   Z12       27.03005   0.00009   0.00000   0.00501   0.00699  27.03704
   X13      -16.84270   0.00784   0.00000   0.01605   0.02092 -16.82178
   Y13        8.71945   0.00920   0.00000  -0.07722  -0.07060   8.64885
   Z13       18.54328  -0.00342   0.00000  -0.02663  -0.02448  18.51880
   X14      -15.26827  -0.00805   0.00000  -0.01659  -0.01074 -15.27901
   Y14       10.65533  -0.00961   0.00000  -0.07721  -0.07118  10.58414
   Z14       18.07483   0.00118   0.00000  -0.03226  -0.02933  18.04550
   X15      -18.14809   0.00049   0.00000   0.04258   0.04735 -18.10074
   Y15        8.13152  -0.00191   0.00000  -0.12264  -0.11496   8.01656
   Z15       17.05031  -0.00051   0.00000  -0.03314  -0.03135  17.01895
   X16      -15.23243   0.00004   0.00000  -0.01210  -0.00557 -15.23800
   Y16       11.57232  -0.00034   0.00000  -0.09201  -0.08545  11.48687
   Z16       16.22978  -0.00038   0.00000  -0.04022  -0.03701  16.19278
   X17      -13.96009   0.00065   0.00000  -0.03077  -0.02474 -13.98482
   Y17       11.39574  -0.00021   0.00000  -0.04785  -0.04286  11.35288
   Z17       19.48615   0.00005   0.00000  -0.03072  -0.02738  19.45877
   X18       -1.92271  -0.00053   0.00000  -0.00585  -0.00607  -1.92877
   Y18       -3.33147   0.00000   0.00000   0.00016   0.00103  -3.33044
   Z18       14.10112   0.00029   0.00000   0.00477   0.00533  14.10645
   X19      -15.87859   0.00032   0.00000   0.00357   0.00375 -15.87484
   Y19       -2.50453  -0.00026   0.00000   0.01308   0.02057  -2.48396
   Z19       14.10868   0.00061   0.00000   0.00733   0.00628  14.11496
   X20      -13.33859   0.00055   0.00000   0.01337   0.01517 -13.32342
   Y20        2.52202  -0.00083   0.00000   0.01015   0.01472   2.53674
   Z20       19.82429  -0.00015   0.00000  -0.00760  -0.00681  19.81748
   X21       -4.42045  -0.00026   0.00000  -0.00740  -0.01071  -4.43116
   Y21       -8.20634   0.00028   0.00000   0.00359   0.00390  -8.20244
   Z21       19.95762  -0.00046   0.00000  -0.00615  -0.00737  19.95025
   X22       -6.48917   0.00186   0.00000   0.00548   0.00776  -6.48140
   Y22        1.41410   0.00656   0.00000   0.00874   0.01232   1.42642
   Z22       12.29388  -0.00662   0.00000  -0.01490  -0.01352  12.28036
   X23      -11.35619  -0.00234   0.00000  -0.00250  -0.00434 -11.36053
   Y23       -7.22735  -0.00706   0.00000   0.00123   0.00707  -7.22028
   Z23       12.45166  -0.00715   0.00000  -0.01138  -0.01324  12.43842
   X24       -6.87134   0.00484   0.00000   0.01540   0.01658  -6.85475
   Y24        1.73147   0.00683   0.00000   0.00551   0.00649   1.73796
   Z24       21.54375   0.00752   0.00000   0.01463   0.01605  21.55980
   X25      -10.91655  -0.00589   0.00000  -0.01432  -0.01743 -10.93398
   Y25       -7.30346  -0.00643   0.00000   0.00498   0.00786  -7.29560
   Z25       21.66999   0.00831   0.00000   0.01153   0.00970  21.67969
   X26       -4.66682   0.00510   0.00000  -0.00085  -0.00149  -4.66831
   Y26       -4.81353  -0.00404   0.00000  -0.00604  -0.00325  -4.81678
   Z26       12.05417  -0.00679   0.00000  -0.00662  -0.00686  12.04731
   X27      -13.13680  -0.00453   0.00000  -0.00205  -0.00087 -13.13766
   Y27       -0.99820   0.00406   0.00000   0.01858   0.02540  -0.97280
   Z27       11.99950  -0.00608   0.00000  -0.00491  -0.00514  11.99436
   X28      -12.91211  -0.00773   0.00000  -0.00603  -0.00593 -12.91804
   Y28       -0.48048   0.00276   0.00000   0.01020   0.01395  -0.46653
   Z28       21.91549   0.00740   0.00000   0.00504   0.00499  21.92047
   X29       -4.85704   0.00803   0.00000   0.00700   0.00490  -4.85214
   Y29       -5.08532  -0.00146   0.00000   0.00377   0.00367  -5.08165
   Z29       21.97380   0.00830   0.00000   0.00729   0.00694  21.98074
   X30       -6.06132  -0.00016   0.00000   0.02111   0.02476  -6.03656
   Y30        3.69421  -0.00299   0.00000  -0.00689  -0.00287   3.69134
   Z30       10.10473   0.00181   0.00000  -0.01892  -0.01681  10.08792
   X31      -11.59672   0.00006   0.00000  -0.01510  -0.01779 -11.61450
   Y31       -9.61760   0.00341   0.00000   0.01126   0.01786  -9.59974
   Z31       10.31930   0.00219   0.00000  -0.01066  -0.01326  10.30604
   X32       -5.10725  -0.00290   0.00000   0.00158   0.00325  -5.10400
   Y32        3.34406  -0.00229   0.00000   0.00477   0.00428   3.34834
   Z32       23.69191  -0.00249   0.00000   0.01458   0.01671  23.70862
   X33      -12.66646   0.00334   0.00000  -0.00088  -0.00502 -12.67148
   Y33       -8.84270   0.00237   0.00000   0.00523   0.00827  -8.83443
   Z33       23.88391  -0.00325   0.00000   0.00894   0.00643  23.89033
   X34       -5.09859  -0.00049   0.00000  -0.00340  -0.00234  -5.10093
   Y34       -1.63427  -0.00069   0.00000  -0.00458  -0.00115  -1.63542
   Z34       10.58547  -0.00005   0.00000  -0.00510  -0.00446  10.58102
   X35      -12.69255   0.00062   0.00000   0.00236   0.00216 -12.69039
   Y35       -4.28585  -0.00023   0.00000   0.01324   0.02024  -4.26561
   Z35       10.66196  -0.00002   0.00000  -0.00282  -0.00398  10.65798
   X36      -10.05941   0.00024   0.00000   0.00444   0.00507 -10.05434
   Y36        1.06750  -0.00070   0.00000   0.00116   0.00312   1.07062
   Z36       23.35299  -0.00020   0.00000   0.00367   0.00446  23.35745
   X37       -7.68867  -0.00007   0.00000  -0.00355  -0.00657  -7.69525
   Y37       -6.63150   0.00059   0.00000   0.00949   0.01031  -6.62120
   Z37       23.43746  -0.00029   0.00000   0.00260   0.00141  23.43888
   X38        0.56418  -0.00352   0.00000   0.00476   0.00565   0.56983
   Y38       -0.01357  -0.00091   0.00000   0.00257   0.00123  -0.01233
   Z38       17.54633  -0.00151   0.00000  -0.00585  -0.00396  17.54237
   X39      -18.37079   0.00337   0.00000  -0.00664  -0.00845 -18.37923
   Y39       -5.69136   0.00088   0.00000   0.01212   0.01973  -5.67162
   Z39       17.66133  -0.00168   0.00000  -0.00714  -0.00947  17.65186
   X40      -12.13297   0.00344   0.00000   0.04535   0.04949 -12.08348
   Y40        6.45637  -0.00576   0.00000   0.01456   0.01958   6.47595
   Z40       16.31866   0.00083   0.00000  -0.00268  -0.00055  16.31811
   X41       -5.59644  -0.00161   0.00000  -0.01219  -0.01693  -5.61337
   Y41      -12.18733   0.00463   0.00000  -0.00029   0.00161 -12.18572
   Z41       16.51067   0.00176   0.00000   0.00487   0.00230  16.51297
   X42       -3.43531  -0.00007   0.00000   0.00196   0.00401  -3.43130
   Y42        1.46712  -0.00020   0.00000   0.00171   0.00327   1.47040
   Z42       14.15636   0.00040   0.00000  -0.00073   0.00107  14.15743
   X43      -14.38106   0.00066   0.00000   0.00024  -0.00188 -14.38295
   Y43       -7.30804  -0.00006   0.00000   0.00962   0.01634  -7.29171
   Z43       14.29869   0.00015   0.00000  -0.00013  -0.00241  14.29628
   X44       -8.59471   0.00121   0.00000   0.02062   0.02322  -8.57149
   Y44        4.18403  -0.00094   0.00000   0.00106   0.00341   4.18744
   Z44       19.69283   0.00025   0.00000   0.00426   0.00618  19.69901
   X45       -9.18565  -0.00016   0.00000  -0.01331  -0.01738  -9.20303
   Y45       -9.83492   0.00023   0.00000   0.00718   0.00977  -9.82515
   Z45       19.87788  -0.00034   0.00000  -0.00059  -0.00294  19.87494
   X46       -3.11988  -0.00117   0.00000   0.00384   0.00266  -3.11722
   Y46       -6.57566   0.00238   0.00000   0.00525   0.00795  -6.56770
   Z46        9.85914   0.00268   0.00000  -0.00278  -0.00334   9.85580
   X47      -14.77347   0.00114   0.00000  -0.01496  -0.01276 -14.78623
   Y47        0.51401  -0.00167   0.00000   0.00871   0.01699   0.53100
   Z47        9.71832   0.00263   0.00000   0.00614   0.00613   9.72446
   X48      -15.18978   0.00347   0.00000  -0.00036  -0.00050 -15.19028
   Y48       -0.35293   0.00031   0.00000   0.02413   0.02828  -0.32464
   Z48       24.17206  -0.00385   0.00000  -0.00203  -0.00234  24.16972
   X49       -2.53271  -0.00378   0.00000  -0.00060  -0.00309  -2.53580
   Y49       -5.27273  -0.00039   0.00000  -0.01116  -0.01301  -5.28575
   Z49       24.18609  -0.00388   0.00000   0.00055   0.00045  24.18654
   X50       -2.38478   0.00884   0.00000   0.00726   0.00781  -2.37697
   Y50       -0.97751   0.00289   0.00000   0.00606   0.00636  -0.97114
   Z50       16.71609   0.00119   0.00000   0.00652   0.00773  16.72382
   X51      -15.42734  -0.00877   0.00000  -0.00824  -0.00948 -15.43681
   Y51       -4.74183  -0.00190   0.00000   0.00837   0.01485  -4.72699
   Z51       16.79454   0.00129   0.00000   0.00653   0.00487  16.79941
   X52      -11.23335  -0.00407   0.00000   0.01929   0.02193 -11.21142
   Y52        3.50762   0.01152   0.00000   0.01761   0.02199   3.52962
   Z52       17.09598  -0.00258   0.00000  -0.00818  -0.00680  17.08918
   X53       -6.55062   0.00373   0.00000  -0.00806  -0.01150  -6.56212
   Y53       -9.22511  -0.01048   0.00000  -0.00547  -0.00336  -9.22847
   Z53       17.31474  -0.00200   0.00000  -0.00726  -0.00908  17.30566
   X54       -8.01491  -0.00004   0.00000  -0.00053  -0.00158  -8.01649
   Y54       -5.83299   0.00067   0.00000  -0.00342   0.00113  -5.83186
   Z54       11.49178   0.00081   0.00000  -0.01152  -0.01252  11.47926
   X55       -9.77838   0.00004   0.00000  -0.00211  -0.00041  -9.77878
   Y55       -0.07269  -0.00050   0.00000   0.01818   0.02359  -0.04910
   Z55       11.39053   0.00048   0.00000  -0.01377  -0.01327  11.37726
   X56      -11.68015   0.00083   0.00000  -0.01169  -0.01324 -11.69340
   Y56       -3.77494  -0.00021   0.00000   0.00652   0.00951  -3.76543
   Z56       22.51377  -0.00080   0.00000   0.01112   0.01025  22.52402
   X57       -6.04394  -0.00039   0.00000   0.01258   0.01196  -6.03198
   Y57       -1.79746  -0.00058   0.00000   0.00429   0.00459  -1.79287
   Z57       22.52391  -0.00070   0.00000   0.01387   0.01434  22.53825
   X58       -8.31896   0.00101   0.00000   0.01661   0.01931  -8.29965
   Y58        3.01957  -0.00174   0.00000   0.01027   0.01394   3.03351
   Z58       14.84589   0.00000   0.00000  -0.01157  -0.00996  14.83593
   X59       -9.45508   0.00003   0.00000  -0.00643  -0.00936  -9.46444
   Y59       -8.80869   0.00069   0.00000  -0.00498  -0.00080  -8.80949
   Z59       15.00406   0.00039   0.00000  -0.01100  -0.01309  14.99098
   X60       -4.43993  -0.00068   0.00000   0.01401   0.01525  -4.42468
   Y60        1.11890  -0.00047   0.00000   0.00806   0.00864   1.12753
   Z60       19.03024  -0.00036   0.00000   0.01266   0.01422  19.04446
   X61      -13.34489   0.00096   0.00000  -0.01378  -0.01632 -13.36121
   Y61       -6.80148   0.00026   0.00000   0.00458   0.00937  -6.79211
   Z61       19.14327  -0.00026   0.00000   0.01092   0.00892  19.15219
   X62       -4.86781  -0.00116   0.00000  -0.00673  -0.00893  -4.87675
   Y62       -7.30284   0.00078   0.00000  -0.00683  -0.00478  -7.30763
   Z62       14.85674   0.00054   0.00000  -0.00718  -0.00820  14.84855
   X63      -12.95314   0.00119   0.00000   0.01292   0.01491 -12.93823
   Y63        1.48529  -0.00145   0.00000   0.01934   0.02524   1.51054
   Z63       14.74954   0.00013   0.00000  -0.00730  -0.00676  14.74278
   X64      -14.82646   0.00136   0.00000  -0.00706  -0.00742 -14.83388
   Y64       -2.20608  -0.00060   0.00000   0.00794   0.01341  -2.19266
   Z64       19.20060  -0.00069   0.00000   0.00586   0.00504  19.20564
   X65       -2.97637  -0.00144   0.00000   0.00615   0.00519  -2.97118
   Y65       -3.47753   0.00023   0.00000   0.00628   0.00612  -3.47140
   Z65       19.18193  -0.00041   0.00000   0.00748   0.00786  19.18979
   X66       -6.41650  -0.01830   0.00000  -0.03149  -0.03127  -6.44778
   Y66       -2.12168  -0.00500   0.00000  -0.00339  -0.00069  -2.12237
   Z66       15.14966   0.01310   0.00000   0.01916   0.01948  15.16914
   X67      -11.38479   0.01864   0.00000   0.02955   0.02902 -11.35576
   Y67       -3.69614   0.00556   0.00000   0.01779   0.02279  -3.67335
   Z67       15.20565   0.01282   0.00000   0.02014   0.01934  15.22499
   X68       -9.68948   0.00626   0.00000   0.01574   0.01629  -9.67319
   Y68       -0.38012  -0.01831   0.00000  -0.02221  -0.01907  -0.39919
   Z68       18.80623  -0.01286   0.00000  -0.01929  -0.01888  18.78735
   X69       -8.05340  -0.00639   0.00000  -0.01576  -0.01754  -8.07094
   Y69       -5.32252   0.01711   0.00000   0.03262   0.03498  -5.28754
   Z69       18.86087  -0.01280   0.00000  -0.01943  -0.02027  18.84060
   X70       -6.12131   0.00033   0.00000  -0.00538  -0.00903  -6.13034
   Y70      -11.52006  -0.00147   0.00000  -0.00719  -0.00332 -11.52338
   Z70       10.73870  -0.00106   0.00000  -0.01158  -0.01403  10.72467
   X71       -0.32535   0.00130   0.00000   0.01393   0.01408  -0.31126
   Y71        0.05434   0.00060   0.00000   0.00332   0.00067   0.05501
   Z71       23.30547   0.00106   0.00000   0.01252   0.01432  23.31978
   X72      -17.47060  -0.00143   0.00000  -0.01533  -0.01783 -17.48843
   Y72       -5.52916  -0.00028   0.00000   0.01095   0.01641  -5.51275
   Z72       23.41195   0.00123   0.00000   0.01033   0.00816  23.42012
   X73       -8.89080  -0.00042   0.00000  -0.00115  -0.00153  -8.89234
   Y73       -2.87288   0.00056   0.00000   0.00669   0.01000  -2.86288
   Z73       17.00013  -0.00060   0.00000  -0.00015  -0.00038  16.99976
         Item               Value     Threshold  Converged?
 Maximum Force            0.018638     0.000450     NO 
 RMS     Force            0.004385     0.000300     NO 
 Maximum Displacement     0.114965     0.001800     NO 
 RMS     Displacement     0.020018     0.001200     NO 
 Predicted change in Energy=-3.169090D-03
 GradGradGradGradGradGradGradGradGradGradGradGradGradGradGradGradGradGrad

 Unable to Open any file for archive entry.
 1\1\GINC-X11P1N2\Force\RwB97XD\def2SVP\C8H8Cl1K3O40V1W12(1-)\MAYUMIAO\
 01-Jun-2024\0\\# def2svp wb97xd scrf=(smd,solvent=acetonitrile) g09def
 ault scf=(xqc,maxcycle=64) force guess=read nosymm\\Title Card\\-1,1\C
 l,-9.93988124,7.74633591,10.42573807\C,-8.31261102,4.24731506,12.23847
 567\C,-9.06173062,3.92125614,11.09425243\C,-10.00674735,2.88725374,11.
 20004609\C,-10.18789667,2.19307073,12.39232679\C,-9.42860219,2.5206582
 1,13.51607827\C,-8.4906438,3.55155529,13.43087929\H,-7.57758292,5.0551
 7667,12.19932017\H,-10.59783164,2.62544514,10.31892872\H,-10.91448793,
 1.37942425,12.43629489\H,-9.55790562,1.9668892,14.4491059\H,-7.8851491
 ,3.81072735,14.30368438\C,-8.9127705,4.61413528,9.81268158\C,-8.079618
 29,5.6385554,9.56478735\H,-9.60355613,4.30301729,9.0226334\H,-8.060655
 62,6.12380783,8.58843187\H,-7.38735973,6.03036404,10.31162826\O,-1.017
 45227,-1.76293555,7.46198889\O,-8.40258806,-1.32534,7.46599245\O,-7.05
 847623,1.33459608,10.49056434\O,-2.33920268,-4.34260804,10.56111698\W,
 -3.43391976,0.74831105,6.50564286\W,-6.00943491,-3.82454941,6.58913551
 \W,-3.636155,0.91625388,11.40046175\W,-5.77678993,-3.8648259,11.467263
 71\W,-2.46957283,-2.54720932,6.37879441\W,-6.95169361,-0.52822266,6.34
 986261\W,-6.83279333,-0.25425642,11.59717631\W,-2.57023538,-2.69103779
 ,11.62803388\O,-3.20751321,1.95489112,5.3471932\O,-6.13671825,-5.08941
 306,5.46073729\O,-2.7026395,1.76960208,12.53721891\O,-6.70279962,-4.67
 935518,12.63881933\O,-2.69805595,-0.86481682,5.60159107\O,-6.71661054,
 -2.26797453,5.64206608\O,-5.32321311,0.56489686,12.35786862\O,-4.06867
 014,-3.50924129,12.40257192\O,0.29854972,-0.00717899,9.2851197\O,-9.72
 140205,-3.01173571,9.34597521\O,-6.42049103,3.41656129,8.63546112\O,-2
 .96150984,-6.44925715,8.73707103\O,-1.8178867,0.77636813,7.49122446\O,
 -7.61013114,-3.8672496,7.56654344\O,-4.54812355,2.21409257,10.4209958\
 O,-4.8608375,-5.20441431,10.51892096\O,-1.65096937,-3.47968701,5.21723
 194\O,-7.81778256,0.27200366,5.14271514\O,-8.0380856,-0.18675988,12.79
 130588\O,-1.34025234,-2.79021057,12.79872822\W,-1.26196898,-0.5172739,
 8.84577435\W,-8.16379591,-2.50926883,8.88728634\W,-5.94443185,1.856152
 86,9.04680337\W,-3.46643624,-4.88171798,9.16256686\O,-4.24130583,-3.08
 668276,6.08118752\O,-5.17449402,-0.03846551,6.02761123\O,-6.18087158,-
 1.99761261,11.91377494\O,-3.19831658,-0.95117397,11.91914088\O,-4.4022
 0613,1.5978868,7.85610479\O,-5.00341184,-4.66135827,7.93980716\O,-2.34
 951064,0.59209413,10.07036812\O,-7.06181049,-3.59918862,10.13018234\O,
 -2.57593646,-3.86449896,7.86184868\O,-6.85450716,0.78598234,7.80511841
 \O,-7.84582354,-1.16740469,10.16051916\O,-1.57502671,-1.84022823,10.15
 06393\O,-3.3954664,-1.12274526,8.01685298\O,-6.02456971,-1.95591556,8.
 0464818\O,-5.12744978,-0.20115252,9.95182908\O,-4.26167458,-2.81655714
 ,9.98074139\K,-3.23925581,-6.09615125,5.68267511\K,-0.17216634,0.02875
 397,12.33272167\K,-9.24504514,-2.92590593,12.3890727\V,-4.70480963,-1.
 5202622,8.99608366\\Version=ES64L-G16RevC.01\HF=-7327.6991786\RMSD=2.2
 85e-09\RMSF=4.385e-03\Dipole=10.4836328,-21.0630041,2.476694\Quadrupol
 e=-91.9411146,69.0051236,22.935991,324.6951714,343.5353345,-336.987031
 4\PG=C01 [X(C8H8Cl1K3O40V1W12)]\\@
 The archive entry for this job was punched.


 HAPPINESS IS NOT HAVING WHAT YOU WANT --
 HAPPINESS IS WANTING WHAT YOU HAVE!

              -- FROM MRS. SEVERN'S DESK
 Job cpu time:       0 days 10 hours 37 minutes 36.9 seconds.
 Elapsed time:       0 days  0 hours 12 minutes  6.1 seconds.
 File lengths (MBytes):  RWF=   1245 Int=      0 D2E=      0 Chk=    249 Scr=      1
 Normal termination of Gaussian 16 at Sat Jun  1 17:00:27 2024.
