 Entering Gaussian System, Link 0=g16
 Input=JOBS/11_A.gjf
 Output=JOBS/11_A.log
 Initial command:
 /data/app/gaussian/C01-avx2//g16/l1.exe "/tmp/Gau-596650.inp" -scrdir="/tmp/"
 Entering Link 1 = /data/app/gaussian/C01-avx2//g16/l1.exe PID=    596651.
  
 Copyright (c) 1988-2019, Gaussian, Inc.  All Rights Reserved.
  
 This is part of the Gaussian(R) 16 program.  It is based on
 the Gaussian(R) 09 system (copyright 2009, Gaussian, Inc.),
 the Gaussian(R) 03 system (copyright 2003, Gaussian, Inc.),
 the Gaussian(R) 98 system (copyright 1998, Gaussian, Inc.),
 the Gaussian(R) 94 system (copyright 1995, Gaussian, Inc.),
 the Gaussian 92(TM) system (copyright 1992, Gaussian, Inc.),
 the Gaussian 90(TM) system (copyright 1990, Gaussian, Inc.),
 the Gaussian 88(TM) system (copyright 1988, Gaussian, Inc.),
 the Gaussian 86(TM) system (copyright 1986, Carnegie Mellon
 University), and the Gaussian 82(TM) system (copyright 1983,
 Carnegie Mellon University). Gaussian is a federally registered
 trademark of Gaussian, Inc.
  
 This software contains proprietary and confidential information,
 including trade secrets, belonging to Gaussian, Inc.
  
 This software is provided under written license and may be
 used, copied, transmitted, or stored only in accord with that
 written license.
  
 The following legend is applicable only to US Government
 contracts under FAR:
  
                    RESTRICTED RIGHTS LEGEND
  
 Use, reproduction and disclosure by the US Government is
 subject to restrictions as set forth in subparagraphs (a)
 and (c) of the Commercial Computer Software - Restricted
 Rights clause in FAR 52.227-19.
  
 Gaussian, Inc.
 340 Quinnipiac St., Bldg. 40, Wallingford CT 06492
  
  
 ---------------------------------------------------------------
 Warning -- This program may not be used in any manner that
 competes with the business of Gaussian, Inc. or will provide
 assistance to any competitor of Gaussian, Inc.  The licensee
 of this program is prohibited from giving any competitor of
 Gaussian, Inc. access to this program.  By using this program,
 the user acknowledges that Gaussian, Inc. is engaged in the
 business of creating and licensing software in the field of
 computational chemistry and represents and warrants to the
 licensee that it is not a competitor of Gaussian, Inc. and that
 it will not use this program in any manner prohibited above.
 ---------------------------------------------------------------
  

 Cite this work as:
 Gaussian 16, Revision C.01,
 M. J. Frisch, G. W. Trucks, H. B. Schlegel, G. E. Scuseria, 
 M. A. Robb, J. R. Cheeseman, G. Scalmani, V. Barone, 
 G. A. Petersson, H. Nakatsuji, X. Li, M. Caricato, A. V. Marenich, 
 J. Bloino, B. G. Janesko, R. Gomperts, B. Mennucci, H. P. Hratchian, 
 J. V. Ortiz, A. F. Izmaylov, J. L. Sonnenberg, D. Williams-Young, 
 F. Ding, F. Lipparini, F. Egidi, J. Goings, B. Peng, A. Petrone, 
 T. Henderson, D. Ranasinghe, V. G. Zakrzewski, J. Gao, N. Rega, 
 G. Zheng, W. Liang, M. Hada, M. Ehara, K. Toyota, R. Fukuda, 
 J. Hasegawa, M. Ishida, T. Nakajima, Y. Honda, O. Kitao, H. Nakai, 
 T. Vreven, K. Throssell, J. A. Montgomery, Jr., J. E. Peralta, 
 F. Ogliaro, M. J. Bearpark, J. J. Heyd, E. N. Brothers, K. N. Kudin, 
 V. N. Staroverov, T. A. Keith, R. Kobayashi, J. Normand, 
 K. Raghavachari, A. P. Rendell, J. C. Burant, S. S. Iyengar, 
 J. Tomasi, M. Cossi, J. M. Millam, M. Klene, C. Adamo, R. Cammi, 
 J. W. Ochterski, R. L. Martin, K. Morokuma, O. Farkas, 
 J. B. Foresman, and D. J. Fox, Gaussian, Inc., Wallingford CT, 2019.
 
 ******************************************
 Gaussian 16:  ES64L-G16RevC.01  3-Jul-2019
                 1-Jun-2024 
 ******************************************
 %chk=a.chk
 %nprocshared=56
 Will use up to   56 processors via shared memory.
 %mem=96gb
 ----------------------------------------------------------------------
 # def2svp wb97xd scrf=(smd,solvent=acetonitrile) g09default scf=(xqc,m
 axcycle=64) force guess=read nosymm
 ----------------------------------------------------------------------
 1/10=7,30=1,38=1,158=3,167=1/1,3;
 2/12=2,15=1,17=6,18=5,40=1/2;
 3/5=43,7=101,11=2,25=1,27=10,30=1,70=32201,71=1,72=2,74=-58,75=-4,116=-2,158=3/1,2,3;
 4/5=1,60=-1/1;
 5/5=2,7=64,8=3,13=1,38=6,53=2,87=10/2,8;
 6/7=2,8=2,9=2,10=2,28=1,87=10/1;
 7/29=1,30=1,87=10/1,2,3,16;
 1/10=7,30=1,158=3,167=1/3;
 99//99;
 Using 2006 physical constants.
 ----------
 Title Card
 ----------
 Symbolic Z-matrix:
 Charge = -1 Multiplicity = 1
 17                   -9.95343   7.78427   10.43589 
 6                    -8.31027   4.24539   12.23768 
 6                    -9.06066   3.91764   11.09243 
 6                    -10.00564   2.88374   11.20062 
 6                    -10.18871   2.19263   12.39295 
 6                    -9.42948   2.52088   13.51688 
 6                    -8.49063   3.55142   13.43163 
 1                    -7.57783   5.05366   12.19934 
 1                    -10.59894   2.62287   10.31963 
 1                    -10.91668   1.37922   12.43822 
 1                    -9.55746   1.96695   14.44987 
 1                    -7.88626   3.81222   14.30399 
 6                    -8.91577   4.6148    9.81356 
 6                    -8.08347   5.64133   9.56344 
 1                    -9.59911   4.29519   9.01934 
 1                    -8.06151   6.12186   8.58521 
 1                    -7.38695   6.02584   10.31117 
 8                    -1.01641  -1.76454   7.46343 
 8                    -8.40376  -1.32385   7.46749 
 8                    -7.05977   1.33572   10.4883 
 8                    -2.33705  -4.34288   10.55963 
 74                   -3.43286   0.7457    6.5037 
 74                   -6.00927  -3.82304   6.58836 
 74                   -3.63638   0.91511   11.40239 
 74                   -5.77711  -3.86547   11.46888 
 74                   -2.47033  -2.54574   6.38124 
 74                   -6.9507   -0.52996   6.35149 
 74                   -6.83194  -0.25375   11.5956 
 74                   -2.56995  -2.69184   11.62792 
 8                    -3.20688   1.95329   5.34642 
 8                    -6.13731  -5.08732   5.46056 
 8                    -2.70467   1.76889   12.53703 
 8                    -6.70058  -4.67864   12.63785 
 8                    -2.69911  -0.86553   5.59694 
 8                    -6.71616  -2.26758   5.63698 
 8                    -5.3234    0.56341   12.3625 
 8                    -4.0686   -3.50806   12.40674 
 8                     0.29737  -0.00747   9.2834 
 8                    -9.72045  -3.01126   9.34366 
 8                    -6.4129    3.41456   8.63178 
 8                    -2.96199  -6.44704   8.73903 
 8                    -1.81703   0.78076   7.49047 
 8                    -7.61031  -3.87183   7.56611 
 8                    -4.54381   2.21576   10.4214 
 8                    -4.86399  -5.20814   10.51917 
 8                    -1.65021  -3.47798   5.21787 
 8                    -7.81839   0.27148   5.14371 
 8                    -8.03667  -0.18589   12.78937 
 8                    -1.34193  -2.79168   12.79706 
 74                   -1.26574  -0.51625   8.84514 
 74                   -8.15983  -2.50987   8.8861 
 74                   -5.93999   1.85494   9.04579 
 74                   -3.46843  -4.88168   9.16233 
 8                    -4.24004  -3.09041   6.0775 
 8                    -5.17646  -0.0341    6.02312 
 8                    -6.1848   -1.99911   11.91788 
 8                    -3.19353  -0.94993   11.92294 
 8                    -4.40119   1.60017   7.85232 
 8                    -5.00272  -4.66671   7.93613 
 8                    -2.34523   0.59492   10.07394 
 8                    -7.06573  -3.60194   10.13387 
 8                    -2.57686  -3.86697   7.85983 
 8                    -6.85294   0.78773   7.80369 
 8                    -7.84714  -1.16953   10.16233 
 8                    -1.57342  -1.83835   10.15251 
 8                    -3.39296  -1.12329   8.01583 
 8                    -6.02727  -1.9563    8.04592 
 8                    -5.12911  -0.19966   9.95378 
 8                    -4.25981  -2.81909   9.98205 
 19                   -3.23781  -6.10198   5.67842 
 19                   -0.16678   0.03125   12.33691 
 19                   -9.25103  -2.92724   12.39407 
 23                   -4.70461  -1.52013   8.99512 
 

 GradGradGradGradGradGradGradGradGradGradGradGradGradGradGradGradGradGrad
 Berny optimization.
 Initialization pass.
 Trust Radius=3.00D-01 FncErr=1.00D-07 GrdErr=1.00D-07 EigMax=2.50D+02 EigMin=1.00D-04
 Number of steps in this run=      2 maximum allowed number of steps=      2.
 GradGradGradGradGradGradGradGradGradGradGradGradGradGradGradGradGradGrad

 Symmetry turned off by external request.
 Stoichiometry    C8H8ClK3O40VW12(1-)
 Framework group  C1[X(C8H8ClK3O40VW12)]
 Deg. of freedom   213
 Full point group                 C1      NOp   1
                          Input orientation:                          
 ---------------------------------------------------------------------
 Center     Atomic      Atomic             Coordinates (Angstroms)
 Number     Number       Type             X           Y           Z
 ---------------------------------------------------------------------
      1         17           0       -9.953435    7.784271   10.435895
      2          6           0       -8.310273    4.245389   12.237680
      3          6           0       -9.060661    3.917635   11.092435
      4          6           0      -10.005637    2.883738   11.200617
      5          6           0      -10.188712    2.192626   12.392951
      6          6           0       -9.429478    2.520880   13.516882
      7          6           0       -8.490630    3.551421   13.431629
      8          1           0       -7.577826    5.053660   12.199337
      9          1           0      -10.598939    2.622872   10.319633
     10          1           0      -10.916682    1.379222   12.438217
     11          1           0       -9.557461    1.966946   14.449874
     12          1           0       -7.886262    3.812220   14.303986
     13          6           0       -8.915766    4.614802    9.813562
     14          6           0       -8.083469    5.641334    9.563435
     15          1           0       -9.599113    4.295194    9.019336
     16          1           0       -8.061512    6.121864    8.585211
     17          1           0       -7.386951    6.025845   10.311173
     18          8           0       -1.016413   -1.764539    7.463433
     19          8           0       -8.403761   -1.323852    7.467493
     20          8           0       -7.059765    1.335722   10.488302
     21          8           0       -2.337050   -4.342879   10.559628
     22         74           0       -3.432861    0.745705    6.503702
     23         74           0       -6.009266   -3.823036    6.588361
     24         74           0       -3.636381    0.915111   11.402395
     25         74           0       -5.777113   -3.865471   11.468883
     26         74           0       -2.470326   -2.545738    6.381238
     27         74           0       -6.950704   -0.529963    6.351492
     28         74           0       -6.831938   -0.253751   11.595596
     29         74           0       -2.569950   -2.691837   11.627919
     30          8           0       -3.206878    1.953285    5.346425
     31          8           0       -6.137305   -5.087319    5.460557
     32          8           0       -2.704666    1.768894   12.537029
     33          8           0       -6.700576   -4.678641   12.637847
     34          8           0       -2.699109   -0.865527    5.596943
     35          8           0       -6.716163   -2.267581    5.636982
     36          8           0       -5.323402    0.563407   12.362495
     37          8           0       -4.068604   -3.508057   12.406738
     38          8           0        0.297366   -0.007467    9.283405
     39          8           0       -9.720451   -3.011262    9.343662
     40          8           0       -6.412898    3.414565    8.631782
     41          8           0       -2.961989   -6.447036    8.739027
     42          8           0       -1.817033    0.780762    7.490474
     43          8           0       -7.610314   -3.871828    7.566111
     44          8           0       -4.543808    2.215756   10.421399
     45          8           0       -4.863987   -5.208145   10.519170
     46          8           0       -1.650211   -3.477980    5.217870
     47          8           0       -7.818389    0.271476    5.143712
     48          8           0       -8.036670   -0.185894   12.789368
     49          8           0       -1.341928   -2.791681   12.797059
     50         74           0       -1.265740   -0.516247    8.845137
     51         74           0       -8.159825   -2.509873    8.886098
     52         74           0       -5.939992    1.854936    9.045793
     53         74           0       -3.468435   -4.881683    9.162334
     54          8           0       -4.240039   -3.090410    6.077499
     55          8           0       -5.176460   -0.034100    6.023118
     56          8           0       -6.184803   -1.999106   11.917882
     57          8           0       -3.193528   -0.949933   11.922941
     58          8           0       -4.401192    1.600171    7.852321
     59          8           0       -5.002718   -4.666707    7.936135
     60          8           0       -2.345228    0.594922   10.073938
     61          8           0       -7.065726   -3.601942   10.133872
     62          8           0       -2.576863   -3.866974    7.859831
     63          8           0       -6.852937    0.787731    7.803688
     64          8           0       -7.847142   -1.169535   10.162333
     65          8           0       -1.573425   -1.838348   10.152514
     66          8           0       -3.392958   -1.123289    8.015830
     67          8           0       -6.027271   -1.956299    8.045923
     68          8           0       -5.129109   -0.199655    9.953777
     69          8           0       -4.259806   -2.819088    9.982052
     70         19           0       -3.237813   -6.101978    5.678415
     71         19           0       -0.166778    0.031250   12.336909
     72         19           0       -9.251026   -2.927243   12.394066
     73         23           0       -4.704613   -1.520132    8.995124
 ---------------------------------------------------------------------
 Rotational constants (GHZ):           0.0172339           0.0133588           0.0131516
 Standard basis: def2SVP (5D, 7F)
  1217 basis functions,  2313 primitive gaussians,  1337 cartesian basis functions
   321 alpha electrons      321 beta electrons
       nuclear repulsion energy     21041.0409115373 Hartrees.
 NAtoms=   73 NActive=   73 NUniq=   73 SFac= 1.00D+00 NAtFMM=   60 NAOKFM=T Big=T
 Integral buffers will be    131072 words long.
 Raffenetti 2 integral format.
 Two-electron integral symmetry is turned off.
 Nuclear repulsion after empirical dispersion term =    21040.7626459380 Hartrees.
 Force PCM accuracy= 1.00D-10.
 ------------------------------------------------------------------------------
 Polarizable Continuum Model (PCM)
 =================================
 Model                : PCM (using non-symmetric T matrix).
 Atomic radii         : SMD-Coulomb.
 Polarization charges : Total charges.
 Charge compensation  : None.
 Solution method      : On-the-fly selection.
 Cavity type          : VdW (van der Waals Surface) (Alpha=1.000).
 Cavity algorithm     : GePol (No added spheres)
                        Default sphere list used, NSphG=   73.
                        Lebedev-Laikov grids with approx.  5.0 points / Ang**2.
                        Smoothing algorithm: York/Karplus (Gamma=1.0000).
                        Polarization charges: spherical gaussians, with
                                              point-specific exponents (IZeta= 3).
                        Self-potential: point-specific (ISelfS= 7).
                        Self-field    : sphere-specific E.n sum rule (ISelfD= 2).
 1st derivatives      : Analytical E(r).r(x)/FMM algorithm (CHGder, D1EAlg=3).
                        Cavity 1st derivative terms included.
 Solvent              : Acetonitrile, Eps=  35.688000 Eps(inf)=   1.806874
 ------------------------------------------------------------------------------
 ------------------------------------------------------------------------------
 Atomic radii for non-electrostatic terms: SMD-CDS.
 ------------------------------------------------------------------------------
 Nuclear repulsion after PCM non-electrostatic terms =    21040.7568465129 Hartrees.
 One-electron integrals computed using PRISM.
   1 Symmetry operations used in ECPInt.
 ECPInt:  NShTT=  127765 NPrTT=  468030 LenC2=   96887 LenP2D=  221874.
 LDataN:  DoStor=T MaxTD1= 8 Len=  415
 NBasis=  1217 RedAO= T EigKep=  1.35D-04  NBF=  1217
 NBsUse=  1217 1.00D-06 EigRej= -1.00D+00 NBFU=  1217
 Defaulting to unpruned grid for atomic number  74.
 Defaulting to unpruned grid for atomic number  74.
 Defaulting to unpruned grid for atomic number  74.
 Defaulting to unpruned grid for atomic number  74.
 Defaulting to unpruned grid for atomic number  74.
 Defaulting to unpruned grid for atomic number  74.
 Defaulting to unpruned grid for atomic number  74.
 Defaulting to unpruned grid for atomic number  74.
 Initial guess from the checkpoint file:  "a.chk"
 B after Tr=     0.000989   -0.000640    0.000489
         Rot=    1.000000   -0.000009    0.000012    0.000062 Ang=  -0.01 deg.
 Requested convergence on RMS density matrix=1.00D-08 within  64 cycles.
 Requested convergence on MAX density matrix=1.00D-06.
 Requested convergence on             energy=1.00D-06.
 No special actions if energy rises.
 Defaulting to unpruned grid for atomic number  74.
 Defaulting to unpruned grid for atomic number  74.
 Defaulting to unpruned grid for atomic number  74.
 Defaulting to unpruned grid for atomic number  74.
 Defaulting to unpruned grid for atomic number  74.
 Defaulting to unpruned grid for atomic number  74.
 Defaulting to unpruned grid for atomic number  74.
 Defaulting to unpruned grid for atomic number  74.
 Defaulting to unpruned grid for atomic number  74.
 Defaulting to unpruned grid for atomic number  74.
 Defaulting to unpruned grid for atomic number  74.
 Defaulting to unpruned grid for atomic number  74.
 Defaulting to unpruned grid for atomic number  74.
 Defaulting to unpruned grid for atomic number  74.
 Defaulting to unpruned grid for atomic number  74.
 Defaulting to unpruned grid for atomic number  74.
 Defaulting to unpruned grid for atomic number  74.
 Defaulting to unpruned grid for atomic number  74.
 Defaulting to unpruned grid for atomic number  74.
 Defaulting to unpruned grid for atomic number  74.
 Defaulting to unpruned grid for atomic number  74.
 Defaulting to unpruned grid for atomic number  74.
 Defaulting to unpruned grid for atomic number  74.
 Defaulting to unpruned grid for atomic number  74.
 Defaulting to unpruned grid for atomic number  74.
 Defaulting to unpruned grid for atomic number  74.
 Defaulting to unpruned grid for atomic number  74.
 Defaulting to unpruned grid for atomic number  74.
 Defaulting to unpruned grid for atomic number  74.
 Defaulting to unpruned grid for atomic number  74.
 Defaulting to unpruned grid for atomic number  74.
 Defaulting to unpruned grid for atomic number  74.
 Defaulting to unpruned grid for atomic number  74.
 Defaulting to unpruned grid for atomic number  74.
 Defaulting to unpruned grid for atomic number  74.
 Defaulting to unpruned grid for atomic number  74.
 Defaulting to unpruned grid for atomic number  74.
 Defaulting to unpruned grid for atomic number  74.
 Defaulting to unpruned grid for atomic number  74.
 Defaulting to unpruned grid for atomic number  74.
 Defaulting to unpruned grid for atomic number  74.
 Defaulting to unpruned grid for atomic number  74.
 Defaulting to unpruned grid for atomic number  74.
 Defaulting to unpruned grid for atomic number  74.
 Defaulting to unpruned grid for atomic number  74.
 Defaulting to unpruned grid for atomic number  74.
 Defaulting to unpruned grid for atomic number  74.
 Defaulting to unpruned grid for atomic number  74.
 Defaulting to unpruned grid for atomic number  74.
 Defaulting to unpruned grid for atomic number  74.
 Defaulting to unpruned grid for atomic number  74.
 Defaulting to unpruned grid for atomic number  74.
 Defaulting to unpruned grid for atomic number  74.
 Defaulting to unpruned grid for atomic number  74.
 Defaulting to unpruned grid for atomic number  74.
 Defaulting to unpruned grid for atomic number  74.
 Inv3:  Mode=1 IEnd=    85450707.
 Iteration    1 A*A^-1 deviation from unit magnitude is 3.33D-15 for   2371.
 Iteration    1 A*A^-1 deviation from orthogonality  is 4.22D-15 for   3178   2137.
 Iteration    1 A^-1*A deviation from unit magnitude is 3.77D-15 for   5180.
 Iteration    1 A^-1*A deviation from orthogonality  is 4.15D-12 for    937    914.
 Error on total polarization charges =  0.01609
 SCF Done:  E(RwB97XD) =  -7327.69925309     A.U. after   17 cycles
            NFock= 17  Conv=0.89D-09     -V/T= 2.0831
 SMD-CDS (non-electrostatic) energy       (kcal/mol) =      -3.64
 (included in total energy above)
 QCSCF skips out because SCF is already converged.

 **********************************************************************

            Population analysis using the SCF Density.

 **********************************************************************

 Alpha  occ. eigenvalues -- -197.28629-130.00003-129.99971-129.99876-101.47651
 Alpha  occ. eigenvalues --  -22.61823 -19.33260 -19.33248 -19.33219 -19.33203
 Alpha  occ. eigenvalues --  -19.30668 -19.30664 -19.30661 -19.30646 -19.30605
 Alpha  occ. eigenvalues --  -19.30589 -19.30585 -19.30542 -19.30459 -19.30288
 Alpha  occ. eigenvalues --  -19.30275 -19.30038 -19.29322 -19.29295 -19.29283
 Alpha  occ. eigenvalues --  -19.29281 -19.29269 -19.29267 -19.29256 -19.29210
 Alpha  occ. eigenvalues --  -19.29162 -19.29161 -19.29131 -19.29099 -19.29091
 Alpha  occ. eigenvalues --  -19.29082 -19.29075 -19.29068 -19.29067 -19.29061
 Alpha  occ. eigenvalues --  -19.29022 -19.29018 -19.28974 -19.28932 -19.28917
 Alpha  occ. eigenvalues --  -19.28701 -19.10770 -19.10760 -19.10758 -13.37402
 Alpha  occ. eigenvalues --  -13.37369 -13.37262 -10.70333 -10.70325 -10.70325
 Alpha  occ. eigenvalues --  -10.70300 -10.70292 -10.70291 -10.70194 -10.70186
 Alpha  occ. eigenvalues --  -10.70184 -10.29680 -10.29286 -10.29199 -10.29000
 Alpha  occ. eigenvalues --  -10.28875 -10.28807 -10.27893 -10.27158  -9.38116
 Alpha  occ. eigenvalues --   -7.12940  -7.12897  -7.12892  -3.23265  -3.23253
 Alpha  occ. eigenvalues --   -3.23248  -3.23246  -3.23230  -3.23225  -3.23183
 Alpha  occ. eigenvalues --   -3.23172  -3.23105  -3.22902  -3.22894  -3.22593
 Alpha  occ. eigenvalues --   -2.91255  -1.93693  -1.93664  -1.93640  -1.87685
 Alpha  occ. eigenvalues --   -1.87595  -1.87582  -1.87529  -1.87449  -1.87440
 Alpha  occ. eigenvalues --   -1.87388  -1.87373  -1.87325  -1.87201  -1.87167
 Alpha  occ. eigenvalues --   -1.86965  -1.86591  -1.86472  -1.86464  -1.86443
 Alpha  occ. eigenvalues --   -1.86418  -1.86369  -1.86304  -1.86283  -1.86270
 Alpha  occ. eigenvalues --   -1.86254  -1.86218  -1.86184  -1.86112  -1.86087
 Alpha  occ. eigenvalues --   -1.86078  -1.86056  -1.86006  -1.85953  -1.85941
 Alpha  occ. eigenvalues --   -1.85880  -1.85848  -1.85757  -1.85589  -1.85513
 Alpha  occ. eigenvalues --   -1.51100  -1.51068  -1.50962  -1.12833  -1.11039
 Alpha  occ. eigenvalues --   -1.10956  -1.10937  -1.08864  -1.08518  -1.08481
 Alpha  occ. eigenvalues --   -1.08309  -1.07460  -1.07414  -1.07379  -1.06897
 Alpha  occ. eigenvalues --   -1.06879  -1.06838  -1.06294  -1.06260  -1.05338
 Alpha  occ. eigenvalues --   -1.05320  -1.04952  -1.04948  -1.04908  -1.04206
 Alpha  occ. eigenvalues --   -1.04197  -1.04156  -1.04006  -1.04005  -1.03977
 Alpha  occ. eigenvalues --   -1.03895  -1.03855  -1.03850  -1.03703  -1.03658
 Alpha  occ. eigenvalues --   -1.03597  -1.03526  -1.03237  -1.03202  -1.03126
 Alpha  occ. eigenvalues --   -1.03104  -1.03050  -1.02896  -0.94283  -0.86580
 Alpha  occ. eigenvalues --   -0.86551  -0.86454  -0.86380  -0.86376  -0.86361
 Alpha  occ. eigenvalues --   -0.86348  -0.86342  -0.86247  -0.86232  -0.82709
 Alpha  occ. eigenvalues --   -0.79635  -0.70850  -0.69644  -0.67897  -0.64615
 Alpha  occ. eigenvalues --   -0.63972  -0.63912  -0.63885  -0.63093  -0.63074
 Alpha  occ. eigenvalues --   -0.63012  -0.62903  -0.62530  -0.62498  -0.61774
 Alpha  occ. eigenvalues --   -0.61557  -0.61538  -0.61438  -0.61257  -0.61253
 Alpha  occ. eigenvalues --   -0.61196  -0.60423  -0.59431  -0.59380  -0.59369
 Alpha  occ. eigenvalues --   -0.59307  -0.59291  -0.58581  -0.58003  -0.57969
 Alpha  occ. eigenvalues --   -0.57902  -0.56931  -0.56916  -0.56857  -0.56223
 Alpha  occ. eigenvalues --   -0.56207  -0.56054  -0.55683  -0.54850  -0.54794
 Alpha  occ. eigenvalues --   -0.54759  -0.54471  -0.54221  -0.54100  -0.54045
 Alpha  occ. eigenvalues --   -0.53934  -0.53918  -0.53301  -0.53271  -0.53069
 Alpha  occ. eigenvalues --   -0.53022  -0.52904  -0.52715  -0.52687  -0.52656
 Alpha  occ. eigenvalues --   -0.52643  -0.52501  -0.52460  -0.52344  -0.51509
 Alpha  occ. eigenvalues --   -0.51472  -0.51287  -0.51277  -0.51220  -0.51165
 Alpha  occ. eigenvalues --   -0.51127  -0.51068  -0.50937  -0.50800  -0.50628
 Alpha  occ. eigenvalues --   -0.50603  -0.50589  -0.49927  -0.49896  -0.49247
 Alpha  occ. eigenvalues --   -0.49214  -0.49157  -0.49144  -0.49130  -0.49066
 Alpha  occ. eigenvalues --   -0.48835  -0.47973  -0.47962  -0.47832  -0.47501
 Alpha  occ. eigenvalues --   -0.47330  -0.47243  -0.47187  -0.46966  -0.46898
 Alpha  occ. eigenvalues --   -0.46812  -0.46566  -0.46547  -0.46432  -0.46076
 Alpha  occ. eigenvalues --   -0.46029  -0.45978  -0.45526  -0.45059  -0.44893
 Alpha  occ. eigenvalues --   -0.44845  -0.44134  -0.44082  -0.43956  -0.43433
 Alpha  occ. eigenvalues --   -0.43279  -0.43218  -0.43089  -0.43072  -0.43031
 Alpha  occ. eigenvalues --   -0.42700  -0.42683  -0.42650  -0.42537  -0.42529
 Alpha  occ. eigenvalues --   -0.42464  -0.42440  -0.42407  -0.42276  -0.42266
 Alpha  occ. eigenvalues --   -0.42228  -0.41996  -0.41875  -0.41824  -0.41812
 Alpha  occ. eigenvalues --   -0.41197  -0.41172  -0.41083  -0.41029  -0.40566
 Alpha  occ. eigenvalues --   -0.40531  -0.40519  -0.40263  -0.39402  -0.39389
 Alpha  occ. eigenvalues --   -0.36685  -0.32462  -0.28803  -0.24588  -0.24540
 Alpha  occ. eigenvalues --   -0.22815
 Alpha virt. eigenvalues --   -0.08769  -0.08669  -0.08331  -0.08312  -0.06886
 Alpha virt. eigenvalues --   -0.06855  -0.06769  -0.03882  -0.03784  -0.03730
 Alpha virt. eigenvalues --   -0.03548  -0.03297  -0.03254  -0.03083  -0.02960
 Alpha virt. eigenvalues --   -0.02896  -0.02836  -0.02131  -0.02095  -0.02042
 Alpha virt. eigenvalues --   -0.01384  -0.01353  -0.01285  -0.01185  -0.01114
 Alpha virt. eigenvalues --    0.00029   0.00064   0.00135   0.01484   0.01573
 Alpha virt. eigenvalues --    0.02011   0.02041   0.02129   0.02247   0.02281
 Alpha virt. eigenvalues --    0.02301   0.02310   0.02425   0.02826   0.02919
 Alpha virt. eigenvalues --    0.02995   0.03079   0.03135   0.04453   0.04629
 Alpha virt. eigenvalues --    0.06871   0.07355   0.07506   0.07588   0.07825
 Alpha virt. eigenvalues --    0.08048   0.08556   0.08610   0.08864   0.09161
 Alpha virt. eigenvalues --    0.09340   0.09400   0.09653   0.09902   0.10276
 Alpha virt. eigenvalues --    0.10323   0.10365   0.10420   0.10464   0.10675
 Alpha virt. eigenvalues --    0.10937   0.11086   0.11130   0.11713   0.11718
 Alpha virt. eigenvalues --    0.12397   0.13177   0.13287   0.13410   0.13603
 Alpha virt. eigenvalues --    0.13763   0.14518   0.14600   0.14714   0.15085
 Alpha virt. eigenvalues --    0.15563   0.16242   0.16410   0.16683   0.16751
 Alpha virt. eigenvalues --    0.16787   0.17001   0.17113   0.17288   0.17739
 Alpha virt. eigenvalues --    0.17972   0.18167   0.18216   0.18411   0.18596
 Alpha virt. eigenvalues --    0.18839   0.19045   0.19277   0.19366   0.19526
 Alpha virt. eigenvalues --    0.19599   0.20185   0.20327   0.20431   0.20671
 Alpha virt. eigenvalues --    0.20743   0.20920   0.20974   0.21358   0.21432
 Alpha virt. eigenvalues --    0.21520   0.21650   0.21745   0.21919   0.22275
 Alpha virt. eigenvalues --    0.22592   0.22821   0.23020   0.23299   0.23402
 Alpha virt. eigenvalues --    0.23601   0.23941   0.24107   0.24291   0.24654
 Alpha virt. eigenvalues --    0.24823   0.25236   0.25621   0.25711   0.25958
 Alpha virt. eigenvalues --    0.26158   0.26326   0.26467   0.26571   0.26776
 Alpha virt. eigenvalues --    0.27143   0.27300   0.27487   0.27601   0.27822
 Alpha virt. eigenvalues --    0.28132   0.28356   0.28393   0.28697   0.28760
 Alpha virt. eigenvalues --    0.29395   0.29772   0.30030   0.30294   0.30634
 Alpha virt. eigenvalues --    0.30793   0.31153   0.31296   0.31809   0.31894
 Alpha virt. eigenvalues --    0.32344   0.34965   0.35305   0.35890   0.36433
 Alpha virt. eigenvalues --    0.36698   0.37023   0.37287   0.38163   0.38576
 Alpha virt. eigenvalues --    0.38774   0.39266   0.39561   0.39822   0.40279
 Alpha virt. eigenvalues --    0.40807   0.40995   0.41088   0.41245   0.41826
 Alpha virt. eigenvalues --    0.42181   0.42468   0.42735   0.43333   0.43558
 Alpha virt. eigenvalues --    0.43772   0.44522   0.44729   0.44896   0.45263
 Alpha virt. eigenvalues --    0.45788   0.46311   0.46603   0.46816   0.47216
 Alpha virt. eigenvalues --    0.47392   0.47691   0.47917   0.48054   0.48146
 Alpha virt. eigenvalues --    0.48364   0.48434   0.48637   0.48907   0.48964
 Alpha virt. eigenvalues --    0.49107   0.49282   0.49464   0.49735   0.49954
 Alpha virt. eigenvalues --    0.50147   0.50385   0.50628   0.50862   0.51255
 Alpha virt. eigenvalues --    0.51756   0.51825   0.51955   0.52320   0.52597
 Alpha virt. eigenvalues --    0.52670   0.52983   0.53144   0.53249   0.53356
 Alpha virt. eigenvalues --    0.53727   0.54175   0.54393   0.54441   0.54791
 Alpha virt. eigenvalues --    0.54973   0.55437   0.55761   0.56535   0.56547
 Alpha virt. eigenvalues --    0.56871   0.57415   0.57866   0.58279   0.58487
 Alpha virt. eigenvalues --    0.58751   0.59311   0.59609   0.60489   0.61019
 Alpha virt. eigenvalues --    0.61600   0.62801   0.62854   0.62921   0.63708
 Alpha virt. eigenvalues --    0.64366   0.65615   0.65790   0.65895   0.66025
 Alpha virt. eigenvalues --    0.66441   0.67038   0.67479   0.67502   0.67791
 Alpha virt. eigenvalues --    0.68143   0.68629   0.70306   0.70722   0.71401
 Alpha virt. eigenvalues --    0.71643   0.72176   0.72319   0.72404   0.72493
 Alpha virt. eigenvalues --    0.72666   0.72890   0.73280   0.73636   0.74040
 Alpha virt. eigenvalues --    0.74674   0.74959   0.75828   0.75980   0.76091
 Alpha virt. eigenvalues --    0.76318   0.76823   0.77125   0.77461   0.77544
 Alpha virt. eigenvalues --    0.77801   0.78545   0.79311   0.79598   0.79687
 Alpha virt. eigenvalues --    0.79833   0.80399   0.80757   0.81186   0.81577
 Alpha virt. eigenvalues --    0.81656   0.81800   0.82176   0.82850   0.83241
 Alpha virt. eigenvalues --    0.84308   0.84412   0.85023   0.85477   0.86191
 Alpha virt. eigenvalues --    0.87374   0.87577   0.88149   0.88266   0.88975
 Alpha virt. eigenvalues --    0.89196   0.89273   0.89645   0.89699   0.90592
 Alpha virt. eigenvalues --    0.90878   0.91016   0.91427   0.91696   0.91922
 Alpha virt. eigenvalues --    0.92814   0.93139   0.93926   0.94028   0.94180
 Alpha virt. eigenvalues --    0.94553   0.94974   0.96018   0.96147   0.97045
 Alpha virt. eigenvalues --    0.97136   0.97283   0.97509   0.97939   0.98023
 Alpha virt. eigenvalues --    0.98327   0.98477   0.98666   0.98775   0.98963
 Alpha virt. eigenvalues --    0.99326   0.99921   1.00427   1.00466   1.00645
 Alpha virt. eigenvalues --    1.00871   1.01441   1.01549   1.01759   1.02236
 Alpha virt. eigenvalues --    1.02263   1.02457   1.02663   1.02731   1.02846
 Alpha virt. eigenvalues --    1.02961   1.03769   1.03989   1.04077   1.04112
 Alpha virt. eigenvalues --    1.04373   1.04523   1.04612   1.04674   1.04921
 Alpha virt. eigenvalues --    1.05109   1.05243   1.05344   1.05663   1.05851
 Alpha virt. eigenvalues --    1.06107   1.06441   1.06991   1.07156   1.07438
 Alpha virt. eigenvalues --    1.07587   1.08065   1.08868   1.09356   1.09401
 Alpha virt. eigenvalues --    1.09661   1.09811   1.10059   1.10210   1.10267
 Alpha virt. eigenvalues --    1.10836   1.10865   1.11106   1.11348   1.11524
 Alpha virt. eigenvalues --    1.11663   1.11926   1.11970   1.12736   1.12953
 Alpha virt. eigenvalues --    1.13214   1.13664   1.13851   1.14583   1.15250
 Alpha virt. eigenvalues --    1.15394   1.16038   1.16420   1.16741   1.17154
 Alpha virt. eigenvalues --    1.17661   1.17851   1.18063   1.18771   1.19158
 Alpha virt. eigenvalues --    1.20557   1.20814   1.21137   1.21312   1.21352
 Alpha virt. eigenvalues --    1.21497   1.22039   1.22123   1.22957   1.23904
 Alpha virt. eigenvalues --    1.25069   1.25977   1.26149   1.26745   1.26883
 Alpha virt. eigenvalues --    1.27116   1.28079   1.28446   1.28727   1.28808
 Alpha virt. eigenvalues --    1.28899   1.29072   1.29273   1.29687   1.30120
 Alpha virt. eigenvalues --    1.30237   1.30378   1.30494   1.30850   1.31098
 Alpha virt. eigenvalues --    1.31302   1.32127   1.32395   1.32874   1.33110
 Alpha virt. eigenvalues --    1.33348   1.33633   1.33819   1.33962   1.34156
 Alpha virt. eigenvalues --    1.34382   1.34440   1.34657   1.34912   1.35035
 Alpha virt. eigenvalues --    1.35183   1.35230   1.35429   1.35921   1.36115
 Alpha virt. eigenvalues --    1.36276   1.36431   1.36740   1.36916   1.37133
 Alpha virt. eigenvalues --    1.37380   1.37531   1.37842   1.38097   1.38229
 Alpha virt. eigenvalues --    1.38311   1.38696   1.38968   1.39029   1.39163
 Alpha virt. eigenvalues --    1.39447   1.39701   1.39744   1.40072   1.40385
 Alpha virt. eigenvalues --    1.40577   1.40649   1.40750   1.40923   1.41242
 Alpha virt. eigenvalues --    1.41326   1.41657   1.41796   1.41943   1.42440
 Alpha virt. eigenvalues --    1.42702   1.43272   1.43363   1.43495   1.43589
 Alpha virt. eigenvalues --    1.44128   1.44489   1.44797   1.45712   1.46251
 Alpha virt. eigenvalues --    1.46599   1.46958   1.47576   1.47913   1.48011
 Alpha virt. eigenvalues --    1.48417   1.48912   1.49358   1.49883   1.50430
 Alpha virt. eigenvalues --    1.50691   1.51103   1.51619   1.51951   1.53386
 Alpha virt. eigenvalues --    1.53558   1.55502   1.55802   1.55935   1.56062
 Alpha virt. eigenvalues --    1.56355   1.56578   1.56869   1.56953   1.57271
 Alpha virt. eigenvalues --    1.57485   1.58183   1.58617   1.59349   1.59532
 Alpha virt. eigenvalues --    1.59947   1.60334   1.60651   1.60781   1.60956
 Alpha virt. eigenvalues --    1.61060   1.61449   1.62466   1.62498   1.62742
 Alpha virt. eigenvalues --    1.64356   1.64587   1.65219   1.66014   1.67266
 Alpha virt. eigenvalues --    1.67907   1.68221   1.69740   1.70611   1.70987
 Alpha virt. eigenvalues --    1.71486   1.71801   1.72672   1.73527   1.74537
 Alpha virt. eigenvalues --    1.75353   1.75444   1.75582   1.76130   1.76878
 Alpha virt. eigenvalues --    1.76984   1.77197   1.77634   1.77922   1.78769
 Alpha virt. eigenvalues --    1.78875   1.79444   1.79614   1.80629   1.80649
 Alpha virt. eigenvalues --    1.81554   1.81732   1.81972   1.82507   1.82971
 Alpha virt. eigenvalues --    1.83362   1.83512   1.84193   1.84454   1.84660
 Alpha virt. eigenvalues --    1.85408   1.85476   1.85995   1.86290   1.86622
 Alpha virt. eigenvalues --    1.86864   1.87476   1.87869   1.88450   1.88735
 Alpha virt. eigenvalues --    1.89353   1.90118   1.90372   1.90562   1.90704
 Alpha virt. eigenvalues --    1.91007   1.91131   1.91541   1.92383   1.93924
 Alpha virt. eigenvalues --    1.94812   1.95201   1.95472   1.95752   1.96249
 Alpha virt. eigenvalues --    1.98787   1.99327   1.99407   1.99469   2.05367
 Alpha virt. eigenvalues --    2.06921   2.08029   2.08439   2.08523   2.08946
 Alpha virt. eigenvalues --    2.09181   2.09562   2.09760   2.10429   2.11126
 Alpha virt. eigenvalues --    2.11643   2.11995   2.12883   2.15096   2.15502
 Alpha virt. eigenvalues --    2.15885   2.17084   2.17400   2.17833   2.18079
 Alpha virt. eigenvalues --    2.20379   2.20946   2.21122   2.21260   2.21640
 Alpha virt. eigenvalues --    2.21858   2.22456   2.24233   2.25348   2.26016
 Alpha virt. eigenvalues --    2.26427   2.26509   2.27165   2.28301   2.28656
 Alpha virt. eigenvalues --    2.29424   2.29694   2.30122   2.34634   2.35195
 Alpha virt. eigenvalues --    2.36723   2.39421   2.41056   2.41489   2.44138
 Alpha virt. eigenvalues --    2.44233   2.51196   2.51894   2.57605   2.64850
 Alpha virt. eigenvalues --    2.64917   2.65089   2.65849   2.66242   2.66548
 Alpha virt. eigenvalues --    2.66862   2.66882   2.66947   2.67076   2.67108
 Alpha virt. eigenvalues --    2.67190   2.67306   2.67383   2.67415   2.67640
 Alpha virt. eigenvalues --    2.67723   2.67912   2.67950   2.68026   2.68276
 Alpha virt. eigenvalues --    2.68931   2.69137   2.69221   2.69280   2.69860
 Alpha virt. eigenvalues --    2.70199   2.70240   2.70414   2.70605   2.70773
 Alpha virt. eigenvalues --    2.70805   2.71404   2.71464   2.71568   2.71654
 Alpha virt. eigenvalues --    2.71711   2.72001   2.72598   2.72789   2.72952
 Alpha virt. eigenvalues --    2.73012   2.73128   2.73192   2.73325   2.73347
 Alpha virt. eigenvalues --    2.73588   2.73692   2.73841   2.73863   2.73945
 Alpha virt. eigenvalues --    2.74118   2.74220   2.74393   2.74565   2.74724
 Alpha virt. eigenvalues --    2.74816   2.74981   2.75333   2.75960   2.75980
 Alpha virt. eigenvalues --    2.76112   2.76397   2.76477   2.76764   2.76868
 Alpha virt. eigenvalues --    2.77033   2.77160   2.77221   2.78320   2.78423
 Alpha virt. eigenvalues --    2.78668   2.78850   2.79951   2.80110   2.80270
 Alpha virt. eigenvalues --    2.81125   2.81773   2.81804   2.82086   2.82273
 Alpha virt. eigenvalues --    2.82347   2.82898   2.83301   2.83414   2.83864
 Alpha virt. eigenvalues --    2.83909   2.84018   2.84076   2.84405   2.85209
 Alpha virt. eigenvalues --    2.85806   2.86324   2.86396   2.86467   2.86568
 Alpha virt. eigenvalues --    2.86731   2.86922   2.87131   2.88122   2.88571
 Alpha virt. eigenvalues --    2.88909   2.89194   2.89752   2.89810   2.89931
 Alpha virt. eigenvalues --    2.90133   2.90181   2.90306   2.90476   2.90540
 Alpha virt. eigenvalues --    2.90703   2.91867   2.91990   2.92086   2.92164
 Alpha virt. eigenvalues --    2.92528   2.92725   2.92931   2.93171   2.93301
 Alpha virt. eigenvalues --    2.93507   2.93730   2.94002   2.94133   2.94273
 Alpha virt. eigenvalues --    2.94329   2.94964   2.95220   2.95471   2.95915
 Alpha virt. eigenvalues --    2.96047   2.96158   2.96715   2.96860   2.96970
 Alpha virt. eigenvalues --    2.97154   2.97264   2.97342   2.97482   2.97710
 Alpha virt. eigenvalues --    2.97777   2.97968   2.98154   2.98577   2.99343
 Alpha virt. eigenvalues --    2.99595   2.99633   2.99834   2.99961   3.00217
 Alpha virt. eigenvalues --    3.00461   3.00681   3.01456   3.01966   3.02390
 Alpha virt. eigenvalues --    3.03167   3.03950   3.03985   3.04194   3.05106
 Alpha virt. eigenvalues --    3.06604   3.06744   3.07303   3.11295   3.11775
 Alpha virt. eigenvalues --    3.11911   3.12061   3.12571   3.12863   3.14040
 Alpha virt. eigenvalues --    3.14189   3.14259   3.17131   3.20416   3.21528
 Alpha virt. eigenvalues --    3.21723   3.24052   3.32774   3.40516   3.41158
 Alpha virt. eigenvalues --    3.42083   3.42394   3.44402   3.44546   3.45432
 Alpha virt. eigenvalues --    3.45789   3.45887   3.46936   3.47020   3.47421
 Alpha virt. eigenvalues --    3.49079   3.51192   3.51509   3.52157   3.53411
 Alpha virt. eigenvalues --    3.53577   3.54126   3.54573   3.54696   3.54808
 Alpha virt. eigenvalues --    3.54920   3.55153   3.55433   3.56448   3.57487
 Alpha virt. eigenvalues --    3.57851   3.58360   3.59353   3.59568   3.60447
 Alpha virt. eigenvalues --    3.60504   3.61123   3.61599   3.61954   3.62566
 Alpha virt. eigenvalues --    3.70246   3.74991  68.64608  68.65617  68.66907
 Alpha virt. eigenvalues --   68.69377  68.72995  68.73878  68.81678  68.82811
 Alpha virt. eigenvalues --   68.83305  68.86195  68.87334  68.88591 576.23036
 Alpha virt. eigenvalues --  576.24021 576.25285 576.27700 576.31334 576.32206
 Alpha virt. eigenvalues --  576.39857 576.40968 576.41447 576.44232 576.45350
 Alpha virt. eigenvalues --  576.46597
          Condensed to atoms (all electrons):
 Mulliken charges:
               1
     1  Cl  -0.919724
     2  C   -0.084223
     3  C    0.041711
     4  C   -0.079683
     5  C   -0.033508
     6  C   -0.033402
     7  C   -0.050189
     8  H    0.026136
     9  H    0.027853
    10  H    0.039877
    11  H    0.036832
    12  H    0.038837
    13  C   -0.083103
    14  C    0.033014
    15  H    0.013430
    16  H    0.033432
    17  H    0.034160
    18  O   -0.662537
    19  O   -0.660563
    20  O   -0.655101
    21  O   -0.662635
    22  W    1.736550
    23  W    1.676306
    24  W    1.687409
    25  W    1.696834
    26  W    1.675089
    27  W    1.725946
    28  W    1.619712
    29  W    1.684192
    30  O   -0.321705
    31  O   -0.368222
    32  O   -0.367178
    33  O   -0.364948
    34  O   -0.663238
    35  O   -0.670098
    36  O   -0.660982
    37  O   -0.663174
    38  O   -0.368909
    39  O   -0.369784
    40  O   -0.289226
    41  O   -0.366668
    42  O   -0.669621
    43  O   -0.662142
    44  O   -0.658914
    45  O   -0.664871
    46  O   -0.369090
    47  O   -0.322321
    48  O   -0.356709
    49  O   -0.366353
    50  W    1.671685
    51  W    1.675909
    52  W    1.671479
    53  W    1.682172
    54  O   -0.723129
    55  O   -0.705817
    56  O   -0.724646
    57  O   -0.721028
    58  O   -0.703744
    59  O   -0.725684
    60  O   -0.724177
    61  O   -0.721178
    62  O   -0.722752
    63  O   -0.706898
    64  O   -0.721803
    65  O   -0.725662
    66  O   -0.800099
    67  O   -0.799043
    68  O   -0.796842
    69  O   -0.809450
    70  K    0.861180
    71  K    0.860509
    72  K    0.856065
    73  V    1.194448
 Sum of Mulliken charges =  -1.00000
 Mulliken charges with hydrogens summed into heavy atoms:
               1
     1  Cl  -0.919724
     2  C   -0.058086
     3  C    0.041711
     4  C   -0.051830
     5  C    0.006369
     6  C    0.003431
     7  C   -0.011352
    13  C   -0.069673
    14  C    0.100606
    18  O   -0.662537
    19  O   -0.660563
    20  O   -0.655101
    21  O   -0.662635
    22  W    1.736550
    23  W    1.676306
    24  W    1.687409
    25  W    1.696834
    26  W    1.675089
    27  W    1.725946
    28  W    1.619712
    29  W    1.684192
    30  O   -0.321705
    31  O   -0.368222
    32  O   -0.367178
    33  O   -0.364948
    34  O   -0.663238
    35  O   -0.670098
    36  O   -0.660982
    37  O   -0.663174
    38  O   -0.368909
    39  O   -0.369784
    40  O   -0.289226
    41  O   -0.366668
    42  O   -0.669621
    43  O   -0.662142
    44  O   -0.658914
    45  O   -0.664871
    46  O   -0.369090
    47  O   -0.322321
    48  O   -0.356709
    49  O   -0.366353
    50  W    1.671685
    51  W    1.675909
    52  W    1.671479
    53  W    1.682172
    54  O   -0.723129
    55  O   -0.705817
    56  O   -0.724646
    57  O   -0.721028
    58  O   -0.703744
    59  O   -0.725684
    60  O   -0.724177
    61  O   -0.721178
    62  O   -0.722752
    63  O   -0.706898
    64  O   -0.721803
    65  O   -0.725662
    66  O   -0.800099
    67  O   -0.799043
    68  O   -0.796842
    69  O   -0.809450
    70  K    0.861180
    71  K    0.860509
    72  K    0.856065
    73  V    1.194448
 Electronic spatial extent (au):  <R**2>=         317000.7208
 Charge=             -1.0000 electrons
 Dipole moment (field-independent basis, Debye):
    X=             51.6720    Y=            -49.3890    Z=            -38.5834  Tot=             81.2278
 Quadrupole moment (field-independent basis, Debye-Ang):
   XX=          -1072.1037   YY=           -856.5453   ZZ=           -913.1805
   XY=            440.6069   XZ=            463.0811   YZ=           -457.4004
 Traceless Quadrupole moment (field-independent basis, Debye-Ang):
   XX=           -124.8272   YY=             90.7312   ZZ=             34.0960
   XY=            440.6069   XZ=            463.0811   YZ=           -457.4004
 Octapole moment (field-independent basis, Debye-Ang**2):
  XXX=          13691.9511  YYY=           -722.0299  ZZZ=         -19141.7371  XYY=           5828.9594
  XXY=          -3584.5715  XXZ=          -9597.1642  XZZ=           7391.7379  YZZ=          -3940.1549
  YYZ=          -8663.2708  XYZ=           4630.2259
 Hexadecapole moment (field-independent basis, Debye-Ang**3):
 XXXX=        -162418.1207 YYYY=         -49086.3220 ZZZZ=        -346552.5949 XXXY=          36704.5008
 XXXZ=         125370.3941 YYYX=          17721.2015 YYYZ=          -8931.0001 ZZZX=         128310.6091
 ZZZY=         -32862.9303 XXYY=         -53717.9573 XXZZ=        -109724.0313 YYZZ=         -95327.1411
 XXYZ=         -41214.3689 YYXZ=          58650.5180 ZZXY=          48304.6571
 N-N= 2.104075684651D+04 E-N=-5.916711453230D+04  KE= 6.765380699836D+03
   1 Symmetry operations used in ECPInt.
 ECPInt:  NShTT=  127765 NPrTT=  468030 LenC2=   96887 LenP2D=  221874.
 LDataN:  DoStor=T MaxTD1= 9 Len=  602
 D1PCM: PCM CHGder 1st derivatives, ID1Alg=3 FixD1E=F DoIter=F DoCFld=F I1PDM=0.
 Calling FoFJK, ICntrl=      2127 FMM=T ISym2X=0 I1Cent= 0 IOpClX= 0 NMat=1 NMatS=1 NMatT=0.
 Defaulting to unpruned grid for atomic number  74.
 Defaulting to unpruned grid for atomic number  74.
 Defaulting to unpruned grid for atomic number  74.
 Defaulting to unpruned grid for atomic number  74.
 Defaulting to unpruned grid for atomic number  74.
 Defaulting to unpruned grid for atomic number  74.
 Defaulting to unpruned grid for atomic number  74.
 Defaulting to unpruned grid for atomic number  74.
 Defaulting to unpruned grid for atomic number  74.
 Defaulting to unpruned grid for atomic number  74.
 Defaulting to unpruned grid for atomic number  74.
 Defaulting to unpruned grid for atomic number  74.
 Defaulting to unpruned grid for atomic number  74.
 Defaulting to unpruned grid for atomic number  74.
 Defaulting to unpruned grid for atomic number  74.
 Defaulting to unpruned grid for atomic number  74.
 Defaulting to unpruned grid for atomic number  74.
 Defaulting to unpruned grid for atomic number  74.
 Defaulting to unpruned grid for atomic number  74.
 Defaulting to unpruned grid for atomic number  74.
 Defaulting to unpruned grid for atomic number  74.
 Defaulting to unpruned grid for atomic number  74.
 Defaulting to unpruned grid for atomic number  74.
 Defaulting to unpruned grid for atomic number  74.
 Defaulting to unpruned grid for atomic number  74.
 Defaulting to unpruned grid for atomic number  74.
 Defaulting to unpruned grid for atomic number  74.
 Defaulting to unpruned grid for atomic number  74.
 Defaulting to unpruned grid for atomic number  74.
 Defaulting to unpruned grid for atomic number  74.
 Defaulting to unpruned grid for atomic number  74.
 Defaulting to unpruned grid for atomic number  74.
 Defaulting to unpruned grid for atomic number  74.
 Defaulting to unpruned grid for atomic number  74.
 Defaulting to unpruned grid for atomic number  74.
 Defaulting to unpruned grid for atomic number  74.
 Defaulting to unpruned grid for atomic number  74.
 Defaulting to unpruned grid for atomic number  74.
 Defaulting to unpruned grid for atomic number  74.
 Defaulting to unpruned grid for atomic number  74.
 Defaulting to unpruned grid for atomic number  74.
 Defaulting to unpruned grid for atomic number  74.
 Defaulting to unpruned grid for atomic number  74.
 Defaulting to unpruned grid for atomic number  74.
 Defaulting to unpruned grid for atomic number  74.
 Defaulting to unpruned grid for atomic number  74.
 Defaulting to unpruned grid for atomic number  74.
 Defaulting to unpruned grid for atomic number  74.
 Defaulting to unpruned grid for atomic number  74.
 Defaulting to unpruned grid for atomic number  74.
 Defaulting to unpruned grid for atomic number  74.
 Defaulting to unpruned grid for atomic number  74.
 Defaulting to unpruned grid for atomic number  74.
 Defaulting to unpruned grid for atomic number  74.
 Defaulting to unpruned grid for atomic number  74.
 Defaulting to unpruned grid for atomic number  74.
 -------------------------------------------------------------------
 Center     Atomic                   Forces (Hartrees/Bohr)
 Number     Number              X              Y              Z
 -------------------------------------------------------------------
      1       17          -0.003466740    0.008866656    0.002783834
      2        6          -0.001388912   -0.001320932   -0.001449034
      3        6          -0.000764778   -0.000222745    0.002785244
      4        6           0.000924568    0.000507577   -0.000833965
      5        6           0.000470443   -0.000995309    0.001221712
      6        6          -0.000130990   -0.000034339    0.000365502
      7        6          -0.000268261   -0.001018457   -0.000348111
      8        1           0.000649489    0.000184385   -0.000306961
      9        1          -0.000230638   -0.000800536    0.000105573
     10        1          -0.000566595    0.000038602    0.000682897
     11        1          -0.000092066    0.000435392   -0.000079675
     12        1          -0.000166232    0.000415653    0.000440493
     13        6           0.008556869    0.010137791   -0.005415891
     14        6          -0.008230153   -0.011586199    0.002511407
     15        1           0.000390458   -0.001420075    0.000036707
     16        1          -0.000041505    0.000003425   -0.000459359
     17        1           0.000109872    0.000383267   -0.000401804
     18        8          -0.001391857    0.000404580    0.000000342
     19        8           0.001156926   -0.000541130    0.000245557
     20        8           0.001424094   -0.001259152   -0.000007617
     21        8          -0.001003791    0.000510720   -0.000383754
     22       74           0.001903676    0.008662732   -0.007831600
     23       74          -0.002373146   -0.008797064   -0.007987055
     24       74           0.004679690    0.006679159    0.007229122
     25       74          -0.004249228   -0.005052260    0.006416362
     26       74           0.007274534   -0.007127201   -0.010160725
     27       74          -0.006812877    0.006613866   -0.009538764
     28       74          -0.008437091    0.002695627    0.008401539
     29       74           0.006837281   -0.001516982    0.007577482
     30        8          -0.000103415   -0.003279331    0.001855720
     31        8          -0.000078840    0.003226419    0.001839954
     32        8          -0.001958527   -0.001266918   -0.001044023
     33        8           0.001461861    0.000445450   -0.000562764
     34        8          -0.000556877   -0.000502995    0.001071729
     35        8           0.000800674   -0.000366675    0.001351334
     36        8           0.000458554   -0.000585789   -0.001397918
     37        8          -0.000069689    0.000497803   -0.001426477
     38        8          -0.005509786   -0.001447457   -0.002187804
     39        8           0.005739606    0.001520530   -0.002451631
     40        8           0.002744054   -0.004569260    0.000940908
     41        8          -0.001068750    0.002728482    0.001304752
     42        8          -0.000641038   -0.001428167    0.000403255
     43        8           0.001252522    0.001107403    0.000134691
     44        8           0.000552120   -0.001750739    0.000082464
     45        8           0.000450853    0.001367982   -0.000412073
     46        8          -0.002174022    0.003645167    0.004396420
     47        8           0.002274649   -0.002900158    0.004516141
     48        8           0.003019509    0.000565405   -0.003599686
     49        8          -0.001984598   -0.000732376   -0.002274926
     50       74           0.013273254    0.004106055    0.003012719
     51       74          -0.013652289   -0.003395973    0.003272637
     52       74          -0.004497143    0.011880319   -0.002235316
     53       74           0.003605709   -0.009924747   -0.001142556
     54        8          -0.000339498    0.001491105    0.001559723
     55        8           0.000563725   -0.001292395    0.001203058
     56        8           0.001398326   -0.000090581   -0.001513786
     57        8          -0.000999646   -0.000740912   -0.001199462
     58        8           0.001252576   -0.002621012    0.000443181
     59        8          -0.000263851    0.001629816    0.000635067
     60        8          -0.001516661   -0.000900134   -0.000851727
     61        8           0.001758404    0.000538448   -0.000714937
     62        8          -0.001238843    0.001366015    0.000842247
     63        8           0.001349009   -0.002090534    0.000369997
     64        8           0.001984229   -0.000361385   -0.001204824
     65        8          -0.002020022    0.000078690   -0.000873800
     66        8          -0.020040360   -0.005061831    0.013847279
     67        8           0.020617451    0.005933525    0.013540607
     68        8           0.007507792   -0.020747352   -0.014783893
     69        8          -0.007825297    0.020085245   -0.015032360
     70       19           0.000293623   -0.001208215   -0.000932480
     71       19           0.001128035    0.000543956    0.000871310
     72       19          -0.001236159   -0.000135818    0.001016265
     73       23          -0.000474260   -0.000204114    0.001731531
 -------------------------------------------------------------------
 Cartesian Forces:  Max     0.020747352 RMS     0.004953596

 GradGradGradGradGradGradGradGradGradGradGradGradGradGradGradGradGradGrad
 Berny optimization.
 Search for a local minimum.
 Step number   1 out of a maximum of    2
 All quantities printed in internal units (Hartrees-Bohrs-Radians)
 Second derivative matrix not updated -- first step.
 ITU=  0
     Eigenvalues ---    0.00000   0.00000   0.00000   0.00010   0.00091
     Eigenvalues ---    0.00093   0.00257   0.00569   0.00617   0.01649
     Eigenvalues ---    0.01978   0.02895   0.02942   0.03220   0.03425
     Eigenvalues ---    0.03470   0.03716   0.03731   0.04157   0.04502
     Eigenvalues ---    0.04611   0.04614   0.04641   0.04859   0.04866
     Eigenvalues ---    0.05008   0.05371   0.05580   0.05624   0.06392
     Eigenvalues ---    0.06438   0.06573   0.06787   0.06863   0.07053
     Eigenvalues ---    0.07322   0.07412   0.07620   0.08401   0.08435
     Eigenvalues ---    0.08774   0.08824   0.08942   0.08950   0.09756
     Eigenvalues ---    0.09979   0.10198   0.10398   0.10466   0.10564
     Eigenvalues ---    0.10932   0.10953   0.11601   0.11727   0.12037
     Eigenvalues ---    0.12102   0.12149   0.12506   0.12545   0.12779
     Eigenvalues ---    0.12816   0.12871   0.12943   0.13167   0.13196
     Eigenvalues ---    0.13906   0.13932   0.14440   0.14720   0.14767
     Eigenvalues ---    0.16850   0.16894   0.17065   0.17166   0.17625
     Eigenvalues ---    0.17695   0.18719   0.19902   0.20031   0.20298
     Eigenvalues ---    0.20974   0.21047   0.22039   0.22104   0.22239
     Eigenvalues ---    0.22662   0.23228   0.23409   0.23943   0.24039
     Eigenvalues ---    0.24693   0.24856   0.25080   0.25797   0.26280
     Eigenvalues ---    0.26358   0.26867   0.27620   0.27823   0.28013
     Eigenvalues ---    0.28467   0.28538   0.29094   0.29831   0.30016
     Eigenvalues ---    0.30712   0.30816   0.30893   0.30979   0.31098
     Eigenvalues ---    0.31176   0.31298   0.31543   0.31717   0.32716
     Eigenvalues ---    0.32836   0.32939   0.32998   0.33154   0.33628
     Eigenvalues ---    0.33789   0.35256   0.35759   0.36153   0.37056
     Eigenvalues ---    0.37601   0.37757   0.37808   0.38584   0.38782
     Eigenvalues ---    0.39192   0.39553   0.40476   0.40709   0.41798
     Eigenvalues ---    0.42509   0.42729   0.43649   0.44449   0.44972
     Eigenvalues ---    0.45632   0.45815   0.46232   0.48432   0.48589
     Eigenvalues ---    0.48790   0.49463   0.49644   0.50065   0.50150
     Eigenvalues ---    0.50367   0.50878   0.51397   0.52383   0.52925
     Eigenvalues ---    0.53780   0.54271   0.57277   0.59307   0.64407
     Eigenvalues ---    0.67530   0.77161   0.82083   0.83201   0.96974
     Eigenvalues ---    0.97288   0.99409   1.00164   1.02419   1.04525
     Eigenvalues ---    1.08196   1.12331   1.12432   1.13183   1.17031
     Eigenvalues ---    1.20178   1.20571   1.20633   1.22405   1.23261
     Eigenvalues ---    1.23428   1.26666   1.27296   1.27333   1.27713
     Eigenvalues ---    1.28451   1.30141   1.31113   1.44858   1.45901
     Eigenvalues ---    1.46049   1.48835   1.51955   1.52014   1.52181
     Eigenvalues ---    1.52830   1.55480   1.55741   1.57241   1.58488
     Eigenvalues ---    1.58731   1.59564   1.61733   1.65377   1.80965
     Eigenvalues ---    1.90865   1.95121   1.97472   1.98493   2.06537
     Eigenvalues ---    2.08399   2.10479   3.79738
 Eigenvalue     1 is   2.22D-16 Eigenvector:
                          Y11       Y6        Y12       Y10       Y7
   1                    0.17524   0.17524   0.17524   0.17524   0.17524
                          Y5        Y2        Y4        Y8        Y9
   1                    0.17524   0.17524   0.17524   0.17524   0.17524
 Eigenvalue     2 is   3.36D-07 Eigenvector:
                          Y16       X16       X11       Y14       Y11
   1                    0.33980  -0.26277   0.26164   0.25216  -0.25125
                          Y15       Y17       Y13       X14       X6
   1                    0.23302   0.21532   0.19270  -0.18561   0.18263
 Eigenvalue     3 is   2.65D-06 Eigenvector:
                          X9        X10       Y12       Y9        X12
   1                    0.32669   0.29026   0.28171  -0.26301  -0.25531
                          Y8        Y10       X8        X15       Y17
   1                    0.24735  -0.22954  -0.21994   0.21308   0.20663
 Quadratic step=1.761D+01 exceeds max=3.000D-01 adjusted using Lamda=-7.594D-03.
 Angle between NR and scaled steps=  36.98 degrees.
 Angle between quadratic step and forces=  71.54 degrees.
 Linear search not attempted -- first point.
 B after Tr=     0.003775    0.004057    0.001982
         Rot=    1.000000   -0.000160    0.000075    0.000250 Ang=  -0.04 deg.
 Variable       Old X    -DE/DX   Delta X   Delta X   Delta X     New X
                                 (Linear)    (Quad)   (Total)
    X1      -18.80927  -0.00347   0.00000  -0.00345   0.00475 -18.80452
    Y1       14.71014   0.00887   0.00000   0.00895   0.01611  14.72625
    Z1       19.72098   0.00278   0.00000   0.00299   0.00687  19.72786
    X2      -15.70414  -0.00139   0.00000  -0.00676  -0.00244 -15.70658
    Y2        8.02262  -0.00132   0.00000  -0.02571  -0.02120   8.00143
    Z2       23.12586  -0.00145   0.00000  -0.01128  -0.00909  23.11678
    X3      -17.12217  -0.00076   0.00000  -0.00291   0.00141 -17.12076
    Y3        7.40326  -0.00022   0.00000  -0.04444  -0.03852   7.36473
    Z3       20.96166   0.00279   0.00000  -0.00497  -0.00319  20.95847
    X4      -18.90791   0.00092   0.00000  -0.00109   0.00222 -18.90570
    Y4        5.44948   0.00051   0.00000  -0.04390  -0.03716   5.41231
    Z4       21.16610  -0.00083   0.00000   0.01473   0.01561  21.18171
    X5      -19.25388   0.00047   0.00000  -0.00929  -0.00696 -19.26083
    Y5        4.14346  -0.00100   0.00000  -0.01670  -0.01052   4.13295
    Z5       23.41928   0.00122   0.00000   0.03268   0.03310  23.45238
    X6      -17.81913  -0.00013   0.00000  -0.01346  -0.01112 -17.83025
    Y6        4.76377  -0.00003   0.00000   0.00655   0.01134   4.77512
    Z6       25.54321   0.00037   0.00000   0.02727   0.02811  25.57131
    X7      -16.04497  -0.00027   0.00000  -0.01085  -0.00752 -16.05249
    Y7        6.71121  -0.00102   0.00000   0.00052   0.00448   6.71569
    Z7       25.38210  -0.00035   0.00000   0.00439   0.00612  25.38822
    X8      -14.32001   0.00065   0.00000   0.00085   0.00595 -14.31407
    Y8        9.55003   0.00018   0.00000  -0.03041  -0.02657   9.52346
    Z8       23.05341  -0.00031   0.00000  -0.02737  -0.02448  23.02893
    X9      -20.02909  -0.00023   0.00000   0.00015   0.00345 -20.02564
    Y9        4.95651  -0.00080   0.00000  -0.06654  -0.05871   4.89780
    Z9       19.50128   0.00011   0.00000   0.01988   0.02043  19.52171
   X10      -20.62954  -0.00057   0.00000  -0.02034  -0.01879 -20.64833
   Y10        2.60635   0.00004   0.00000  -0.00641   0.00044   2.60679
   Z10       23.50482   0.00068   0.00000   0.05404   0.05376  23.55859
   X11      -18.06098  -0.00009   0.00000  -0.02017  -0.01862 -18.07960
   Y11        3.71699   0.00044   0.00000   0.03186   0.03621   3.75319
   Z11       27.30631  -0.00008   0.00000   0.03996   0.04043  27.34674
   X12      -14.90288  -0.00017   0.00000  -0.01703  -0.01368 -14.91656
   Y12        7.20405   0.00042   0.00000   0.02360   0.02646   7.23051
   Z12       27.03062   0.00044   0.00000   0.00322   0.00529  27.03590
   X13      -16.84836   0.00856   0.00000   0.01441   0.01975 -16.82861
   Y13        8.72071   0.01014   0.00000  -0.07665  -0.07010   8.65062
   Z13       18.54494  -0.00542   0.00000  -0.02808  -0.02585  18.51909
   X14      -15.27554  -0.00823   0.00000  -0.01912  -0.01275 -15.28829
   Y14       10.66058  -0.01159   0.00000  -0.07951  -0.07357  10.58700
   Z14       18.07227   0.00251   0.00000  -0.03260  -0.02952  18.04275
   X15      -18.13969   0.00039   0.00000   0.03756   0.04279 -18.09691
   Y15        8.11674  -0.00142   0.00000  -0.11848  -0.11081   8.00593
   Z15       17.04408   0.00004   0.00000  -0.03058  -0.02874  17.01534
   X16      -15.23405  -0.00004   0.00000  -0.01611  -0.00901 -15.24306
   Y16       11.56865   0.00000   0.00000  -0.09450  -0.08800  11.48065
   Z16       16.22370  -0.00046   0.00000  -0.04128  -0.03790  16.18580
   X17      -13.95931   0.00011   0.00000  -0.04267  -0.03612 -13.99543
   Y17       11.38720   0.00038   0.00000  -0.03593  -0.03109  11.35610
   Z17       19.48529  -0.00040   0.00000  -0.03125  -0.02773  19.45757
   X18       -1.92074  -0.00139   0.00000  -0.00619  -0.00619  -1.92694
   Y18       -3.33449   0.00040   0.00000   0.00063   0.00113  -3.33337
   Z18       14.10385   0.00000   0.00000   0.00342   0.00405  14.10789
   X19      -15.88081   0.00116   0.00000   0.00495   0.00536 -15.87545
   Y19       -2.50172  -0.00054   0.00000   0.01146   0.01894  -2.48277
   Z19       14.11152   0.00025   0.00000   0.00555   0.00436  14.11588
   X20      -13.34102   0.00142   0.00000   0.01651   0.01859 -13.32244
   Y20        2.52415  -0.00126   0.00000   0.00827   0.01265   2.53679
   Z20       19.82002  -0.00001   0.00000  -0.00554  -0.00474  19.81528
   X21       -4.41639  -0.00100   0.00000  -0.01065  -0.01397  -4.43036
   Y21       -8.20685   0.00051   0.00000   0.00422   0.00410  -8.20275
   Z21       19.95480  -0.00038   0.00000  -0.00621  -0.00752  19.94728
   X22       -6.48717   0.00190   0.00000   0.00575   0.00840  -6.47877
   Y22        1.40918   0.00866   0.00000   0.00996   0.01333   1.42251
   Z22       12.29022  -0.00783   0.00000  -0.01492  -0.01345  12.27676
   X23      -11.35587  -0.00237   0.00000  -0.00170  -0.00340 -11.35927
   Y23       -7.22449  -0.00880   0.00000   0.00020   0.00596  -7.21853
   Z23       12.45020  -0.00799   0.00000  -0.01159  -0.01362  12.43658
   X24       -6.87176   0.00468   0.00000   0.01665   0.01806  -6.85370
   Y24        1.72931   0.00668   0.00000   0.00414   0.00472   1.73403
   Z24       21.54740   0.00723   0.00000   0.01395   0.01546  21.56287
   X25      -10.91716  -0.00425   0.00000  -0.01380  -0.01693 -10.93409
   Y25       -7.30468  -0.00505   0.00000   0.00705   0.00963  -7.29505
   Z25       21.67305   0.00642   0.00000   0.00968   0.00768  21.68073
   X26       -4.66824   0.00727   0.00000   0.00087   0.00043  -4.66781
   Y26       -4.81075  -0.00713   0.00000  -0.00890  -0.00636  -4.81711
   Z26       12.05879  -0.01016   0.00000  -0.00796  -0.00822  12.05057
   X27      -13.13493  -0.00681   0.00000  -0.00251  -0.00103 -13.13595
   Y27       -1.00148   0.00661   0.00000   0.02060   0.02739  -0.97410
   Z27       12.00258  -0.00954   0.00000  -0.00634  -0.00663  11.99595
   X28      -12.91049  -0.00844   0.00000  -0.00596  -0.00570 -12.91619
   Y28       -0.47952   0.00270   0.00000   0.00938   0.01288  -0.46664
   Z28       21.91250   0.00840   0.00000   0.00496   0.00486  21.91736
   X29       -4.85650   0.00684   0.00000   0.00693   0.00487  -4.85163
   Y29       -5.08683  -0.00152   0.00000   0.00368   0.00312  -5.08372
   Z29       21.97358   0.00758   0.00000   0.00577   0.00540  21.97898
   X30       -6.06012  -0.00010   0.00000   0.02288   0.02699  -6.03313
   Y30        3.69117  -0.00328   0.00000  -0.00737  -0.00352   3.68766
   Z30       10.10328   0.00186   0.00000  -0.01983  -0.01757  10.08571
   X31      -11.59783  -0.00008   0.00000  -0.01567  -0.01825 -11.61608
   Y31       -9.61364   0.00323   0.00000   0.01036   0.01693  -9.59671
   Z31       10.31896   0.00184   0.00000  -0.01167  -0.01450  10.30445
   X32       -5.11108  -0.00196   0.00000   0.00357   0.00547  -5.10560
   Y32        3.34272  -0.00127   0.00000   0.00585   0.00486   3.34759
   Z32       23.69155  -0.00104   0.00000   0.01669   0.01898  23.71053
   X33      -12.66225   0.00146   0.00000  -0.00239  -0.00662 -12.66887
   Y33       -8.84135   0.00045   0.00000   0.00294   0.00568  -8.83567
   Z33       23.88207  -0.00056   0.00000   0.01223   0.00948  23.89155
   X34       -5.10058  -0.00056   0.00000  -0.00194  -0.00057  -5.10115
   Y34       -1.63561  -0.00050   0.00000  -0.00485  -0.00163  -1.63724
   Z34       10.57669   0.00107   0.00000  -0.00142  -0.00072  10.57597
   X35      -12.69171   0.00080   0.00000   0.00283   0.00287 -12.68884
   Y35       -4.28511  -0.00037   0.00000   0.01325   0.02025  -4.26486
   Z35       10.65235   0.00135   0.00000   0.00162   0.00034  10.65269
   X36      -10.05977   0.00046   0.00000   0.00573   0.00654 -10.05323
   Y36        1.06469  -0.00059   0.00000   0.00064   0.00225   1.06693
   Z36       23.36173  -0.00140   0.00000  -0.00097  -0.00016  23.36157
   X37       -7.68855  -0.00007   0.00000  -0.00349  -0.00654  -7.69509
   Y37       -6.62927   0.00050   0.00000   0.00958   0.00998  -6.61929
   Z37       23.44534  -0.00143   0.00000  -0.00312  -0.00441  23.44092
   X38        0.56194  -0.00551   0.00000   0.00472   0.00586   0.56780
   Y38       -0.01411  -0.00145   0.00000   0.00074  -0.00110  -0.01521
   Z38       17.54309  -0.00219   0.00000  -0.00710  -0.00504  17.53806
   X39      -18.36899   0.00574   0.00000  -0.00491  -0.00662 -18.37561
   Y39       -5.69046   0.00152   0.00000   0.01288   0.02049  -5.66997
   Z39       17.65696  -0.00245   0.00000  -0.00855  -0.01114  17.64583
   X40      -12.11862   0.00274   0.00000   0.03925   0.04383 -12.07480
   Y40        6.45259  -0.00457   0.00000   0.01727   0.02215   6.47474
   Z40       16.31170   0.00094   0.00000   0.00400   0.00624  16.31795
   X41       -5.59735  -0.00107   0.00000  -0.01155  -0.01635  -5.61370
   Y41      -12.18313   0.00273   0.00000  -0.00350  -0.00192 -12.18506
   Z41       16.51437   0.00130   0.00000   0.00518   0.00242  16.51679
   X42       -3.43370  -0.00064   0.00000   0.00210   0.00449  -3.42920
   Y42        1.47543  -0.00143   0.00000  -0.00313  -0.00189   1.47354
   Z42       14.15495   0.00040   0.00000  -0.00094   0.00100  14.15594
   X43      -14.38141   0.00125   0.00000   0.00149  -0.00053 -14.38194
   Y43       -7.31669   0.00111   0.00000   0.01326   0.01994  -7.29675
   Z43       14.29788   0.00013   0.00000  -0.00013  -0.00265  14.29523
   X44       -8.58655   0.00055   0.00000   0.01833   0.02125  -8.56530
   Y44        4.18717  -0.00175   0.00000  -0.00280  -0.00077   4.18640
   Z44       19.69359   0.00008   0.00000   0.00423   0.00627  19.69986
   X45       -9.19160   0.00045   0.00000  -0.01107  -0.01519  -9.20679
   Y45       -9.84197   0.00137   0.00000   0.01258   0.01488  -9.82709
   Z45       19.87835  -0.00041   0.00000  -0.00170  -0.00424  19.87411
   X46       -3.11845  -0.00217   0.00000   0.00430   0.00331  -3.11513
   Y46       -6.57243   0.00365   0.00000   0.00507   0.00753  -6.56490
   Z46        9.86035   0.00440   0.00000  -0.00069  -0.00128   9.85906
   X47      -14.77461   0.00227   0.00000  -0.01449  -0.01191 -14.78653
   Y47        0.51302  -0.00290   0.00000   0.00767   0.01601   0.52903
   Z47        9.72021   0.00452   0.00000   0.00852   0.00846   9.72866
   X48      -15.18711   0.00302   0.00000  -0.00084  -0.00085 -15.18795
   Y48       -0.35129   0.00057   0.00000   0.02534   0.02926  -0.32203
   Z48       24.16840  -0.00360   0.00000  -0.00168  -0.00207  24.16633
   X49       -2.53588  -0.00198   0.00000   0.00232  -0.00018  -2.53605
   Y49       -5.27551  -0.00073   0.00000  -0.01382  -0.01625  -5.29176
   Z49       24.18294  -0.00227   0.00000   0.00191   0.00182  24.18475
   X50       -2.39190   0.01327   0.00000   0.01057   0.01136  -2.38055
   Y50       -0.97556   0.00411   0.00000   0.00543   0.00532  -0.97024
   Z50       16.71489   0.00301   0.00000   0.00777   0.00908  16.72397
   X51      -15.41983  -0.01365   0.00000  -0.01066  -0.01177 -15.43161
   Y51       -4.74297  -0.00340   0.00000   0.00808   0.01448  -4.72849
   Z51       16.79229   0.00327   0.00000   0.00781   0.00596  16.79825
   X52      -11.22496  -0.00450   0.00000   0.01750   0.02048 -11.20447
   Y52        3.50532   0.01188   0.00000   0.01774   0.02193   3.52725
   Z52       17.09407  -0.00224   0.00000  -0.00708  -0.00565  17.08843
   X53       -6.55439   0.00361   0.00000  -0.00837  -0.01180  -6.56620
   Y53       -9.22504  -0.00992   0.00000  -0.00491  -0.00311  -9.22815
   Z53       17.31430  -0.00114   0.00000  -0.00769  -0.00965  17.30465
   X54       -8.01251  -0.00034   0.00000  -0.00021  -0.00108  -8.01359
   Y54       -5.84003   0.00149   0.00000  -0.00278   0.00162  -5.83841
   Z54       11.48481   0.00156   0.00000  -0.01025  -0.01134  11.47347
   X55       -9.78209   0.00056   0.00000  -0.00030   0.00175  -9.78035
   Y55       -0.06444  -0.00129   0.00000   0.01596   0.02127  -0.04317
   Z55       11.38204   0.00120   0.00000  -0.01180  -0.01130  11.37074
   X56      -11.68758   0.00140   0.00000  -0.00994  -0.01143 -11.69901
   Y56       -3.77776  -0.00009   0.00000   0.00725   0.00994  -3.76782
   Z56       22.52153  -0.00151   0.00000   0.00866   0.00768  22.52921
   X57       -6.03489  -0.00100   0.00000   0.01172   0.01122  -6.02367
   Y57       -1.79511  -0.00074   0.00000   0.00322   0.00306  -1.79205
   Z57       22.53109  -0.00120   0.00000   0.01205   0.01256  22.54365
   X58       -8.31705   0.00125   0.00000   0.01679   0.01987  -8.29718
   Y58        3.02388  -0.00262   0.00000   0.00860   0.01206   3.03595
   Z58       14.83874   0.00044   0.00000  -0.00948  -0.00777  14.83097
   X59       -9.45377  -0.00026   0.00000  -0.00692  -0.00981  -9.46358
   Y59       -8.81880   0.00163   0.00000  -0.00308   0.00091  -8.81789
   Z59       14.99712   0.00064   0.00000  -0.01036  -0.01262  14.98450
   X60       -4.43184  -0.00152   0.00000   0.01397   0.01546  -4.41638
   Y60        1.12424  -0.00090   0.00000   0.00608   0.00625   1.13049
   Z60       19.03698  -0.00085   0.00000   0.01143   0.01311  19.05009
   X61      -13.35229   0.00176   0.00000  -0.01262  -0.01512 -13.36740
   Y61       -6.80668   0.00054   0.00000   0.00602   0.01063  -6.79605
   Z61       19.15024  -0.00071   0.00000   0.00938   0.00718  19.15742
   X62       -4.86957  -0.00124   0.00000  -0.00575  -0.00786  -4.87742
   Y62       -7.30752   0.00137   0.00000  -0.00684  -0.00510  -7.31262
   Z62       14.85293   0.00084   0.00000  -0.00701  -0.00810  14.84482
   X63      -12.95017   0.00135   0.00000   0.01182   0.01415 -12.93603
   Y63        1.48860  -0.00209   0.00000   0.01857   0.02438   1.51298
   Z63       14.74683   0.00037   0.00000  -0.00651  -0.00598  14.74085
   X64      -14.82895   0.00198   0.00000  -0.00701  -0.00721 -14.83616
   Y64       -2.21010  -0.00036   0.00000   0.00880   0.01413  -2.19597
   Z64       19.20403  -0.00120   0.00000   0.00493   0.00399  19.20801
   X65       -2.97334  -0.00202   0.00000   0.00669   0.00585  -2.96749
   Y65       -3.47397   0.00008   0.00000   0.00487   0.00426  -3.46971
   Z65       19.18547  -0.00087   0.00000   0.00621   0.00663  19.19211
   X66       -6.41176  -0.02004   0.00000  -0.03368  -0.03324  -6.44500
   Y66       -2.12271  -0.00506   0.00000  -0.00436  -0.00194  -2.12465
   Z66       15.14772   0.01385   0.00000   0.02103   0.02137  15.16909
   X67      -11.38989   0.02062   0.00000   0.03297   0.03262 -11.35727
   Y67       -3.69687   0.00593   0.00000   0.01858   0.02345  -3.67342
   Z67       15.20459   0.01354   0.00000   0.02200   0.02110  15.22569
   X68       -9.69261   0.00751   0.00000   0.01848   0.01924  -9.67337
   Y68       -0.37729  -0.02075   0.00000  -0.02697  -0.02409  -0.40138
   Z68       18.80991  -0.01478   0.00000  -0.02248  -0.02208  18.78784
   X69       -8.04987  -0.00783   0.00000  -0.01794  -0.01964  -8.06950
   Y69       -5.32730   0.02009   0.00000   0.03789   0.03996  -5.28735
   Z69       18.86334  -0.01503   0.00000  -0.02333  -0.02425  18.83910
   X70       -6.11858   0.00029   0.00000  -0.00493  -0.00853  -6.12711
   Y70      -11.53107  -0.00121   0.00000  -0.00755  -0.00386 -11.53493
   Z70       10.73065  -0.00093   0.00000  -0.01142  -0.01406  10.71659
   X71       -0.31516   0.00113   0.00000   0.01531   0.01563  -0.29954
   Y71        0.05905   0.00054   0.00000   0.00206  -0.00121   0.05785
   Z71       23.31338   0.00087   0.00000   0.01193   0.01388  23.32726
   X72      -17.48191  -0.00124   0.00000  -0.01542  -0.01792 -17.49982
   Y72       -5.53169  -0.00014   0.00000   0.01183   0.01714  -5.51455
   Z72       23.42139   0.00102   0.00000   0.00968   0.00727  23.42866
   X73       -8.89043  -0.00047   0.00000  -0.00077  -0.00098  -8.89141
   Y73       -2.87263  -0.00020   0.00000   0.00605   0.00911  -2.86352
   Z73       16.99832   0.00173   0.00000   0.00118   0.00091  16.99923
         Item               Value     Threshold  Converged?
 Maximum Force            0.020747     0.000450     NO 
 RMS     Force            0.004954     0.000300     NO 
 Maximum Displacement     0.110814     0.001800     NO 
 RMS     Displacement     0.020005     0.001200     NO 
 Predicted change in Energy=-3.705582D-03
 GradGradGradGradGradGradGradGradGradGradGradGradGradGradGradGradGradGrad

 Unable to Open any file for archive entry.
 1\1\GINC-X11P1N2\Force\RwB97XD\def2SVP\C8H8Cl1K3O40V1W12(1-)\MAYUMIAO\
 01-Jun-2024\0\\# def2svp wb97xd scrf=(smd,solvent=acetonitrile) g09def
 ault scf=(xqc,maxcycle=64) force guess=read nosymm\\Title Card\\-1,1\C
 l,-9.95343481,7.78427091,10.43589492\C,-8.31027299,4.24538922,12.23767
 993\C,-9.06066095,3.91763532,11.09243456\C,-10.00563728,2.88373843,11.
 20061738\C,-10.18871228,2.19262631,12.3929509\C,-9.42947784,2.52088019
 ,13.5168823\C,-8.49062989,3.5514214,13.43162854\H,-7.57782553,5.053659
 51,12.19933684\H,-10.598939,2.62287154,10.31963287\H,-10.91668238,1.37
 922214,12.4382166\H,-9.55746064,1.9669455,14.44987442\H,-7.8862618,3.8
 122196,14.30398569\C,-8.91576647,4.61480155,9.8135615\C,-8.08346884,5.
 64133444,9.5634351\H,-9.59911315,4.29519366,9.01933606\H,-8.06151168,6
 .12186369,8.58521112\H,-7.38695114,6.02584457,10.31117296\O,-1.0164126
 2,-1.76453858,7.46343348\O,-8.40376133,-1.32385215,7.46749313\O,-7.059
 76523,1.33572169,10.48830248\O,-2.3370504,-4.34287866,10.55962751\W,-3
 .43286097,0.74570488,6.50370245\W,-6.00926598,-3.82303608,6.58836112\W
 ,-3.63638121,0.91511051,11.40239491\W,-5.77711254,-3.86547093,11.46888
 303\W,-2.47032595,-2.54573844,6.38123769\W,-6.95070445,-0.52996276,6.3
 5149192\W,-6.83193821,-0.25375079,11.59559559\W,-2.56994978,-2.6918366
 ,11.62791942\O,-3.206878,1.95328526,5.34642458\O,-6.13730546,-5.087319
 04,5.46055669\O,-2.70466555,1.7688936,12.53702898\O,-6.70057557,-4.678
 6406,12.63784689\O,-2.69910868,-0.86552716,5.59694271\O,-6.7161627,-2.
 26758128,5.6369822\O,-5.32340198,0.56340717,12.36249511\O,-4.0686042,-
 3.50805677,12.40673761\O,0.29736614,-0.00746686,9.28340483\O,-9.720451
 37,-3.0112618,9.34366216\O,-6.41289808,3.41456487,8.6317824\O,-2.96198
 906,-6.44703593,8.73902738\O,-1.81703321,0.78076236,7.49047444\O,-7.61
 031446,-3.8718276,7.56611105\O,-4.54380769,2.2157558,10.42139947\O,-4.
 86398735,-5.20814457,10.51916971\O,-1.65021139,-3.47797967,5.21787018\
 O,-7.81838926,0.27147646,5.14371156\O,-8.03667016,-0.18589398,12.78936
 823\O,-1.34192839,-2.79168131,12.79705887\W,-1.26573971,-0.51624666,8.
 845137\W,-8.15982519,-2.50987337,8.88609807\W,-5.9399915,1.85493568,9.
 04579311\W,-3.46843465,-4.88168274,9.16233354\O,-4.24003881,-3.0904095
 8,6.07749876\O,-5.17646009,-0.03409952,6.02311827\O,-6.18480347,-1.999
 10599,11.9178816\O,-3.19352795,-0.94993328,11.92294085\O,-4.40119198,1
 .60017082,7.85232059\O,-5.00271846,-4.66670674,7.93613499\O,-2.3452277
 1,0.59492239,10.07393828\O,-7.0657256,-3.60194152,10.13387226\O,-2.576
 86293,-3.86697399,7.85983093\O,-6.85293727,0.78773127,7.80368782\O,-7.
 84714157,-1.16953485,10.1623333\O,-1.57342453,-1.83834783,10.15251412\
 O,-3.39295802,-1.12328896,8.01582964\O,-6.02727066,-1.95629858,8.04592
 293\O,-5.12910944,-0.19965526,9.95377676\O,-4.25980647,-2.81908751,9.9
 8205162\K,-3.23781303,-6.10197768,5.67841513\K,-0.16677777,0.03125041,
 12.33690896\K,-9.251026,-2.92724255,12.39406591\V,-4.7046134,-1.520132
 02,8.99512409\\Version=ES64L-G16RevC.01\HF=-7327.6992531\RMSD=8.903e-1
 0\RMSF=4.954e-03\Dipole=10.5401099,-21.2155657,2.5139242\Quadrupole=-9
 2.805962,67.4564273,25.3495346,327.5804547,344.2894382,-340.0660117\PG
 =C01 [X(C8H8Cl1K3O40V1W12)]\\@
 The archive entry for this job was punched.


 A successful marriage requires falling in love
 many times, always with the same person.
                           -- Mignon McLaughlin
 Job cpu time:       0 days 11 hours 41 minutes 57.8 seconds.
 Elapsed time:       0 days  0 hours 13 minutes 21.6 seconds.
 File lengths (MBytes):  RWF=   1246 Int=      0 D2E=      0 Chk=    249 Scr=      1
 Normal termination of Gaussian 16 at Sat Jun  1 17:41:30 2024.
