 Entering Gaussian System, Link 0=g16
 Input=JOBS/12_B.gjf
 Output=JOBS/12_B.log
 Initial command:
 /data/app/gaussian/C01-avx2//g16/l1.exe "/tmp/Gau-597635.inp" -scrdir="/tmp/"
 Entering Link 1 = /data/app/gaussian/C01-avx2//g16/l1.exe PID=    597636.
  
 Copyright (c) 1988-2019, Gaussian, Inc.  All Rights Reserved.
  
 This is part of the Gaussian(R) 16 program.  It is based on
 the Gaussian(R) 09 system (copyright 2009, Gaussian, Inc.),
 the Gaussian(R) 03 system (copyright 2003, Gaussian, Inc.),
 the Gaussian(R) 98 system (copyright 1998, Gaussian, Inc.),
 the Gaussian(R) 94 system (copyright 1995, Gaussian, Inc.),
 the Gaussian 92(TM) system (copyright 1992, Gaussian, Inc.),
 the Gaussian 90(TM) system (copyright 1990, Gaussian, Inc.),
 the Gaussian 88(TM) system (copyright 1988, Gaussian, Inc.),
 the Gaussian 86(TM) system (copyright 1986, Carnegie Mellon
 University), and the Gaussian 82(TM) system (copyright 1983,
 Carnegie Mellon University). Gaussian is a federally registered
 trademark of Gaussian, Inc.
  
 This software contains proprietary and confidential information,
 including trade secrets, belonging to Gaussian, Inc.
  
 This software is provided under written license and may be
 used, copied, transmitted, or stored only in accord with that
 written license.
  
 The following legend is applicable only to US Government
 contracts under FAR:
  
                    RESTRICTED RIGHTS LEGEND
  
 Use, reproduction and disclosure by the US Government is
 subject to restrictions as set forth in subparagraphs (a)
 and (c) of the Commercial Computer Software - Restricted
 Rights clause in FAR 52.227-19.
  
 Gaussian, Inc.
 340 Quinnipiac St., Bldg. 40, Wallingford CT 06492
  
  
 ---------------------------------------------------------------
 Warning -- This program may not be used in any manner that
 competes with the business of Gaussian, Inc. or will provide
 assistance to any competitor of Gaussian, Inc.  The licensee
 of this program is prohibited from giving any competitor of
 Gaussian, Inc. access to this program.  By using this program,
 the user acknowledges that Gaussian, Inc. is engaged in the
 business of creating and licensing software in the field of
 computational chemistry and represents and warrants to the
 licensee that it is not a competitor of Gaussian, Inc. and that
 it will not use this program in any manner prohibited above.
 ---------------------------------------------------------------
  

 Cite this work as:
 Gaussian 16, Revision C.01,
 M. J. Frisch, G. W. Trucks, H. B. Schlegel, G. E. Scuseria, 
 M. A. Robb, J. R. Cheeseman, G. Scalmani, V. Barone, 
 G. A. Petersson, H. Nakatsuji, X. Li, M. Caricato, A. V. Marenich, 
 J. Bloino, B. G. Janesko, R. Gomperts, B. Mennucci, H. P. Hratchian, 
 J. V. Ortiz, A. F. Izmaylov, J. L. Sonnenberg, D. Williams-Young, 
 F. Ding, F. Lipparini, F. Egidi, J. Goings, B. Peng, A. Petrone, 
 T. Henderson, D. Ranasinghe, V. G. Zakrzewski, J. Gao, N. Rega, 
 G. Zheng, W. Liang, M. Hada, M. Ehara, K. Toyota, R. Fukuda, 
 J. Hasegawa, M. Ishida, T. Nakajima, Y. Honda, O. Kitao, H. Nakai, 
 T. Vreven, K. Throssell, J. A. Montgomery, Jr., J. E. Peralta, 
 F. Ogliaro, M. J. Bearpark, J. J. Heyd, E. N. Brothers, K. N. Kudin, 
 V. N. Staroverov, T. A. Keith, R. Kobayashi, J. Normand, 
 K. Raghavachari, A. P. Rendell, J. C. Burant, S. S. Iyengar, 
 J. Tomasi, M. Cossi, J. M. Millam, M. Klene, C. Adamo, R. Cammi, 
 J. W. Ochterski, R. L. Martin, K. Morokuma, O. Farkas, 
 J. B. Foresman, and D. J. Fox, Gaussian, Inc., Wallingford CT, 2019.
 
 ******************************************
 Gaussian 16:  ES64L-G16RevC.01  3-Jul-2019
                 1-Jun-2024 
 ******************************************
 %chk=b.chk
 %nprocshared=56
 Will use up to   56 processors via shared memory.
 %mem=96gb
 ----------------------------------------------------------------------
 # def2svp wb97xd scrf=(smd,solvent=acetonitrile) g09default scf=(xqc,m
 axcycle=64) force guess=read nosymm
 ----------------------------------------------------------------------
 1/10=7,30=1,38=1,158=3,167=1/1,3;
 2/12=2,15=1,17=6,18=5,40=1/2;
 3/5=43,7=101,11=2,25=1,27=10,30=1,70=32201,71=1,72=2,74=-58,75=-4,116=-2,158=3/1,2,3;
 4/5=1,60=-1/1;
 5/5=2,7=64,8=3,13=1,38=6,53=2,87=10/2,8;
 6/7=2,8=2,9=2,10=2,28=1,87=10/1;
 7/29=1,30=1,87=10/1,2,3,16;
 1/10=7,30=1,158=3,167=1/3;
 99//99;
 Using 2006 physical constants.
 ----------
 Title Card
 ----------
 Symbolic Z-matrix:
 Charge = -1 Multiplicity = 1
 17                   -9.96213   7.80959   10.44273 
 6                    -8.30942   4.2435    12.23685 
 6                    -9.05981   3.91583   11.0922 
 6                    -10.00528   2.88141   11.19975 
 6                    -10.18918   2.19161   12.39405 
 6                    -9.43011   2.52096   13.51707 
 6                    -8.49037   3.55136   13.43166 
 1                    -7.57754   5.05285   12.19923 
 1                    -10.5995   2.62095   10.32042 
 1                    -10.9181   1.37936   12.43965 
 1                    -9.55728   1.96721   14.45035 
 1                    -7.88708   3.81331   14.30427 
 6                    -8.91695   4.61711   9.81399 
 6                    -8.08812   5.64222   9.56377 
 1                    -9.59622   4.28961   9.01711 
 1                    -8.06197   6.1206    8.58268 
 1                    -7.38649   6.02316   10.31071 
 8                    -1.01568  -1.76541   7.46397 
 8                    -8.40465  -1.32293   7.46804 
 8                    -7.06039   1.33674   10.48696 
 8                    -2.33565  -4.34338   10.55888 
 74                   -3.43209   0.7443    6.50248 
 74                   -6.00915  -3.82266   6.58787 
 74                   -3.63681   0.91381   11.40296 
 74                   -5.77607  -3.8647    11.46821 
 74                   -2.46999  -2.54636   6.3812 
 74                   -6.95045  -0.53052   6.35145 
 74                   -6.83114  -0.25371   11.59467 
 74                   -2.57119  -2.69221   11.62684 
 8                    -3.2062    1.95224   5.34532 
 8                    -6.13791  -5.08599   5.4599 
 8                    -2.70552   1.76917   12.53818 
 8                    -6.70013  -4.67951   12.63917 
 8                    -2.69969  -0.86578   5.59388 
 8                    -6.71595  -2.2675    5.63381 
 8                    -5.32344   0.56274   12.36541 
 8                    -4.06852  -3.50754   12.40938 
 8                     0.29523  -0.00789   9.28162 
 8                    -9.71832  -3.01067   9.3414 
 8                    -6.40823   3.4146    8.62941 
 8                    -2.962    -6.44696   8.74018 
 8                    -1.8164    0.78335   7.48971 
 8                    -7.61045  -3.87459   7.5656 
 8                    -4.54114   2.21695   10.42172 
 8                    -4.86581  -5.21053   10.51951 
 8                    -1.65009  -3.47594   5.21949 
 8                    -7.81868   0.27059   5.14525 
 8                    -8.0361   -0.18485   12.78808 
 8                    -1.34178  -2.79318   12.79692 
 74                   -1.26607  -0.5151    8.84576 
 74                   -8.15946  -2.51091   8.88634 
 74                   -5.93685   1.85295   9.04556 
 74                   -3.47009  -4.88041   9.16286 
 8                    -4.23925  -3.09241   6.07529 
 8                    -5.17756  -0.03152   6.02027 
 8                    -6.1872   -1.99999   11.9204 
 8                    -3.19055  -0.94927   11.92544 
 8                    -4.40017   1.60118   7.84994 
 8                    -5.00257  -4.66994   7.93362 
 8                    -2.3429    0.59682   10.07627 
 8                    -7.06784  -3.60389   10.13632 
 8                    -2.57756  -3.8685    7.85872 
 8                    -6.85168   0.78873   7.80292 
 8                    -7.84773  -1.17085   10.16323 
 8                    -1.57261  -1.83709   10.1535 
 8                    -3.39034  -1.12363   8.0146 
 8                    -6.02983  -1.95641   8.04499 
 8                    -5.13065  -0.19836   9.95492 
 8                    -4.25834  -2.8206    9.98256 
 19                   -3.23685  -6.10585   5.67554 
 19                   -0.16316   0.03296   12.3397 
 19                   -9.25505  -2.92804   12.39743 
 23                   -4.70453  -1.52062   8.99575 
 

 GradGradGradGradGradGradGradGradGradGradGradGradGradGradGradGradGradGrad
 Berny optimization.
 Initialization pass.
 Trust Radius=3.00D-01 FncErr=1.00D-07 GrdErr=1.00D-07 EigMax=2.50D+02 EigMin=1.00D-04
 Number of steps in this run=      2 maximum allowed number of steps=      2.
 GradGradGradGradGradGradGradGradGradGradGradGradGradGradGradGradGradGrad

 Symmetry turned off by external request.
 Stoichiometry    C8H8ClK3O40VW12(1-)
 Framework group  C1[X(C8H8ClK3O40VW12)]
 Deg. of freedom   213
 Full point group                 C1      NOp   1
                          Input orientation:                          
 ---------------------------------------------------------------------
 Center     Atomic      Atomic             Coordinates (Angstroms)
 Number     Number       Type             X           Y           Z
 ---------------------------------------------------------------------
      1         17           0       -9.962132    7.809590   10.442728
      2          6           0       -8.309418    4.243501   12.236854
      3          6           0       -9.059814    3.915828   11.092205
      4          6           0      -10.005285    2.881415   11.199755
      5          6           0      -10.189181    2.191613   12.394050
      6          6           0       -9.430108    2.520961   13.517072
      7          6           0       -8.490370    3.551358   13.431661
      8          1           0       -7.577538    5.052851   12.199229
      9          1           0      -10.599499    2.620947   10.320416
     10          1           0      -10.918097    1.379363   12.439653
     11          1           0       -9.557280    1.967210   14.450349
     12          1           0       -7.887077    3.813310   14.304271
     13          6           0       -8.916953    4.617109    9.813989
     14          6           0       -8.088122    5.642216    9.563767
     15          1           0       -9.596216    4.289607    9.017114
     16          1           0       -8.061974    6.120596    8.582681
     17          1           0       -7.386488    6.023164   10.310705
     18          8           0       -1.015682   -1.765406    7.463970
     19          8           0       -8.404646   -1.322934    7.468045
     20          8           0       -7.060393    1.336740   10.486961
     21          8           0       -2.335646   -4.343383   10.558876
     22         74           0       -3.432093    0.744304    6.502476
     23         74           0       -6.009147   -3.822662    6.587866
     24         74           0       -3.636812    0.913808   11.402963
     25         74           0       -5.776073   -3.864698   11.468214
     26         74           0       -2.469993   -2.546361    6.381202
     27         74           0       -6.950448   -0.530516    6.351454
     28         74           0       -6.831135   -0.253706   11.594668
     29         74           0       -2.571195   -2.692207   11.626836
     30          8           0       -3.206197    1.952237    5.345325
     31          8           0       -6.137908   -5.085987    5.459897
     32          8           0       -2.705515    1.769171   12.538182
     33          8           0       -6.700131   -4.679509   12.639167
     34          8           0       -2.699692   -0.865782    5.593876
     35          8           0       -6.715951   -2.267497    5.633809
     36          8           0       -5.323441    0.562737   12.365408
     37          8           0       -4.068516   -3.507541   12.409384
     38          8           0        0.295231   -0.007890    9.281616
     39          8           0       -9.718320   -3.010667    9.341398
     40          8           0       -6.408232    3.414604    8.629407
     41          8           0       -2.962004   -6.446956    8.740179
     42          8           0       -1.816401    0.783350    7.489711
     43          8           0       -7.610450   -3.874588    7.565598
     44          8           0       -4.541141    2.216950   10.421721
     45          8           0       -4.865811   -5.210527   10.519506
     46          8           0       -1.650086   -3.475943    5.219494
     47          8           0       -7.818677    0.270589    5.145250
     48          8           0       -8.036098   -0.184853   12.788081
     49          8           0       -1.341784   -2.793180   12.796915
     50         74           0       -1.266071   -0.515102    8.845760
     51         74           0       -8.159462   -2.510907    8.886340
     52         74           0       -5.936850    1.852947    9.045559
     53         74           0       -3.470088   -4.880407    9.162857
     54          8           0       -4.239247   -3.092415    6.075289
     55          8           0       -5.177562   -0.031519    6.020273
     56          8           0       -6.187199   -1.999989   11.920397
     57          8           0       -3.190554   -0.949273   11.925445
     58          8           0       -4.400173    1.601183    7.849937
     59          8           0       -5.002567   -4.669943    7.933621
     60          8           0       -2.342900    0.596818   10.076274
     61          8           0       -7.067836   -3.603887   10.136318
     62          8           0       -2.577557   -3.868505    7.858718
     63          8           0       -6.851675    0.788733    7.802922
     64          8           0       -7.847727   -1.170851   10.163233
     65          8           0       -1.572610   -1.837087   10.153496
     66          8           0       -3.390344   -1.123631    8.014597
     67          8           0       -6.029828   -1.956406    8.044992
     68          8           0       -5.130655   -0.198365    9.954921
     69          8           0       -4.258339   -2.820596    9.982561
     70         19           0       -3.236853   -6.105851    5.675538
     71         19           0       -0.163161    0.032960   12.339697
     72         19           0       -9.255048   -2.928037   12.397428
     73         23           0       -4.704531   -1.520616    8.995753
 ---------------------------------------------------------------------
 Rotational constants (GHZ):           0.0172300           0.0133528           0.0131456
 Standard basis: def2SVP (5D, 7F)
  1217 basis functions,  2313 primitive gaussians,  1337 cartesian basis functions
   321 alpha electrons      321 beta electrons
       nuclear repulsion energy     21034.7500361011 Hartrees.
 NAtoms=   73 NActive=   73 NUniq=   73 SFac= 1.00D+00 NAtFMM=   60 NAOKFM=T Big=T
 Integral buffers will be    131072 words long.
 Raffenetti 2 integral format.
 Two-electron integral symmetry is turned off.
 Nuclear repulsion after empirical dispersion term =    21034.4718433911 Hartrees.
 Force PCM accuracy= 1.00D-10.
 ------------------------------------------------------------------------------
 Polarizable Continuum Model (PCM)
 =================================
 Model                : PCM (using non-symmetric T matrix).
 Atomic radii         : SMD-Coulomb.
 Polarization charges : Total charges.
 Charge compensation  : None.
 Solution method      : On-the-fly selection.
 Cavity type          : VdW (van der Waals Surface) (Alpha=1.000).
 Cavity algorithm     : GePol (No added spheres)
                        Default sphere list used, NSphG=   73.
                        Lebedev-Laikov grids with approx.  5.0 points / Ang**2.
                        Smoothing algorithm: York/Karplus (Gamma=1.0000).
                        Polarization charges: spherical gaussians, with
                                              point-specific exponents (IZeta= 3).
                        Self-potential: point-specific (ISelfS= 7).
                        Self-field    : sphere-specific E.n sum rule (ISelfD= 2).
 1st derivatives      : Analytical E(r).r(x)/FMM algorithm (CHGder, D1EAlg=3).
                        Cavity 1st derivative terms included.
 Solvent              : Acetonitrile, Eps=  35.688000 Eps(inf)=   1.806874
 ------------------------------------------------------------------------------
 ------------------------------------------------------------------------------
 Atomic radii for non-electrostatic terms: SMD-CDS.
 ------------------------------------------------------------------------------
 Nuclear repulsion after PCM non-electrostatic terms =    21034.4660376753 Hartrees.
 One-electron integrals computed using PRISM.
   1 Symmetry operations used in ECPInt.
 ECPInt:  NShTT=  127765 NPrTT=  468030 LenC2=   96879 LenP2D=  221836.
 LDataN:  DoStor=T MaxTD1= 8 Len=  415
 NBasis=  1217 RedAO= T EigKep=  1.35D-04  NBF=  1217
 NBsUse=  1217 1.00D-06 EigRej= -1.00D+00 NBFU=  1217
 Defaulting to unpruned grid for atomic number  74.
 Defaulting to unpruned grid for atomic number  74.
 Defaulting to unpruned grid for atomic number  74.
 Defaulting to unpruned grid for atomic number  74.
 Defaulting to unpruned grid for atomic number  74.
 Defaulting to unpruned grid for atomic number  74.
 Defaulting to unpruned grid for atomic number  74.
 Defaulting to unpruned grid for atomic number  74.
 Initial guess from the checkpoint file:  "b.chk"
 B after Tr=     0.000642   -0.000585    0.000072
         Rot=    1.000000   -0.000006    0.000007    0.000044 Ang=  -0.01 deg.
 Initial guess <Sx>= 0.0000 <Sy>= 0.0000 <Sz>= 0.0000 <S**2>= 1.0143 S= 0.6244
 Requested convergence on RMS density matrix=1.00D-08 within  64 cycles.
 Requested convergence on MAX density matrix=1.00D-06.
 Requested convergence on             energy=1.00D-06.
 No special actions if energy rises.
 Defaulting to unpruned grid for atomic number  74.
 Defaulting to unpruned grid for atomic number  74.
 Defaulting to unpruned grid for atomic number  74.
 Defaulting to unpruned grid for atomic number  74.
 Defaulting to unpruned grid for atomic number  74.
 Defaulting to unpruned grid for atomic number  74.
 Defaulting to unpruned grid for atomic number  74.
 Defaulting to unpruned grid for atomic number  74.
 Defaulting to unpruned grid for atomic number  74.
 Defaulting to unpruned grid for atomic number  74.
 Defaulting to unpruned grid for atomic number  74.
 Defaulting to unpruned grid for atomic number  74.
 Defaulting to unpruned grid for atomic number  74.
 Defaulting to unpruned grid for atomic number  74.
 Defaulting to unpruned grid for atomic number  74.
 Defaulting to unpruned grid for atomic number  74.
 Defaulting to unpruned grid for atomic number  74.
 Defaulting to unpruned grid for atomic number  74.
 Defaulting to unpruned grid for atomic number  74.
 Defaulting to unpruned grid for atomic number  74.
 Defaulting to unpruned grid for atomic number  74.
 Defaulting to unpruned grid for atomic number  74.
 Defaulting to unpruned grid for atomic number  74.
 Defaulting to unpruned grid for atomic number  74.
 Defaulting to unpruned grid for atomic number  74.
 Defaulting to unpruned grid for atomic number  74.
 Defaulting to unpruned grid for atomic number  74.
 Defaulting to unpruned grid for atomic number  74.
 Defaulting to unpruned grid for atomic number  74.
 Defaulting to unpruned grid for atomic number  74.
 Defaulting to unpruned grid for atomic number  74.
 Defaulting to unpruned grid for atomic number  74.
 Defaulting to unpruned grid for atomic number  74.
 Defaulting to unpruned grid for atomic number  74.
 Defaulting to unpruned grid for atomic number  74.
 Defaulting to unpruned grid for atomic number  74.
 Defaulting to unpruned grid for atomic number  74.
 Defaulting to unpruned grid for atomic number  74.
 Defaulting to unpruned grid for atomic number  74.
 Defaulting to unpruned grid for atomic number  74.
 Defaulting to unpruned grid for atomic number  74.
 Defaulting to unpruned grid for atomic number  74.
 Defaulting to unpruned grid for atomic number  74.
 Defaulting to unpruned grid for atomic number  74.
 Defaulting to unpruned grid for atomic number  74.
 Defaulting to unpruned grid for atomic number  74.
 Defaulting to unpruned grid for atomic number  74.
 Defaulting to unpruned grid for atomic number  74.
 Defaulting to unpruned grid for atomic number  74.
 Defaulting to unpruned grid for atomic number  74.
 Defaulting to unpruned grid for atomic number  74.
 Defaulting to unpruned grid for atomic number  74.
 Defaulting to unpruned grid for atomic number  74.
 Defaulting to unpruned grid for atomic number  74.
 Defaulting to unpruned grid for atomic number  74.
 Defaulting to unpruned grid for atomic number  74.
 Inv3:  Mode=1 IEnd=    85899603.
 Iteration    1 A*A^-1 deviation from unit magnitude is 3.55D-15 for   5059.
 Iteration    1 A*A^-1 deviation from orthogonality  is 2.76D-15 for    939    364.
 Iteration    1 A^-1*A deviation from unit magnitude is 3.33D-15 for   4119.
 Iteration    1 A^-1*A deviation from orthogonality  is 3.36D-10 for    975    919.
 Iteration    2 A*A^-1 deviation from unit magnitude is 4.88D-15 for   1249.
 Iteration    2 A*A^-1 deviation from orthogonality  is 8.08D-15 for    794    162.
 Iteration    2 A^-1*A deviation from unit magnitude is 1.33D-15 for   4471.
 Iteration    2 A^-1*A deviation from orthogonality  is 6.66D-16 for   4283    611.
 Restarting incremental Fock formation.
 Error on total polarization charges =  0.01564
 SCF Done:  E(UwB97XD) =  -7327.69993674     A.U. after   27 cycles
            NFock= 27  Conv=0.55D-09     -V/T= 2.0830
 <Sx>= 0.0000 <Sy>= 0.0000 <Sz>= 0.0000 <S**2>= 1.0139 S= 0.6243
 <L.S>=  0.00000000000    
 SMD-CDS (non-electrostatic) energy       (kcal/mol) =      -3.64
 (included in total energy above)
 Annihilation of the first spin contaminant:
 S**2 before annihilation     1.0139,   after     0.1122
 QCSCF skips out because SCF is already converged.

 **********************************************************************

            Population analysis using the SCF Density.

 **********************************************************************

 Alpha  occ. eigenvalues -- -197.10321-129.98995-129.98993-129.98944-101.61797
 Alpha  occ. eigenvalues --  -22.44029 -19.28478 -19.28475 -19.28430 -19.28399
 Alpha  occ. eigenvalues --  -19.28389 -19.28376 -19.28365 -19.28350 -19.28342
 Alpha  occ. eigenvalues --  -19.28239 -19.28219 -19.28163 -19.26978 -19.26919
 Alpha  occ. eigenvalues --  -19.26917 -19.26898 -19.26890 -19.26883 -19.26875
 Alpha  occ. eigenvalues --  -19.26857 -19.26855 -19.26838 -19.26828 -19.26819
 Alpha  occ. eigenvalues --  -19.26814 -19.26806 -19.26798 -19.26791 -19.26782
 Alpha  occ. eigenvalues --  -19.26761 -19.26748 -19.26745 -19.26728 -19.26723
 Alpha  occ. eigenvalues --  -19.26643 -19.26623 -19.24590 -19.24510 -19.24488
 Alpha  occ. eigenvalues --  -19.24451 -18.93602 -18.92518 -18.92464 -13.36401
 Alpha  occ. eigenvalues --  -13.36399 -13.36338 -10.69328 -10.69326 -10.69324
 Alpha  occ. eigenvalues --  -10.69323 -10.69321 -10.69321 -10.69267 -10.69262
 Alpha  occ. eigenvalues --  -10.69260 -10.32884 -10.32323 -10.31760 -10.30872
 Alpha  occ. eigenvalues --  -10.30854 -10.30783 -10.30481 -10.30373  -9.52201
 Alpha  occ. eigenvalues --   -7.27075  -7.26752  -7.26743  -3.21071  -3.21043
 Alpha  occ. eigenvalues --   -3.21041  -3.21040  -3.21010  -3.21002  -3.20992
 Alpha  occ. eigenvalues --   -3.20989  -3.20965  -3.20833  -3.20828  -3.20803
 Alpha  occ. eigenvalues --   -2.78453  -1.85311  -1.85277  -1.85259  -1.85227
 Alpha  occ. eigenvalues --   -1.85103  -1.85059  -1.85047  -1.85026  -1.85016
 Alpha  occ. eigenvalues --   -1.85006  -1.84972  -1.84926  -1.84381  -1.84269
 Alpha  occ. eigenvalues --   -1.84255  -1.84249  -1.84208  -1.84197  -1.84131
 Alpha  occ. eigenvalues --   -1.84115  -1.84088  -1.84085  -1.84056  -1.84051
 Alpha  occ. eigenvalues --   -1.83929  -1.83904  -1.83896  -1.83886  -1.83851
 Alpha  occ. eigenvalues --   -1.83810  -1.83797  -1.83791  -1.83774  -1.83675
 Alpha  occ. eigenvalues --   -1.83671  -1.83656  -1.81649  -1.81320  -1.81292
 Alpha  occ. eigenvalues --   -1.50112  -1.50109  -1.50050  -1.08634  -1.06998
 Alpha  occ. eigenvalues --   -1.06962  -1.06936  -1.06043  -1.06036  -1.06000
 Alpha  occ. eigenvalues --   -1.04604  -1.04592  -1.04580  -1.03994  -1.03971
 Alpha  occ. eigenvalues --   -1.03630  -1.03367  -1.03312  -1.03305  -1.03073
 Alpha  occ. eigenvalues --   -1.03047  -1.02221  -1.02199  -1.02170  -1.02077
 Alpha  occ. eigenvalues --   -1.02033  -1.02011  -1.01934  -1.01910  -1.01802
 Alpha  occ. eigenvalues --   -1.01779  -1.01763  -1.01636  -1.01578  -1.01568
 Alpha  occ. eigenvalues --   -1.01304  -1.00797  -1.00787  -1.00753  -1.00729
 Alpha  occ. eigenvalues --   -0.99915  -0.99837  -0.99764  -0.96065  -0.89266
 Alpha  occ. eigenvalues --   -0.85567  -0.85561  -0.85514  -0.85402  -0.85401
 Alpha  occ. eigenvalues --   -0.85399  -0.85397  -0.85347  -0.85331  -0.84131
 Alpha  occ. eigenvalues --   -0.82360  -0.80736  -0.71815  -0.69502  -0.64973
 Alpha  occ. eigenvalues --   -0.62365  -0.61742  -0.61703  -0.61657  -0.60562
 Alpha  occ. eigenvalues --   -0.59028  -0.59012  -0.58995  -0.58913  -0.58859
 Alpha  occ. eigenvalues --   -0.58794  -0.58782  -0.58736  -0.58589  -0.57331
 Alpha  occ. eigenvalues --   -0.57294  -0.57256  -0.57012  -0.56746  -0.56499
 Alpha  occ. eigenvalues --   -0.56466  -0.56430  -0.56007  -0.55840  -0.55373
 Alpha  occ. eigenvalues --   -0.55365  -0.55328  -0.54341  -0.54223  -0.54185
 Alpha  occ. eigenvalues --   -0.54016  -0.53648  -0.53601  -0.53582  -0.52731
 Alpha  occ. eigenvalues --   -0.52643  -0.52636  -0.52548  -0.52504  -0.51511
 Alpha  occ. eigenvalues --   -0.51491  -0.51490  -0.51359  -0.51319  -0.50680
 Alpha  occ. eigenvalues --   -0.50606  -0.50521  -0.50487  -0.50378  -0.50333
 Alpha  occ. eigenvalues --   -0.50246  -0.50073  -0.50062  -0.50006  -0.49772
 Alpha  occ. eigenvalues --   -0.49733  -0.49670  -0.49481  -0.49447  -0.49285
 Alpha  occ. eigenvalues --   -0.49232  -0.49203  -0.49114  -0.49081  -0.48987
 Alpha  occ. eigenvalues --   -0.48774  -0.48601  -0.48590  -0.48524  -0.47733
 Alpha  occ. eigenvalues --   -0.47717  -0.47106  -0.46498  -0.46021  -0.46005
 Alpha  occ. eigenvalues --   -0.45812  -0.45758  -0.45700  -0.45617  -0.45211
 Alpha  occ. eigenvalues --   -0.45133  -0.45131  -0.44842  -0.44632  -0.44497
 Alpha  occ. eigenvalues --   -0.44467  -0.44446  -0.44266  -0.44256  -0.44228
 Alpha  occ. eigenvalues --   -0.43358  -0.43023  -0.42535  -0.42501  -0.42452
 Alpha  occ. eigenvalues --   -0.42283  -0.42166  -0.42160  -0.42033  -0.41638
 Alpha  occ. eigenvalues --   -0.41610  -0.41567  -0.41033  -0.40997  -0.40813
 Alpha  occ. eigenvalues --   -0.40769  -0.40732  -0.40412  -0.40396  -0.40372
 Alpha  occ. eigenvalues --   -0.40216  -0.40183  -0.40181  -0.40157  -0.39894
 Alpha  occ. eigenvalues --   -0.39325  -0.39238  -0.39208  -0.39154  -0.38981
 Alpha  occ. eigenvalues --   -0.38903  -0.38888  -0.38821  -0.38695  -0.38672
 Alpha  occ. eigenvalues --   -0.38344  -0.38315  -0.38277  -0.37842  -0.37202
 Alpha  occ. eigenvalues --   -0.37183  -0.34479  -0.34452  -0.33523  -0.30158
 Alpha  occ. eigenvalues --   -0.25336
 Alpha virt. eigenvalues --   -0.11541  -0.06252  -0.06233  -0.04779  -0.04732
 Alpha virt. eigenvalues --   -0.04631  -0.01430  -0.01344  -0.01303  -0.01101
 Alpha virt. eigenvalues --   -0.00926  -0.00907  -0.00838  -0.00147  -0.00049
 Alpha virt. eigenvalues --   -0.00028   0.00718   0.00732   0.00784   0.00959
 Alpha virt. eigenvalues --    0.01040   0.01486   0.01863   0.01913   0.01941
 Alpha virt. eigenvalues --    0.02493   0.02767   0.02828   0.02877   0.03537
 Alpha virt. eigenvalues --    0.03649   0.03750   0.03930   0.03996   0.04344
 Alpha virt. eigenvalues --    0.04380   0.04433   0.04454   0.04657   0.05092
 Alpha virt. eigenvalues --    0.05144   0.06074   0.06474   0.08129   0.08339
 Alpha virt. eigenvalues --    0.08490   0.08647   0.08876   0.08909   0.09465
 Alpha virt. eigenvalues --    0.09812   0.09885   0.09892   0.09936   0.10018
 Alpha virt. eigenvalues --    0.10110   0.10198   0.10380   0.10870   0.10985
 Alpha virt. eigenvalues --    0.11555   0.11660   0.11971   0.12230   0.12282
 Alpha virt. eigenvalues --    0.12428   0.12468   0.12502   0.12886   0.13326
 Alpha virt. eigenvalues --    0.13447   0.13669   0.14044   0.14301   0.14834
 Alpha virt. eigenvalues --    0.14991   0.15051   0.15236   0.15409   0.15855
 Alpha virt. eigenvalues --    0.16153   0.16801   0.17131   0.17783   0.17899
 Alpha virt. eigenvalues --    0.18299   0.18476   0.18600   0.18791   0.18983
 Alpha virt. eigenvalues --    0.19301   0.19390   0.19490   0.19596   0.19637
 Alpha virt. eigenvalues --    0.19691   0.19996   0.20077   0.20712   0.20946
 Alpha virt. eigenvalues --    0.21173   0.21327   0.21412   0.21581   0.21648
 Alpha virt. eigenvalues --    0.21697   0.21956   0.21998   0.22164   0.22316
 Alpha virt. eigenvalues --    0.22423   0.22838   0.23206   0.23304   0.23378
 Alpha virt. eigenvalues --    0.23473   0.23644   0.23836   0.24113   0.24339
 Alpha virt. eigenvalues --    0.24560   0.24733   0.24793   0.25093   0.25246
 Alpha virt. eigenvalues --    0.25529   0.25585   0.25706   0.26344   0.26820
 Alpha virt. eigenvalues --    0.26894   0.27242   0.27394   0.27700   0.27975
 Alpha virt. eigenvalues --    0.28048   0.28443   0.28747   0.28799   0.29156
 Alpha virt. eigenvalues --    0.29322   0.29348   0.29451   0.29608   0.29761
 Alpha virt. eigenvalues --    0.30251   0.30643   0.31083   0.31338   0.31663
 Alpha virt. eigenvalues --    0.31794   0.32418   0.32601   0.32795   0.33344
 Alpha virt. eigenvalues --    0.33763   0.34445   0.35639   0.36920   0.37116
 Alpha virt. eigenvalues --    0.38207   0.38744   0.39016   0.39322   0.39617
 Alpha virt. eigenvalues --    0.40421   0.41398   0.41814   0.41954   0.42042
 Alpha virt. eigenvalues --    0.42262   0.42525   0.42638   0.43349   0.43998
 Alpha virt. eigenvalues --    0.44311   0.44500   0.44962   0.45346   0.45568
 Alpha virt. eigenvalues --    0.45635   0.45779   0.46038   0.46491   0.46712
 Alpha virt. eigenvalues --    0.46989   0.47194   0.47707   0.47911   0.48265
 Alpha virt. eigenvalues --    0.48397   0.48521   0.48732   0.49028   0.49067
 Alpha virt. eigenvalues --    0.49368   0.49804   0.49960   0.50011   0.50055
 Alpha virt. eigenvalues --    0.50143   0.50366   0.50561   0.50616   0.50881
 Alpha virt. eigenvalues --    0.51256   0.51377   0.51707   0.51784   0.52106
 Alpha virt. eigenvalues --    0.52498   0.52862   0.52939   0.53083   0.53444
 Alpha virt. eigenvalues --    0.53762   0.54054   0.54400   0.54420   0.54646
 Alpha virt. eigenvalues --    0.54766   0.55572   0.56062   0.56096   0.56424
 Alpha virt. eigenvalues --    0.56649   0.57066   0.57173   0.57357   0.57782
 Alpha virt. eigenvalues --    0.58652   0.58827   0.59072   0.59474   0.59815
 Alpha virt. eigenvalues --    0.60211   0.60632   0.60998   0.61359   0.61830
 Alpha virt. eigenvalues --    0.62049   0.62870   0.63710   0.64089   0.64779
 Alpha virt. eigenvalues --    0.65092   0.66434   0.66660   0.66697   0.66970
 Alpha virt. eigenvalues --    0.68222   0.68380   0.68698   0.68990   0.69533
 Alpha virt. eigenvalues --    0.69817   0.70298   0.71045   0.71468   0.71831
 Alpha virt. eigenvalues --    0.72249   0.72644   0.72906   0.72969   0.73264
 Alpha virt. eigenvalues --    0.73333   0.73568   0.73644   0.73820   0.73972
 Alpha virt. eigenvalues --    0.74324   0.74348   0.75203   0.75630   0.75840
 Alpha virt. eigenvalues --    0.76235   0.76940   0.77292   0.77978   0.78489
 Alpha virt. eigenvalues --    0.79057   0.79734   0.80082   0.80437   0.80736
 Alpha virt. eigenvalues --    0.80993   0.81134   0.82079   0.82249   0.82628
 Alpha virt. eigenvalues --    0.83051   0.83495   0.84064   0.84270   0.84482
 Alpha virt. eigenvalues --    0.84730   0.85294   0.85672   0.86594   0.87405
 Alpha virt. eigenvalues --    0.88025   0.88753   0.89386   0.89858   0.90200
 Alpha virt. eigenvalues --    0.90497   0.90704   0.91209   0.91766   0.91941
 Alpha virt. eigenvalues --    0.92013   0.92473   0.92867   0.92899   0.93189
 Alpha virt. eigenvalues --    0.93231   0.93433   0.93555   0.93978   0.94391
 Alpha virt. eigenvalues --    0.95048   0.95418   0.95870   0.96673   0.97096
 Alpha virt. eigenvalues --    0.97208   0.97321   0.97754   0.98249   0.99093
 Alpha virt. eigenvalues --    0.99316   0.99534   0.99719   1.00074   1.00418
 Alpha virt. eigenvalues --    1.00589   1.00725   1.00824   1.01044   1.01174
 Alpha virt. eigenvalues --    1.01227   1.01380   1.01859   1.02320   1.02775
 Alpha virt. eigenvalues --    1.02842   1.03290   1.03417   1.03689   1.03910
 Alpha virt. eigenvalues --    1.04351   1.04565   1.04768   1.04886   1.05206
 Alpha virt. eigenvalues --    1.05277   1.05518   1.05665   1.06177   1.06650
 Alpha virt. eigenvalues --    1.07123   1.07139   1.07384   1.07472   1.07577
 Alpha virt. eigenvalues --    1.07809   1.08137   1.08336   1.08582   1.08881
 Alpha virt. eigenvalues --    1.09035   1.09270   1.09464   1.10267   1.10973
 Alpha virt. eigenvalues --    1.11220   1.11468   1.11940   1.12157   1.12380
 Alpha virt. eigenvalues --    1.12426   1.12899   1.13045   1.13252   1.13383
 Alpha virt. eigenvalues --    1.13451   1.13705   1.13872   1.14276   1.14478
 Alpha virt. eigenvalues --    1.14874   1.15198   1.15376   1.15644   1.16288
 Alpha virt. eigenvalues --    1.16921   1.17646   1.18048   1.18350   1.18631
 Alpha virt. eigenvalues --    1.18858   1.19777   1.19892   1.20120   1.20526
 Alpha virt. eigenvalues --    1.21007   1.22069   1.22757   1.22863   1.22909
 Alpha virt. eigenvalues --    1.23256   1.23495   1.23795   1.23937   1.24785
 Alpha virt. eigenvalues --    1.25195   1.25638   1.27111   1.27678   1.27991
 Alpha virt. eigenvalues --    1.28369   1.29056   1.29533   1.30172   1.30377
 Alpha virt. eigenvalues --    1.30672   1.30902   1.31053   1.31139   1.31687
 Alpha virt. eigenvalues --    1.31898   1.31936   1.32107   1.32350   1.32559
 Alpha virt. eigenvalues --    1.32747   1.32798   1.33135   1.33375   1.34070
 Alpha virt. eigenvalues --    1.34945   1.35150   1.35499   1.35527   1.35791
 Alpha virt. eigenvalues --    1.35854   1.36349   1.36452   1.36719   1.36890
 Alpha virt. eigenvalues --    1.37018   1.37425   1.37991   1.38056   1.38260
 Alpha virt. eigenvalues --    1.38459   1.38674   1.38920   1.39020   1.39193
 Alpha virt. eigenvalues --    1.39421   1.39523   1.39722   1.39794   1.39919
 Alpha virt. eigenvalues --    1.40151   1.40341   1.40767   1.41012   1.41169
 Alpha virt. eigenvalues --    1.41221   1.41308   1.41704   1.41803   1.41940
 Alpha virt. eigenvalues --    1.42246   1.42573   1.42638   1.42760   1.43164
 Alpha virt. eigenvalues --    1.43237   1.43475   1.43734   1.43800   1.44393
 Alpha virt. eigenvalues --    1.44680   1.45011   1.45160   1.45487   1.45598
 Alpha virt. eigenvalues --    1.45748   1.46042   1.46505   1.46804   1.47632
 Alpha virt. eigenvalues --    1.48120   1.48199   1.49639   1.49811   1.49925
 Alpha virt. eigenvalues --    1.50395   1.50976   1.51833   1.52364   1.52513
 Alpha virt. eigenvalues --    1.52731   1.53148   1.53536   1.53843   1.55410
 Alpha virt. eigenvalues --    1.55499   1.57510   1.58084   1.58170   1.58342
 Alpha virt. eigenvalues --    1.58614   1.58973   1.59177   1.59580   1.60167
 Alpha virt. eigenvalues --    1.60748   1.61038   1.61556   1.61743   1.62120
 Alpha virt. eigenvalues --    1.62344   1.62644   1.63020   1.63469   1.64115
 Alpha virt. eigenvalues --    1.64727   1.64871   1.65063   1.65604   1.65913
 Alpha virt. eigenvalues --    1.66130   1.66892   1.68095   1.68576   1.69838
 Alpha virt. eigenvalues --    1.70427   1.70764   1.71129   1.72680   1.73114
 Alpha virt. eigenvalues --    1.73385   1.73517   1.74176   1.74505   1.75051
 Alpha virt. eigenvalues --    1.75895   1.76459   1.77698   1.77913   1.78164
 Alpha virt. eigenvalues --    1.78601   1.78886   1.79136   1.79574   1.79748
 Alpha virt. eigenvalues --    1.80117   1.81092   1.81173   1.81607   1.81760
 Alpha virt. eigenvalues --    1.82438   1.82797   1.83815   1.84059   1.84205
 Alpha virt. eigenvalues --    1.84634   1.85148   1.85298   1.85751   1.86137
 Alpha virt. eigenvalues --    1.86353   1.86744   1.86926   1.87480   1.87874
 Alpha virt. eigenvalues --    1.88561   1.88689   1.89175   1.89281   1.89483
 Alpha virt. eigenvalues --    1.90092   1.90493   1.91524   1.92044   1.92667
 Alpha virt. eigenvalues --    1.92973   1.93403   1.93715   1.93878   1.94967
 Alpha virt. eigenvalues --    1.96295   1.96951   1.97609   1.97807   1.98528
 Alpha virt. eigenvalues --    1.98885   2.01846   2.01980   2.02027   2.03875
 Alpha virt. eigenvalues --    2.05262   2.06089   2.07329   2.08418   2.08955
 Alpha virt. eigenvalues --    2.10764   2.11098   2.11621   2.12413   2.13068
 Alpha virt. eigenvalues --    2.14036   2.14911   2.14989   2.15674   2.17870
 Alpha virt. eigenvalues --    2.18440   2.18708   2.19418   2.19950   2.20524
 Alpha virt. eigenvalues --    2.20793   2.21225   2.21808   2.24803   2.26286
 Alpha virt. eigenvalues --    2.26560   2.26934   2.27723   2.28839   2.29901
 Alpha virt. eigenvalues --    2.30133   2.30708   2.32130   2.32252   2.32731
 Alpha virt. eigenvalues --    2.33029   2.33762   2.33865   2.34544   2.34784
 Alpha virt. eigenvalues --    2.34986   2.39048   2.39941   2.42153   2.42872
 Alpha virt. eigenvalues --    2.43344   2.48374   2.49483   2.54995   2.65787
 Alpha virt. eigenvalues --    2.67005   2.67074   2.67095   2.67196   2.67954
 Alpha virt. eigenvalues --    2.68441   2.69128   2.69202   2.69281   2.69532
 Alpha virt. eigenvalues --    2.69608   2.69717   2.69801   2.69868   2.70050
 Alpha virt. eigenvalues --    2.70085   2.70150   2.70627   2.70688   2.70737
 Alpha virt. eigenvalues --    2.70790   2.70847   2.71172   2.71449   2.71594
 Alpha virt. eigenvalues --    2.71667   2.72008   2.72756   2.72820   2.72970
 Alpha virt. eigenvalues --    2.73245   2.73278   2.73486   2.73610   2.73771
 Alpha virt. eigenvalues --    2.74109   2.74236   2.74290   2.74331   2.75365
 Alpha virt. eigenvalues --    2.75386   2.75510   2.75626   2.75661   2.75670
 Alpha virt. eigenvalues --    2.75803   2.75842   2.75963   2.76073   2.76166
 Alpha virt. eigenvalues --    2.76228   2.76354   2.76435   2.76891   2.77351
 Alpha virt. eigenvalues --    2.77379   2.77690   2.78072   2.78373   2.78454
 Alpha virt. eigenvalues --    2.78659   2.79065   2.79443   2.79545   2.79603
 Alpha virt. eigenvalues --    2.79740   2.79881   2.80171   2.80396   2.81132
 Alpha virt. eigenvalues --    2.82208   2.82366   2.82513   2.82700   2.82745
 Alpha virt. eigenvalues --    2.82960   2.83052   2.83483   2.83902   2.84756
 Alpha virt. eigenvalues --    2.84859   2.85160   2.85301   2.85659   2.85763
 Alpha virt. eigenvalues --    2.85914   2.86041   2.86391   2.87319   2.87575
 Alpha virt. eigenvalues --    2.87698   2.88545   2.88613   2.88692   2.88753
 Alpha virt. eigenvalues --    2.88825   2.89520   2.89571   2.89635   2.90398
 Alpha virt. eigenvalues --    2.91112   2.91296   2.92180   2.92205   2.92347
 Alpha virt. eigenvalues --    2.92752   2.92757   2.92897   2.93228   2.93280
 Alpha virt. eigenvalues --    2.93823   2.94188   2.94571   2.94642   2.94846
 Alpha virt. eigenvalues --    2.94937   2.94981   2.95254   2.95563   2.95855
 Alpha virt. eigenvalues --    2.96061   2.96214   2.96283   2.96443   2.96542
 Alpha virt. eigenvalues --    2.96726   2.96819   2.96972   2.97096   2.97353
 Alpha virt. eigenvalues --    2.97496   2.98123   2.98249   2.98379   2.99245
 Alpha virt. eigenvalues --    2.99282   2.99557   2.99603   2.99859   2.99927
 Alpha virt. eigenvalues --    3.00097   3.00325   3.00614   3.00874   3.00932
 Alpha virt. eigenvalues --    3.01594   3.01707   3.01865   3.02301   3.02451
 Alpha virt. eigenvalues --    3.02663   3.02895   3.03306   3.04109   3.07234
 Alpha virt. eigenvalues --    3.08858   3.08910   3.08963   3.09115   3.09398
 Alpha virt. eigenvalues --    3.09993   3.10393   3.10555   3.10615   3.14175
 Alpha virt. eigenvalues --    3.14323   3.14392   3.15021   3.15258   3.15393
 Alpha virt. eigenvalues --    3.16794   3.16852   3.17104   3.22369   3.28209
 Alpha virt. eigenvalues --    3.29240   3.29412   3.30419   3.42796   3.43411
 Alpha virt. eigenvalues --    3.44338   3.44702   3.46111   3.46669   3.46853
 Alpha virt. eigenvalues --    3.47746   3.48026   3.48198   3.49230   3.49279
 Alpha virt. eigenvalues --    3.49618   3.53502   3.53972   3.54597   3.55721
 Alpha virt. eigenvalues --    3.55929   3.56534   3.56918   3.57186   3.57232
 Alpha virt. eigenvalues --    3.57393   3.57545   3.57786   3.58911   3.59767
 Alpha virt. eigenvalues --    3.60194   3.61304   3.61667   3.61985   3.62650
 Alpha virt. eigenvalues --    3.62860   3.63434   3.63932   3.64266   3.64843
 Alpha virt. eigenvalues --    3.73265   3.77712  68.66719  68.67721  68.68981
 Alpha virt. eigenvalues --   68.71268  68.75078  68.75978  68.83788  68.84912
 Alpha virt. eigenvalues --   68.85432  68.88290  68.89362  68.90579 576.25169
 Alpha virt. eigenvalues --  576.26148 576.27383 576.29618 576.33443 576.34320
 Alpha virt. eigenvalues --  576.41986 576.43096 576.43593 576.46348 576.47404
 Alpha virt. eigenvalues --  576.48606
  Beta  occ. eigenvalues -- -197.10304-129.98995-129.98993-129.98944-101.62198
  Beta  occ. eigenvalues --  -22.42769 -19.28480 -19.28476 -19.28432 -19.28393
  Beta  occ. eigenvalues --  -19.28385 -19.28370 -19.28358 -19.28344 -19.28336
  Beta  occ. eigenvalues --  -19.28253 -19.28220 -19.28157 -19.26979 -19.26919
  Beta  occ. eigenvalues --  -19.26917 -19.26898 -19.26890 -19.26882 -19.26875
  Beta  occ. eigenvalues --  -19.26858 -19.26853 -19.26838 -19.26826 -19.26819
  Beta  occ. eigenvalues --  -19.26814 -19.26807 -19.26800 -19.26792 -19.26783
  Beta  occ. eigenvalues --  -19.26762 -19.26748 -19.26745 -19.26729 -19.26727
  Beta  occ. eigenvalues --  -19.26642 -19.26622 -19.24566 -19.24484 -19.24469
  Beta  occ. eigenvalues --  -19.24425 -18.93259 -18.91083 -18.90978 -13.36401
  Beta  occ. eigenvalues --  -13.36399 -13.36338 -10.69328 -10.69326 -10.69324
  Beta  occ. eigenvalues --  -10.69323 -10.69321 -10.69321 -10.69267 -10.69262
  Beta  occ. eigenvalues --  -10.69260 -10.33139 -10.32500 -10.31711 -10.30962
  Beta  occ. eigenvalues --  -10.30958 -10.30870 -10.30431 -10.30321  -9.52650
  Beta  occ. eigenvalues --   -7.28484  -7.27059  -7.27050  -3.21071  -3.21041
  Beta  occ. eigenvalues --   -3.21040  -3.21036  -3.21004  -3.20996  -3.20986
  Beta  occ. eigenvalues --   -3.20983  -3.20959  -3.20830  -3.20827  -3.20797
  Beta  occ. eigenvalues --   -2.74403  -1.85306  -1.85271  -1.85255  -1.85218
  Beta  occ. eigenvalues --   -1.85098  -1.85053  -1.85042  -1.85020  -1.85008
  Beta  occ. eigenvalues --   -1.84996  -1.84968  -1.84918  -1.84379  -1.84267
  Beta  occ. eigenvalues --   -1.84252  -1.84246  -1.84205  -1.84194  -1.84129
  Beta  occ. eigenvalues --   -1.84113  -1.84085  -1.84083  -1.84053  -1.84047
  Beta  occ. eigenvalues --   -1.83927  -1.83900  -1.83893  -1.83883  -1.83848
  Beta  occ. eigenvalues --   -1.83807  -1.83794  -1.83788  -1.83771  -1.83674
  Beta  occ. eigenvalues --   -1.83669  -1.83654  -1.80318  -1.75689  -1.75462
  Beta  occ. eigenvalues --   -1.50112  -1.50109  -1.50050  -1.08617  -1.06978
  Beta  occ. eigenvalues --   -1.06944  -1.06911  -1.06041  -1.06035  -1.05998
  Beta  occ. eigenvalues --   -1.04604  -1.04591  -1.04582  -1.03994  -1.03973
  Beta  occ. eigenvalues --   -1.03564  -1.03337  -1.03283  -1.03270  -1.03072
  Beta  occ. eigenvalues --   -1.03040  -1.02203  -1.02176  -1.02154  -1.02067
  Beta  occ. eigenvalues --   -1.02029  -1.01998  -1.01931  -1.01901  -1.01799
  Beta  occ. eigenvalues --   -1.01776  -1.01760  -1.01639  -1.01574  -1.01553
  Beta  occ. eigenvalues --   -1.01304  -1.00795  -1.00765  -1.00748  -1.00715
  Beta  occ. eigenvalues --   -0.99780  -0.99679  -0.99635  -0.96270  -0.89969
  Beta  occ. eigenvalues --   -0.85567  -0.85561  -0.85514  -0.85402  -0.85401
  Beta  occ. eigenvalues --   -0.85399  -0.85397  -0.85347  -0.85331  -0.84298
  Beta  occ. eigenvalues --   -0.84139  -0.82704  -0.72084  -0.69612  -0.65219
  Beta  occ. eigenvalues --   -0.62365  -0.61741  -0.61702  -0.61656  -0.60752
  Beta  occ. eigenvalues --   -0.59027  -0.59009  -0.58993  -0.58846  -0.58793
  Beta  occ. eigenvalues --   -0.58771  -0.58758  -0.58713  -0.58589  -0.57309
  Beta  occ. eigenvalues --   -0.57140  -0.57091  -0.57000  -0.56900  -0.56499
  Beta  occ. eigenvalues --   -0.56440  -0.56395  -0.55796  -0.55607  -0.55355
  Beta  occ. eigenvalues --   -0.55345  -0.55326  -0.54512  -0.54218  -0.54178
  Beta  occ. eigenvalues --   -0.54008  -0.53626  -0.53578  -0.53534  -0.52777
  Beta  occ. eigenvalues --   -0.52662  -0.52630  -0.52535  -0.52497  -0.51490
  Beta  occ. eigenvalues --   -0.51483  -0.51469  -0.51324  -0.51261  -0.50866
  Beta  occ. eigenvalues --   -0.50494  -0.50464  -0.50411  -0.50325  -0.50295
  Beta  occ. eigenvalues --   -0.50208  -0.50069  -0.50033  -0.49977  -0.49729
  Beta  occ. eigenvalues --   -0.49693  -0.49646  -0.49473  -0.49436  -0.49287
  Beta  occ. eigenvalues --   -0.49218  -0.49197  -0.49087  -0.49072  -0.48966
  Beta  occ. eigenvalues --   -0.48769  -0.48612  -0.48591  -0.48517  -0.47796
  Beta  occ. eigenvalues --   -0.47700  -0.47570  -0.45910  -0.45875  -0.45804
  Beta  occ. eigenvalues --   -0.45764  -0.45675  -0.45563  -0.45212  -0.45160
  Beta  occ. eigenvalues --   -0.45133  -0.45058  -0.44843  -0.44632  -0.44470
  Beta  occ. eigenvalues --   -0.44462  -0.44412  -0.44249  -0.44221  -0.44201
  Beta  occ. eigenvalues --   -0.43351  -0.43117  -0.42516  -0.42454  -0.42414
  Beta  occ. eigenvalues --   -0.42259  -0.42121  -0.42111  -0.42097  -0.41627
  Beta  occ. eigenvalues --   -0.41614  -0.41546  -0.41390  -0.41037  -0.40950
  Beta  occ. eigenvalues --   -0.40742  -0.40715  -0.40667  -0.40391  -0.40381
  Beta  occ. eigenvalues --   -0.40346  -0.40181  -0.40176  -0.40131  -0.39835
  Beta  occ. eigenvalues --   -0.39602  -0.39322  -0.39177  -0.39087  -0.39085
  Beta  occ. eigenvalues --   -0.38888  -0.38852  -0.38794  -0.38678  -0.38644
  Beta  occ. eigenvalues --   -0.38551  -0.38341  -0.38304  -0.38266  -0.37273
  Beta  occ. eigenvalues --   -0.37204  -0.37170  -0.35405  -0.35380  -0.33767
  Beta  occ. eigenvalues --   -0.30677
  Beta virt. eigenvalues --   -0.06251  -0.06233  -0.04778  -0.04731  -0.04629
  Beta virt. eigenvalues --   -0.01426  -0.01339  -0.01298  -0.01096  -0.00922
  Beta virt. eigenvalues --   -0.00904  -0.00836  -0.00148  -0.00040  -0.00022
  Beta virt. eigenvalues --    0.00723   0.00740   0.00793   0.00920   0.01052
  Beta virt. eigenvalues --    0.01597   0.01931   0.01938   0.01950   0.02503
  Beta virt. eigenvalues --    0.02787   0.02862   0.03105   0.03561   0.03750
  Beta virt. eigenvalues --    0.03846   0.04068   0.04104   0.04346   0.04387
  Beta virt. eigenvalues --    0.04451   0.04459   0.04664   0.05094   0.05157
  Beta virt. eigenvalues --    0.05723   0.06493   0.07526   0.08513   0.08597
  Beta virt. eigenvalues --    0.08645   0.08716   0.09405   0.09554   0.09708
  Beta virt. eigenvalues --    0.09886   0.09916   0.10050   0.10142   0.10162
  Beta virt. eigenvalues --    0.10250   0.10389   0.10782   0.10885   0.10993
  Beta virt. eigenvalues --    0.11490   0.11638   0.11721   0.12009   0.12245
  Beta virt. eigenvalues --    0.12417   0.12471   0.12526   0.12549   0.13343
  Beta virt. eigenvalues --    0.13462   0.13668   0.14025   0.14291   0.14902
  Beta virt. eigenvalues --    0.15042   0.15149   0.15263   0.15406   0.15857
  Beta virt. eigenvalues --    0.16131   0.16760   0.17144   0.17777   0.17885
  Beta virt. eigenvalues --    0.18285   0.18477   0.18645   0.18801   0.18993
  Beta virt. eigenvalues --    0.19349   0.19438   0.19573   0.19610   0.19663
  Beta virt. eigenvalues --    0.20044   0.20074   0.20401   0.20722   0.20949
  Beta virt. eigenvalues --    0.21172   0.21326   0.21407   0.21586   0.21661
  Beta virt. eigenvalues --    0.21704   0.21981   0.22004   0.22169   0.22340
  Beta virt. eigenvalues --    0.22407   0.22838   0.23182   0.23311   0.23369
  Beta virt. eigenvalues --    0.23465   0.23655   0.23805   0.24071   0.24301
  Beta virt. eigenvalues --    0.24534   0.24698   0.24799   0.25056   0.25244
  Beta virt. eigenvalues --    0.25519   0.25588   0.25668   0.26238   0.26822
  Beta virt. eigenvalues --    0.26895   0.27238   0.27381   0.27667   0.27974
  Beta virt. eigenvalues --    0.28040   0.28400   0.28749   0.28798   0.29125
  Beta virt. eigenvalues --    0.29348   0.29355   0.29439   0.29612   0.29761
  Beta virt. eigenvalues --    0.30258   0.30643   0.31077   0.31344   0.31662
  Beta virt. eigenvalues --    0.31797   0.32423   0.32604   0.32799   0.33368
  Beta virt. eigenvalues --    0.33731   0.34442   0.35426   0.36911   0.37092
  Beta virt. eigenvalues --    0.38184   0.38858   0.39016   0.39347   0.39621
  Beta virt. eigenvalues --    0.40348   0.41386   0.41853   0.42021   0.42121
  Beta virt. eigenvalues --    0.42270   0.42520   0.42770   0.43365   0.44082
  Beta virt. eigenvalues --    0.44337   0.44568   0.44986   0.45301   0.45563
  Beta virt. eigenvalues --    0.45702   0.45849   0.45979   0.46486   0.46564
  Beta virt. eigenvalues --    0.46983   0.47159   0.47666   0.47899   0.48247
  Beta virt. eigenvalues --    0.48381   0.48392   0.48720   0.49009   0.49066
  Beta virt. eigenvalues --    0.49358   0.49777   0.49885   0.49960   0.50060
  Beta virt. eigenvalues --    0.50140   0.50370   0.50562   0.50608   0.50831
  Beta virt. eigenvalues --    0.51248   0.51374   0.51686   0.51776   0.52092
  Beta virt. eigenvalues --    0.52499   0.52814   0.52905   0.53071   0.53408
  Beta virt. eigenvalues --    0.53740   0.54023   0.54374   0.54412   0.54646
  Beta virt. eigenvalues --    0.54752   0.55528   0.56076   0.56161   0.56439
  Beta virt. eigenvalues --    0.56627   0.57077   0.57163   0.57294   0.57764
  Beta virt. eigenvalues --    0.58539   0.58838   0.59053   0.59478   0.59638
  Beta virt. eigenvalues --    0.60134   0.60699   0.60807   0.61290   0.61821
  Beta virt. eigenvalues --    0.62052   0.62796   0.63598   0.64262   0.64730
  Beta virt. eigenvalues --    0.65102   0.66318   0.66650   0.66691   0.66817
  Beta virt. eigenvalues --    0.68123   0.68187   0.68403   0.68894   0.69084
  Beta virt. eigenvalues --    0.69906   0.70444   0.70661   0.71447   0.71861
  Beta virt. eigenvalues --    0.72157   0.72626   0.72834   0.72899   0.73237
  Beta virt. eigenvalues --    0.73337   0.73535   0.73628   0.73721   0.73862
  Beta virt. eigenvalues --    0.74198   0.74298   0.74898   0.75548   0.75606
  Beta virt. eigenvalues --    0.76223   0.76934   0.77346   0.77850   0.78366
  Beta virt. eigenvalues --    0.79092   0.79661   0.80152   0.80638   0.80940
  Beta virt. eigenvalues --    0.81112   0.81362   0.82064   0.82275   0.82592
  Beta virt. eigenvalues --    0.83050   0.83441   0.84039   0.84289   0.84350
  Beta virt. eigenvalues --    0.84741   0.85295   0.85673   0.86603   0.87374
  Beta virt. eigenvalues --    0.87793   0.88525   0.88902   0.89717   0.89959
  Beta virt. eigenvalues --    0.90211   0.90466   0.90630   0.90855   0.91413
  Beta virt. eigenvalues --    0.91523   0.92007   0.92080   0.92374   0.92465
  Beta virt. eigenvalues --    0.92744   0.92841   0.93379   0.93555   0.93854
  Beta virt. eigenvalues --    0.95048   0.95334   0.95812   0.95917   0.96879
  Beta virt. eigenvalues --    0.97298   0.97422   0.97914   0.98229   0.98908
  Beta virt. eigenvalues --    0.99331   0.99533   0.99749   1.00046   1.00155
  Beta virt. eigenvalues --    1.00431   1.00685   1.00751   1.01049   1.01222
  Beta virt. eigenvalues --    1.01243   1.01391   1.01905   1.02333   1.02749
  Beta virt. eigenvalues --    1.02846   1.03007   1.03419   1.03692   1.03901
  Beta virt. eigenvalues --    1.04238   1.04371   1.04750   1.04890   1.05110
  Beta virt. eigenvalues --    1.05296   1.05559   1.05718   1.06189   1.06690
  Beta virt. eigenvalues --    1.07164   1.07201   1.07435   1.07542   1.07663
  Beta virt. eigenvalues --    1.07840   1.08163   1.08501   1.08866   1.08929
  Beta virt. eigenvalues --    1.09065   1.09344   1.09559   1.10278   1.10979
  Beta virt. eigenvalues --    1.11226   1.11473   1.11946   1.12164   1.12385
  Beta virt. eigenvalues --    1.12433   1.12897   1.13057   1.13259   1.13366
  Beta virt. eigenvalues --    1.13464   1.13722   1.13876   1.14303   1.14650
  Beta virt. eigenvalues --    1.14881   1.15209   1.15324   1.15615   1.16228
  Beta virt. eigenvalues --    1.16783   1.17629   1.17996   1.18105   1.18651
  Beta virt. eigenvalues --    1.18943   1.19774   1.19974   1.20075   1.20557
  Beta virt. eigenvalues --    1.20770   1.21431   1.22694   1.22817   1.22910
  Beta virt. eigenvalues --    1.23239   1.23458   1.23775   1.23817   1.24676
  Beta virt. eigenvalues --    1.24943   1.25560   1.27112   1.27662   1.27930
  Beta virt. eigenvalues --    1.28369   1.29064   1.29384   1.30159   1.30373
  Beta virt. eigenvalues --    1.30625   1.30922   1.31055   1.31144   1.31713
  Beta virt. eigenvalues --    1.31892   1.31929   1.32030   1.32347   1.32582
  Beta virt. eigenvalues --    1.32761   1.32786   1.33134   1.33377   1.33942
  Beta virt. eigenvalues --    1.34959   1.35132   1.35388   1.35541   1.35781
  Beta virt. eigenvalues --    1.35847   1.36266   1.36451   1.36703   1.36852
  Beta virt. eigenvalues --    1.37017   1.37305   1.37983   1.38084   1.38273
  Beta virt. eigenvalues --    1.38480   1.38667   1.38927   1.38980   1.39179
  Beta virt. eigenvalues --    1.39396   1.39517   1.39712   1.39822   1.39879
  Beta virt. eigenvalues --    1.40150   1.40343   1.40780   1.40997   1.41193
  Beta virt. eigenvalues --    1.41240   1.41320   1.41686   1.41797   1.41942
  Beta virt. eigenvalues --    1.42253   1.42579   1.42642   1.42764   1.43146
  Beta virt. eigenvalues --    1.43246   1.43465   1.43753   1.43814   1.44403
  Beta virt. eigenvalues --    1.44686   1.44982   1.45083   1.45500   1.45603
  Beta virt. eigenvalues --    1.45711   1.46027   1.46461   1.46865   1.47647
  Beta virt. eigenvalues --    1.48082   1.48205   1.49646   1.49816   1.49934
  Beta virt. eigenvalues --    1.50400   1.50981   1.51849   1.52368   1.52525
  Beta virt. eigenvalues --    1.52728   1.53163   1.53551   1.53864   1.55428
  Beta virt. eigenvalues --    1.55508   1.57514   1.58097   1.58194   1.58366
  Beta virt. eigenvalues --    1.58645   1.58988   1.59194   1.59620   1.60180
  Beta virt. eigenvalues --    1.60771   1.61059   1.61560   1.61753   1.62128
  Beta virt. eigenvalues --    1.62353   1.62631   1.63030   1.63466   1.64174
  Beta virt. eigenvalues --    1.64848   1.64986   1.65218   1.65724   1.65968
  Beta virt. eigenvalues --    1.66205   1.66977   1.68256   1.68639   1.69895
  Beta virt. eigenvalues --    1.70456   1.70794   1.71116   1.72511   1.73112
  Beta virt. eigenvalues --    1.73372   1.73517   1.74201   1.74524   1.75029
  Beta virt. eigenvalues --    1.75844   1.76396   1.77639   1.77907   1.78106
  Beta virt. eigenvalues --    1.78555   1.78770   1.79129   1.79567   1.79689
  Beta virt. eigenvalues --    1.80101   1.81089   1.81184   1.81586   1.81736
  Beta virt. eigenvalues --    1.82442   1.82720   1.83787   1.84093   1.84161
  Beta virt. eigenvalues --    1.84641   1.85129   1.85247   1.85753   1.86152
  Beta virt. eigenvalues --    1.86332   1.86791   1.86933   1.87484   1.87879
  Beta virt. eigenvalues --    1.88489   1.88703   1.89071   1.89174   1.89459
  Beta virt. eigenvalues --    1.90107   1.90509   1.91488   1.91959   1.92665
  Beta virt. eigenvalues --    1.93019   1.93390   1.93701   1.93880   1.94976
  Beta virt. eigenvalues --    1.96343   1.96835   1.97650   1.97829   1.98591
  Beta virt. eigenvalues --    1.98914   2.01928   2.02050   2.02118   2.03618
  Beta virt. eigenvalues --    2.05127   2.05884   2.07255   2.08352   2.08621
  Beta virt. eigenvalues --    2.10771   2.11084   2.11564   2.11866   2.13031
  Beta virt. eigenvalues --    2.14050   2.14933   2.14999   2.15716   2.17903
  Beta virt. eigenvalues --    2.18315   2.18664   2.19399   2.19734   2.20491
  Beta virt. eigenvalues --    2.20967   2.21329   2.21940   2.24746   2.26563
  Beta virt. eigenvalues --    2.26736   2.27404   2.27820   2.29533   2.30063
  Beta virt. eigenvalues --    2.30460   2.31105   2.31815   2.32613   2.33012
  Beta virt. eigenvalues --    2.33612   2.34457   2.34478   2.34844   2.35720
  Beta virt. eigenvalues --    2.36315   2.38777   2.39795   2.42060   2.42755
  Beta virt. eigenvalues --    2.43410   2.47755   2.49237   2.54336   2.65523
  Beta virt. eigenvalues --    2.66624   2.67071   2.67090   2.67189   2.67951
  Beta virt. eigenvalues --    2.68351   2.69127   2.69201   2.69273   2.69532
  Beta virt. eigenvalues --    2.69609   2.69719   2.69804   2.69869   2.70061
  Beta virt. eigenvalues --    2.70104   2.70161   2.70614   2.70710   2.70753
  Beta virt. eigenvalues --    2.70808   2.70863   2.71110   2.71401   2.71579
  Beta virt. eigenvalues --    2.71670   2.72006   2.72758   2.72823   2.72975
  Beta virt. eigenvalues --    2.73270   2.73299   2.73487   2.73610   2.73767
  Beta virt. eigenvalues --    2.73876   2.74242   2.74292   2.74333   2.75370
  Beta virt. eigenvalues --    2.75394   2.75516   2.75634   2.75667   2.75676
  Beta virt. eigenvalues --    2.75814   2.75850   2.75966   2.76081   2.76173
  Beta virt. eigenvalues --    2.76234   2.76359   2.76441   2.76890   2.77369
  Beta virt. eigenvalues --    2.77398   2.77724   2.78096   2.78393   2.78467
  Beta virt. eigenvalues --    2.78679   2.79069   2.79478   2.79563   2.79629
  Beta virt. eigenvalues --    2.79769   2.79904   2.80065   2.80343   2.81135
  Beta virt. eigenvalues --    2.82266   2.82394   2.82570   2.82717   2.82754
  Beta virt. eigenvalues --    2.82971   2.83082   2.83476   2.83887   2.84773
  Beta virt. eigenvalues --    2.84874   2.85181   2.85307   2.85465   2.85773
  Beta virt. eigenvalues --    2.85915   2.86042   2.86398   2.87345   2.87603
  Beta virt. eigenvalues --    2.87728   2.88550   2.88618   2.88693   2.88756
  Beta virt. eigenvalues --    2.88828   2.89543   2.89597   2.89638   2.90401
  Beta virt. eigenvalues --    2.91128   2.91314   2.92190   2.92213   2.92355
  Beta virt. eigenvalues --    2.92758   2.92773   2.92907   2.93258   2.93314
  Beta virt. eigenvalues --    2.93846   2.94180   2.94581   2.94603   2.94781
  Beta virt. eigenvalues --    2.94953   2.94998   2.95225   2.95555   2.95862
  Beta virt. eigenvalues --    2.96067   2.96248   2.96301   2.96447   2.96556
  Beta virt. eigenvalues --    2.96728   2.96821   2.96910   2.97105   2.97361
  Beta virt. eigenvalues --    2.97500   2.98132   2.98254   2.98396   2.99242
  Beta virt. eigenvalues --    2.99299   2.99394   2.99606   2.99846   2.99956
  Beta virt. eigenvalues --    3.00122   3.00336   3.00690   3.00922   3.00981
  Beta virt. eigenvalues --    3.01608   3.01718   3.01879   3.02319   3.02487
  Beta virt. eigenvalues --    3.02676   3.02913   3.03322   3.04118   3.07237
  Beta virt. eigenvalues --    3.08724   3.08898   3.08989   3.09374   3.09420
  Beta virt. eigenvalues --    3.10061   3.10805   3.10963   3.11416   3.14186
  Beta virt. eigenvalues --    3.14332   3.14399   3.15006   3.15166   3.15403
  Beta virt. eigenvalues --    3.16808   3.16872   3.17177   3.22301   3.28731
  Beta virt. eigenvalues --    3.30266   3.30419   3.30572   3.42800   3.43418
  Beta virt. eigenvalues --    3.44341   3.44706   3.45913   3.46669   3.46860
  Beta virt. eigenvalues --    3.47751   3.48027   3.48202   3.49232   3.49281
  Beta virt. eigenvalues --    3.49622   3.53508   3.53991   3.54615   3.55726
  Beta virt. eigenvalues --    3.55941   3.56548   3.56926   3.57208   3.57258
  Beta virt. eigenvalues --    3.57416   3.57561   3.57805   3.58922   3.59769
  Beta virt. eigenvalues --    3.60198   3.61320   3.61673   3.61993   3.62652
  Beta virt. eigenvalues --    3.62863   3.63439   3.63933   3.64269   3.64849
  Beta virt. eigenvalues --    3.73202   3.77941  68.66721  68.67722  68.68982
  Beta virt. eigenvalues --   68.71269  68.75079  68.75980  68.83790  68.84913
  Beta virt. eigenvalues --   68.85434  68.88293  68.89363  68.90581 576.25199
  Beta virt. eigenvalues --  576.26173 576.27409 576.29644 576.33461 576.34360
  Beta virt. eigenvalues --  576.42019 576.43114 576.43626 576.46382 576.47423
  Beta virt. eigenvalues --  576.48638
          Condensed to atoms (all electrons):
          Atomic-Atomic Spin Densities.
 Mulliken charges and spin densities:
               1          2
     1  Cl  -0.362873  -0.603523
     2  C   -0.039180  -0.082965
     3  C    0.014120   0.051423
     4  C   -0.036084  -0.080190
     5  C   -0.031652   0.051338
     6  C    0.005797  -0.098536
     7  C   -0.048823   0.050358
     8  H    0.046316   0.003526
     9  H    0.048215   0.003446
    10  H    0.054102  -0.001825
    11  H    0.055991   0.004327
    12  H    0.052983  -0.001763
    13  C    0.002243  -0.221879
    14  C   -0.015722  -0.086857
    15  H    0.073755   0.009537
    16  H    0.095040   0.004273
    17  H    0.093774   0.003736
    18  O   -0.671774  -0.000558
    19  O   -0.669726  -0.000487
    20  O   -0.666058  -0.001924
    21  O   -0.671395  -0.000526
    22  W    1.719879   0.000338
    23  W    1.661671   0.000528
    24  W    1.675215   0.000215
    25  W    1.682988   0.000185
    26  W    1.661030   0.002805
    27  W    1.707648   0.002503
    28  W    1.611796   0.003362
    29  W    1.670263   0.002947
    30  O   -0.351339  -0.000547
    31  O   -0.395766  -0.000589
    32  O   -0.395585  -0.000629
    33  O   -0.394716  -0.000582
    34  O   -0.671942  -0.000287
    35  O   -0.677405   0.000005
    36  O   -0.669685  -0.000093
    37  O   -0.671714  -0.000189
    38  O   -0.395989   0.002094
    39  O   -0.396969   0.002119
    40  O   -0.339907  -0.001571
    41  O   -0.397109   0.002128
    42  O   -0.677239   0.000064
    43  O   -0.670823   0.000179
    44  O   -0.667337   0.000330
    45  O   -0.672989   0.000115
    46  O   -0.396369   0.002264
    47  O   -0.352555   0.002148
    48  O   -0.388541   0.001718
    49  O   -0.396882   0.002350
    50  W    1.657364   0.002903
    51  W    1.661735   0.002784
    52  W    1.670123   0.003892
    53  W    1.668078   0.002762
    54  O   -0.721252   0.000138
    55  O   -0.703927   0.000030
    56  O   -0.721158   0.000211
    57  O   -0.718989   0.000097
    58  O   -0.701397  -0.000037
    59  O   -0.723047   0.000177
    60  O   -0.721638   0.000236
    61  O   -0.718535   0.000237
    62  O   -0.721247  -0.000165
    63  O   -0.704994   0.000012
    64  O   -0.721222  -0.000182
    65  O   -0.723840  -0.000194
    66  O   -0.881720   0.005452
    67  O   -0.881637   0.007808
    68  O   -0.880587   0.007682
    69  O   -0.889087   0.007139
    70  K    0.848017   0.000215
    71  K    0.847438   0.000239
    72  K    0.842617   0.000267
    73  V    1.200228   0.933458
 Sum of Mulliken charges =  -1.00000   0.00000
 Mulliken charges and spin densities with hydrogens summed into heavy atoms:
               1          2
     1  Cl  -0.362873  -0.603523
     2  C    0.007136  -0.079439
     3  C    0.014120   0.051423
     4  C    0.012131  -0.076744
     5  C    0.022450   0.049513
     6  C    0.061788  -0.094209
     7  C    0.004160   0.048595
    13  C    0.075998  -0.212342
    14  C    0.173092  -0.078848
    18  O   -0.671774  -0.000558
    19  O   -0.669726  -0.000487
    20  O   -0.666058  -0.001924
    21  O   -0.671395  -0.000526
    22  W    1.719879   0.000338
    23  W    1.661671   0.000528
    24  W    1.675215   0.000215
    25  W    1.682988   0.000185
    26  W    1.661030   0.002805
    27  W    1.707648   0.002503
    28  W    1.611796   0.003362
    29  W    1.670263   0.002947
    30  O   -0.351339  -0.000547
    31  O   -0.395766  -0.000589
    32  O   -0.395585  -0.000629
    33  O   -0.394716  -0.000582
    34  O   -0.671942  -0.000287
    35  O   -0.677405   0.000005
    36  O   -0.669685  -0.000093
    37  O   -0.671714  -0.000189
    38  O   -0.395989   0.002094
    39  O   -0.396969   0.002119
    40  O   -0.339907  -0.001571
    41  O   -0.397109   0.002128
    42  O   -0.677239   0.000064
    43  O   -0.670823   0.000179
    44  O   -0.667337   0.000330
    45  O   -0.672989   0.000115
    46  O   -0.396369   0.002264
    47  O   -0.352555   0.002148
    48  O   -0.388541   0.001718
    49  O   -0.396882   0.002350
    50  W    1.657364   0.002903
    51  W    1.661735   0.002784
    52  W    1.670123   0.003892
    53  W    1.668078   0.002762
    54  O   -0.721252   0.000138
    55  O   -0.703927   0.000030
    56  O   -0.721158   0.000211
    57  O   -0.718989   0.000097
    58  O   -0.701397  -0.000037
    59  O   -0.723047   0.000177
    60  O   -0.721638   0.000236
    61  O   -0.718535   0.000237
    62  O   -0.721247  -0.000165
    63  O   -0.704994   0.000012
    64  O   -0.721222  -0.000182
    65  O   -0.723840  -0.000194
    66  O   -0.881720   0.005452
    67  O   -0.881637   0.007808
    68  O   -0.880587   0.007682
    69  O   -0.889087   0.007139
    70  K    0.848017   0.000215
    71  K    0.847438   0.000239
    72  K    0.842617   0.000267
    73  V    1.200228   0.933458
 Electronic spatial extent (au):  <R**2>=         316634.6984
 Charge=             -1.0000 electrons
 Dipole moment (field-independent basis, Debye):
    X=             29.4207    Y=            -13.4673    Z=            -31.0123  Tot=             44.8187
 Quadrupole moment (field-independent basis, Debye-Ang):
   XX=           -783.2919   YY=           -699.0897   ZZ=           -788.9377
   XY=            130.0096   XZ=            190.3526   YZ=            -91.4872
 Traceless Quadrupole moment (field-independent basis, Debye-Ang):
   XX=            -26.1854   YY=             58.0167   ZZ=            -31.8313
   XY=            130.0096   XZ=            190.3526   YZ=            -91.4872
 Octapole moment (field-independent basis, Debye-Ang**2):
  XXX=          10500.1835  YYY=            948.2634  ZZZ=         -17550.7016  XYY=           4073.8686
  XXY=           -676.9137  XXZ=          -6298.0489  XZZ=           4240.4562  YZZ=           -112.3407
  YYZ=          -6958.1454  XYZ=           1422.5054
 Hexadecapole moment (field-independent basis, Debye-Ang**3):
 XXXX=        -128825.5787 YYYY=         -38638.5985 ZZZZ=        -327802.3733 XXXY=           8631.0272
 XXXZ=          89789.8205 YYYX=           2243.5418 YYYZ=           8236.0323 ZZZX=          92562.5737
 ZZZY=           8056.5419 XXYY=         -35658.7174 XXZZ=         -72791.5382 YYZZ=         -77108.2955
 XXYZ=         -11004.1830 YYXZ=          40032.5090 ZZXY=          14535.3946
 N-N= 2.103446603768D+04 E-N=-5.917865980650D+04  KE= 6.765823828779D+03
                          Isotropic Fermi Contact Couplings
        Atom                 a.u.       MegaHertz       Gauss      10(-4) cm-1
     1  Cl(35)            -0.10033     -21.99574      -7.84863      -7.33699
     2  C(13)             -0.01292      -7.26308      -2.59165      -2.42270
     3  C(13)              0.01678       9.42960       3.36472       3.14538
     4  C(13)             -0.01259      -7.07775      -2.52552      -2.36088
     5  C(13)              0.01152       6.47561       2.31066       2.16003
     6  C(13)             -0.01598      -8.98297      -3.20535      -2.99640
     7  C(13)              0.01134       6.37562       2.27498       2.12668
     8  H(1)               0.00113       2.52709       0.90173       0.84295
     9  H(1)               0.00112       2.49278       0.88948       0.83150
    10  H(1)              -0.00054      -1.19811      -0.42752      -0.39965
    11  H(1)               0.00131       2.93118       1.04592       0.97774
    12  H(1)              -0.00052      -1.16003      -0.41393      -0.38694
    13  C(13)             -0.03067     -17.23766      -6.15082      -5.74986
    14  C(13)             -0.02482     -13.94850      -4.97717      -4.65272
    15  H(1)               0.00305       6.82320       2.43469       2.27598
    16  H(1)               0.00153       3.42531       1.22224       1.14256
    17  H(1)               0.00134       3.00109       1.07087       1.00106
    18  O(17)             -0.00045       0.13732       0.04900       0.04581
    19  O(17)             -0.00040       0.12142       0.04333       0.04050
    20  O(17)             -0.00153       0.46472       0.16583       0.15502
    21  O(17)             -0.00044       0.13187       0.04705       0.04399
    22  W(183)             0.00000       0.00000       0.00000       0.00000
    23  W(183)             0.00000       0.00000       0.00000       0.00000
    24  W(183)             0.00000       0.00000       0.00000       0.00000
    25  W(183)             0.00000       0.00000       0.00000       0.00000
    26  W(183)             0.00000       0.00000       0.00000       0.00000
    27  W(183)             0.00000       0.00000       0.00000       0.00000
    28  W(183)             0.00000       0.00000       0.00000       0.00000
    29  W(183)             0.00000       0.00000       0.00000       0.00000
    30  O(17)             -0.00021       0.06322       0.02256       0.02109
    31  O(17)             -0.00025       0.07706       0.02750       0.02570
    32  O(17)             -0.00027       0.08249       0.02943       0.02751
    33  O(17)             -0.00024       0.07384       0.02635       0.02463
    34  O(17)             -0.00002       0.00751       0.00268       0.00250
    35  O(17)              0.00019      -0.05844      -0.02085      -0.01949
    36  O(17)              0.00018      -0.05509      -0.01966      -0.01838
    37  O(17)              0.00008      -0.02531      -0.00903      -0.00844
    38  O(17)              0.00197      -0.59841      -0.21353      -0.19961
    39  O(17)              0.00194      -0.58905      -0.21019      -0.19648
    40  O(17)             -0.01454       4.40701       1.57253       1.47002
    41  O(17)              0.00194      -0.58882      -0.21011      -0.19641
    42  O(17)              0.00027      -0.08192      -0.02923      -0.02733
    43  O(17)              0.00035      -0.10691      -0.03815      -0.03566
    44  O(17)              0.00050      -0.15052      -0.05371      -0.05021
    45  O(17)              0.00030      -0.09093      -0.03245      -0.03033
    46  O(17)              0.00221      -0.66984      -0.23901      -0.22343
    47  O(17)              0.00195      -0.59255      -0.21144      -0.19766
    48  O(17)              0.00074      -0.22377      -0.07985      -0.07464
    49  O(17)              0.00224      -0.68034      -0.24276      -0.22694
    50  W(183)             0.00000       0.00000       0.00000       0.00000
    51  W(183)             0.00000       0.00000       0.00000       0.00000
    52  W(183)             0.00000       0.00000       0.00000       0.00000
    53  W(183)             0.00000       0.00000       0.00000       0.00000
    54  O(17)              0.00023      -0.06821      -0.02434      -0.02275
    55  O(17)              0.00007      -0.02256      -0.00805      -0.00752
    56  O(17)              0.00034      -0.10330      -0.03686      -0.03446
    57  O(17)              0.00013      -0.03877      -0.01383      -0.01293
    58  O(17)              0.00015      -0.04593      -0.01639      -0.01532
    59  O(17)              0.00031      -0.09427      -0.03364      -0.03145
    60  O(17)              0.00039      -0.11891      -0.04243      -0.03966
    61  O(17)              0.00041      -0.12541      -0.04475      -0.04183
    62  O(17)             -0.00025       0.07642       0.02727       0.02549
    63  O(17)             -0.00016       0.04724       0.01686       0.01576
    64  O(17)             -0.00028       0.08347       0.02978       0.02784
    65  O(17)             -0.00030       0.09062       0.03233       0.03023
    66  O(17)             -0.00816       2.47397       0.88277       0.82523
    67  O(17)             -0.00690       2.09139       0.74626       0.69761
    68  O(17)             -0.00709       2.14891       0.76678       0.71680
    69  O(17)             -0.00747       2.26384       0.80780       0.75514
    70  K(39)             -0.00002      -0.00201      -0.00072      -0.00067
    71  K(39)             -0.00002      -0.00198      -0.00071      -0.00066
    72  K(39)             -0.00002      -0.00226      -0.00081      -0.00075
    73  V(51)              0.07124      41.95267      14.96975      13.99390
 --------------------------------------------------------
       Center         ----  Spin Dipole Couplings  ----
                      3XX-RR        3YY-RR        3ZZ-RR
 --------------------------------------------------------
     1   Atom        0.364595     -1.677245      1.312650
     2   Atom       -0.019209     -0.011529      0.030737
     3   Atom        0.007758      0.002968     -0.010727
     4   Atom       -0.017192     -0.014300      0.031492
     5   Atom        0.011288      0.005591     -0.016879
     6   Atom       -0.019877     -0.014873      0.034750
     7   Atom        0.009675      0.005140     -0.014815
     8   Atom       -0.001433     -0.001174      0.002607
     9   Atom        0.000050      0.000272     -0.000323
    10   Atom        0.001534      0.000462     -0.001996
    11   Atom        0.003702      0.000134     -0.003836
    12   Atom        0.000635     -0.000560     -0.000075
    13   Atom       -0.050684     -0.047918      0.098602
    14   Atom       -0.030827     -0.038878      0.069705
    15   Atom       -0.002997      0.002572      0.000425
    16   Atom        0.007520      0.003280     -0.010800
    17   Atom       -0.011460      0.005039      0.006421
    18   Atom        0.001408     -0.001337     -0.000071
    19   Atom        0.001976     -0.001874     -0.000102
    20   Atom       -0.002143     -0.000281      0.002423
    21   Atom       -0.000606      0.000670     -0.000064
    22   Atom       -0.002019      0.000622      0.001397
    23   Atom       -0.001843      0.000685      0.001158
    24   Atom       -0.002425      0.001070      0.001354
    25   Atom       -0.002104      0.000636      0.001468
    26   Atom        0.000363     -0.002271      0.001908
    27   Atom        0.000537     -0.002512      0.001975
    28   Atom        0.000955     -0.003140      0.002185
    29   Atom        0.000699     -0.002760      0.002062
    30   Atom       -0.000138      0.000248     -0.000110
    31   Atom        0.000049     -0.000001     -0.000047
    32   Atom       -0.000536      0.000640     -0.000104
    33   Atom       -0.000180      0.000253     -0.000073
    34   Atom       -0.000057     -0.002041      0.002098
    35   Atom       -0.000428     -0.002754      0.003182
    36   Atom       -0.002331     -0.000578      0.002909
    37   Atom       -0.001995     -0.000736      0.002731
    38   Atom        0.006198     -0.003165     -0.003033
    39   Atom        0.006260     -0.003267     -0.002992
    40   Atom       -0.011607      0.007244      0.004363
    41   Atom       -0.004456      0.007831     -0.003375
    42   Atom        0.002613     -0.000992     -0.001621
    43   Atom        0.003000     -0.001087     -0.001912
    44   Atom       -0.004616      0.005975     -0.001359
    45   Atom       -0.003409      0.005030     -0.001621
    46   Atom       -0.000885      0.000677      0.000208
    47   Atom        0.001488     -0.002735      0.001246
    48   Atom        0.004837     -0.007542      0.002705
    49   Atom        0.004944     -0.005038      0.000093
    50   Atom        0.006087     -0.002758     -0.003328
    51   Atom        0.006451     -0.003168     -0.003283
    52   Atom       -0.002094      0.004646     -0.002553
    53   Atom       -0.002057      0.005470     -0.003413
    54   Atom       -0.003217     -0.001715      0.004931
    55   Atom       -0.002923     -0.001937      0.004860
    56   Atom       -0.001165     -0.004576      0.005741
    57   Atom       -0.001156     -0.003871      0.005027
    58   Atom       -0.003984      0.006416     -0.002433
    59   Atom       -0.003971      0.006776     -0.002805
    60   Atom        0.002766     -0.000034     -0.002732
    61   Atom        0.003041     -0.000404     -0.002637
    62   Atom        0.000834      0.000967     -0.001801
    63   Atom        0.001219      0.000249     -0.001468
    64   Atom        0.005364     -0.003835     -0.001529
    65   Atom        0.005014     -0.003148     -0.001866
    66   Atom       -0.029948      0.000333      0.029615
    67   Atom       -0.035403     -0.002107      0.037510
    68   Atom       -0.064237      0.021895      0.042342
    69   Atom       -0.059262      0.026959      0.032304
    70   Atom       -0.000587      0.000563      0.000024
    71   Atom        0.000440     -0.000538      0.000097
    72   Atom        0.000769     -0.000970      0.000200
    73   Atom       -1.023901      0.250962      0.772939
 --------------------------------------------------------
                        XY            XZ            YZ
 --------------------------------------------------------
     1   Atom        2.217001      0.819276     -1.278831
     2   Atom        0.055296      0.021625     -0.019190
     3   Atom       -0.017935     -0.004823      0.009093
     4   Atom        0.052976      0.021632     -0.020563
     5   Atom       -0.027638     -0.012346      0.012258
     6   Atom        0.066007      0.029183     -0.024688
     7   Atom       -0.026928     -0.010826      0.013331
     8   Atom       -0.002078     -0.002006      0.000461
     9   Atom       -0.002063     -0.003512     -0.002570
    10   Atom       -0.000472     -0.001120      0.000959
    11   Atom        0.001717      0.002352      0.005391
    12   Atom       -0.001195      0.000248      0.002215
    13   Atom        0.169064      0.076489     -0.073165
    14   Atom        0.115503      0.056242     -0.054465
    15   Atom       -0.004395     -0.012020     -0.012990
    16   Atom        0.000914      0.010572      0.006779
    17   Atom       -0.002212     -0.010410     -0.005042
    18   Atom        0.000455     -0.001695      0.000223
    19   Atom        0.000342      0.002067     -0.000560
    20   Atom        0.003810      0.001482     -0.001224
    21   Atom       -0.001205      0.001353     -0.001339
    22   Atom        0.002235     -0.001940     -0.004127
    23   Atom        0.002202      0.002225      0.003932
    24   Atom        0.002358      0.001815      0.004238
    25   Atom        0.002009     -0.002012     -0.004143
    26   Atom       -0.002020     -0.004577      0.002395
    27   Atom       -0.001835      0.004697     -0.002736
    28   Atom       -0.001443     -0.004687      0.002624
    29   Atom       -0.001663      0.004784     -0.002209
    30   Atom        0.000417     -0.000147     -0.000571
    31   Atom        0.000447      0.000656      0.000290
    32   Atom        0.000437     -0.000170      0.000824
    33   Atom        0.000284     -0.000096     -0.000645
    34   Atom        0.000644     -0.003318     -0.000905
    35   Atom        0.000876      0.004091      0.001110
    36   Atom       -0.000373     -0.001879      0.004037
    37   Atom       -0.000653      0.001554     -0.003300
    38   Atom        0.004537      0.003789      0.001590
    39   Atom        0.004768     -0.003743     -0.001846
    40   Atom        0.014086      0.007187     -0.009654
    41   Atom       -0.002585     -0.000607      0.003772
[...]
 Variable       Old X    -DE/DX   Delta X   Delta X   Delta X     New X
                                 (Linear)    (Quad)   (Total)
    X1      -18.82570   0.00752   0.00000   0.00738   0.00859 -18.81711
    Y1       14.75799  -0.01156   0.00000  -0.01116  -0.01241  14.74558
    Z1       19.73390  -0.00373   0.00000  -0.00385  -0.00502  19.72888
    X2      -15.70252   0.00230   0.00000   0.00642   0.00734 -15.69519
    Y2        8.01905   0.00022   0.00000   0.00570   0.00450   8.02356
    Z2       23.12430   0.00220   0.00000  -0.00044  -0.00124  23.12307
    X3      -17.12057   0.00047   0.00000  -0.02391  -0.02295 -17.14351
    Y3        7.39984   0.00251   0.00000   0.02140   0.02016   7.42000
    Z3       20.96123  -0.00329   0.00000   0.01152   0.01071  20.97194
    X4      -18.90725  -0.00172   0.00000  -0.00509  -0.00418 -18.91143
    Y4        5.44509  -0.00242   0.00000  -0.00452  -0.00571   5.43938
    Z4       21.16447  -0.00121   0.00000  -0.01004  -0.01083  21.15364
    X5      -19.25476  -0.00082   0.00000   0.00252   0.00332 -19.25144
    Y5        4.14155  -0.00062   0.00000  -0.00613  -0.00721   4.13433
    Z5       23.42136  -0.00255   0.00000  -0.01394  -0.01468  23.40668
    X6      -17.82032   0.00064   0.00000   0.00654   0.00729 -17.81303
    Y6        4.76393   0.00057   0.00000   0.00302   0.00198   4.76591
    Z6       25.54357  -0.00159   0.00000  -0.01682  -0.01754  25.52602
    X7      -16.04447   0.00156   0.00000   0.01138   0.01218 -16.03229
    Y7        6.71109   0.00142   0.00000   0.00098  -0.00012   6.71098
    Z7       25.38216  -0.00153   0.00000  -0.00920  -0.00995  25.37221
    X8      -14.31947   0.00055   0.00000   0.00984   0.01080 -14.30868
    Y8        9.54851  -0.00037   0.00000   0.00166   0.00042   9.54893
    Z8       23.05320  -0.00001   0.00000  -0.00225  -0.00306  23.05014
    X9      -20.03015  -0.00022   0.00000  -0.00419  -0.00325 -20.03340
    Y9        4.95287  -0.00094   0.00000  -0.00911  -0.01034   4.94254
    Z9       19.50276  -0.00014   0.00000  -0.00924  -0.01004  19.49272
   X10      -20.63221  -0.00019   0.00000  -0.00045   0.00030 -20.63191
   Y10        2.60662   0.00043   0.00000  -0.00180  -0.00284   2.60377
   Z10       23.50754   0.00048   0.00000  -0.00195  -0.00267  23.50487
   X11      -18.06064  -0.00018   0.00000  -0.00003   0.00064 -18.06001
   Y11        3.71749   0.00075   0.00000   0.01130   0.01034   3.72783
   Z11       27.30720  -0.00039   0.00000  -0.01292  -0.01361  27.29359
   X12      -14.90441  -0.00033   0.00000   0.00434   0.00511 -14.89930
   Y12        7.20611   0.00038   0.00000   0.00183   0.00078   7.20689
   Z12       27.03115  -0.00018   0.00000  -0.00529  -0.00603  27.02513
   X13      -16.85060  -0.02189   0.00000  -0.07696  -0.07589 -16.92649
   Y13        8.72507  -0.01499   0.00000   0.06488   0.06353   8.78860
   Z13       18.54575   0.01254   0.00000   0.04811   0.04725  18.59300
   X14      -15.28434   0.00666   0.00000  -0.07099  -0.06985 -15.35418
   Y14       10.66224   0.03099   0.00000   0.11191   0.11050  10.77274
   Z14       18.07290   0.00046   0.00000   0.04111   0.04021  18.11311
   X15      -18.13422   0.00218   0.00000  -0.01765  -0.01655 -18.15077
   Y15        8.10618  -0.00126   0.00000   0.00950   0.00812   8.11430
   Z15       17.03988   0.00075   0.00000   0.02473   0.02386  17.06373
   X16      -15.23492   0.00101   0.00000  -0.01749  -0.01627 -15.25119
   Y16       11.56625  -0.00242   0.00000   0.03162   0.03013  11.59638
   Z16       16.21892  -0.00070   0.00000   0.00569   0.00476  16.22368
   X17      -13.95844   0.00138   0.00000  -0.01072  -0.00960 -13.96804
   Y17       11.38213  -0.00167   0.00000   0.05245   0.05106  11.43319
   Z17       19.48441  -0.00118   0.00000   0.00947   0.00859  19.49300
   X18       -1.91936   0.00628   0.00000   0.02863   0.02951  -1.88985
   Y18       -3.33613  -0.00050   0.00000  -0.00153  -0.00347  -3.33961
   Z18       14.10486  -0.00205   0.00000  -0.01556  -0.01546  14.08940
   X19      -15.88248  -0.00632   0.00000  -0.02322  -0.02231 -15.90479
   Y19       -2.49998   0.00109   0.00000  -0.00342  -0.00498  -2.50496
   Z19       14.11256  -0.00202   0.00000  -0.01580  -0.01616  14.09640
   X20      -13.34221  -0.00413   0.00000  -0.01118  -0.01031 -13.35252
   Y20        2.52607   0.00563   0.00000   0.02375   0.02236   2.54843
   Z20       19.81749   0.00102   0.00000   0.00943   0.00893  19.82642
   X21       -4.41373   0.00437   0.00000   0.01477   0.01534  -4.39839
   Y21       -8.20780  -0.00446   0.00000  -0.02551  -0.02715  -8.23495
   Z21       19.95338   0.00206   0.00000   0.01519   0.01542  19.96880
   X22       -6.48572  -0.00121   0.00000   0.01745   0.01851  -6.46721
   Y22        1.40653  -0.01636   0.00000  -0.02431  -0.02621   1.38032
   Z22       12.28790   0.01480   0.00000   0.00678   0.00654  12.29444
   X23      -11.35564   0.00311   0.00000  -0.01184  -0.01102 -11.36666
   Y23       -7.22378   0.01585   0.00000   0.01055   0.00879  -7.21499
   Z23       12.44926   0.01619   0.00000   0.00560   0.00557  12.45483
   X24       -6.87258  -0.00982   0.00000  -0.01703  -0.01624  -6.88882
   Y24        1.72685  -0.01264   0.00000   0.00035  -0.00115   1.72569
   Z24       21.54848  -0.01526   0.00000  -0.00726  -0.00753  21.54095
   X25      -10.91520   0.01056   0.00000   0.02106   0.02160 -10.89360
   Y25       -7.30322   0.01033   0.00000  -0.00453  -0.00592  -7.30914
   Z25       21.67178  -0.01535   0.00000  -0.00658  -0.00660  21.66519
   X26       -4.66761  -0.01366   0.00000   0.00510   0.00600  -4.66161
   Y26       -4.81193   0.01282   0.00000   0.01167   0.00971  -4.80221
   Z26       12.05872   0.01739   0.00000   0.00877   0.00885  12.06757
   X27      -13.13444   0.01332   0.00000   0.00394   0.00495 -13.12949
   Y27       -1.00253  -0.01363   0.00000  -0.02401  -0.02573  -1.02826
   Z27       12.00251   0.01590   0.00000   0.01047   0.01013  12.01264
   X28      -12.90898   0.01884   0.00000   0.01379   0.01451 -12.89447
   Y28       -0.47944  -0.00479   0.00000   0.01167   0.01035  -0.46909
   Z28       21.91075  -0.01635   0.00000  -0.01206  -0.01242  21.89833
   X29       -4.85885  -0.01704   0.00000  -0.01089  -0.01030  -4.86915
   Y29       -5.08753   0.00251   0.00000  -0.01561  -0.01715  -5.10469
   Z29       21.97154  -0.01585   0.00000  -0.00842  -0.00833  21.96320
   X30       -6.05883   0.00146   0.00000   0.00064   0.00184  -6.05700
   Y30        3.68919   0.00381   0.00000  -0.01435  -0.01635   3.67284
   Z30       10.10120  -0.00535   0.00000  -0.00440  -0.00471  10.09649
   X31      -11.59897  -0.00097   0.00000   0.00320   0.00403 -11.59494
   Y31       -9.61112  -0.00495   0.00000   0.00090  -0.00093  -9.61206
   Z31       10.31771  -0.00590   0.00000  -0.00564  -0.00558  10.31213
   X32       -5.11268   0.00302   0.00000  -0.00131  -0.00054  -5.11323
   Y32        3.34325   0.00342   0.00000  -0.00836  -0.00983   3.33342
   Z32       23.69373   0.00564   0.00000   0.00539   0.00512  23.69885
   X33      -12.66141  -0.00263   0.00000   0.00571   0.00614 -12.65528
   Y33       -8.84299  -0.00321   0.00000   0.00443   0.00319  -8.83980
   Z33       23.88456   0.00519   0.00000   0.00459   0.00459  23.88915
   X34       -5.10168   0.00221   0.00000   0.01962   0.02066  -5.08102
   Y34       -1.63609   0.00128   0.00000  -0.00056  -0.00257  -1.63866
   Z34       10.57089  -0.00616   0.00000  -0.02148  -0.02154  10.54935
   X35      -12.69131  -0.00255   0.00000  -0.01500  -0.01404 -12.70535
   Y35       -4.28495  -0.00064   0.00000  -0.00995  -0.01174  -4.29669
   Z35       10.64636  -0.00613   0.00000  -0.02180  -0.02199  10.62436
   X36      -10.05985  -0.00117   0.00000  -0.00604  -0.00533 -10.06517
   Y36        1.06342   0.00289   0.00000   0.01979   0.01845   1.08187
   Z36       23.36723   0.00575   0.00000   0.01520   0.01486  23.38210
   X37       -7.68838   0.00063   0.00000   0.00677   0.00727  -7.68111
   Y37       -6.62829  -0.00242   0.00000  -0.01982  -0.02122  -6.64951
   Z37       23.45034   0.00579   0.00000   0.01844   0.01850  23.46883
   X38        0.55791   0.00796   0.00000   0.00092   0.00178   0.55969
   Y38       -0.01491   0.00334   0.00000   0.00493   0.00306  -0.01185
   Z38       17.53971   0.00169   0.00000   0.00052   0.00055  17.54027
   X39      -18.36496  -0.00779   0.00000   0.00404   0.00474 -18.36022
   Y39       -5.68934  -0.00320   0.00000  -0.01026  -0.01161  -5.70095
   Z39       17.65268   0.00164   0.00000  -0.00013  -0.00044  17.65224
   X40      -12.10980  -0.00377   0.00000  -0.00145  -0.00037 -12.11017
   Y40        6.45267   0.00999   0.00000   0.00150  -0.00007   6.45259
   Z40       16.30722  -0.00021   0.00000   0.00718   0.00656  16.31378
   X41       -5.59738   0.00157   0.00000  -0.00849  -0.00793  -5.60530
   Y41      -12.18298  -0.00698   0.00000  -0.00679  -0.00853 -12.19151
   Z41       16.51655  -0.00129   0.00000   0.00009   0.00044  16.51699
   X42       -3.43250   0.00413   0.00000   0.02585   0.02686  -3.40564
   Y42        1.48032   0.00452   0.00000   0.00525   0.00335   1.48366
   Z42       14.15350  -0.00246   0.00000  -0.01649  -0.01664  14.13687
   X43      -14.38167  -0.00457   0.00000  -0.02170  -0.02094 -14.40261
   Y43       -7.32191  -0.00433   0.00000  -0.01259  -0.01418  -7.33609
   Z43       14.29691  -0.00202   0.00000  -0.01569  -0.01581  14.28110
   X44       -8.58151   0.00057   0.00000  -0.00050   0.00041  -8.58110
   Y44        4.18943   0.00656   0.00000   0.02455   0.02301   4.21244
   Z44       19.69420   0.00132   0.00000   0.00963   0.00921  19.70341
   X45       -9.19505  -0.00120   0.00000   0.00555   0.00607  -9.18898
   Y45       -9.84647  -0.00588   0.00000  -0.02641  -0.02792  -9.87439
   Z45       19.87899   0.00240   0.00000   0.01555   0.01570  19.89468
   X46       -3.11821   0.00525   0.00000   0.00621   0.00713  -3.11108
   Y46       -6.56858  -0.00468   0.00000  -0.00827  -0.01036  -6.57894
   Z46        9.86341  -0.00541   0.00000   0.00310   0.00329   9.86671
   X47      -14.77516  -0.00487   0.00000   0.00237   0.00349 -14.77167
   Y47        0.51134   0.00306   0.00000  -0.00225  -0.00402   0.50732
   Z47        9.72311  -0.00436   0.00000   0.00723   0.00678   9.72989
   X48      -15.18602  -0.00641   0.00000   0.00204   0.00269 -15.18333
   Y48       -0.34932   0.00176   0.00000   0.00249   0.00132  -0.34800
   Z48       24.16597   0.00508   0.00000  -0.00286  -0.00329  24.16268
   X49       -2.53560   0.00552   0.00000   0.00301   0.00353  -2.53208
   Y49       -5.27835  -0.00149   0.00000  -0.00573  -0.00724  -5.28558
   Z49       24.18267   0.00430   0.00000  -0.00393  -0.00377  24.17889
   X50       -2.39253  -0.02330   0.00000  -0.00603  -0.00517  -2.39770
   Y50       -0.97340  -0.00868   0.00000  -0.00923  -0.01105  -0.98445
   Z50       16.71606  -0.00567   0.00000  -0.01797  -0.01798  16.69809
   X51      -15.41915   0.02384   0.00000   0.01096   0.01172 -15.40743
   Y51       -4.74493   0.00699   0.00000   0.00215   0.00068  -4.74424
   Z51       16.79275  -0.00619   0.00000  -0.01958  -0.01984  16.77291
   X52      -11.21902   0.00871   0.00000   0.00692   0.00789 -11.21113
   Y52        3.50156  -0.02492   0.00000  -0.01336  -0.01492   3.48664
   Z52       17.09363   0.00578   0.00000   0.01696   0.01649  17.11012
   X53       -6.55752  -0.00691   0.00000  -0.00022   0.00040  -6.55712
   Y53       -9.22263   0.02174   0.00000   0.00504   0.00335  -9.21928
   Z53       17.31529   0.00471   0.00000   0.01757   0.01777  17.33307
   X54       -8.01102   0.00110   0.00000  -0.00011   0.00079  -8.01023
   Y54       -5.84382  -0.00187   0.00000   0.00977   0.00788  -5.83593
   Z54       11.48063  -0.00347   0.00000   0.00724   0.00725  11.48788
   X55       -9.78417  -0.00117   0.00000   0.00690   0.00796  -9.77622
   Y55       -0.05956   0.00230   0.00000  -0.02005  -0.02189  -0.08145
   Z55       11.37667  -0.00339   0.00000   0.00657   0.00629  11.38296
   X56      -11.69211  -0.00253   0.00000   0.01376   0.01437 -11.67774
   Y56       -3.77943   0.00051   0.00000   0.00643   0.00510  -3.77434
   Z56       22.52629   0.00344   0.00000  -0.00912  -0.00930  22.51698
   X57       -6.02927   0.00209   0.00000  -0.01168  -0.01101  -6.04029
   Y57       -1.79387   0.00067   0.00000  -0.00864  -0.01013  -1.80399
   Z57       22.53582   0.00359   0.00000  -0.00709  -0.00718  22.52864
   X58       -8.31512  -0.00006   0.00000   0.01156   0.01260  -8.30253
   Y58        3.02580   0.00324   0.00000  -0.01733  -0.01907   3.00673
   Z58       14.83423  -0.00127   0.00000   0.00918   0.00882  14.84305
   X59       -9.45348  -0.00105   0.00000  -0.00751  -0.00681  -9.46029
   Y59       -8.82491  -0.00348   0.00000   0.00758   0.00588  -8.81904
   Z59       14.99237  -0.00258   0.00000   0.00737   0.00747  14.99984
   X60       -4.42744   0.00187   0.00000  -0.01260  -0.01175  -4.43919
   Y60        1.12782   0.00305   0.00000  -0.00315  -0.00482   1.12300
   Z60       19.04140   0.00259   0.00000  -0.00836  -0.00852  19.03288
   X61      -13.35628  -0.00225   0.00000   0.01629   0.01692 -13.33935
   Y61       -6.81036  -0.00262   0.00000  -0.00178  -0.00321  -6.81357
   Z61       19.15487   0.00240   0.00000  -0.00871  -0.00882  19.14604
   X62       -4.87088   0.00179   0.00000   0.00083   0.00158  -4.86930
   Y62       -7.31041  -0.00324   0.00000   0.00418   0.00235  -7.30807
   Z62       14.85082  -0.00100   0.00000   0.01222   0.01239  14.86322
   X63      -12.94779  -0.00111   0.00000   0.00800   0.00899 -12.93880
   Y63        1.49049   0.00402   0.00000  -0.01155  -0.01316   1.47733
   Z63       14.74539  -0.00019   0.00000   0.01270   0.01226  14.75764
   X64      -14.83006  -0.00340   0.00000   0.01045   0.01121 -14.81885
   Y64       -2.21259   0.00028   0.00000   0.00457   0.00319  -2.20940
   Z64       19.20573   0.00133   0.00000  -0.01417  -0.01451  19.19121
   X65       -2.97180   0.00355   0.00000  -0.00642  -0.00570  -2.97751
   Y65       -3.47159   0.00067   0.00000  -0.00796  -0.00967  -3.48126
   Z65       19.18733   0.00102   0.00000  -0.01157  -0.01150  19.17583
   X66       -6.40682   0.04252   0.00000   0.07565   0.07653  -6.33029
   Y66       -2.12335   0.00742   0.00000   0.00480   0.00301  -2.12034
   Z66       15.14539  -0.02672   0.00000  -0.04292  -0.04301  15.10239
   X67      -11.39472  -0.04342   0.00000  -0.06943  -0.06859 -11.46332
   Y67       -3.69707  -0.00848   0.00000  -0.01608  -0.01772  -3.71479
   Z67       15.20283  -0.02669   0.00000  -0.04369  -0.04387  15.15896
   X68       -9.69553  -0.01926   0.00000  -0.03079  -0.02997  -9.72550
   Y68       -0.37485   0.04120   0.00000   0.06360   0.06206  -0.31279
   Z68       18.81207   0.02684   0.00000   0.04177   0.04150  18.85358
   X69       -8.04710   0.01895   0.00000   0.03537   0.03604  -8.01105
   Y69       -5.33015  -0.03920   0.00000  -0.06635  -0.06793  -5.39808
   Z69       18.86431   0.02745   0.00000   0.04230   0.04229  18.90660
   X70       -6.11677  -0.00035   0.00000  -0.00273  -0.00198  -6.11874
   Y70      -11.53839   0.00096   0.00000   0.00573   0.00376 -11.53462
   Z70       10.72521   0.00072   0.00000   0.00880   0.00911  10.73433
   X71       -0.30833  -0.00096   0.00000  -0.00965  -0.00896  -0.31729
   Y71        0.06229  -0.00029   0.00000  -0.00693  -0.00854   0.05374
   Z71       23.31865  -0.00065   0.00000  -0.00756  -0.00755  23.31109
   X72      -17.48951   0.00097   0.00000   0.01341   0.01394 -17.47556
   Y72       -5.53319   0.00042   0.00000   0.00288   0.00175  -5.53144
   Z72       23.42774  -0.00050   0.00000  -0.00826  -0.00854  23.41920
   X73       -8.89028   0.00076   0.00000   0.00344   0.00424  -8.88604
   Y73       -2.87355  -0.00037   0.00000  -0.00340  -0.00503  -2.87858
   Z73       16.99951  -0.00145   0.00000  -0.00234  -0.00247  16.99704
         Item               Value     Threshold  Converged?
 Maximum Force            0.043415     0.000450     NO 
 RMS     Force            0.009871     0.000300     NO 
 Maximum Displacement     0.110495     0.001800     NO 
 RMS     Displacement     0.020247     0.001200     NO 
 Predicted change in Energy=-1.569547D-02
 GradGradGradGradGradGradGradGradGradGradGradGradGradGradGradGradGradGrad

 Unable to Open any file for archive entry.
 1\1\GINC-X11P1N2\Force\UwB97XD\def2SVP\C8H8Cl1K3O40V1W12(1-)\MAYUMIAO\
 01-Jun-2024\0\\# def2svp wb97xd scrf=(smd,solvent=acetonitrile) g09def
 ault scf=(xqc,maxcycle=64) force guess=read nosymm\\Title Card\\-1,1\C
 l,-9.96213164,7.80959049,10.44272794\C,-8.30941815,4.24350097,12.23685
 388\C,-9.05981364,3.91582834,11.09220492\C,-10.00528465,2.88141492,11.
 19975457\C,-10.18918126,2.19161324,12.39404994\C,-9.43010814,2.5209613
 1,13.51707245\C,-8.49036957,3.55135833,13.43166089\H,-7.57753784,5.052
 85128,12.19922941\H,-10.59949928,2.6209469,10.32041553\H,-10.91809721,
 1.37936316,12.43965309\H,-9.55728014,1.96721032,14.45034876\H,-7.88707
 67,3.81330976,14.30427082\C,-8.9169535,4.61710905,9.81398903\C,-8.0881
 2235,5.64221631,9.56376686\H,-9.59621636,4.28960734,9.01711399\H,-8.06
 197358,6.12059634,8.58268122\H,-7.38648793,6.02316396,10.31070544\O,-1
 .0156823,-1.76540632,7.46396998\O,-8.40464607,-1.32293366,7.46804496\O
 ,-7.06039347,1.33673961,10.4869615\O,-2.33564577,-4.34338259,10.558875
 5\W,-3.43209344,0.74430383,6.50247579\W,-6.00914742,-3.82266237,6.5878
 6598\W,-3.63681243,0.91380782,11.4029632\W,-5.7760729,-3.86469827,11.4
 6821445\W,-2.46999325,-2.54636106,6.38120159\W,-6.950448,-0.53051602,6
 .35145385\W,-6.83113543,-0.25370621,11.59466757\W,-2.57119489,-2.69220
 731,11.62683623\O,-3.20619722,1.95223744,5.3453249\O,-6.13790796,-5.08
 598749,5.45989722\O,-2.70551524,1.76917094,12.53818234\O,-6.70013062,-
 4.6795093,12.63916696\O,-2.69969234,-0.86578245,5.59387637\O,-6.715950
 78,-2.26749655,5.63380908\O,-5.32344121,0.56273689,12.36540792\O,-4.06
 851612,-3.50754077,12.40938366\O,0.29523149,-0.00789023,9.28161576\O,-
 9.71832019,-3.010667,9.34139801\O,-6.40823152,3.41460373,8.62940678\O,
 -2.96200384,-6.44695629,8.74017922\O,-1.81640068,0.78335018,7.48971135
 \O,-7.6104502,-3.87458821,7.56559833\O,-4.54114147,2.21695019,10.42172
 052\O,-4.86581075,-5.21052681,10.51950611\O,-1.65008564,-3.47594278,5.
 21949416\O,-7.81867659,0.27058929,5.14524958\O,-8.03609763,-0.18485272
 ,12.78808055\O,-1.34178413,-2.7931799,12.79691538\W,-1.26607141,-0.515
 1015,8.84575969\W,-8.15946187,-2.51090722,8.88634044\W,-5.93684952,1.8
 5294699,9.04555858\W,-3.47008833,-4.88040737,9.16285726\O,-4.23924745,
 -3.0924147,6.07528901\O,-5.17756156,-0.03151905,6.02027275\O,-6.187198
 59,-1.9999891,11.92039706\O,-3.19055406,-0.9492732,11.92544476\O,-4.40
 017315,1.60118328,7.8499367\O,-5.00256655,-4.66994303,7.9336214\O,-2.3
 4290028,0.59681757,10.07627406\O,-7.06783634,-3.60388743,10.13631808\O
 ,-2.57755679,-3.86850497,7.85871758\O,-6.85167503,0.78873312,7.8029221
 2\O,-7.84772749,-1.17085075,10.16323255\O,-1.57260974,-1.83708722,10.1
 5349644\O,-3.39034364,-1.12363092,8.01459695\O,-6.02982794,-1.95640606
 ,8.04499173\O,-5.130655,-0.1983646,9.95492053\O,-4.25833941,-2.8205964
 ,9.98256073\K,-3.23685307,-6.1058509,5.67553827\K,-0.16316123,0.032960
 13,12.33969719\K,-9.25504839,-2.92803701,12.39742804\V,-4.70453117,-1.
 52061626,8.99575254\\Version=ES64L-G16RevC.01\HF=-7327.6999367\S2=1.01
 3941\S2-1=0.\S2A=0.112228\RMSD=5.461e-10\RMSF=9.871e-03\Dipole=1.78565
 77,-7.0821423,5.4929385\Quadrupole=-19.468216,43.1340005,-23.6657844,9
 6.6589508,141.5225185,-68.0185219\PG=C01 [X(C8H8Cl1K3O40V1W12)]\\@
 The archive entry for this job was punched.


 The hours that make us happy make us wise.
                         -- John Masefield
 Job cpu time:       0 days 18 hours 32 minutes 44.3 seconds.
 Elapsed time:       0 days  0 hours 21 minutes  7.3 seconds.
 File lengths (MBytes):  RWF=   1859 Int=      0 D2E=      0 Chk=    306 Scr=      1
 Normal termination of Gaussian 16 at Sat Jun  1 18:02:40 2024.
