 Entering Gaussian System, Link 0=g16
 Input=JOBS/13_B.gjf
 Output=JOBS/13_B.log
 Initial command:
 /data/app/gaussian/C01-avx2//g16/l1.exe "/tmp/Gau-599637.inp" -scrdir="/tmp/"
 Entering Link 1 = /data/app/gaussian/C01-avx2//g16/l1.exe PID=    599638.
  
 Copyright (c) 1988-2019, Gaussian, Inc.  All Rights Reserved.
  
 This is part of the Gaussian(R) 16 program.  It is based on
 the Gaussian(R) 09 system (copyright 2009, Gaussian, Inc.),
 the Gaussian(R) 03 system (copyright 2003, Gaussian, Inc.),
 the Gaussian(R) 98 system (copyright 1998, Gaussian, Inc.),
 the Gaussian(R) 94 system (copyright 1995, Gaussian, Inc.),
 the Gaussian 92(TM) system (copyright 1992, Gaussian, Inc.),
 the Gaussian 90(TM) system (copyright 1990, Gaussian, Inc.),
 the Gaussian 88(TM) system (copyright 1988, Gaussian, Inc.),
 the Gaussian 86(TM) system (copyright 1986, Carnegie Mellon
 University), and the Gaussian 82(TM) system (copyright 1983,
 Carnegie Mellon University). Gaussian is a federally registered
 trademark of Gaussian, Inc.
  
 This software contains proprietary and confidential information,
 including trade secrets, belonging to Gaussian, Inc.
  
 This software is provided under written license and may be
 used, copied, transmitted, or stored only in accord with that
 written license.
  
 The following legend is applicable only to US Government
 contracts under FAR:
  
                    RESTRICTED RIGHTS LEGEND
  
 Use, reproduction and disclosure by the US Government is
 subject to restrictions as set forth in subparagraphs (a)
 and (c) of the Commercial Computer Software - Restricted
 Rights clause in FAR 52.227-19.
  
 Gaussian, Inc.
 340 Quinnipiac St., Bldg. 40, Wallingford CT 06492
  
  
 ---------------------------------------------------------------
 Warning -- This program may not be used in any manner that
 competes with the business of Gaussian, Inc. or will provide
 assistance to any competitor of Gaussian, Inc.  The licensee
 of this program is prohibited from giving any competitor of
 Gaussian, Inc. access to this program.  By using this program,
 the user acknowledges that Gaussian, Inc. is engaged in the
 business of creating and licensing software in the field of
 computational chemistry and represents and warrants to the
 licensee that it is not a competitor of Gaussian, Inc. and that
 it will not use this program in any manner prohibited above.
 ---------------------------------------------------------------
  

 Cite this work as:
 Gaussian 16, Revision C.01,
 M. J. Frisch, G. W. Trucks, H. B. Schlegel, G. E. Scuseria, 
 M. A. Robb, J. R. Cheeseman, G. Scalmani, V. Barone, 
 G. A. Petersson, H. Nakatsuji, X. Li, M. Caricato, A. V. Marenich, 
 J. Bloino, B. G. Janesko, R. Gomperts, B. Mennucci, H. P. Hratchian, 
 J. V. Ortiz, A. F. Izmaylov, J. L. Sonnenberg, D. Williams-Young, 
 F. Ding, F. Lipparini, F. Egidi, J. Goings, B. Peng, A. Petrone, 
 T. Henderson, D. Ranasinghe, V. G. Zakrzewski, J. Gao, N. Rega, 
 G. Zheng, W. Liang, M. Hada, M. Ehara, K. Toyota, R. Fukuda, 
 J. Hasegawa, M. Ishida, T. Nakajima, Y. Honda, O. Kitao, H. Nakai, 
 T. Vreven, K. Throssell, J. A. Montgomery, Jr., J. E. Peralta, 
 F. Ogliaro, M. J. Bearpark, J. J. Heyd, E. N. Brothers, K. N. Kudin, 
 V. N. Staroverov, T. A. Keith, R. Kobayashi, J. Normand, 
 K. Raghavachari, A. P. Rendell, J. C. Burant, S. S. Iyengar, 
 J. Tomasi, M. Cossi, J. M. Millam, M. Klene, C. Adamo, R. Cammi, 
 J. W. Ochterski, R. L. Martin, K. Morokuma, O. Farkas, 
 J. B. Foresman, and D. J. Fox, Gaussian, Inc., Wallingford CT, 2019.
 
 ******************************************
 Gaussian 16:  ES64L-G16RevC.01  3-Jul-2019
                 1-Jun-2024 
 ******************************************
 %chk=b.chk
 %nprocshared=56
 Will use up to   56 processors via shared memory.
 %mem=96gb
 ----------------------------------------------------------------------
 # def2svp wb97xd scrf=(smd,solvent=acetonitrile) g09default scf=(xqc,m
 axcycle=64) force guess=read nosymm
 ----------------------------------------------------------------------
 1/10=7,30=1,38=1,158=3,167=1/1,3;
 2/12=2,15=1,17=6,18=5,40=1/2;
 3/5=43,7=101,11=2,25=1,27=10,30=1,70=32201,71=1,72=2,74=-58,75=-4,116=-2,158=3/1,2,3;
 4/5=1,60=-1/1;
 5/5=2,7=64,8=3,13=1,38=6,53=2,87=10/2,8;
 6/7=2,8=2,9=2,10=2,28=1,87=10/1;
 7/29=1,30=1,87=10/1,2,3,16;
 1/10=7,30=1,158=3,167=1/3;
 99//99;
 Using 2006 physical constants.
 ----------
 Title Card
 ----------
 Symbolic Z-matrix:
 Charge = -1 Multiplicity = 1
 17                   -9.96654   7.82423   10.44674 
 6                    -8.30885   4.24219   12.2365 
 6                    -9.05992   3.91529   11.09229 
 6                    -10.00471   2.88003   11.1994 
 6                    -10.18937   2.19078   12.39395 
 6                    -9.4301    2.52123   13.51719 
 6                    -8.49021   3.55099   13.4311 
 1                    -7.57707   5.0523    12.199 
 1                    -10.60011   2.61929   10.32055 
 1                    -10.9192   1.37945   12.44086 
 1                    -9.5573    1.96773   14.45049 
 1                    -7.88762   3.81416   14.3046 
 6                    -8.92038   4.61747   9.81462 
 6                    -8.09094   5.64639   9.56461 
 1                    -9.59372   4.286     9.01653 
 1                    -8.06212   6.11916   8.58149 
 1                    -7.38631   6.02147   10.30973 
 8                    -1.01458  -1.76568   7.46386 
 8                    -8.40595  -1.32263   7.46813 
 8                    -7.06089   1.33778   10.48659 
 8                    -2.33453  -4.3443    10.55878 
 74                   -3.43094   0.74385   6.50137 
 74                   -6.00959  -3.82269   6.58757 
 74                   -3.63662   0.91407   11.40382 
 74                   -5.77635  -3.86543   11.46891 
 74                   -2.47028  -2.54585   6.38159 
 74                   -6.95006  -0.5313    6.35121 
 74                   -6.83056  -0.25331   11.59448 
 74                   -2.57128  -2.69264   11.62726 
 8                    -3.20556   1.95103   5.3444 
 8                    -6.13851  -5.08514   5.45888 
 8                    -2.70655   1.76914   12.53915 
 8                    -6.69893  -4.67969   12.63966 
 8                    -2.69972  -0.86603   5.59153 
 8                    -6.71603  -2.26775   5.63155 
 8                    -5.32354   0.5627    12.36739 
 8                    -4.06837  -3.50754   12.41119 
 8                     0.29486  -0.00755   9.28049 
 8                    -9.71781  -3.01086   9.3399 
 8                    -6.4051    3.4138    8.62886 
 8                    -2.96243  -6.44641   8.74132 
 8                    -1.8154    0.78489   7.48908 
 8                    -7.61098  -3.87635   7.56504 
 8                    -4.53939   2.21803   10.42225 
 8                    -4.86673  -5.21223   10.51998 
 8                    -1.64906  -3.47515   5.22005 
 8                    -7.8193    0.26988   5.14656 
 8                    -8.03585  -0.18365   12.78689 
 8                    -1.34217  -2.79458   12.796 
 74                   -1.26697  -0.51511   8.8453 
 74                   -8.15864  -2.51082   8.88572 
 74                   -5.93576   1.85309   9.04528 
 74                   -3.47037  -4.88067   9.16317 
 8                    -4.23875  -3.09322   6.07408 
 8                    -5.17815  -0.0303    6.01861 
 8                    -6.18824  -2.00034   11.92167 
 8                    -3.18914  -0.94916   11.9269 
 8                    -4.39911   1.60118   7.84876 
 8                    -5.0028   -4.67159   7.93217 
 8                    -2.34194   0.59799   10.0776 
 8                    -7.06862  -3.60516   10.13766 
 8                    -2.57809  -3.86937   7.85833 
 8                    -6.85064   0.78911   7.80266 
 8                    -7.84788  -1.17165   10.16347 
 8                    -1.57236  -1.83628   10.15385 
 8                    -3.3895   -1.12462   8.0149 
 8                    -6.03069  -1.95552   8.0452 
 8                    -5.13211  -0.19827   9.95461 
 8                    -4.25701  -2.82103   9.98221 
 19                   -3.2363   -6.10822   5.6738 
 19                   -0.16098   0.03403   12.34144 
 19                   -9.25748  -2.92842   12.39958 
 23                   -4.70454  -1.52062   8.99548 
 

 GradGradGradGradGradGradGradGradGradGradGradGradGradGradGradGradGradGrad
 Berny optimization.
 Initialization pass.
 Trust Radius=3.00D-01 FncErr=1.00D-07 GrdErr=1.00D-07 EigMax=2.50D+02 EigMin=1.00D-04
 Number of steps in this run=      2 maximum allowed number of steps=      2.
 GradGradGradGradGradGradGradGradGradGradGradGradGradGradGradGradGradGrad

 Symmetry turned off by external request.
 Stoichiometry    C8H8ClK3O40VW12(1-)
 Framework group  C1[X(C8H8ClK3O40VW12)]
 Deg. of freedom   213
 Full point group                 C1      NOp   1
                          Input orientation:                          
 ---------------------------------------------------------------------
 Center     Atomic      Atomic             Coordinates (Angstroms)
 Number     Number       Type             X           Y           Z
 ---------------------------------------------------------------------
      1         17           0       -9.966540    7.824232   10.446741
      2          6           0       -8.308854    4.242189   12.236504
      3          6           0       -9.059925    3.915290   11.092295
      4          6           0      -10.004706    2.880027   11.199402
      5          6           0      -10.189373    2.190779   12.393953
      6          6           0       -9.430095    2.521234   13.517194
      7          6           0       -8.490210    3.550993   13.431096
      8          1           0       -7.577071    5.052302   12.198998
      9          1           0      -10.600107    2.619289   10.320552
     10          1           0      -10.919196    1.379453   12.440862
     11          1           0       -9.557299    1.967730   14.450487
     12          1           0       -7.887619    3.814157   14.304603
     13          6           0       -8.920376    4.617473    9.814621
     14          6           0       -8.090943    5.646390    9.564610
     15          1           0       -9.593720    4.286001    9.016534
     16          1           0       -8.062122    6.119164    8.581488
     17          1           0       -7.386309    6.021471   10.309729
     18          8           0       -1.014583   -1.765676    7.463862
     19          8           0       -8.405949   -1.322630    7.468133
     20          8           0       -7.060894    1.337780   10.486593
     21          8           0       -2.334532   -4.344298   10.558782
     22         74           0       -3.430944    0.743852    6.501368
     23         74           0       -6.009592   -3.822688    6.587568
     24         74           0       -3.636620    0.914072   11.403815
     25         74           0       -5.776348   -3.865427   11.468909
     26         74           0       -2.470276   -2.545845    6.381593
     27         74           0       -6.950065   -0.531304    6.351215
     28         74           0       -6.830557   -0.253306   11.594478
     29         74           0       -2.571284   -2.692637   11.627264
     30          8           0       -3.205555    1.951029    5.344402
     31          8           0       -6.138507   -5.085138    5.458881
     32          8           0       -2.706547    1.769137   12.539145
     33          8           0       -6.698933   -4.679693   12.639662
     34          8           0       -2.699716   -0.866026    5.591528
     35          8           0       -6.716031   -2.267754    5.631546
     36          8           0       -5.323543    0.562699   12.367390
     37          8           0       -4.068372   -3.507541   12.411190
     38          8           0        0.294860   -0.007550    9.280486
     39          8           0       -9.717806   -3.010865    9.339895
     40          8           0       -6.405099    3.413801    8.628865
     41          8           0       -2.962434   -6.446411    8.741318
     42          8           0       -1.815404    0.784893    7.489077
     43          8           0       -7.610981   -3.876352    7.565036
     44          8           0       -4.539394    2.218029   10.422246
     45          8           0       -4.866734   -5.212234   10.519979
     46          8           0       -1.649062   -3.475149    5.220048
     47          8           0       -7.819304    0.269875    5.146557
     48          8           0       -8.035855   -0.183653   12.786893
     49          8           0       -1.342171   -2.794581   12.795996
     50         74           0       -1.266966   -0.515111    8.845303
     51         74           0       -8.158642   -2.510820    8.885722
     52         74           0       -5.935759    1.853092    9.045282
     53         74           0       -3.470369   -4.880668    9.163168
     54          8           0       -4.238753   -3.093224    6.074085
     55          8           0       -5.178148   -0.030297    6.018614
     56          8           0       -6.188239   -2.000345   11.921674
     57          8           0       -3.189138   -0.949158   11.926904
     58          8           0       -4.399112    1.601177    7.848763
     59          8           0       -5.002804   -4.671593    7.932171
     60          8           0       -2.341935    0.597991   10.077601
     61          8           0       -7.068624   -3.605162   10.137661
     62          8           0       -2.578094   -3.869368    7.858335
     63          8           0       -6.850644    0.789112    7.802663
     64          8           0       -7.847883   -1.171655   10.163470
     65          8           0       -1.572360   -1.836279   10.153853
     66          8           0       -3.389496   -1.124624    8.014902
     67          8           0       -6.030687   -1.955522    8.045200
     68          8           0       -5.132112   -0.198268    9.954608
     69          8           0       -4.257010   -2.821035    9.982214
     70         19           0       -3.236301   -6.108224    5.673798
     71         19           0       -0.160983    0.034032   12.341439
     72         19           0       -9.257477   -2.928424   12.399576
     73         23           0       -4.704544   -1.520623    8.995481
 ---------------------------------------------------------------------
 Rotational constants (GHZ):           0.0172247           0.0133469           0.0131407
 Standard basis: def2SVP (5D, 7F)
  1217 basis functions,  2313 primitive gaussians,  1337 cartesian basis functions
   321 alpha electrons      321 beta electrons
       nuclear repulsion energy     21030.2996155355 Hartrees.
 NAtoms=   73 NActive=   73 NUniq=   73 SFac= 1.00D+00 NAtFMM=   60 NAOKFM=T Big=T
 Integral buffers will be    131072 words long.
 Raffenetti 2 integral format.
 Two-electron integral symmetry is turned off.
 Nuclear repulsion after empirical dispersion term =    21030.0214624583 Hartrees.
 Force PCM accuracy= 1.00D-10.
 ------------------------------------------------------------------------------
 Polarizable Continuum Model (PCM)
 =================================
 Model                : PCM (using non-symmetric T matrix).
 Atomic radii         : SMD-Coulomb.
 Polarization charges : Total charges.
 Charge compensation  : None.
 Solution method      : On-the-fly selection.
 Cavity type          : VdW (van der Waals Surface) (Alpha=1.000).
 Cavity algorithm     : GePol (No added spheres)
                        Default sphere list used, NSphG=   73.
                        Lebedev-Laikov grids with approx.  5.0 points / Ang**2.
                        Smoothing algorithm: York/Karplus (Gamma=1.0000).
                        Polarization charges: spherical gaussians, with
                                              point-specific exponents (IZeta= 3).
                        Self-potential: point-specific (ISelfS= 7).
                        Self-field    : sphere-specific E.n sum rule (ISelfD= 2).
 1st derivatives      : Analytical E(r).r(x)/FMM algorithm (CHGder, D1EAlg=3).
                        Cavity 1st derivative terms included.
 Solvent              : Acetonitrile, Eps=  35.688000 Eps(inf)=   1.806874
 ------------------------------------------------------------------------------
 ------------------------------------------------------------------------------
 Atomic radii for non-electrostatic terms: SMD-CDS.
 ------------------------------------------------------------------------------
 Nuclear repulsion after PCM non-electrostatic terms =    21030.0156573962 Hartrees.
 One-electron integrals computed using PRISM.
   1 Symmetry operations used in ECPInt.
 ECPInt:  NShTT=  127765 NPrTT=  468030 LenC2=   96878 LenP2D=  221802.
 LDataN:  DoStor=T MaxTD1= 8 Len=  415
 NBasis=  1217 RedAO= T EigKep=  1.35D-04  NBF=  1217
 NBsUse=  1217 1.00D-06 EigRej= -1.00D+00 NBFU=  1217
 Defaulting to unpruned grid for atomic number  74.
 Defaulting to unpruned grid for atomic number  74.
 Defaulting to unpruned grid for atomic number  74.
 Defaulting to unpruned grid for atomic number  74.
 Defaulting to unpruned grid for atomic number  74.
 Defaulting to unpruned grid for atomic number  74.
 Defaulting to unpruned grid for atomic number  74.
 Defaulting to unpruned grid for atomic number  74.
 Initial guess from the checkpoint file:  "b.chk"
 B after Tr=     0.000486   -0.000552    0.000140
         Rot=    1.000000    0.000002    0.000006    0.000033 Ang=   0.00 deg.
 Initial guess <Sx>= 0.0000 <Sy>= 0.0000 <Sz>= 0.0000 <S**2>= 1.0140 S= 0.6243
 Requested convergence on RMS density matrix=1.00D-08 within  64 cycles.
 Requested convergence on MAX density matrix=1.00D-06.
 Requested convergence on             energy=1.00D-06.
 No special actions if energy rises.
 Defaulting to unpruned grid for atomic number  74.
 Defaulting to unpruned grid for atomic number  74.
 Defaulting to unpruned grid for atomic number  74.
 Defaulting to unpruned grid for atomic number  74.
 Defaulting to unpruned grid for atomic number  74.
 Defaulting to unpruned grid for atomic number  74.
 Defaulting to unpruned grid for atomic number  74.
 Defaulting to unpruned grid for atomic number  74.
 Defaulting to unpruned grid for atomic number  74.
 Defaulting to unpruned grid for atomic number  74.
 Defaulting to unpruned grid for atomic number  74.
 Defaulting to unpruned grid for atomic number  74.
 Defaulting to unpruned grid for atomic number  74.
 Defaulting to unpruned grid for atomic number  74.
 Defaulting to unpruned grid for atomic number  74.
 Defaulting to unpruned grid for atomic number  74.
 Defaulting to unpruned grid for atomic number  74.
 Defaulting to unpruned grid for atomic number  74.
 Defaulting to unpruned grid for atomic number  74.
 Defaulting to unpruned grid for atomic number  74.
 Defaulting to unpruned grid for atomic number  74.
 Defaulting to unpruned grid for atomic number  74.
 Defaulting to unpruned grid for atomic number  74.
 Defaulting to unpruned grid for atomic number  74.
 Defaulting to unpruned grid for atomic number  74.
 Defaulting to unpruned grid for atomic number  74.
 Defaulting to unpruned grid for atomic number  74.
 Defaulting to unpruned grid for atomic number  74.
 Defaulting to unpruned grid for atomic number  74.
 Defaulting to unpruned grid for atomic number  74.
 Defaulting to unpruned grid for atomic number  74.
 Defaulting to unpruned grid for atomic number  74.
 Defaulting to unpruned grid for atomic number  74.
 Defaulting to unpruned grid for atomic number  74.
 Defaulting to unpruned grid for atomic number  74.
 Defaulting to unpruned grid for atomic number  74.
 Defaulting to unpruned grid for atomic number  74.
 Defaulting to unpruned grid for atomic number  74.
 Defaulting to unpruned grid for atomic number  74.
 Defaulting to unpruned grid for atomic number  74.
 Defaulting to unpruned grid for atomic number  74.
 Defaulting to unpruned grid for atomic number  74.
 Defaulting to unpruned grid for atomic number  74.
 Defaulting to unpruned grid for atomic number  74.
 Defaulting to unpruned grid for atomic number  74.
 Defaulting to unpruned grid for atomic number  74.
 Defaulting to unpruned grid for atomic number  74.
 Defaulting to unpruned grid for atomic number  74.
 Defaulting to unpruned grid for atomic number  74.
 Defaulting to unpruned grid for atomic number  74.
 Defaulting to unpruned grid for atomic number  74.
 Defaulting to unpruned grid for atomic number  74.
 Defaulting to unpruned grid for atomic number  74.
 Defaulting to unpruned grid for atomic number  74.
 Defaulting to unpruned grid for atomic number  74.
 Defaulting to unpruned grid for atomic number  74.
 Inv3:  Mode=1 IEnd=    85867500.
 Iteration    1 A*A^-1 deviation from unit magnitude is 3.55D-15 for   3579.
 Iteration    1 A*A^-1 deviation from orthogonality  is 4.00D-15 for   4689   1807.
 Iteration    1 A^-1*A deviation from unit magnitude is 4.22D-15 for   4467.
 Iteration    1 A^-1*A deviation from orthogonality  is 3.25D-09 for    954    930.
 Iteration    2 A*A^-1 deviation from unit magnitude is 4.22D-15 for   4658.
 Iteration    2 A*A^-1 deviation from orthogonality  is 4.97D-15 for    939    363.
 Iteration    2 A^-1*A deviation from unit magnitude is 1.44D-15 for    212.
 Iteration    2 A^-1*A deviation from orthogonality  is 7.16D-16 for   5206   5093.
 Restarting incremental Fock formation.
 Restarting incremental Fock formation.
 Error on total polarization charges =  0.01562
 SCF Done:  E(UwB97XD) =  -7327.70037456     A.U. after   50 cycles
            NFock= 50  Conv=0.18D-09     -V/T= 2.0830
 <Sx>= 0.0000 <Sy>= 0.0000 <Sz>= 0.0000 <S**2>= 1.0140 S= 0.6243
 <L.S>=  0.00000000000    
 SMD-CDS (non-electrostatic) energy       (kcal/mol) =      -3.64
 (included in total energy above)
 Annihilation of the first spin contaminant:
 S**2 before annihilation     1.0140,   after     0.1131
 QCSCF skips out because SCF is already converged.

 **********************************************************************

            Population analysis using the SCF Density.

 **********************************************************************

 Alpha  occ. eigenvalues -- -197.10390-129.99005-129.99002-129.98955-101.61760
 Alpha  occ. eigenvalues --  -22.44095 -19.28491 -19.28483 -19.28450 -19.28391
 Alpha  occ. eigenvalues --  -19.28389 -19.28378 -19.28368 -19.28361 -19.28337
 Alpha  occ. eigenvalues --  -19.28258 -19.28239 -19.28174 -19.26968 -19.26911
 Alpha  occ. eigenvalues --  -19.26908 -19.26895 -19.26882 -19.26881 -19.26864
 Alpha  occ. eigenvalues --  -19.26849 -19.26847 -19.26831 -19.26830 -19.26814
 Alpha  occ. eigenvalues --  -19.26813 -19.26799 -19.26795 -19.26789 -19.26772
 Alpha  occ. eigenvalues --  -19.26770 -19.26741 -19.26731 -19.26720 -19.26709
 Alpha  occ. eigenvalues --  -19.26647 -19.26628 -19.24615 -19.24545 -19.24542
 Alpha  occ. eigenvalues --  -19.24505 -18.93668 -18.92584 -18.92531 -13.36410
 Alpha  occ. eigenvalues --  -13.36408 -13.36349 -10.69338 -10.69335 -10.69333
 Alpha  occ. eigenvalues --  -10.69333 -10.69331 -10.69331 -10.69278 -10.69273
 Alpha  occ. eigenvalues --  -10.69271 -10.32922 -10.32357 -10.31772 -10.30884
 Alpha  occ. eigenvalues --  -10.30865 -10.30798 -10.30485 -10.30384  -9.52164
 Alpha  occ. eigenvalues --   -7.27039  -7.26716  -7.26708  -3.21067  -3.21043
 Alpha  occ. eigenvalues --   -3.21038  -3.21034  -3.21009  -3.20996  -3.20987
 Alpha  occ. eigenvalues --   -3.20985  -3.20969  -3.20832  -3.20827  -3.20803
 Alpha  occ. eigenvalues --   -2.78508  -1.85317  -1.85286  -1.85264  -1.85227
 Alpha  occ. eigenvalues --   -1.85108  -1.85066  -1.85051  -1.85037  -1.85022
 Alpha  occ. eigenvalues --   -1.85010  -1.84983  -1.84935  -1.84375  -1.84263
 Alpha  occ. eigenvalues --   -1.84248  -1.84242  -1.84202  -1.84193  -1.84125
 Alpha  occ. eigenvalues --   -1.84110  -1.84083  -1.84082  -1.84051  -1.84045
 Alpha  occ. eigenvalues --   -1.83923  -1.83899  -1.83887  -1.83879  -1.83846
 Alpha  occ. eigenvalues --   -1.83806  -1.83789  -1.83787  -1.83770  -1.83669
 Alpha  occ. eigenvalues --   -1.83668  -1.83654  -1.81701  -1.81370  -1.81342
 Alpha  occ. eigenvalues --   -1.50120  -1.50117  -1.50060  -1.08622  -1.06985
 Alpha  occ. eigenvalues --   -1.06954  -1.06923  -1.06030  -1.06020  -1.05989
 Alpha  occ. eigenvalues --   -1.04592  -1.04580  -1.04568  -1.03981  -1.03958
 Alpha  occ. eigenvalues --   -1.03651  -1.03368  -1.03312  -1.03304  -1.03067
 Alpha  occ. eigenvalues --   -1.03040  -1.02225  -1.02204  -1.02171  -1.02077
 Alpha  occ. eigenvalues --   -1.02039  -1.02010  -1.01945  -1.01918  -1.01804
 Alpha  occ. eigenvalues --   -1.01772  -1.01756  -1.01642  -1.01585  -1.01575
 Alpha  occ. eigenvalues --   -1.01293  -1.00804  -1.00783  -1.00742  -1.00721
 Alpha  occ. eigenvalues --   -0.99935  -0.99863  -0.99796  -0.96076  -0.89246
 Alpha  occ. eigenvalues --   -0.85573  -0.85567  -0.85521  -0.85411  -0.85410
 Alpha  occ. eigenvalues --   -0.85407  -0.85405  -0.85357  -0.85341  -0.84143
 Alpha  occ. eigenvalues --   -0.82337  -0.80712  -0.71841  -0.69503  -0.64999
 Alpha  occ. eigenvalues --   -0.62343  -0.61726  -0.61684  -0.61641  -0.60572
 Alpha  occ. eigenvalues --   -0.59005  -0.58992  -0.58976  -0.58902  -0.58847
 Alpha  occ. eigenvalues --   -0.58777  -0.58763  -0.58718  -0.58572  -0.57333
 Alpha  occ. eigenvalues --   -0.57299  -0.57264  -0.57011  -0.56745  -0.56498
 Alpha  occ. eigenvalues --   -0.56465  -0.56427  -0.56013  -0.55848  -0.55365
 Alpha  occ. eigenvalues --   -0.55358  -0.55321  -0.54346  -0.54225  -0.54188
 Alpha  occ. eigenvalues --   -0.54016  -0.53653  -0.53606  -0.53585  -0.52736
 Alpha  occ. eigenvalues --   -0.52642  -0.52639  -0.52547  -0.52502  -0.51501
 Alpha  occ. eigenvalues --   -0.51483  -0.51477  -0.51360  -0.51314  -0.50673
 Alpha  occ. eigenvalues --   -0.50605  -0.50527  -0.50488  -0.50384  -0.50330
 Alpha  occ. eigenvalues --   -0.50241  -0.50064  -0.50060  -0.50005  -0.49770
 Alpha  occ. eigenvalues --   -0.49725  -0.49670  -0.49493  -0.49458  -0.49303
 Alpha  occ. eigenvalues --   -0.49247  -0.49217  -0.49125  -0.49092  -0.48996
 Alpha  occ. eigenvalues --   -0.48767  -0.48601  -0.48586  -0.48519  -0.47725
 Alpha  occ. eigenvalues --   -0.47708  -0.47114  -0.46505  -0.46034  -0.46021
 Alpha  occ. eigenvalues --   -0.45834  -0.45771  -0.45745  -0.45632  -0.45209
 Alpha  occ. eigenvalues --   -0.45128  -0.45125  -0.44839  -0.44630  -0.44502
 Alpha  occ. eigenvalues --   -0.44472  -0.44454  -0.44270  -0.44262  -0.44239
 Alpha  occ. eigenvalues --   -0.43365  -0.43048  -0.42540  -0.42508  -0.42457
 Alpha  occ. eigenvalues --   -0.42292  -0.42169  -0.42166  -0.42045  -0.41636
 Alpha  occ. eigenvalues --   -0.41610  -0.41568  -0.41034  -0.40997  -0.40813
 Alpha  occ. eigenvalues --   -0.40767  -0.40736  -0.40412  -0.40399  -0.40373
 Alpha  occ. eigenvalues --   -0.40214  -0.40182  -0.40177  -0.40158  -0.39892
 Alpha  occ. eigenvalues --   -0.39332  -0.39246  -0.39219  -0.39154  -0.38993
 Alpha  occ. eigenvalues --   -0.38912  -0.38891  -0.38821  -0.38711  -0.38682
 Alpha  occ. eigenvalues --   -0.38336  -0.38308  -0.38271  -0.37830  -0.37193
 Alpha  occ. eigenvalues --   -0.37179  -0.34452  -0.34426  -0.33534  -0.30121
 Alpha  occ. eigenvalues --   -0.25401
 Alpha virt. eigenvalues --   -0.11567  -0.06244  -0.06226  -0.04776  -0.04728
 Alpha virt. eigenvalues --   -0.04624  -0.01438  -0.01347  -0.01305  -0.01101
 Alpha virt. eigenvalues --   -0.00922  -0.00900  -0.00831  -0.00144  -0.00048
 Alpha virt. eigenvalues --   -0.00026   0.00726   0.00734   0.00780   0.00956
 Alpha virt. eigenvalues --    0.01041   0.01443   0.01854   0.01908   0.01937
 Alpha virt. eigenvalues --    0.02491   0.02758   0.02810   0.02863   0.03530
 Alpha virt. eigenvalues --    0.03640   0.03743   0.03920   0.03988   0.04344
 Alpha virt. eigenvalues --    0.04372   0.04422   0.04446   0.04649   0.05082
 Alpha virt. eigenvalues --    0.05136   0.06076   0.06465   0.08105   0.08316
 Alpha virt. eigenvalues --    0.08487   0.08642   0.08867   0.08901   0.09444
 Alpha virt. eigenvalues --    0.09802   0.09882   0.09892   0.09932   0.10019
 Alpha virt. eigenvalues --    0.10098   0.10192   0.10379   0.10870   0.10983
 Alpha virt. eigenvalues --    0.11553   0.11659   0.11968   0.12226   0.12277
 Alpha virt. eigenvalues --    0.12427   0.12468   0.12504   0.12858   0.13328
 Alpha virt. eigenvalues --    0.13446   0.13667   0.14047   0.14302   0.14837
 Alpha virt. eigenvalues --    0.14991   0.15045   0.15237   0.15409   0.15859
 Alpha virt. eigenvalues --    0.16150   0.16810   0.17131   0.17790   0.17897
 Alpha virt. eigenvalues --    0.18302   0.18476   0.18602   0.18796   0.18976
 Alpha virt. eigenvalues --    0.19308   0.19394   0.19503   0.19596   0.19642
 Alpha virt. eigenvalues --    0.19700   0.19997   0.20082   0.20712   0.20945
 Alpha virt. eigenvalues --    0.21176   0.21332   0.21413   0.21583   0.21647
 Alpha virt. eigenvalues --    0.21702   0.21962   0.21997   0.22166   0.22317
 Alpha virt. eigenvalues --    0.22424   0.22839   0.23208   0.23303   0.23376
 Alpha virt. eigenvalues --    0.23469   0.23652   0.23832   0.24112   0.24340
 Alpha virt. eigenvalues --    0.24554   0.24728   0.24792   0.25091   0.25246
 Alpha virt. eigenvalues --    0.25528   0.25579   0.25704   0.26347   0.26820
 Alpha virt. eigenvalues --    0.26898   0.27239   0.27391   0.27700   0.27971
 Alpha virt. eigenvalues --    0.28045   0.28442   0.28745   0.28793   0.29156
 Alpha virt. eigenvalues --    0.29312   0.29336   0.29450   0.29604   0.29765
 Alpha virt. eigenvalues --    0.30238   0.30636   0.31066   0.31326   0.31655
 Alpha virt. eigenvalues --    0.31789   0.32410   0.32600   0.32791   0.33336
 Alpha virt. eigenvalues --    0.33746   0.34434   0.35595   0.36927   0.37118
 Alpha virt. eigenvalues --    0.38213   0.38726   0.39007   0.39313   0.39614
 Alpha virt. eigenvalues --    0.40407   0.41389   0.41793   0.41935   0.42022
 Alpha virt. eigenvalues --    0.42253   0.42516   0.42634   0.43348   0.43984
 Alpha virt. eigenvalues --    0.44305   0.44494   0.44952   0.45336   0.45557
 Alpha virt. eigenvalues --    0.45623   0.45780   0.46034   0.46488   0.46709
 Alpha virt. eigenvalues --    0.46985   0.47189   0.47706   0.47906   0.48257
 Alpha virt. eigenvalues --    0.48392   0.48499   0.48731   0.49033   0.49072
 Alpha virt. eigenvalues --    0.49378   0.49806   0.49957   0.50002   0.50049
 Alpha virt. eigenvalues --    0.50149   0.50382   0.50586   0.50622   0.50878
 Alpha virt. eigenvalues --    0.51264   0.51393   0.51725   0.51799   0.52112
 Alpha virt. eigenvalues --    0.52501   0.52868   0.52950   0.53081   0.53446
 Alpha virt. eigenvalues --    0.53769   0.54055   0.54405   0.54427   0.54655
 Alpha virt. eigenvalues --    0.54776   0.55569   0.56051   0.56075   0.56409
 Alpha virt. eigenvalues --    0.56647   0.57045   0.57162   0.57348   0.57790
 Alpha virt. eigenvalues --    0.58642   0.58821   0.59069   0.59469   0.59798
 Alpha virt. eigenvalues --    0.60194   0.60615   0.60985   0.61344   0.61803
 Alpha virt. eigenvalues --    0.62036   0.62876   0.63680   0.64075   0.64770
 Alpha virt. eigenvalues --    0.65077   0.66417   0.66648   0.66686   0.66947
 Alpha virt. eigenvalues --    0.68211   0.68364   0.68684   0.68967   0.69505
 Alpha virt. eigenvalues --    0.69784   0.70276   0.71025   0.71452   0.71816
 Alpha virt. eigenvalues --    0.72242   0.72627   0.72895   0.72958   0.73248
 Alpha virt. eigenvalues --    0.73312   0.73544   0.73622   0.73817   0.73966
 Alpha virt. eigenvalues --    0.74309   0.74357   0.75203   0.75633   0.75849
 Alpha virt. eigenvalues --    0.76230   0.76964   0.77282   0.78002   0.78507
 Alpha virt. eigenvalues --    0.79059   0.79740   0.80057   0.80413   0.80724
 Alpha virt. eigenvalues --    0.80999   0.81131   0.82066   0.82257   0.82604
 Alpha virt. eigenvalues --    0.83043   0.83494   0.84058   0.84275   0.84470
 Alpha virt. eigenvalues --    0.84730   0.85285   0.85664   0.86582   0.87395
 Alpha virt. eigenvalues --    0.88021   0.88713   0.89349   0.89846   0.90177
 Alpha virt. eigenvalues --    0.90479   0.90697   0.91196   0.91737   0.91928
 Alpha virt. eigenvalues --    0.91992   0.92462   0.92883   0.92904   0.93185
 Alpha virt. eigenvalues --    0.93229   0.93412   0.93544   0.93962   0.94347
 Alpha virt. eigenvalues --    0.95022   0.95389   0.95847   0.96655   0.97074
 Alpha virt. eigenvalues --    0.97192   0.97305   0.97753   0.98221   0.99063
 Alpha virt. eigenvalues --    0.99313   0.99531   0.99709   1.00074   1.00416
 Alpha virt. eigenvalues --    1.00573   1.00716   1.00797   1.01042   1.01170
 Alpha virt. eigenvalues --    1.01219   1.01374   1.01857   1.02312   1.02754
 Alpha virt. eigenvalues --    1.02824   1.03260   1.03415   1.03695   1.03906
 Alpha virt. eigenvalues --    1.04338   1.04513   1.04759   1.04882   1.05163
 Alpha virt. eigenvalues --    1.05266   1.05498   1.05641   1.06166   1.06645
 Alpha virt. eigenvalues --    1.07119   1.07126   1.07379   1.07474   1.07575
 Alpha virt. eigenvalues --    1.07809   1.08134   1.08328   1.08576   1.08872
 Alpha virt. eigenvalues --    1.09032   1.09264   1.09458   1.10250   1.10968
 Alpha virt. eigenvalues --    1.11234   1.11457   1.11948   1.12169   1.12384
 Alpha virt. eigenvalues --    1.12430   1.12897   1.13049   1.13255   1.13383
 Alpha virt. eigenvalues --    1.13452   1.13721   1.13879   1.14263   1.14443
 Alpha virt. eigenvalues --    1.14842   1.15186   1.15351   1.15625   1.16289
 Alpha virt. eigenvalues --    1.16897   1.17616   1.17997   1.18324   1.18617
 Alpha virt. eigenvalues --    1.18852   1.19774   1.19891   1.20114   1.20516
 Alpha virt. eigenvalues --    1.20994   1.21972   1.22756   1.22862   1.22908
 Alpha virt. eigenvalues --    1.23257   1.23498   1.23794   1.23892   1.24770
 Alpha virt. eigenvalues --    1.25232   1.25641   1.27098   1.27663   1.27984
 Alpha virt. eigenvalues --    1.28362   1.29060   1.29537   1.30167   1.30366
 Alpha virt. eigenvalues --    1.30696   1.30887   1.31052   1.31128   1.31672
 Alpha virt. eigenvalues --    1.31882   1.31937   1.32117   1.32336   1.32549
 Alpha virt. eigenvalues --    1.32736   1.32798   1.33117   1.33359   1.34074
 Alpha virt. eigenvalues --    1.34928   1.35130   1.35397   1.35513   1.35775
 Alpha virt. eigenvalues --    1.35830   1.36251   1.36434   1.36685   1.36869
 Alpha virt. eigenvalues --    1.36990   1.37427   1.37987   1.38036   1.38233
 Alpha virt. eigenvalues --    1.38411   1.38683   1.38895   1.38992   1.39202
 Alpha virt. eigenvalues --    1.39359   1.39528   1.39694   1.39758   1.39926
 Alpha virt. eigenvalues --    1.40129   1.40329   1.40744   1.40983   1.41153
 Alpha virt. eigenvalues --    1.41198   1.41276   1.41657   1.41770   1.41916
 Alpha virt. eigenvalues --    1.42231   1.42541   1.42611   1.42747   1.43127
 Alpha virt. eigenvalues --    1.43213   1.43451   1.43722   1.43782   1.44374
 Alpha virt. eigenvalues --    1.44663   1.44982   1.45109   1.45466   1.45584
 Alpha virt. eigenvalues --    1.45704   1.46012   1.46471   1.46763   1.47599
 Alpha virt. eigenvalues --    1.48083   1.48172   1.49648   1.49813   1.49932
 Alpha virt. eigenvalues --    1.50399   1.50960   1.51827   1.52347   1.52507
 Alpha virt. eigenvalues --    1.52719   1.53157   1.53548   1.53848   1.55423
 Alpha virt. eigenvalues --    1.55518   1.57492   1.58094   1.58174   1.58347
 Alpha virt. eigenvalues --    1.58613   1.58976   1.59162   1.59568   1.60164
 Alpha virt. eigenvalues --    1.60716   1.61010   1.61520   1.61706   1.62082
 Alpha virt. eigenvalues --    1.62318   1.62615   1.62980   1.63454   1.64087
 Alpha virt. eigenvalues --    1.64695   1.64839   1.65051   1.65581   1.65892
 Alpha virt. eigenvalues --    1.66102   1.66875   1.68102   1.68543   1.69814
 Alpha virt. eigenvalues --    1.70404   1.70727   1.71051   1.72666   1.73109
 Alpha virt. eigenvalues --    1.73367   1.73511   1.74173   1.74495   1.75030
 Alpha virt. eigenvalues --    1.75880   1.76424   1.77674   1.77888   1.78134
 Alpha virt. eigenvalues --    1.78579   1.78822   1.79106   1.79529   1.79721
 Alpha virt. eigenvalues --    1.80064   1.81066   1.81141   1.81570   1.81703
 Alpha virt. eigenvalues --    1.82412   1.82786   1.83794   1.84023   1.84182
 Alpha virt. eigenvalues --    1.84610   1.85118   1.85263   1.85700   1.86101
 Alpha virt. eigenvalues --    1.86319   1.86683   1.86883   1.87450   1.87850
 Alpha virt. eigenvalues --    1.88516   1.88649   1.89151   1.89245   1.89473
 Alpha virt. eigenvalues --    1.90061   1.90488   1.91514   1.92070   1.92678
 Alpha virt. eigenvalues --    1.92977   1.93398   1.93734   1.93876   1.95011
 Alpha virt. eigenvalues --    1.96265   1.96937   1.97635   1.97826   1.98533
 Alpha virt. eigenvalues --    1.98929   2.01882   2.02009   2.02055   2.03835
 Alpha virt. eigenvalues --    2.05307   2.05966   2.07292   2.08404   2.08926
 Alpha virt. eigenvalues --    2.10749   2.11077   2.11598   2.12554   2.13150
 Alpha virt. eigenvalues --    2.14092   2.14931   2.15004   2.15725   2.17878
 Alpha virt. eigenvalues --    2.18508   2.18753   2.19360   2.19922   2.20524
 Alpha virt. eigenvalues --    2.20780   2.21184   2.21789   2.24803   2.26278
 Alpha virt. eigenvalues --    2.26546   2.26934   2.27710   2.28851   2.29941
 Alpha virt. eigenvalues --    2.30085   2.30745   2.32061   2.32240   2.32746
 Alpha virt. eigenvalues --    2.33164   2.33775   2.33845   2.34526   2.34736
 Alpha virt. eigenvalues --    2.34974   2.38963   2.39913   2.42181   2.42853
 Alpha virt. eigenvalues --    2.43340   2.48275   2.49411   2.54825   2.65777
 Alpha virt. eigenvalues --    2.66979   2.67071   2.67098   2.67195   2.67936
 Alpha virt. eigenvalues --    2.68426   2.69129   2.69206   2.69280   2.69537
 Alpha virt. eigenvalues --    2.69612   2.69725   2.69807   2.69875   2.70059
 Alpha virt. eigenvalues --    2.70097   2.70162   2.70630   2.70690   2.70740
 Alpha virt. eigenvalues --    2.70793   2.70851   2.71167   2.71443   2.71604
 Alpha virt. eigenvalues --    2.71686   2.72017   2.72762   2.72822   2.72977
 Alpha virt. eigenvalues --    2.73238   2.73274   2.73487   2.73611   2.73775
 Alpha virt. eigenvalues --    2.74083   2.74247   2.74298   2.74342   2.75381
 Alpha virt. eigenvalues --    2.75389   2.75523   2.75637   2.75665   2.75679
 Alpha virt. eigenvalues --    2.75816   2.75860   2.75977   2.76082   2.76174
 Alpha virt. eigenvalues --    2.76239   2.76367   2.76452   2.76891   2.77367
 Alpha virt. eigenvalues --    2.77404   2.77700   2.78074   2.78376   2.78483
 Alpha virt. eigenvalues --    2.78693   2.79086   2.79457   2.79568   2.79611
 Alpha virt. eigenvalues --    2.79766   2.79885   2.80107   2.80340   2.81139
 Alpha virt. eigenvalues --    2.82212   2.82347   2.82515   2.82701   2.82752
 Alpha virt. eigenvalues --    2.82957   2.83047   2.83480   2.83894   2.84744
 Alpha virt. eigenvalues --    2.84846   2.85150   2.85288   2.85760   2.85803
 Alpha virt. eigenvalues --    2.85930   2.86044   2.86391   2.87295   2.87546
 Alpha virt. eigenvalues --    2.87682   2.88499   2.88609   2.88664   2.88759
 Alpha virt. eigenvalues --    2.88798   2.89478   2.89524   2.89595   2.90425
 Alpha virt. eigenvalues --    2.91112   2.91289   2.92159   2.92184   2.92326
 Alpha virt. eigenvalues --    2.92748   2.92755   2.92893   2.93225   2.93274
 Alpha virt. eigenvalues --    2.93824   2.94190   2.94576   2.94636   2.94850
 Alpha virt. eigenvalues --    2.94914   2.94932   2.95259   2.95564   2.95829
 Alpha virt. eigenvalues --    2.96047   2.96197   2.96281   2.96441   2.96536
 Alpha virt. eigenvalues --    2.96730   2.96846   2.96944   2.97139   2.97373
 Alpha virt. eigenvalues --    2.97536   2.98126   2.98269   2.98359   2.99217
 Alpha virt. eigenvalues --    2.99265   2.99537   2.99593   2.99845   2.99908
 Alpha virt. eigenvalues --    3.00089   3.00330   3.00607   3.00887   3.00945
 Alpha virt. eigenvalues --    3.01591   3.01715   3.01862   3.02273   3.02432
 Alpha virt. eigenvalues --    3.02646   3.02894   3.03314   3.04124   3.07210
 Alpha virt. eigenvalues --    3.08802   3.08874   3.08936   3.09028   3.09359
 Alpha virt. eigenvalues --    3.09961   3.10351   3.10511   3.10543   3.14078
 Alpha virt. eigenvalues --    3.14241   3.14302   3.14933   3.15243   3.15337
 Alpha virt. eigenvalues --    3.16717   3.16776   3.17049   3.22326   3.28093
 Alpha virt. eigenvalues --    3.29229   3.29429   3.30277   3.42805   3.43413
 Alpha virt. eigenvalues --    3.44343   3.44764   3.46015   3.46653   3.46836
 Alpha virt. eigenvalues --    3.47753   3.48022   3.48208   3.49212   3.49279
 Alpha virt. eigenvalues --    3.49607   3.53495   3.54007   3.54623   3.55722
 Alpha virt. eigenvalues --    3.55942   3.56547   3.56926   3.57238   3.57271
 Alpha virt. eigenvalues --    3.57429   3.57565   3.57833   3.58922   3.59790
 Alpha virt. eigenvalues --    3.60214   3.61317   3.61702   3.62010   3.62683
 Alpha virt. eigenvalues --    3.62913   3.63478   3.63943   3.64284   3.64844
 Alpha virt. eigenvalues --    3.73225   3.77669  68.66736  68.67727  68.68990
 Alpha virt. eigenvalues --   68.71289  68.75101  68.75999  68.83815  68.84941
 Alpha virt. eigenvalues --   68.85451  68.88311  68.89386  68.90598 576.25186
 Alpha virt. eigenvalues --  576.26155 576.27391 576.29638 576.33466 576.34341
 Alpha virt. eigenvalues --  576.42013 576.43124 576.43613 576.46368 576.47428
 Alpha virt. eigenvalues --  576.48625
  Beta  occ. eigenvalues -- -197.10373-129.99005-129.99002-129.98955-101.62160
  Beta  occ. eigenvalues --  -22.42834 -19.28493 -19.28484 -19.28451 -19.28386
  Beta  occ. eigenvalues --  -19.28383 -19.28371 -19.28362 -19.28355 -19.28331
  Beta  occ. eigenvalues --  -19.28271 -19.28241 -19.28167 -19.26969 -19.26910
  Beta  occ. eigenvalues --  -19.26908 -19.26894 -19.26882 -19.26881 -19.26864
  Beta  occ. eigenvalues --  -19.26848 -19.26848 -19.26830 -19.26830 -19.26814
  Beta  occ. eigenvalues --  -19.26813 -19.26800 -19.26796 -19.26790 -19.26772
  Beta  occ. eigenvalues --  -19.26771 -19.26741 -19.26731 -19.26719 -19.26715
  Beta  occ. eigenvalues --  -19.26646 -19.26627 -19.24590 -19.24525 -19.24516
  Beta  occ. eigenvalues --  -19.24479 -18.93324 -18.91149 -18.91045 -13.36410
  Beta  occ. eigenvalues --  -13.36408 -13.36349 -10.69338 -10.69335 -10.69333
  Beta  occ. eigenvalues --  -10.69333 -10.69331 -10.69331 -10.69278 -10.69273
  Beta  occ. eigenvalues --  -10.69271 -10.33177 -10.32535 -10.31724 -10.30974
  Beta  occ. eigenvalues --  -10.30970 -10.30886 -10.30435 -10.30332  -9.52612
  Beta  occ. eigenvalues --   -7.28445  -7.27022  -7.27014  -3.21067  -3.21043
  Beta  occ. eigenvalues --   -3.21035  -3.21030  -3.21003  -3.20990  -3.20981
  Beta  occ. eigenvalues --   -3.20979  -3.20963  -3.20832  -3.20825  -3.20798
  Beta  occ. eigenvalues --   -2.74456  -1.85313  -1.85280  -1.85260  -1.85219
  Beta  occ. eigenvalues --   -1.85103  -1.85061  -1.85044  -1.85032  -1.85013
  Beta  occ. eigenvalues --   -1.85001  -1.84979  -1.84926  -1.84372  -1.84261
  Beta  occ. eigenvalues --   -1.84245  -1.84239  -1.84198  -1.84190  -1.84122
  Beta  occ. eigenvalues --   -1.84108  -1.84080  -1.84079  -1.84049  -1.84042
  Beta  occ. eigenvalues --   -1.83921  -1.83896  -1.83885  -1.83876  -1.83844
  Beta  occ. eigenvalues --   -1.83803  -1.83786  -1.83784  -1.83767  -1.83668
  Beta  occ. eigenvalues --   -1.83665  -1.83651  -1.80369  -1.75736  -1.75513
  Beta  occ. eigenvalues --   -1.50120  -1.50117  -1.50060  -1.08605  -1.06964
  Beta  occ. eigenvalues --   -1.06935  -1.06897  -1.06028  -1.06019  -1.05987
  Beta  occ. eigenvalues --   -1.04592  -1.04579  -1.04570  -1.03981  -1.03960
  Beta  occ. eigenvalues --   -1.03585  -1.03338  -1.03280  -1.03270  -1.03066
  Beta  occ. eigenvalues --   -1.03032  -1.02208  -1.02181  -1.02155  -1.02068
  Beta  occ. eigenvalues --   -1.02034  -1.01996  -1.01943  -1.01910  -1.01801
  Beta  occ. eigenvalues --   -1.01769  -1.01752  -1.01644  -1.01582  -1.01560
  Beta  occ. eigenvalues --   -1.01293  -1.00786  -1.00765  -1.00740  -1.00716
  Beta  occ. eigenvalues --   -0.99799  -0.99709  -0.99668  -0.96282  -0.89945
  Beta  occ. eigenvalues --   -0.85573  -0.85567  -0.85521  -0.85411  -0.85410
  Beta  occ. eigenvalues --   -0.85407  -0.85405  -0.85357  -0.85340  -0.84291
  Beta  occ. eigenvalues --   -0.84121  -0.82692  -0.72111  -0.69614  -0.65247
  Beta  occ. eigenvalues --   -0.62343  -0.61725  -0.61684  -0.61641  -0.60762
  Beta  occ. eigenvalues --   -0.59004  -0.58989  -0.58975  -0.58833  -0.58777
  Beta  occ. eigenvalues --   -0.58753  -0.58743  -0.58696  -0.58572  -0.57309
  Beta  occ. eigenvalues --   -0.57146  -0.57098  -0.56999  -0.56898  -0.56498
  Beta  occ. eigenvalues --   -0.56438  -0.56392  -0.55804  -0.55612  -0.55347
  Beta  occ. eigenvalues --   -0.55339  -0.55320  -0.54517  -0.54220  -0.54181
  Beta  occ. eigenvalues --   -0.54007  -0.53630  -0.53583  -0.53539  -0.52782
  Beta  occ. eigenvalues --   -0.52668  -0.52625  -0.52534  -0.52495  -0.51481
  Beta  occ. eigenvalues --   -0.51472  -0.51457  -0.51316  -0.51254  -0.50852
  Beta  occ. eigenvalues --   -0.50497  -0.50470  -0.50418  -0.50328  -0.50292
  Beta  occ. eigenvalues --   -0.50213  -0.50062  -0.50029  -0.49977  -0.49728
  Beta  occ. eigenvalues --   -0.49688  -0.49649  -0.49485  -0.49447  -0.49305
  Beta  occ. eigenvalues --   -0.49231  -0.49212  -0.49095  -0.49080  -0.48975
  Beta  occ. eigenvalues --   -0.48762  -0.48603  -0.48593  -0.48512  -0.47794
  Beta  occ. eigenvalues --   -0.47692  -0.47571  -0.45942  -0.45891  -0.45838
  Beta  occ. eigenvalues --   -0.45779  -0.45689  -0.45576  -0.45210  -0.45161
  Beta  occ. eigenvalues --   -0.45128  -0.45061  -0.44840  -0.44630  -0.44474
  Beta  occ. eigenvalues --   -0.44466  -0.44416  -0.44259  -0.44228  -0.44211
  Beta  occ. eigenvalues --   -0.43357  -0.43142  -0.42514  -0.42464  -0.42415
  Beta  occ. eigenvalues --   -0.42263  -0.42126  -0.42117  -0.42109  -0.41618
  Beta  occ. eigenvalues --   -0.41611  -0.41550  -0.41372  -0.41037  -0.40947
  Beta  occ. eigenvalues --   -0.40745  -0.40717  -0.40666  -0.40392  -0.40384
  Beta  occ. eigenvalues --   -0.40346  -0.40177  -0.40171  -0.40130  -0.39834
  Beta  occ. eigenvalues --   -0.39609  -0.39329  -0.39178  -0.39090  -0.39087
  Beta  occ. eigenvalues --   -0.38888  -0.38855  -0.38803  -0.38692  -0.38660
  Beta  occ. eigenvalues --   -0.38578  -0.38334  -0.38298  -0.38262  -0.37273
  Beta  occ. eigenvalues --   -0.37195  -0.37166  -0.35376  -0.35352  -0.33780
  Beta  occ. eigenvalues --   -0.30675
  Beta virt. eigenvalues --   -0.06243  -0.06226  -0.04776  -0.04727  -0.04623
  Beta virt. eigenvalues --   -0.01435  -0.01342  -0.01300  -0.01095  -0.00917
  Beta virt. eigenvalues --   -0.00896  -0.00829  -0.00145  -0.00039  -0.00020
  Beta virt. eigenvalues --    0.00731   0.00743   0.00789   0.00914   0.01052
  Beta virt. eigenvalues --    0.01556   0.01921   0.01933   0.01946   0.02501
  Beta virt. eigenvalues --    0.02784   0.02858   0.03073   0.03552   0.03739
  Beta virt. eigenvalues --    0.03831   0.04063   0.04098   0.04347   0.04379
  Beta virt. eigenvalues --    0.04441   0.04450   0.04657   0.05085   0.05148
  Beta virt. eigenvalues --    0.05723   0.06485   0.07481   0.08513   0.08591
  Beta virt. eigenvalues --    0.08640   0.08711   0.09399   0.09538   0.09696
  Beta virt. eigenvalues --    0.09880   0.09916   0.10050   0.10141   0.10147
  Beta virt. eigenvalues --    0.10233   0.10385   0.10748   0.10881   0.10991
  Beta virt. eigenvalues --    0.11470   0.11632   0.11710   0.12006   0.12240
  Beta virt. eigenvalues --    0.12412   0.12469   0.12528   0.12552   0.13345
  Beta virt. eigenvalues --    0.13461   0.13667   0.14028   0.14292   0.14903
  Beta virt. eigenvalues --    0.15040   0.15140   0.15263   0.15406   0.15862
  Beta virt. eigenvalues --    0.16128   0.16770   0.17142   0.17784   0.17883
  Beta virt. eigenvalues --    0.18288   0.18476   0.18647   0.18805   0.18986
  Beta virt. eigenvalues --    0.19354   0.19442   0.19575   0.19610   0.19668
  Beta virt. eigenvalues --    0.20051   0.20074   0.20414   0.20724   0.20948
  Beta virt. eigenvalues --    0.21176   0.21331   0.21407   0.21589   0.21659
  Beta virt. eigenvalues --    0.21709   0.21985   0.22004   0.22170   0.22342
  Beta virt. eigenvalues --    0.22408   0.22840   0.23183   0.23309   0.23367
  Beta virt. eigenvalues --    0.23462   0.23664   0.23802   0.24070   0.24301
  Beta virt. eigenvalues --    0.24529   0.24692   0.24797   0.25054   0.25244
  Beta virt. eigenvalues --    0.25517   0.25583   0.25666   0.26244   0.26822
  Beta virt. eigenvalues --    0.26899   0.27234   0.27379   0.27666   0.27970
  Beta virt. eigenvalues --    0.28037   0.28399   0.28747   0.28792   0.29125
  Beta virt. eigenvalues --    0.29335   0.29345   0.29438   0.29609   0.29765
  Beta virt. eigenvalues --    0.30245   0.30636   0.31060   0.31332   0.31654
  Beta virt. eigenvalues --    0.31792   0.32415   0.32604   0.32796   0.33360
  Beta virt. eigenvalues --    0.33713   0.34431   0.35379   0.36918   0.37095
  Beta virt. eigenvalues --    0.38191   0.38840   0.39008   0.39338   0.39616
  Beta virt. eigenvalues --    0.40333   0.41378   0.41832   0.42000   0.42105
  Beta virt. eigenvalues --    0.42260   0.42511   0.42763   0.43364   0.44070
  Beta virt. eigenvalues --    0.44328   0.44564   0.44976   0.45296   0.45556
  Beta virt. eigenvalues --    0.45686   0.45840   0.45975   0.46483   0.46559
  Beta virt. eigenvalues --    0.46981   0.47153   0.47666   0.47894   0.48239
  Beta virt. eigenvalues --    0.48353   0.48388   0.48720   0.49015   0.49070
  Beta virt. eigenvalues --    0.49367   0.49775   0.49880   0.49957   0.50053
  Beta virt. eigenvalues --    0.50145   0.50386   0.50586   0.50615   0.50829
  Beta virt. eigenvalues --    0.51257   0.51391   0.51704   0.51791   0.52099
  Beta virt. eigenvalues --    0.52502   0.52819   0.52914   0.53071   0.53409
  Beta virt. eigenvalues --    0.53745   0.54024   0.54376   0.54424   0.54654
  Beta virt. eigenvalues --    0.54763   0.55524   0.56069   0.56138   0.56424
  Beta virt. eigenvalues --    0.56623   0.57054   0.57153   0.57284   0.57771
  Beta virt. eigenvalues --    0.58526   0.58831   0.59050   0.59472   0.59618
  Beta virt. eigenvalues --    0.60115   0.60684   0.60803   0.61276   0.61794
  Beta virt. eigenvalues --    0.62038   0.62802   0.63568   0.64248   0.64720
  Beta virt. eigenvalues --    0.65087   0.66298   0.66637   0.66679   0.66799
  Beta virt. eigenvalues --    0.68094   0.68177   0.68390   0.68877   0.69066
  Beta virt. eigenvalues --    0.69875   0.70425   0.70653   0.71426   0.71850
  Beta virt. eigenvalues --    0.72150   0.72610   0.72820   0.72892   0.73225
  Beta virt. eigenvalues --    0.73316   0.73513   0.73607   0.73715   0.73857
  Beta virt. eigenvalues --    0.74198   0.74284   0.74904   0.75554   0.75615
  Beta virt. eigenvalues --    0.76218   0.76959   0.77336   0.77871   0.78386
  Beta virt. eigenvalues --    0.79094   0.79670   0.80128   0.80634   0.80940
  Beta virt. eigenvalues --    0.81110   0.81330   0.82049   0.82283   0.82568
  Beta virt. eigenvalues --    0.83042   0.83441   0.84033   0.84292   0.84340
  Beta virt. eigenvalues --    0.84741   0.85285   0.85664   0.86590   0.87366
  Beta virt. eigenvalues --    0.87795   0.88503   0.88870   0.89702   0.89955
  Beta virt. eigenvalues --    0.90190   0.90452   0.90608   0.90837   0.91400
  Beta virt. eigenvalues --    0.91500   0.91979   0.92067   0.92391   0.92478
  Beta virt. eigenvalues --    0.92728   0.92822   0.93351   0.93539   0.93827
  Beta virt. eigenvalues --    0.95018   0.95296   0.95781   0.95876   0.96856
  Beta virt. eigenvalues --    0.97283   0.97401   0.97906   0.98222   0.98890
  Beta virt. eigenvalues --    0.99328   0.99531   0.99738   1.00027   1.00137
  Beta virt. eigenvalues --    1.00430   1.00676   1.00746   1.01049   1.01219
  Beta virt. eigenvalues --    1.01235   1.01387   1.01904   1.02324   1.02726
  Beta virt. eigenvalues --    1.02826   1.02955   1.03418   1.03697   1.03892
  Beta virt. eigenvalues --    1.04189   1.04359   1.04747   1.04890   1.05098
  Beta virt. eigenvalues --    1.05281   1.05539   1.05695   1.06180   1.06684
  Beta virt. eigenvalues --    1.07149   1.07193   1.07431   1.07538   1.07670
  Beta virt. eigenvalues --    1.07841   1.08159   1.08498   1.08857   1.08920
  Beta virt. eigenvalues --    1.09062   1.09339   1.09553   1.10261   1.10973
  Beta virt. eigenvalues --    1.11240   1.11463   1.11954   1.12176   1.12386
  Beta virt. eigenvalues --    1.12439   1.12894   1.13061   1.13261   1.13367
  Beta virt. eigenvalues --    1.13462   1.13739   1.13883   1.14294   1.14613
  Beta virt. eigenvalues --    1.14844   1.15191   1.15292   1.15598   1.16219
  Beta virt. eigenvalues --    1.16747   1.17598   1.17943   1.18072   1.18636
  Beta virt. eigenvalues --    1.18939   1.19762   1.19971   1.20062   1.20535
  Beta virt. eigenvalues --    1.20710   1.21385   1.22701   1.22826   1.22909
  Beta virt. eigenvalues --    1.23246   1.23454   1.23757   1.23817   1.24670
  Beta virt. eigenvalues --    1.25002   1.25548   1.27100   1.27647   1.27919
  Beta virt. eigenvalues --    1.28361   1.29071   1.29399   1.30157   1.30364
  Beta virt. eigenvalues --    1.30648   1.30903   1.31061   1.31123   1.31687
  Beta virt. eigenvalues --    1.31891   1.31920   1.32035   1.32338   1.32573
  Beta virt. eigenvalues --    1.32760   1.32774   1.33116   1.33361   1.33939
  Beta virt. eigenvalues --    1.34941   1.35112   1.35252   1.35528   1.35765
  Beta virt. eigenvalues --    1.35827   1.36177   1.36436   1.36674   1.36828
  Beta virt. eigenvalues --    1.36991   1.37303   1.37980   1.38067   1.38245
  Beta virt. eigenvalues --    1.38430   1.38684   1.38891   1.38967   1.39176
  Beta virt. eigenvalues --    1.39339   1.39524   1.39684   1.39794   1.39875
  Beta virt. eigenvalues --    1.40127   1.40332   1.40755   1.40969   1.41177
  Beta virt. eigenvalues --    1.41218   1.41289   1.41641   1.41768   1.41917
  Beta virt. eigenvalues --    1.42238   1.42547   1.42614   1.42750   1.43109
  Beta virt. eigenvalues --    1.43223   1.43442   1.43739   1.43799   1.44384
  Beta virt. eigenvalues --    1.44668   1.44950   1.45038   1.45480   1.45589
  Beta virt. eigenvalues --    1.45677   1.45997   1.46429   1.46824   1.47614
  Beta virt. eigenvalues --    1.48044   1.48178   1.49655   1.49819   1.49941
  Beta virt. eigenvalues --    1.50403   1.50966   1.51844   1.52351   1.52520
  Beta virt. eigenvalues --    1.52717   1.53172   1.53563   1.53869   1.55440
  Beta virt. eigenvalues --    1.55526   1.57496   1.58108   1.58198   1.58371
  Beta virt. eigenvalues --    1.58643   1.58991   1.59180   1.59607   1.60177
  Beta virt. eigenvalues --    1.60739   1.61031   1.61525   1.61716   1.62090
  Beta virt. eigenvalues --    1.62325   1.62603   1.62991   1.63451   1.64149
  Beta virt. eigenvalues --    1.64809   1.64966   1.65199   1.65696   1.65945
  Beta virt. eigenvalues --    1.66179   1.66962   1.68266   1.68607   1.69870
  Beta virt. eigenvalues --    1.70432   1.70757   1.71042   1.72495   1.73107
  Beta virt. eigenvalues --    1.73353   1.73515   1.74199   1.74513   1.75007
  Beta virt. eigenvalues --    1.75829   1.76362   1.77619   1.77883   1.78078
  Beta virt. eigenvalues --    1.78527   1.78706   1.79099   1.79525   1.79664
  Beta virt. eigenvalues --    1.80044   1.81064   1.81154   1.81555   1.81672
  Beta virt. eigenvalues --    1.82416   1.82708   1.83769   1.84058   1.84136
  Beta virt. eigenvalues --    1.84616   1.85100   1.85212   1.85702   1.86115
  Beta virt. eigenvalues --    1.86297   1.86729   1.86890   1.87453   1.87857
  Beta virt. eigenvalues --    1.88453   1.88654   1.89040   1.89143   1.89440
  Beta virt. eigenvalues --    1.90078   1.90501   1.91484   1.91981   1.92674
  Beta virt. eigenvalues --    1.93022   1.93381   1.93718   1.93885   1.95020
  Beta virt. eigenvalues --    1.96312   1.96822   1.97676   1.97850   1.98597
  Beta virt. eigenvalues --    1.98958   2.01963   2.02071   2.02156   2.03577
  Beta virt. eigenvalues --    2.05163   2.05767   2.07217   2.08342   2.08588
  Beta virt. eigenvalues --    2.10758   2.11070   2.11574   2.11974   2.13102
  Beta virt. eigenvalues --    2.14104   2.14954   2.15014   2.15768   2.17908
  Beta virt. eigenvalues --    2.18361   2.18735   2.19347   2.19700   2.20485
  Beta virt. eigenvalues --    2.20953   2.21289   2.21918   2.24745   2.26566
  Beta virt. eigenvalues --    2.26724   2.27406   2.27805   2.29547   2.30108
  Beta virt. eigenvalues --    2.30417   2.31126   2.31736   2.32673   2.33085
  Beta virt. eigenvalues --    2.33626   2.34395   2.34447   2.34838   2.35719
  Beta virt. eigenvalues --    2.36315   2.38692   2.39766   2.42088   2.42735
  Beta virt. eigenvalues --    2.43405   2.47671   2.49152   2.54167   2.65510
  Beta virt. eigenvalues --    2.66613   2.67068   2.67090   2.67184   2.67932
  Beta virt. eigenvalues --    2.68334   2.69129   2.69205   2.69273   2.69537
  Beta virt. eigenvalues --    2.69613   2.69727   2.69811   2.69877   2.70070
  Beta virt. eigenvalues --    2.70117   2.70173   2.70615   2.70713   2.70756
  Beta virt. eigenvalues --    2.70812   2.70867   2.71104   2.71391   2.71591
  Beta virt. eigenvalues --    2.71689   2.72015   2.72763   2.72826   2.72982
  Beta virt. eigenvalues --    2.73262   2.73295   2.73488   2.73611   2.73772
  Beta virt. eigenvalues --    2.73851   2.74254   2.74300   2.74343   2.75387
  Beta virt. eigenvalues --    2.75396   2.75530   2.75645   2.75671   2.75685
  Beta virt. eigenvalues --    2.75827   2.75868   2.75980   2.76090   2.76180
  Beta virt. eigenvalues --    2.76245   2.76372   2.76458   2.76890   2.77385
  Beta virt. eigenvalues --    2.77423   2.77734   2.78097   2.78397   2.78494
  Beta virt. eigenvalues --    2.78713   2.79086   2.79491   2.79586   2.79623
  Beta virt. eigenvalues --    2.79793   2.79873   2.80014   2.80329   2.81141
  Beta virt. eigenvalues --    2.82273   2.82366   2.82571   2.82714   2.82765
  Beta virt. eigenvalues --    2.82965   2.83085   2.83472   2.83883   2.84761
  Beta virt. eigenvalues --    2.84860   2.85171   2.85307   2.85607   2.85771
  Beta virt. eigenvalues --    2.85920   2.86041   2.86397   2.87320   2.87573
  Beta virt. eigenvalues --    2.87711   2.88504   2.88612   2.88666   2.88762
  Beta virt. eigenvalues --    2.88801   2.89500   2.89551   2.89599   2.90427
  Beta virt. eigenvalues --    2.91128   2.91306   2.92170   2.92192   2.92333
  Beta virt. eigenvalues --    2.92759   2.92766   2.92903   2.93256   2.93309
  Beta virt. eigenvalues --    2.93848   2.94184   2.94587   2.94609   2.94783
  Beta virt. eigenvalues --    2.94925   2.94953   2.95222   2.95556   2.95836
  Beta virt. eigenvalues --    2.96054   2.96231   2.96299   2.96444   2.96550
  Beta virt. eigenvalues --    2.96724   2.96847   2.96890   2.97148   2.97381
  Beta virt. eigenvalues --    2.97539   2.98137   2.98274   2.98376   2.99221
  Beta virt. eigenvalues --    2.99273   2.99368   2.99600   2.99831   2.99939
  Beta virt. eigenvalues --    3.00117   3.00342   3.00682   3.00937   3.00996
  Beta virt. eigenvalues --    3.01605   3.01725   3.01875   3.02291   3.02468
  Beta virt. eigenvalues --    3.02659   3.02911   3.03330   3.04133   3.07214
  Beta virt. eigenvalues --    3.08723   3.08851   3.08943   3.09263   3.09377
  Beta virt. eigenvalues --    3.10045   3.10743   3.10885   3.11376   3.14089
  Beta virt. eigenvalues --    3.14249   3.14310   3.14931   3.15141   3.15342
  Beta virt. eigenvalues --    3.16730   3.16795   3.17123   3.22258   3.28614
  Beta virt. eigenvalues --    3.30123   3.30410   3.30584   3.42809   3.43420
  Beta virt. eigenvalues --    3.44345   3.44768   3.45816   3.46654   3.46844
  Beta virt. eigenvalues --    3.47758   3.48023   3.48212   3.49215   3.49281
  Beta virt. eigenvalues --    3.49610   3.53501   3.54026   3.54640   3.55727
  Beta virt. eigenvalues --    3.55953   3.56561   3.56934   3.57258   3.57300
  Beta virt. eigenvalues --    3.57450   3.57584   3.57854   3.58933   3.59793
  Beta virt. eigenvalues --    3.60218   3.61334   3.61708   3.62019   3.62685
  Beta virt. eigenvalues --    3.62916   3.63483   3.63944   3.64287   3.64850
  Beta virt. eigenvalues --    3.73161   3.77899  68.66738  68.67728  68.68991
  Beta virt. eigenvalues --   68.71290  68.75102  68.76001  68.83817  68.84942
  Beta virt. eigenvalues --   68.85453  68.88313  68.89388  68.90600 576.25216
  Beta virt. eigenvalues --  576.26180 576.27418 576.29664 576.33484 576.34381
  Beta virt. eigenvalues --  576.42045 576.43143 576.43646 576.46402 576.47447
  Beta virt. eigenvalues --  576.48657
          Condensed to atoms (all electrons):
          Atomic-Atomic Spin Densities.
 Mulliken charges and spin densities:
               1          2
     1  Cl  -0.364643  -0.602129
     2  C   -0.038870  -0.083401
     3  C    0.014670   0.051334
     4  C   -0.036067  -0.080591
     5  C   -0.031774   0.051670
     6  C    0.005910  -0.099358
     7  C   -0.048951   0.050618
     8  H    0.046729   0.003547
     9  H    0.048577   0.003463
    10  H    0.054180  -0.001837
    11  H    0.056051   0.004362
    12  H    0.053312  -0.001772
    13  C    0.001399  -0.221424
    14  C   -0.014958  -0.087876
    15  H    0.073538   0.009502
    16  H    0.095292   0.004403
    17  H    0.093726   0.003830
    18  O   -0.671902  -0.000561
    19  O   -0.669806  -0.000489
    20  O   -0.666402  -0.001933
    21  O   -0.671670  -0.000529
    22  W    1.719364   0.000341
    23  W    1.660903   0.000527
    24  W    1.674230   0.000210
    25  W    1.681987   0.000185
    26  W    1.661151   0.002794
    27  W    1.707583   0.002495
    28  W    1.611882   0.003348
    29  W    1.670083   0.002930
    30  O   -0.350592  -0.000544
    31  O   -0.395429  -0.000588
    32  O   -0.394875  -0.000625
    33  O   -0.393638  -0.000578
    34  O   -0.672130  -0.000288
    35  O   -0.677576   0.000002
    36  O   -0.669843  -0.000096
    37  O   -0.671918  -0.000191
    38  O   -0.396215   0.002098
    39  O   -0.396970   0.002122
    40  O   -0.338828  -0.001500
    41  O   -0.396287   0.002121
    42  O   -0.677395   0.000064
    43  O   -0.670881   0.000179
    44  O   -0.667485   0.000326
    45  O   -0.673312   0.000114
    46  O   -0.396496   0.002270
    47  O   -0.352067   0.002149
    48  O   -0.388174   0.001715
    49  O   -0.395963   0.002341
    50  W    1.657499   0.002894
    51  W    1.661813   0.002774
    52  W    1.669913   0.003877
    53  W    1.668123   0.002738
    54  O   -0.721297   0.000134
    55  O   -0.703992   0.000027
    56  O   -0.721394   0.000208
    57  O   -0.719190   0.000093
    58  O   -0.701594  -0.000035
    59  O   -0.723171   0.000175
    60  O   -0.721754   0.000232
    61  O   -0.718593   0.000233
    62  O   -0.721336  -0.000167
    63  O   -0.705043   0.000007
    64  O   -0.721159  -0.000184
    65  O   -0.723817  -0.000196
    66  O   -0.882057   0.005394
    67  O   -0.882003   0.007771
    68  O   -0.880539   0.007639
    69  O   -0.888861   0.007110
    70  K    0.848422   0.000212
    71  K    0.847855   0.000236
    72  K    0.843117   0.000264
    73  V    1.199605   0.933814
 Sum of Mulliken charges =  -1.00000   0.00000
 Mulliken charges and spin densities with hydrogens summed into heavy atoms:
               1          2
     1  Cl  -0.364643  -0.602129
     2  C    0.007859  -0.079854
     3  C    0.014670   0.051334
     4  C    0.012510  -0.077128
     5  C    0.022406   0.049833
     6  C    0.061962  -0.094995
     7  C    0.004361   0.048845
    13  C    0.074938  -0.211922
    14  C    0.174059  -0.079643
    18  O   -0.671902  -0.000561
    19  O   -0.669806  -0.000489
    20  O   -0.666402  -0.001933
    21  O   -0.671670  -0.000529
    22  W    1.719364   0.000341
    23  W    1.660903   0.000527
    24  W    1.674230   0.000210
    25  W    1.681987   0.000185
    26  W    1.661151   0.002794
    27  W    1.707583   0.002495
    28  W    1.611882   0.003348
    29  W    1.670083   0.002930
    30  O   -0.350592  -0.000544
    31  O   -0.395429  -0.000588
    32  O   -0.394875  -0.000625
    33  O   -0.393638  -0.000578
    34  O   -0.672130  -0.000288
    35  O   -0.677576   0.000002
    36  O   -0.669843  -0.000096
    37  O   -0.671918  -0.000191
    38  O   -0.396215   0.002098
    39  O   -0.396970   0.002122
    40  O   -0.338828  -0.001500
    41  O   -0.396287   0.002121
    42  O   -0.677395   0.000064
    43  O   -0.670881   0.000179
    44  O   -0.667485   0.000326
    45  O   -0.673312   0.000114
    46  O   -0.396496   0.002270
    47  O   -0.352067   0.002149
    48  O   -0.388174   0.001715
    49  O   -0.395963   0.002341
    50  W    1.657499   0.002894
    51  W    1.661813   0.002774
    52  W    1.669913   0.003877
    53  W    1.668123   0.002738
    54  O   -0.721297   0.000134
    55  O   -0.703992   0.000027
    56  O   -0.721394   0.000208
    57  O   -0.719190   0.000093
    58  O   -0.701594  -0.000035
    59  O   -0.723171   0.000175
    60  O   -0.721754   0.000232
    61  O   -0.718593   0.000233
    62  O   -0.721336  -0.000167
    63  O   -0.705043   0.000007
    64  O   -0.721159  -0.000184
    65  O   -0.723817  -0.000196
    66  O   -0.882057   0.005394
    67  O   -0.882003   0.007771
    68  O   -0.880539   0.007639
    69  O   -0.888861   0.007110
    70  K    0.848422   0.000212
    71  K    0.847855   0.000236
    72  K    0.843117   0.000264
    73  V    1.199605   0.933814
 Electronic spatial extent (au):  <R**2>=         316671.3705
 Charge=             -1.0000 electrons
 Dipole moment (field-independent basis, Debye):
    X=             29.4319    Y=            -13.5417    Z=            -30.9766  Tot=             44.8237
 Quadrupole moment (field-independent basis, Debye-Ang):
   XX=           -783.4617   YY=           -699.7215   ZZ=           -788.0060
   XY=            130.8241   XZ=            190.2733   YZ=            -92.3015
 Traceless Quadrupole moment (field-independent basis, Debye-Ang):
   XX=            -26.3987   YY=             57.3416   ZZ=            -30.9429
   XY=            130.8241   XZ=            190.2733   YZ=            -92.3015
 Octapole moment (field-independent basis, Debye-Ang**2):
  XXX=          10502.5592  YYY=            937.3559  ZZZ=         -17533.0758  XYY=           4082.1647
  XXY=           -685.9345  XXZ=          -6297.0131  XZZ=           4236.4616  YZZ=           -121.6879
  YYZ=          -6966.0188  XYZ=           1432.0478
 Hexadecapole moment (field-independent basis, Debye-Ang**3):
 XXXX=        -128859.2698 YYYY=         -38729.0234 ZZZZ=        -327517.0345 XXXY=           8734.9011
 XXXZ=          89784.8777 YYYX=           2345.3894 YYYZ=           8126.6646 ZZZX=          92475.8304
 ZZZY=           7945.2473 XXYY=         -35755.9793 XXZZ=         -72744.0870 YYZZ=         -77200.1421
 XXYZ=         -11111.0230 YYXZ=          40122.9797 ZZXY=          14647.6752
 N-N= 2.103001565740D+04 E-N=-5.916973221747D+04  KE= 6.765805900052D+03
                          Isotropic Fermi Contact Couplings
        Atom                 a.u.       MegaHertz       Gauss      10(-4) cm-1
     1  Cl(35)            -0.09973     -21.86380      -7.80155      -7.29298
     2  C(13)             -0.01299      -7.30127      -2.60527      -2.43544
     3  C(13)              0.01675       9.41649       3.36004       3.14100
     4  C(13)             -0.01265      -7.11304      -2.53811      -2.37265
     5  C(13)              0.01160       6.51822       2.32586       2.17424
     6  C(13)             -0.01611      -9.05598      -3.23140      -3.02075
     7  C(13)              0.01141       6.41175       2.28787       2.13873
     8  H(1)               0.00114       2.54315       0.90746       0.84831
     9  H(1)               0.00112       2.50552       0.89403       0.83575
    10  H(1)              -0.00054      -1.20602      -0.43034      -0.40229
    11  H(1)               0.00132       2.95541       1.05456       0.98582
    12  H(1)              -0.00052      -1.16569      -0.41595      -0.38883
    13  C(13)             -0.03055     -17.17116      -6.12710      -5.72768
    14  C(13)             -0.02533     -14.24032      -5.08130      -4.75006
    15  H(1)               0.00304       6.79809       2.42573       2.26760
    16  H(1)               0.00158       3.53833       1.26256       1.18026
    17  H(1)               0.00138       3.07424       1.09696       1.02545
    18  O(17)             -0.00045       0.13701       0.04889       0.04570
    19  O(17)             -0.00040       0.12087       0.04313       0.04032
    20  O(17)             -0.00156       0.47202       0.16843       0.15745
    21  O(17)             -0.00044       0.13195       0.04708       0.04401
    22  W(183)             0.00000       0.00000       0.00000       0.00000
    23  W(183)             0.00000       0.00000       0.00000       0.00000
    24  W(183)             0.00000       0.00000       0.00000       0.00000
    25  W(183)             0.00000       0.00000       0.00000       0.00000
    26  W(183)             0.00000       0.00000       0.00000       0.00000
    27  W(183)             0.00000       0.00000       0.00000       0.00000
    28  W(183)             0.00000       0.00000       0.00000       0.00000
    29  W(183)             0.00000       0.00000       0.00000       0.00000
    30  O(17)             -0.00021       0.06286       0.02243       0.02097
    31  O(17)             -0.00025       0.07674       0.02738       0.02560
    32  O(17)             -0.00027       0.08192       0.02923       0.02732
    33  O(17)             -0.00024       0.07337       0.02618       0.02447
    34  O(17)             -0.00003       0.00841       0.00300       0.00281
    35  O(17)              0.00019      -0.05711      -0.02038      -0.01905
    36  O(17)              0.00018      -0.05393      -0.01924      -0.01799
    37  O(17)              0.00008      -0.02438      -0.00870      -0.00813
    38  O(17)              0.00197      -0.59767      -0.21326      -0.19936
    39  O(17)              0.00194      -0.58789      -0.20977      -0.19610
    40  O(17)             -0.01429       4.33070       1.54530       1.44456
    41  O(17)              0.00194      -0.58693      -0.20943      -0.19578
    42  O(17)              0.00027      -0.08117      -0.02896      -0.02707
    43  O(17)              0.00035      -0.10623      -0.03791      -0.03543
    44  O(17)              0.00049      -0.14895      -0.05315      -0.04968
    45  O(17)              0.00030      -0.08998      -0.03211      -0.03001
    46  O(17)              0.00221      -0.66935      -0.23884      -0.22327
    47  O(17)              0.00195      -0.59216      -0.21130      -0.19752
    48  O(17)              0.00073      -0.21995      -0.07848      -0.07337
    49  O(17)              0.00224      -0.67765      -0.24180      -0.22604
    50  W(183)             0.00000       0.00000       0.00000       0.00000
    51  W(183)             0.00000       0.00000       0.00000       0.00000
    52  W(183)             0.00000       0.00000       0.00000       0.00000
    53  W(183)             0.00000       0.00000       0.00000       0.00000
    54  O(17)              0.00021      -0.06513      -0.02324      -0.02172
    55  O(17)              0.00007      -0.02069      -0.00738      -0.00690
    56  O(17)              0.00033      -0.10036      -0.03581      -0.03347
    57  O(17)              0.00012      -0.03560      -0.01270      -0.01187
    58  O(17)              0.00015      -0.04473      -0.01596      -0.01492
    59  O(17)              0.00031      -0.09250      -0.03301      -0.03085
    60  O(17)              0.00038      -0.11546      -0.04120      -0.03851
    61  O(17)              0.00040      -0.12241      -0.04368      -0.04083
    62  O(17)             -0.00025       0.07680       0.02741       0.02562
    63  O(17)             -0.00016       0.04813       0.01717       0.01605
    64  O(17)             -0.00028       0.08366       0.02985       0.02791
    65  O(17)             -0.00030       0.09083       0.03241       0.03030
    66  O(17)             -0.00819       2.48380       0.88628       0.82851
    67  O(17)             -0.00691       2.09543       0.74770       0.69896
    68  O(17)             -0.00707       2.14391       0.76500       0.71513
    69  O(17)             -0.00744       2.25422       0.80436       0.75193
    70  K(39)             -0.00002      -0.00200      -0.00071      -0.00067
    71  K(39)             -0.00002      -0.00197      -0.00070      -0.00066
    72  K(39)             -0.00002      -0.00224      -0.00080      -0.00075
    73  V(51)              0.07108      41.86192      14.93738      13.96363
 --------------------------------------------------------
       Center         ----  Spin Dipole Couplings  ----
                      3XX-RR        3YY-RR        3ZZ-RR
 --------------------------------------------------------
     1   Atom        0.366634     -1.676350      1.309716
     2   Atom       -0.019201     -0.011682      0.030884
     3   Atom        0.007645      0.002889     -0.010534
     4   Atom       -0.017141     -0.014567      0.031708
     5   Atom        0.011310      0.005693     -0.017003
     6   Atom       -0.020063     -0.015019      0.035082
     7   Atom        0.009734      0.005195     -0.014929
     8   Atom       -0.001443     -0.001199      0.002643
     9   Atom        0.000053      0.000277     -0.000330
    10   Atom        0.001537      0.000471     -0.002009
    11   Atom        0.003730      0.000138     -0.003868
    12   Atom        0.000627     -0.000559     -0.000067
    13   Atom       -0.053023     -0.045373      0.098396
    14   Atom       -0.029832     -0.039872      0.069705
    15   Atom       -0.002918      0.002564      0.000354
    16   Atom        0.007543      0.003274     -0.010816
    17   Atom       -0.011483      0.005059      0.006424
    18   Atom        0.001395     -0.001330     -0.000065
    19   Atom        0.001967     -0.001868     -0.000099
    20   Atom       -0.002156     -0.000283      0.002439
    21   Atom       -0.000610      0.000669     -0.000059
    22   Atom       -0.002016      0.000618      0.001398
    23   Atom       -0.001843      0.000685      0.001158
    24   Atom       -0.002424      0.001069      0.001356
    25   Atom       -0.002103      0.000635      0.001468
    26   Atom        0.000365     -0.002274      0.001909
    27   Atom        0.000537     -0.002513      0.001977
    28   Atom        0.000951     -0.003138      0.002187
    29   Atom        0.000695     -0.002757      0.002062
    30   Atom       -0.000139      0.000248     -0.000109
    31   Atom        0.000049      0.000005     -0.000054
    32   Atom       -0.000534      0.000637     -0.000104
    33   Atom       -0.000179      0.000251     -0.000072
    34   Atom       -0.000051     -0.002032      0.002084
    35   Atom       -0.000419     -0.002743      0.003162
    36   Atom       -0.002315     -0.000564      0.002879
    37   Atom       -0.001982     -0.000725      0.002707
    38   Atom        0.006208     -0.003150     -0.003057
    39   Atom        0.006260     -0.003245     -0.003015
    40   Atom       -0.011517      0.007240      0.004277
    41   Atom       -0.004442      0.007825     -0.003383
    42   Atom        0.002609     -0.000991     -0.001618
    43   Atom        0.002994     -0.001086     -0.001908
    44   Atom       -0.004602      0.005951     -0.001349
    45   Atom       -0.003398      0.005009     -0.001610
    46   Atom       -0.000857      0.000638      0.000218
    47   Atom        0.001525     -0.002737      0.001212
    48   Atom        0.004842     -0.007547      0.002705
    49   Atom        0.004936     -0.005018      0.000081
    50   Atom        0.006091     -0.002761     -0.003330
    51   Atom        0.006456     -0.003171     -0.003285
    52   Atom       -0.002101      0.004659     -0.002558
    53   Atom       -0.002058      0.005469     -0.003410
    54   Atom       -0.003204     -0.001711      0.004914
    55   Atom       -0.002912     -0.001930      0.004842
    56   Atom       -0.001160     -0.004563      0.005723
    57   Atom       -0.001150     -0.003854      0.005004
    58   Atom       -0.003981      0.006409     -0.002428
    59   Atom       -0.003960      0.006758     -0.002798
    60   Atom        0.002746     -0.000024     -0.002723
    61   Atom        0.003022     -0.000396     -0.002625
    62   Atom        0.000835      0.000967     -0.001802
    63   Atom        0.001221      0.000254     -0.001476
    64   Atom        0.005359     -0.003832     -0.001527
    65   Atom        0.005009     -0.003144     -0.001864
    66   Atom       -0.029865      0.000347      0.029518
    67   Atom       -0.035375     -0.002047      0.037422
    68   Atom       -0.064200      0.021975      0.042225
    69   Atom       -0.059233      0.027002      0.032231
    70   Atom       -0.000586      0.000562      0.000023
    71   Atom        0.000440     -0.000537      0.000097
    72   Atom        0.000769     -0.000969      0.000200
    73   Atom       -1.024023      0.251806      0.772217
 --------------------------------------------------------
                        XY            XZ            YZ
 --------------------------------------------------------
     1   Atom        2.210105      0.815972     -1.275653
     2   Atom        0.055597      0.021839     -0.019453
     3   Atom       -0.017699     -0.004888      0.009109
     4   Atom        0.053301      0.021627     -0.020663
     5   Atom       -0.027828     -0.012387      0.012313
     6   Atom        0.066587      0.029387     -0.024882
     7   Atom       -0.027087     -0.010805      0.013331
     8   Atom       -0.002113     -0.001990      0.000445
     9   Atom       -0.002065     -0.003540     -0.002598
    10   Atom       -0.000471     -0.001133      0.000950
    11   Atom        0.001733      0.002374      0.005429
    12   Atom       -0.001205      0.000250      0.002214
    13   Atom        0.168427      0.076465     -0.072103
    14   Atom        0.115780      0.056102     -0.054853
    15   Atom       -0.004393     -0.011913     -0.013046
    16   Atom        0.000965      0.010530      0.006726
    17   Atom       -0.002129     -0.010433     -0.005006
    18   Atom        0.000459     -0.001694      0.000225
    19   Atom        0.000344      0.002070     -0.000562
    20   Atom        0.003838      0.001491     -0.001243
    21   Atom       -0.001194      0.001351     -0.001338
    22   Atom        0.002234     -0.001942     -0.004124
    23   Atom        0.002202      0.002226      0.003933
    24   Atom        0.002356      0.001815      0.004235
    25   Atom        0.002008     -0.002011     -0.004140
    26   Atom       -0.002021     -0.004580      0.002396
    27   Atom       -0.001835      0.004699     -0.002736
    28   Atom       -0.001443     -0.004686      0.002623
    29   Atom       -0.001663      0.004781     -0.002209
    30   Atom        0.000420     -0.000152     -0.000575
    31   Atom        0.000447      0.000655      0.000297
    32   Atom        0.000440     -0.000168      0.000824
    33   Atom        0.000287     -0.000099     -0.000646
    34   Atom        0.000641     -0.003312     -0.000901
    35   Atom        0.000869      0.004080      0.001095
    36   Atom       -0.000371     -0.001872      0.004022
    37   Atom       -0.000650      0.001545     -0.003289
    38   Atom        0.004563      0.003769      0.001591
    39   Atom        0.004795     -0.003718     -0.001848
    40   Atom        0.013931      0.007079     -0.009543
[...]
                                 (Linear)    (Quad)   (Total)
    X1      -18.83403   0.00757   0.00000   0.00744   0.00884 -18.82519
    Y1       14.78565  -0.01164   0.00000  -0.01126  -0.01255  14.77311
    Z1       19.74148  -0.00376   0.00000  -0.00388  -0.00519  19.73629
    X2      -15.70146   0.00256   0.00000   0.00584   0.00689 -15.69457
    Y2        8.01657   0.00098   0.00000   0.00762   0.00639   8.02296
    Z2       23.12364   0.00194   0.00000  -0.00039  -0.00128  23.12237
    X3      -17.12078   0.00012   0.00000  -0.02431  -0.02320 -17.14398
    Y3        7.39883   0.00238   0.00000   0.02266   0.02137   7.42020
    Z3       20.96140  -0.00364   0.00000   0.01120   0.01030  20.97170
    X4      -18.90615  -0.00211   0.00000  -0.00590  -0.00487 -18.91103
    Y4        5.44246  -0.00259   0.00000  -0.00326  -0.00448   5.43798
    Z4       21.16380  -0.00109   0.00000  -0.00977  -0.01064  21.15316
    X5      -19.25512  -0.00046   0.00000   0.00296   0.00387 -19.25125
    Y5        4.13997  -0.00035   0.00000  -0.00547  -0.00657   4.13340
    Z5       23.42118  -0.00224   0.00000  -0.01398  -0.01480  23.40638
    X6      -17.82030   0.00026   0.00000   0.00650   0.00736 -17.81293
    Y6        4.76444   0.00017   0.00000   0.00268   0.00164   4.76608
    Z6       25.54380  -0.00198   0.00000  -0.01727  -0.01807  25.52573
    X7      -16.04417   0.00190   0.00000   0.01157   0.01250 -16.03167
    Y7        6.71040   0.00146   0.00000   0.00127   0.00016   6.71056
    Z7       25.38109  -0.00074   0.00000  -0.00881  -0.00964  25.37145
    X8      -14.31859   0.00033   0.00000   0.00944   0.01055 -14.30804
    Y8        9.54747  -0.00064   0.00000   0.00210   0.00082   9.54828
    Z8       23.05276  -0.00002   0.00000  -0.00245  -0.00336  23.04940
    X9      -20.03130  -0.00003   0.00000  -0.00357  -0.00250 -20.03380
    Y9        4.94974  -0.00082   0.00000  -0.00809  -0.00934   4.94039
    Z9       19.50302  -0.00003   0.00000  -0.00923  -0.01011  19.49291
   X10      -20.63429  -0.00015   0.00000   0.00073   0.00158 -20.63271
   Y10        2.60679   0.00039   0.00000  -0.00196  -0.00300   2.60378
   Z10       23.50982   0.00040   0.00000  -0.00289  -0.00368  23.50614
   X11      -18.06068  -0.00022   0.00000  -0.00044   0.00033 -18.06035
   Y11        3.71847   0.00077   0.00000   0.01119   0.01024   3.72871
   Z11       27.30746  -0.00030   0.00000  -0.01311  -0.01387  27.29359
   X12      -14.90544  -0.00050   0.00000   0.00488   0.00578 -14.89966
   Y12        7.20771   0.00023   0.00000   0.00080  -0.00027   7.20744
   Z12       27.03178  -0.00054   0.00000  -0.00620  -0.00702  27.02476
   X13      -16.85707  -0.01835   0.00000  -0.07393  -0.07271 -16.92977
   Y13        8.72576  -0.01221   0.00000   0.06573   0.06432   8.79008
   Z13       18.54694   0.01258   0.00000   0.04793   0.04696  18.59391
   X14      -15.28967   0.00424   0.00000  -0.07221  -0.07090 -15.36056
   Y14       10.67013   0.02697   0.00000   0.10919   0.10770  10.77783
   Z14       18.07449   0.00054   0.00000   0.04148   0.04047  18.11496
   X15      -18.12950   0.00129   0.00000  -0.02034  -0.01909 -18.14859
   Y15        8.09937  -0.00131   0.00000   0.01332   0.01188   8.11125
   Z15       17.03878   0.00014   0.00000   0.02485   0.02388  17.06266
   X16      -15.23520   0.00091   0.00000  -0.02156  -0.02015 -15.25536
   Y16       11.56354  -0.00192   0.00000   0.03370   0.03212  11.59567
   Z16       16.21666  -0.00086   0.00000   0.00758   0.00654  16.22320
   X17      -13.95810   0.00165   0.00000  -0.01484  -0.01356 -13.97166
   Y17       11.37893  -0.00094   0.00000   0.05652   0.05506  11.43399
   Z17       19.48256  -0.00053   0.00000   0.01222   0.01123  19.49379
   X18       -1.91728   0.00588   0.00000   0.02816   0.02912  -1.88816
   Y18       -3.33664  -0.00038   0.00000  -0.00144  -0.00358  -3.34023
   Z18       14.10466  -0.00207   0.00000  -0.01571  -0.01560  14.08906
   X19      -15.88494  -0.00592   0.00000  -0.02227  -0.02128 -15.90622
   Y19       -2.49941   0.00098   0.00000  -0.00401  -0.00567  -2.50508
   Z19       14.11273  -0.00210   0.00000  -0.01620  -0.01659  14.09614
   X20      -13.34316  -0.00380   0.00000  -0.01011  -0.00914 -13.35229
   Y20        2.52804   0.00545   0.00000   0.02288   0.02141   2.54945
   Z20       19.81679   0.00104   0.00000   0.00993   0.00938  19.82617
   X21       -4.41163   0.00405   0.00000   0.01374   0.01433  -4.39729
   Y21       -8.20953  -0.00429   0.00000  -0.02507  -0.02684  -8.23637
   Z21       19.95321   0.00204   0.00000   0.01524   0.01550  19.96871
   X22       -6.48354  -0.00156   0.00000   0.01696   0.01814  -6.46541
   Y22        1.40568  -0.01650   0.00000  -0.02443  -0.02650   1.37918
   Z22       12.28581   0.01518   0.00000   0.00743   0.00717  12.29297
   X23      -11.35648   0.00324   0.00000  -0.01146  -0.01059 -11.36707
   Y23       -7.22383   0.01539   0.00000   0.01035   0.00846  -7.21538
   Z23       12.44870   0.01590   0.00000   0.00590   0.00588  12.45458
   X24       -6.87222  -0.01000   0.00000  -0.01705  -0.01617  -6.88838
   Y24        1.72735  -0.01290   0.00000  -0.00030  -0.00191   1.72543
   Z24       21.55009  -0.01553   0.00000  -0.00795  -0.00825  21.54184
   X25      -10.91572   0.01111   0.00000   0.02142   0.02199 -10.89372
   Y25       -7.30460   0.01094   0.00000  -0.00380  -0.00527  -7.30987
   Z25       21.67310  -0.01604   0.00000  -0.00742  -0.00742  21.66568
   X26       -4.66814  -0.01317   0.00000   0.00542   0.00639  -4.66175
   Y26       -4.81095   0.01200   0.00000   0.01106   0.00891  -4.80204
   Z26       12.05946   0.01670   0.00000   0.00872   0.00881  12.06827
   X27      -13.13372   0.01347   0.00000   0.00420   0.00531 -13.12841
   Y27       -1.00402  -0.01346   0.00000  -0.02383  -0.02568  -1.02970
   Z27       12.00206   0.01616   0.00000   0.01072   0.01035  12.01240
   X28      -12.90788   0.01886   0.00000   0.01416   0.01497 -12.89292
   Y28       -0.47868  -0.00485   0.00000   0.01130   0.00991  -0.46877
   Z28       21.91039  -0.01649   0.00000  -0.01231  -0.01270  21.89769
   X29       -4.85902  -0.01772   0.00000  -0.01129  -0.01065  -4.86967
   Y29       -5.08835   0.00258   0.00000  -0.01561  -0.01727  -5.10562
   Z29       21.97234  -0.01655   0.00000  -0.00907  -0.00898  21.96337
   X30       -6.05762   0.00157   0.00000   0.00033   0.00166  -6.05596
   Y30        3.68691   0.00436   0.00000  -0.01351  -0.01570   3.67121
   Z30       10.09946  -0.00583   0.00000  -0.00451  -0.00488  10.09458
   X31      -11.60010  -0.00100   0.00000   0.00351   0.00438 -11.59572
   Y31       -9.60952  -0.00496   0.00000   0.00076  -0.00123  -9.61075
   Z31       10.31579  -0.00588   0.00000  -0.00534  -0.00525  10.31054
   X32       -5.11463   0.00338   0.00000  -0.00080   0.00007  -5.11456
   Y32        3.34318   0.00376   0.00000  -0.00821  -0.00978   3.33341
   Z32       23.69555   0.00607   0.00000   0.00531   0.00499  23.70054
   X33      -12.65915  -0.00325   0.00000   0.00511   0.00556 -12.65359
   Y33       -8.84334  -0.00379   0.00000   0.00407   0.00277  -8.84057
   Z33       23.88550   0.00598   0.00000   0.00506   0.00508  23.89058
   X34       -5.10172   0.00216   0.00000   0.01987   0.02101  -5.08072
   Y34       -1.63655   0.00135   0.00000  -0.00051  -0.00271  -1.63927
   Z34       10.56646  -0.00564   0.00000  -0.01971  -0.01979  10.54667
   X35      -12.69146  -0.00249   0.00000  -0.01490  -0.01386 -12.70532
   Y35       -4.28543  -0.00059   0.00000  -0.00997  -0.01191  -4.29734
   Z35       10.64208  -0.00559   0.00000  -0.01996  -0.02016  10.62192
   X36      -10.06004  -0.00108   0.00000  -0.00564  -0.00483 -10.06487
   Y36        1.06335   0.00286   0.00000   0.01950   0.01809   1.08144
   Z36       23.37098   0.00524   0.00000   0.01350   0.01313  23.38411
   X37       -7.68811   0.00063   0.00000   0.00673   0.00727  -7.68084
   Y37       -6.62829  -0.00241   0.00000  -0.01989  -0.02138  -6.64967
   Z37       23.45375   0.00533   0.00000   0.01660   0.01668  23.47043
   X38        0.55720   0.00747   0.00000   0.00064   0.00160   0.55880
   Y38       -0.01427   0.00317   0.00000   0.00431   0.00225  -0.01202
   Z38       17.53758   0.00158   0.00000   0.00057   0.00060  17.53818
   X39      -18.36399  -0.00758   0.00000   0.00414   0.00490 -18.35909
   Y39       -5.68971  -0.00314   0.00000  -0.01000  -0.01140  -5.70111
   Z39       17.64984   0.00161   0.00000  -0.00003  -0.00034  17.64950
   X40      -12.10388  -0.00439   0.00000  -0.00389  -0.00267 -12.10655
   Y40        6.45115   0.01158   0.00000   0.00304   0.00136   6.45251
   Z40       16.30619  -0.00056   0.00000   0.00759   0.00690  16.31309
   X41       -5.59819   0.00186   0.00000  -0.00796  -0.00739  -5.60558
   Y41      -12.18195  -0.00792   0.00000  -0.00778  -0.00967 -12.19162
   Z41       16.51870  -0.00156   0.00000  -0.00017   0.00024  16.51893
   X42       -3.43062   0.00385   0.00000   0.02534   0.02647  -3.40415
   Y42        1.48323   0.00409   0.00000   0.00367   0.00158   1.48482
   Z42       14.15230  -0.00247   0.00000  -0.01645  -0.01662  14.13568
   X43      -14.38267  -0.00432   0.00000  -0.02111  -0.02029 -14.40296
   Y43       -7.32524  -0.00388   0.00000  -0.01148  -0.01318  -7.33842
   Z43       14.29585  -0.00196   0.00000  -0.01547  -0.01558  14.28027
   X44       -8.57821   0.00028   0.00000  -0.00165  -0.00061  -8.57882
   Y44        4.19147   0.00621   0.00000   0.02302   0.02138   4.21284
   Z44       19.69519   0.00122   0.00000   0.00929   0.00882  19.70401
   X45       -9.19680  -0.00098   0.00000   0.00639   0.00694  -9.18986
   Y45       -9.84969  -0.00542   0.00000  -0.02469  -0.02630  -9.87600
   Z45       19.87988   0.00234   0.00000   0.01518   0.01536  19.89524
   X46       -3.11628   0.00498   0.00000   0.00596   0.00695  -3.10933
   Y46       -6.56708  -0.00444   0.00000  -0.00873  -0.01103  -6.57811
   Z46        9.86446  -0.00505   0.00000   0.00383   0.00406   9.86852
   X47      -14.77634  -0.00515   0.00000   0.00247   0.00371 -14.77264
   Y47        0.50999   0.00333   0.00000  -0.00162  -0.00352   0.50647
   Z47        9.72558  -0.00480   0.00000   0.00653   0.00604   9.73162
   X48      -15.18556  -0.00671   0.00000   0.00149   0.00222 -15.18334
   Y48       -0.34705   0.00178   0.00000   0.00250   0.00129  -0.34576
   Z48       24.16373   0.00538   0.00000  -0.00312  -0.00359  24.16014
   X49       -2.53634   0.00632   0.00000   0.00408   0.00464  -2.53170
   Y49       -5.28099  -0.00157   0.00000  -0.00586  -0.00750  -5.28849
   Z49       24.18093   0.00507   0.00000  -0.00346  -0.00327  24.17765
   X50       -2.39422  -0.02224   0.00000  -0.00546  -0.00451  -2.39873
   Y50       -0.97342  -0.00836   0.00000  -0.00950  -0.01150  -0.98492
   Z50       16.71520  -0.00513   0.00000  -0.01769  -0.01771  16.69749
   X51      -15.41760   0.02309   0.00000   0.01073   0.01155 -15.40605
   Y51       -4.74476   0.00678   0.00000   0.00209   0.00054  -4.74422
   Z51       16.79158  -0.00577   0.00000  -0.01938  -0.01964  16.77194
   X52      -11.21696   0.00915   0.00000   0.00650   0.00759 -11.20937
   Y52        3.50184  -0.02646   0.00000  -0.01434  -0.01602   3.48582
   Z52       17.09311   0.00616   0.00000   0.01725   0.01673  17.10983
   X53       -6.55805  -0.00713   0.00000  -0.00026   0.00039  -6.55765
   Y53       -9.22313   0.02248   0.00000   0.00560   0.00377  -9.21935
   Z53       17.31588   0.00500   0.00000   0.01765   0.01789  17.33377
   X54       -8.01008   0.00097   0.00000  -0.00015   0.00080  -8.00928
   Y54       -5.84535  -0.00169   0.00000   0.01008   0.00803  -5.83732
   Z54       11.47836  -0.00326   0.00000   0.00800   0.00803  11.48638
   X55       -9.78528  -0.00101   0.00000   0.00751   0.00867  -9.77661
   Y55       -0.05725   0.00210   0.00000  -0.02122  -0.02322  -0.08048
   Z55       11.37353  -0.00322   0.00000   0.00764   0.00734  11.38087
   X56      -11.69408  -0.00238   0.00000   0.01455   0.01522 -11.67886
   Y56       -3.78010   0.00050   0.00000   0.00657   0.00517  -3.77493
   Z56       22.52870   0.00325   0.00000  -0.01005  -0.01024  22.51846
   X57       -6.02660   0.00193   0.00000  -0.01231  -0.01158  -6.03818
   Y57       -1.79365   0.00068   0.00000  -0.00892  -0.01052  -1.80416
   Z57       22.53858   0.00344   0.00000  -0.00801  -0.00811  22.53047
   X58       -8.31312  -0.00008   0.00000   0.01119   0.01234  -8.30078
   Y58        3.02579   0.00311   0.00000  -0.01822  -0.02010   3.00568
   Z58       14.83201  -0.00115   0.00000   0.01010   0.00970  14.84171
   X59       -9.45393  -0.00105   0.00000  -0.00740  -0.00666  -9.46059
   Y59       -8.82803  -0.00324   0.00000   0.00840   0.00656  -8.82147
   Z59       14.98963  -0.00244   0.00000   0.00801   0.00814  14.99777
   X60       -4.42562   0.00172   0.00000  -0.01295  -0.01200  -4.43761
   Y60        1.13004   0.00287   0.00000  -0.00403  -0.00584   1.12420
   Z60       19.04391   0.00242   0.00000  -0.00911  -0.00929  19.03461
   X61      -13.35776  -0.00212   0.00000   0.01683   0.01750 -13.34026
   Y61       -6.81277  -0.00249   0.00000  -0.00118  -0.00268  -6.81545
   Z61       19.15740   0.00222   0.00000  -0.00952  -0.00962  19.14779
   X62       -4.87189   0.00182   0.00000   0.00117   0.00197  -4.86992
   Y62       -7.31205  -0.00310   0.00000   0.00450   0.00250  -7.30954
   Z62       14.85010  -0.00096   0.00000   0.01249   0.01270  14.86280
   X63      -12.94584  -0.00116   0.00000   0.00757   0.00867 -12.93717
   Y63        1.49121   0.00392   0.00000  -0.01234  -0.01406   1.47714
   Z63       14.74490  -0.00021   0.00000   0.01312   0.01264  14.75753
   X64      -14.83035  -0.00329   0.00000   0.01083   0.01166 -14.81869
   Y64       -2.21411   0.00034   0.00000   0.00477   0.00332  -2.21079
   Z64       19.20618   0.00124   0.00000  -0.01459  -0.01495  19.19122
   X65       -2.97133   0.00344   0.00000  -0.00658  -0.00579  -2.97712
   Y65       -3.47006   0.00056   0.00000  -0.00856  -0.01041  -3.48048
   Z65       19.18800   0.00094   0.00000  -0.01203  -0.01195  19.17605
   X66       -6.40522   0.04242   0.00000   0.07582   0.07679  -6.32843
   Y66       -2.12523   0.00760   0.00000   0.00478   0.00284  -2.12239
   Z66       15.14597  -0.02689   0.00000  -0.04304  -0.04313  15.10284
   X67      -11.39635  -0.04324   0.00000  -0.06907  -0.06816 -11.46451
   Y67       -3.69540  -0.00872   0.00000  -0.01668  -0.01844  -3.71384
   Z67       15.20323  -0.02684   0.00000  -0.04386  -0.04405  15.15918
   X68       -9.69829  -0.01883   0.00000  -0.02996  -0.02905  -9.72734
   Y68       -0.37467   0.04087   0.00000   0.06294   0.06130  -0.31337
   Z68       18.81148   0.02676   0.00000   0.04175   0.04145  18.85294
   X69       -8.04458   0.01852   0.00000   0.03490   0.03563  -8.00895
   Y69       -5.33098  -0.03877   0.00000  -0.06585  -0.06755  -5.39853
   Z69       18.86365   0.02721   0.00000   0.04211   0.04211  18.90576
   X70       -6.11572  -0.00036   0.00000  -0.00260  -0.00182  -6.11754
   Y70      -11.54287   0.00108   0.00000   0.00606   0.00390 -11.53897
   Z70       10.72192   0.00079   0.00000   0.00924   0.00961  10.73153
   X71       -0.30421  -0.00102   0.00000  -0.00976  -0.00899  -0.31320
   Y71        0.06431  -0.00032   0.00000  -0.00727  -0.00902   0.05529
   Z71       23.32194  -0.00074   0.00000  -0.00817  -0.00817  23.31377
   X72      -17.49410   0.00105   0.00000   0.01374   0.01432 -17.47978
   Y72       -5.53392   0.00047   0.00000   0.00320   0.00204  -5.53188
   Z72       23.43180  -0.00059   0.00000  -0.00879  -0.00908  23.42272
   X73       -8.89030   0.00078   0.00000   0.00368   0.00456  -8.88574
   Y73       -2.87356  -0.00051   0.00000  -0.00370  -0.00546  -2.87902
   Z73       16.99900  -0.00081   0.00000  -0.00194  -0.00208  16.99692
         Item               Value     Threshold  Converged?
 Maximum Force            0.043237     0.000450     NO 
 RMS     Force            0.009758     0.000300     NO 
 Maximum Displacement     0.107701     0.001800     NO 
 RMS     Displacement     0.020241     0.001200     NO 
 Predicted change in Energy=-1.525458D-02
 GradGradGradGradGradGradGradGradGradGradGradGradGradGradGradGradGradGrad

 Unable to Open any file for archive entry.
 1\1\GINC-X11P1N2\Force\UwB97XD\def2SVP\C8H8Cl1K3O40V1W12(1-)\MAYUMIAO\
 01-Jun-2024\0\\# def2svp wb97xd scrf=(smd,solvent=acetonitrile) g09def
 ault scf=(xqc,maxcycle=64) force guess=read nosymm\\Title Card\\-1,1\C
 l,-9.96654009,7.82423162,10.44674102\C,-8.30885381,4.24218854,12.23650
 415\C,-9.05992479,3.91528979,11.09229498\C,-10.00470573,2.88002669,11.
 19940218\C,-10.1893729,2.19077869,12.39395342\C,-9.4300952,2.52123414,
 13.51719447\C,-8.49020953,3.55099306,13.43109583\H,-7.57707139,5.05230
 162,12.19899755\H,-10.60010706,2.61928852,10.32055247\H,-10.91919636,1
 .37945251,12.44086205\H,-9.55729905,1.96773029,14.45048711\H,-7.887618
 82,3.8141572,14.30460312\C,-8.92037559,4.61747348,9.81462053\C,-8.0909
 4288,5.64639024,9.56460992\H,-9.59371992,4.28600135,9.01653442\H,-8.06
 212213,6.11916437,8.5814882\H,-7.3863094,6.02147089,10.30972924\O,-1.0
 1458323,-1.76567571,7.46386233\O,-8.405949,-1.32262951,7.46813291\O,-7
 .0608943,1.33778014,10.48659277\O,-2.33453229,-4.34429755,10.55878235\
 W,-3.43094417,0.74385209,6.50136822\W,-6.00959203,-3.82268789,6.587568
 33\W,-3.63662045,0.91407209,11.40381522\W,-5.77634835,-3.86542703,11.4
 6890943\W,-2.47027553,-2.54584516,6.3815928\W,-6.95006457,-0.53130357,
 6.35121495\W,-6.83055691,-0.25330583,11.5944778\W,-2.57128376,-2.69263
 673,11.62726374\O,-3.20555537,1.95102906,5.34440237\O,-6.13850722,-5.0
 8513809,5.45888056\O,-2.70654715,1.76913726,12.53914501\O,-6.69893327,
 -4.6796931,12.63966199\O,-2.69971618,-0.86602604,5.59152789\O,-6.71603
 072,-2.26775438,5.6315464\O,-5.3235427,0.56269896,12.36739017\O,-4.068
 37176,-3.50754069,12.41118952\O,0.29486005,-0.00754973,9.28048609\O,-9
 .7178058,-3.01086473,9.33989503\O,-6.40509856,3.41380132,8.62886461\O,
 -2.96243389,-6.44641128,8.74131785\O,-1.81540397,0.78489293,7.48907666
 \O,-7.61098106,-3.87635194,7.56503643\O,-4.53939396,2.21802922,10.4222
 4598\O,-4.86673446,-5.21223391,10.51997917\O,-1.64906223,-3.47514856,5
 .2200483\O,-7.81930427,0.26987515,5.14655661\O,-8.03585464,-0.18365295
 ,12.78689304\O,-1.34217088,-2.79458127,12.79599584\W,-1.26696601,-0.51
 511088,8.84530303\W,-8.15864172,-2.51082031,8.88572249\W,-5.93575861,1
 .85309175,9.0452817\W,-3.47036851,-4.88066782,9.16316824\O,-4.23875322
 ,-3.09322433,6.07408465\O,-5.17814822,-0.03029728,6.01861358\O,-6.1882
 3936,-2.00034483,11.92167437\O,-3.18913841,-0.94915794,11.92690364\O,-
 4.39911212,1.60117652,7.84876284\O,-5.00280411,-4.6715928,7.93217129\O
 ,-2.34193549,0.597991,10.07760055\O,-7.0686244,-3.60516164,10.13766092
 \O,-2.57809398,-3.86936779,7.85833474\O,-6.85064379,0.78911184,7.80266
 251\O,-7.8478826,-1.17165472,10.16347016\O,-1.57235971,-1.83627898,10.
 15385285\O,-3.38949603,-1.12462371,8.01490204\O,-6.03068673,-1.9555216
 8,8.04520028\O,-5.13211249,-0.19826766,9.95460807\O,-4.25700996,-2.821
 03486,9.9822142\K,-3.23630113,-6.10822396,5.67379802\K,-0.16098317,0.0
 3403198,12.34143902\K,-9.25747695,-2.92842359,12.39957629\V,-4.7045439
 9,-1.52062288,8.99548149\\Version=ES64L-G16RevC.01\HF=-7327.7003746\S2
 =1.014048\S2-1=0.\S2A=0.113067\RMSD=1.764e-10\RMSF=9.758e-03\Dipole=1.
 7899976,-7.1109453,5.5071725\Quadrupole=-19.6267666,42.6320749,-23.005
 3083,97.2645286,141.4635583,-68.6239049\PG=C01 [X(C8H8Cl1K3O40V1W12)]\
 \@
 The archive entry for this job was punched.


 A SOLDIER'S LIFE IS A LIFE OF HONOR, BUT A DOG WOULD NOT LEAD IT.
 -- PRINCE RUPERT, FOUNDER OF THE HUDSON'S BAY COMPANY
 Job cpu time:       1 days  5 hours  1 minutes 55.1 seconds.
 Elapsed time:       0 days  0 hours 33 minutes 14.2 seconds.
 File lengths (MBytes):  RWF=   1859 Int=      0 D2E=      0 Chk=    306 Scr=      1
 Normal termination of Gaussian 16 at Sat Jun  1 18:47:42 2024.
