 Entering Gaussian System, Link 0=g16
 Input=JOBS/14_A.gjf
 Output=JOBS/14_A.log
 Initial command:
 /data/app/gaussian/C01-avx2//g16/l1.exe "/tmp/Gau-602697.inp" -scrdir="/tmp/"
 Entering Link 1 = /data/app/gaussian/C01-avx2//g16/l1.exe PID=    602698.
  
 Copyright (c) 1988-2019, Gaussian, Inc.  All Rights Reserved.
  
 This is part of the Gaussian(R) 16 program.  It is based on
 the Gaussian(R) 09 system (copyright 2009, Gaussian, Inc.),
 the Gaussian(R) 03 system (copyright 2003, Gaussian, Inc.),
 the Gaussian(R) 98 system (copyright 1998, Gaussian, Inc.),
 the Gaussian(R) 94 system (copyright 1995, Gaussian, Inc.),
 the Gaussian 92(TM) system (copyright 1992, Gaussian, Inc.),
 the Gaussian 90(TM) system (copyright 1990, Gaussian, Inc.),
 the Gaussian 88(TM) system (copyright 1988, Gaussian, Inc.),
 the Gaussian 86(TM) system (copyright 1986, Carnegie Mellon
 University), and the Gaussian 82(TM) system (copyright 1983,
 Carnegie Mellon University). Gaussian is a federally registered
 trademark of Gaussian, Inc.
  
 This software contains proprietary and confidential information,
 including trade secrets, belonging to Gaussian, Inc.
  
 This software is provided under written license and may be
 used, copied, transmitted, or stored only in accord with that
 written license.
  
 The following legend is applicable only to US Government
 contracts under FAR:
  
                    RESTRICTED RIGHTS LEGEND
  
 Use, reproduction and disclosure by the US Government is
 subject to restrictions as set forth in subparagraphs (a)
 and (c) of the Commercial Computer Software - Restricted
 Rights clause in FAR 52.227-19.
  
 Gaussian, Inc.
 340 Quinnipiac St., Bldg. 40, Wallingford CT 06492
  
  
 ---------------------------------------------------------------
 Warning -- This program may not be used in any manner that
 competes with the business of Gaussian, Inc. or will provide
 assistance to any competitor of Gaussian, Inc.  The licensee
 of this program is prohibited from giving any competitor of
 Gaussian, Inc. access to this program.  By using this program,
 the user acknowledges that Gaussian, Inc. is engaged in the
 business of creating and licensing software in the field of
 computational chemistry and represents and warrants to the
 licensee that it is not a competitor of Gaussian, Inc. and that
 it will not use this program in any manner prohibited above.
 ---------------------------------------------------------------
  

 Cite this work as:
 Gaussian 16, Revision C.01,
 M. J. Frisch, G. W. Trucks, H. B. Schlegel, G. E. Scuseria, 
 M. A. Robb, J. R. Cheeseman, G. Scalmani, V. Barone, 
 G. A. Petersson, H. Nakatsuji, X. Li, M. Caricato, A. V. Marenich, 
 J. Bloino, B. G. Janesko, R. Gomperts, B. Mennucci, H. P. Hratchian, 
 J. V. Ortiz, A. F. Izmaylov, J. L. Sonnenberg, D. Williams-Young, 
 F. Ding, F. Lipparini, F. Egidi, J. Goings, B. Peng, A. Petrone, 
 T. Henderson, D. Ranasinghe, V. G. Zakrzewski, J. Gao, N. Rega, 
 G. Zheng, W. Liang, M. Hada, M. Ehara, K. Toyota, R. Fukuda, 
 J. Hasegawa, M. Ishida, T. Nakajima, Y. Honda, O. Kitao, H. Nakai, 
 T. Vreven, K. Throssell, J. A. Montgomery, Jr., J. E. Peralta, 
 F. Ogliaro, M. J. Bearpark, J. J. Heyd, E. N. Brothers, K. N. Kudin, 
 V. N. Staroverov, T. A. Keith, R. Kobayashi, J. Normand, 
 K. Raghavachari, A. P. Rendell, J. C. Burant, S. S. Iyengar, 
 J. Tomasi, M. Cossi, J. M. Millam, M. Klene, C. Adamo, R. Cammi, 
 J. W. Ochterski, R. L. Martin, K. Morokuma, O. Farkas, 
 J. B. Foresman, and D. J. Fox, Gaussian, Inc., Wallingford CT, 2019.
 
 ******************************************
 Gaussian 16:  ES64L-G16RevC.01  3-Jul-2019
                 1-Jun-2024 
 ******************************************
 %chk=a.chk
 %nprocshared=56
 Will use up to   56 processors via shared memory.
 %mem=96gb
 ----------------------------------------------------------------------
 # def2svp wb97xd scrf=(smd,solvent=acetonitrile) g09default scf=(xqc,m
 axcycle=64) force guess=read nosymm
 ----------------------------------------------------------------------
 1/10=7,30=1,38=1,158=3,167=1/1,3;
 2/12=2,15=1,17=6,18=5,40=1/2;
 3/5=43,7=101,11=2,25=1,27=10,30=1,70=32201,71=1,72=2,74=-58,75=-4,116=-2,158=3/1,2,3;
 4/5=1,60=-1/1;
 5/5=2,7=64,8=3,13=1,38=6,53=2,87=10/2,8;
 6/7=2,8=2,9=2,10=2,28=1,87=10/1;
 7/29=1,30=1,87=10/1,2,3,16;
 1/10=7,30=1,158=3,167=1/3;
 99//99;
 Using 2006 physical constants.
 ----------
 Title Card
 ----------
 Symbolic Z-matrix:
 Charge = -1 Multiplicity = 1
 17                   -9.97103   7.84098   10.45141 
 6                    -8.30791   4.24146   12.23582 
 6                    -9.06093   3.91493   11.0923 
 6                    -10.00422   2.8783    11.19923 
 6                    -10.18905   2.18994   12.39369 
 6                    -9.43024   2.52122   13.51684 
 6                    -8.48964   3.55033   13.43097 
 1                    -7.57657   5.05126   12.19857 
 1                    -10.60075   2.61711   10.32062 
 1                    -10.92058   1.37955   12.44245 
 1                    -9.55749   1.96862   14.45071 
 1                    -7.88852   3.8151    14.30464 
 6                    -8.92274   4.61991   9.81566 
 6                    -8.09654   5.6496    9.56595 
 1                    -9.59126   4.28156   9.01572 
 1                    -8.06238   6.11758   8.58027 
 1                    -7.38602   6.02038   10.30878 
 8                    -1.0135   -1.76556   7.4634 
 8                    -8.40734  -1.32269   7.46797 
 8                    -7.06096   1.33897   10.48649 
 8                    -2.33361  -4.3455    10.55891 
 74                   -3.42953   0.74352   6.50016 
 74                   -6.01024  -3.8235    6.58688 
 74                   -3.63629   0.91474   11.40481 
 74                   -5.7766   -3.8663    11.46963 
 74                   -2.4704   -2.54558   6.38157 
 74                   -6.94938  -0.53221   6.35088 
 74                   -6.82971  -0.25271   11.5943 
 74                   -2.57178  -2.69318   11.62761 
 8                    -3.20446   1.94985   5.34251 
 8                    -6.13944  -5.08422   5.45714 
 8                    -2.70761   1.76948   12.54115 
 8                    -6.69769  -4.68048   12.64114 
 8                    -2.69956  -0.8663    5.58926 
 8                    -6.71618  -2.26821   5.62956 
 8                    -5.3236    0.56287   12.36903 
 8                    -4.06814  -3.50777   12.41266 
 8                     0.29469  -0.00686   9.27902 
 8                    -9.71769  -3.01148   9.33803 
 8                    -6.40199   3.41431   8.62846 
 8                    -2.96284  -6.44669   8.74262 
 8                    -1.81423   0.78592   7.48822 
 8                    -7.61153  -3.87771   7.5643 
 8                    -4.53773   2.21894   10.42293 
 8                    -4.86732  -5.21361   10.52063 
 8                    -1.6474   -3.47435   5.22072 
 8                    -7.82067   0.26917   5.14792 
 8                    -8.03616  -0.18177   12.7857 
 8                    -1.34187  -2.79673   12.79537 
 74                   -1.26733  -0.51526   8.84483 
 74                   -8.15809  -2.51049   8.88495 
 74                   -5.93444   1.85236   9.04532 
 74                   -3.4705   -4.88078   9.16389 
 8                    -4.23835  -3.09362   6.07305 
 8                    -5.17853  -0.02939   6.01694 
 8                    -6.18896  -2.00061   11.92271 
 8                    -3.18799  -0.94921   11.92838 
 8                    -4.39758   1.60051   7.8478 
 8                    -5.00335  -4.67295   7.9307 
 8                    -2.34134   0.59914   10.07885 
 8                    -7.06902  -3.60656   10.13885 
 8                    -2.57876  -3.87013   7.85816 
 8                    -6.84929   0.78923   7.80252 
 8                    -7.84775  -1.1725    10.16339 
 8                    -1.57241  -1.83544   10.15398 
 8                    -3.38872  -1.12587   8.01536 
 8                    -6.03147  -1.95435   8.04532 
 8                    -5.1337   -0.19847   9.95383 
 8                    -4.25559  -2.82123   9.98149 
 19                   -3.23568  -6.11092   5.67182 
 19                   -0.15848   0.0353    12.34344 
 19                   -9.26025  -2.92874   12.40211 
 23                   -4.70452  -1.52064   8.99552 
 

 GradGradGradGradGradGradGradGradGradGradGradGradGradGradGradGradGradGrad
 Berny optimization.
 Initialization pass.
 Trust Radius=3.00D-01 FncErr=1.00D-07 GrdErr=1.00D-07 EigMax=2.50D+02 EigMin=1.00D-04
 Number of steps in this run=      2 maximum allowed number of steps=      2.
 GradGradGradGradGradGradGradGradGradGradGradGradGradGradGradGradGradGrad

 Symmetry turned off by external request.
 Stoichiometry    C8H8ClK3O40VW12(1-)
 Framework group  C1[X(C8H8ClK3O40VW12)]
 Deg. of freedom   213
 Full point group                 C1      NOp   1
                          Input orientation:                          
 ---------------------------------------------------------------------
 Center     Atomic      Atomic             Coordinates (Angstroms)
 Number     Number       Type             X           Y           Z
 ---------------------------------------------------------------------
      1         17           0       -9.971026    7.840978   10.451414
      2          6           0       -8.307910    4.241456   12.235819
      3          6           0       -9.060934    3.914931   11.092304
      4          6           0      -10.004224    2.878301   11.199231
      5          6           0      -10.189047    2.189943   12.393691
      6          6           0       -9.430241    2.521224   13.516843
      7          6           0       -8.489637    3.550327   13.430970
      8          1           0       -7.576572    5.051263   12.198573
      9          1           0      -10.600747    2.617113   10.320621
     10          1           0      -10.920585    1.379547   12.442453
     11          1           0       -9.557489    1.968624   14.450713
     12          1           0       -7.888517    3.815101   14.304638
     13          6           0       -8.922738    4.619911    9.815658
     14          6           0       -8.096545    5.649605    9.565951
     15          1           0       -9.591264    4.281565    9.015721
     16          1           0       -8.062385    6.117583    8.580271
     17          1           0       -7.386023    6.020376   10.308782
     18          8           0       -1.013499   -1.765557    7.463403
     19          8           0       -8.407343   -1.322692    7.467967
     20          8           0       -7.060956    1.338975   10.486493
     21          8           0       -2.333611   -4.345504   10.558909
     22         74           0       -3.429532    0.743515    6.500160
     23         74           0       -6.010243   -3.823501    6.586877
     24         74           0       -3.636290    0.914737   11.404814
     25         74           0       -5.776604   -3.866303   11.469625
     26         74           0       -2.470399   -2.545581    6.381566
     27         74           0       -6.949385   -0.532211    6.350883
     28         74           0       -6.829708   -0.252705   11.594301
     29         74           0       -2.571782   -2.693179   11.627610
     30          8           0       -3.204462    1.949849    5.342511
     31          8           0       -6.139445   -5.084216    5.457140
     32          8           0       -2.707607    1.769479   12.541154
     33          8           0       -6.697688   -4.680483   12.641138
     34          8           0       -2.699562   -0.866295    5.589259
     35          8           0       -6.716183   -2.268213    5.629562
     36          8           0       -5.323599    0.562874   12.369034
     37          8           0       -4.068141   -3.507766   12.412663
     38          8           0        0.294689   -0.006857    9.279019
     39          8           0       -9.717693   -3.011484    9.338027
     40          8           0       -6.401994    3.414305    8.628465
     41          8           0       -2.962839   -6.446689    8.742621
     42          8           0       -1.814228    0.785921    7.488221
     43          8           0       -7.611532   -3.877713    7.564304
     44          8           0       -4.537732    2.218938   10.422927
     45          8           0       -4.867321   -5.213613   10.520629
     46          8           0       -1.647403   -3.474347    5.220717
     47          8           0       -7.820668    0.269173    5.147920
     48          8           0       -8.036157   -0.181765   12.785695
     49          8           0       -1.341868   -2.796731   12.795374
     50         74           0       -1.267331   -0.515261    8.844829
     51         74           0       -8.158090   -2.510485    8.884953
     52         74           0       -5.934438    1.852363    9.045323
     53         74           0       -3.470496   -4.880780    9.163891
     54          8           0       -4.238352   -3.093624    6.073052
     55          8           0       -5.178529   -0.029395    6.016944
     56          8           0       -6.188957   -2.000614   11.922712
     57          8           0       -3.187990   -0.949215   11.928380
     58          8           0       -4.397585    1.600508    7.847803
     59          8           0       -5.003350   -4.672950    7.930696
     60          8           0       -2.341340    0.599140   10.078849
     61          8           0       -7.069021   -3.606558   10.138855
     62          8           0       -2.578761   -3.870128    7.858165
     63          8           0       -6.849285    0.789227    7.802525
     64          8           0       -7.847755   -1.172497   10.163392
     65          8           0       -1.572409   -1.835440   10.153977
     66          8           0       -3.388718   -1.125866    8.015359
     67          8           0       -6.031469   -1.954349    8.045323
     68          8           0       -5.133704   -0.198475    9.953826
     69          8           0       -4.255594   -2.821231    9.981490
     70         19           0       -3.235675   -6.110916    5.671822
     71         19           0       -0.158485    0.035302   12.343438
     72         19           0       -9.260252   -2.928737   12.402111
     73         23           0       -4.704523   -1.520638    8.995518
 ---------------------------------------------------------------------
 Rotational constants (GHZ):           0.0172179           0.0133398           0.0131342
 Standard basis: def2SVP (5D, 7F)
  1217 basis functions,  2313 primitive gaussians,  1337 cartesian basis functions
   321 alpha electrons      321 beta electrons
       nuclear repulsion energy     21025.1401511573 Hartrees.
 NAtoms=   73 NActive=   73 NUniq=   73 SFac= 1.00D+00 NAtFMM=   60 NAOKFM=T Big=T
 Integral buffers will be    131072 words long.
 Raffenetti 2 integral format.
 Two-electron integral symmetry is turned off.
 Nuclear repulsion after empirical dispersion term =    21024.8620461591 Hartrees.
 Force PCM accuracy= 1.00D-10.
 ------------------------------------------------------------------------------
 Polarizable Continuum Model (PCM)
 =================================
 Model                : PCM (using non-symmetric T matrix).
 Atomic radii         : SMD-Coulomb.
 Polarization charges : Total charges.
 Charge compensation  : None.
 Solution method      : On-the-fly selection.
 Cavity type          : VdW (van der Waals Surface) (Alpha=1.000).
 Cavity algorithm     : GePol (No added spheres)
                        Default sphere list used, NSphG=   73.
                        Lebedev-Laikov grids with approx.  5.0 points / Ang**2.
                        Smoothing algorithm: York/Karplus (Gamma=1.0000).
                        Polarization charges: spherical gaussians, with
                                              point-specific exponents (IZeta= 3).
                        Self-potential: point-specific (ISelfS= 7).
                        Self-field    : sphere-specific E.n sum rule (ISelfD= 2).
 1st derivatives      : Analytical E(r).r(x)/FMM algorithm (CHGder, D1EAlg=3).
                        Cavity 1st derivative terms included.
 Solvent              : Acetonitrile, Eps=  35.688000 Eps(inf)=   1.806874
 ------------------------------------------------------------------------------
 ------------------------------------------------------------------------------
 Atomic radii for non-electrostatic terms: SMD-CDS.
 ------------------------------------------------------------------------------
 Nuclear repulsion after PCM non-electrostatic terms =    21024.8562355513 Hartrees.
 One-electron integrals computed using PRISM.
   1 Symmetry operations used in ECPInt.
 ECPInt:  NShTT=  127765 NPrTT=  468030 LenC2=   96873 LenP2D=  221754.
 LDataN:  DoStor=T MaxTD1= 8 Len=  415
 NBasis=  1217 RedAO= T EigKep=  1.35D-04  NBF=  1217
 NBsUse=  1217 1.00D-06 EigRej= -1.00D+00 NBFU=  1217
 Defaulting to unpruned grid for atomic number  74.
 Defaulting to unpruned grid for atomic number  74.
 Defaulting to unpruned grid for atomic number  74.
 Defaulting to unpruned grid for atomic number  74.
 Defaulting to unpruned grid for atomic number  74.
 Defaulting to unpruned grid for atomic number  74.
 Defaulting to unpruned grid for atomic number  74.
 Defaulting to unpruned grid for atomic number  74.
 Initial guess from the checkpoint file:  "a.chk"
 B after Tr=     0.000736   -0.000926    0.000162
         Rot=    1.000000    0.000004    0.000008    0.000043 Ang=   0.01 deg.
 Requested convergence on RMS density matrix=1.00D-08 within  64 cycles.
 Requested convergence on MAX density matrix=1.00D-06.
 Requested convergence on             energy=1.00D-06.
 No special actions if energy rises.
 Defaulting to unpruned grid for atomic number  74.
 Defaulting to unpruned grid for atomic number  74.
 Defaulting to unpruned grid for atomic number  74.
 Defaulting to unpruned grid for atomic number  74.
 Defaulting to unpruned grid for atomic number  74.
 Defaulting to unpruned grid for atomic number  74.
 Defaulting to unpruned grid for atomic number  74.
 Defaulting to unpruned grid for atomic number  74.
 Defaulting to unpruned grid for atomic number  74.
 Defaulting to unpruned grid for atomic number  74.
 Defaulting to unpruned grid for atomic number  74.
 Defaulting to unpruned grid for atomic number  74.
 Defaulting to unpruned grid for atomic number  74.
 Defaulting to unpruned grid for atomic number  74.
 Defaulting to unpruned grid for atomic number  74.
 Defaulting to unpruned grid for atomic number  74.
 Defaulting to unpruned grid for atomic number  74.
 Defaulting to unpruned grid for atomic number  74.
 Defaulting to unpruned grid for atomic number  74.
 Defaulting to unpruned grid for atomic number  74.
 Defaulting to unpruned grid for atomic number  74.
 Defaulting to unpruned grid for atomic number  74.
 Defaulting to unpruned grid for atomic number  74.
 Defaulting to unpruned grid for atomic number  74.
 Defaulting to unpruned grid for atomic number  74.
 Defaulting to unpruned grid for atomic number  74.
 Defaulting to unpruned grid for atomic number  74.
 Defaulting to unpruned grid for atomic number  74.
 Defaulting to unpruned grid for atomic number  74.
 Defaulting to unpruned grid for atomic number  74.
 Defaulting to unpruned grid for atomic number  74.
 Defaulting to unpruned grid for atomic number  74.
 Defaulting to unpruned grid for atomic number  74.
 Defaulting to unpruned grid for atomic number  74.
 Defaulting to unpruned grid for atomic number  74.
 Defaulting to unpruned grid for atomic number  74.
 Defaulting to unpruned grid for atomic number  74.
 Defaulting to unpruned grid for atomic number  74.
 Defaulting to unpruned grid for atomic number  74.
 Defaulting to unpruned grid for atomic number  74.
 Defaulting to unpruned grid for atomic number  74.
 Defaulting to unpruned grid for atomic number  74.
 Defaulting to unpruned grid for atomic number  74.
 Defaulting to unpruned grid for atomic number  74.
 Defaulting to unpruned grid for atomic number  74.
 Defaulting to unpruned grid for atomic number  74.
 Defaulting to unpruned grid for atomic number  74.
 Defaulting to unpruned grid for atomic number  74.
 Defaulting to unpruned grid for atomic number  74.
 Defaulting to unpruned grid for atomic number  74.
 Defaulting to unpruned grid for atomic number  74.
 Defaulting to unpruned grid for atomic number  74.
 Defaulting to unpruned grid for atomic number  74.
 Defaulting to unpruned grid for atomic number  74.
 Defaulting to unpruned grid for atomic number  74.
 Defaulting to unpruned grid for atomic number  74.
 Inv3:  Mode=1 IEnd=    85931712.
 Iteration    1 A*A^-1 deviation from unit magnitude is 3.77D-15 for   1268.
 Iteration    1 A*A^-1 deviation from orthogonality  is 2.66D-15 for   3141   2471.
 Iteration    1 A^-1*A deviation from unit magnitude is 3.66D-15 for    197.
 Iteration    1 A^-1*A deviation from orthogonality  is 1.26D-11 for   4195    818.
 Error on total polarization charges =  0.01603
 SCF Done:  E(RwB97XD) =  -7327.69932021     A.U. after   16 cycles
            NFock= 16  Conv=0.15D-08     -V/T= 2.0831
 SMD-CDS (non-electrostatic) energy       (kcal/mol) =      -3.65
 (included in total energy above)
 QCSCF skips out because SCF is already converged.

 **********************************************************************

            Population analysis using the SCF Density.

 **********************************************************************

 Alpha  occ. eigenvalues -- -197.29024-130.00042-130.00006-129.99916-101.47612
 Alpha  occ. eigenvalues --  -22.62191 -19.33488 -19.33478 -19.33474 -19.33458
 Alpha  occ. eigenvalues --  -19.30712 -19.30682 -19.30678 -19.30669 -19.30658
 Alpha  occ. eigenvalues --  -19.30641 -19.30625 -19.30592 -19.30493 -19.30321
 Alpha  occ. eigenvalues --  -19.30315 -19.30039 -19.29326 -19.29322 -19.29294
 Alpha  occ. eigenvalues --  -19.29290 -19.29288 -19.29281 -19.29268 -19.29216
 Alpha  occ. eigenvalues --  -19.29177 -19.29155 -19.29153 -19.29133 -19.29109
 Alpha  occ. eigenvalues --  -19.29103 -19.29101 -19.29095 -19.29079 -19.29066
 Alpha  occ. eigenvalues --  -19.29041 -19.29023 -19.28977 -19.28943 -19.28932
 Alpha  occ. eigenvalues --  -19.28705 -19.11142 -19.11133 -19.11128 -13.37443
 Alpha  occ. eigenvalues --  -13.37406 -13.37304 -10.70372 -10.70365 -10.70365
 Alpha  occ. eigenvalues --  -10.70336 -10.70328 -10.70328 -10.70236 -10.70228
 Alpha  occ. eigenvalues --  -10.70226 -10.29738 -10.29306 -10.29231 -10.29032
 Alpha  occ. eigenvalues --  -10.28917 -10.28870 -10.27968 -10.27302  -9.38074
 Alpha  occ. eigenvalues --   -7.12896  -7.12856  -7.12852  -3.23292  -3.23275
 Alpha  occ. eigenvalues --   -3.23265  -3.23264  -3.23254  -3.23249  -3.23196
 Alpha  occ. eigenvalues --   -3.23194  -3.23133  -3.22910  -3.22901  -3.22616
 Alpha  occ. eigenvalues --   -2.91553  -1.93967  -1.93939  -1.93923  -1.87709
 Alpha  occ. eigenvalues --   -1.87635  -1.87626  -1.87560  -1.87474  -1.87464
 Alpha  occ. eigenvalues --   -1.87438  -1.87416  -1.87359  -1.87231  -1.87201
 Alpha  occ. eigenvalues --   -1.86974  -1.86605  -1.86485  -1.86477  -1.86458
 Alpha  occ. eigenvalues --   -1.86428  -1.86385  -1.86312  -1.86292  -1.86277
 Alpha  occ. eigenvalues --   -1.86264  -1.86234  -1.86198  -1.86128  -1.86095
 Alpha  occ. eigenvalues --   -1.86095  -1.86064  -1.86025  -1.85964  -1.85947
 Alpha  occ. eigenvalues --   -1.85884  -1.85848  -1.85757  -1.85605  -1.85527
 Alpha  occ. eigenvalues --   -1.51136  -1.51100  -1.51000  -1.12959  -1.11185
 Alpha  occ. eigenvalues --   -1.11079  -1.11076  -1.08931  -1.08523  -1.08481
 Alpha  occ. eigenvalues --   -1.08303  -1.07523  -1.07459  -1.07433  -1.06891
 Alpha  occ. eigenvalues --   -1.06871  -1.06826  -1.06294  -1.06250  -1.05328
 Alpha  occ. eigenvalues --   -1.05313  -1.04950  -1.04943  -1.04900  -1.04205
 Alpha  occ. eigenvalues --   -1.04197  -1.04169  -1.04024  -1.04014  -1.03997
 Alpha  occ. eigenvalues --   -1.03936  -1.03878  -1.03867  -1.03748  -1.03694
 Alpha  occ. eigenvalues --   -1.03615  -1.03532  -1.03275  -1.03249  -1.03119
 Alpha  occ. eigenvalues --   -1.03100  -1.03044  -1.02885  -0.94308  -0.86608
 Alpha  occ. eigenvalues --   -0.86575  -0.86482  -0.86423  -0.86416  -0.86411
 Alpha  occ. eigenvalues --   -0.86378  -0.86374  -0.86283  -0.86268  -0.82739
 Alpha  occ. eigenvalues --   -0.79700  -0.70793  -0.69678  -0.67934  -0.64584
 Alpha  occ. eigenvalues --   -0.63954  -0.63899  -0.63869  -0.63219  -0.63199
 Alpha  occ. eigenvalues --   -0.63114  -0.62933  -0.62620  -0.62566  -0.61876
 Alpha  occ. eigenvalues --   -0.61572  -0.61556  -0.61456  -0.61225  -0.61217
 Alpha  occ. eigenvalues --   -0.61164  -0.60403  -0.59454  -0.59421  -0.59412
 Alpha  occ. eigenvalues --   -0.59354  -0.59339  -0.58610  -0.57986  -0.57949
 Alpha  occ. eigenvalues --   -0.57886  -0.57003  -0.56980  -0.56928  -0.56260
 Alpha  occ. eigenvalues --   -0.56233  -0.56091  -0.55713  -0.54871  -0.54814
 Alpha  occ. eigenvalues --   -0.54771  -0.54504  -0.54222  -0.54100  -0.54052
 Alpha  occ. eigenvalues --   -0.54000  -0.53949  -0.53248  -0.53222  -0.53079
 Alpha  occ. eigenvalues --   -0.53019  -0.52901  -0.52700  -0.52679  -0.52640
 Alpha  occ. eigenvalues --   -0.52611  -0.52479  -0.52439  -0.52377  -0.51583
 Alpha  occ. eigenvalues --   -0.51553  -0.51345  -0.51330  -0.51297  -0.51236
 Alpha  occ. eigenvalues --   -0.51180  -0.51137  -0.50972  -0.50791  -0.50614
 Alpha  occ. eigenvalues --   -0.50589  -0.50577  -0.49924  -0.49893  -0.49272
 Alpha  occ. eigenvalues --   -0.49247  -0.49189  -0.49176  -0.49158  -0.49089
 Alpha  occ. eigenvalues --   -0.48891  -0.48044  -0.48020  -0.47890  -0.47571
 Alpha  occ. eigenvalues --   -0.47359  -0.47255  -0.47200  -0.46981  -0.46928
 Alpha  occ. eigenvalues --   -0.46838  -0.46608  -0.46580  -0.46440  -0.46153
 Alpha  occ. eigenvalues --   -0.46106  -0.46053  -0.45560  -0.45089  -0.44912
 Alpha  occ. eigenvalues --   -0.44871  -0.44163  -0.44126  -0.43988  -0.43465
 Alpha  occ. eigenvalues --   -0.43287  -0.43226  -0.43109  -0.43089  -0.43045
 Alpha  occ. eigenvalues --   -0.42724  -0.42712  -0.42674  -0.42581  -0.42574
 Alpha  occ. eigenvalues --   -0.42490  -0.42456  -0.42432  -0.42285  -0.42271
 Alpha  occ. eigenvalues --   -0.42238  -0.42017  -0.41892  -0.41835  -0.41818
 Alpha  occ. eigenvalues --   -0.41196  -0.41169  -0.41106  -0.41032  -0.40568
 Alpha  occ. eigenvalues --   -0.40532  -0.40529  -0.40302  -0.39417  -0.39389
 Alpha  occ. eigenvalues --   -0.36747  -0.32482  -0.28806  -0.24542  -0.24500
 Alpha  occ. eigenvalues --   -0.22941
 Alpha virt. eigenvalues --   -0.09116  -0.08965  -0.08340  -0.08313  -0.06902
 Alpha virt. eigenvalues --   -0.06866  -0.06781  -0.04122  -0.03959  -0.03911
 Alpha virt. eigenvalues --   -0.03628  -0.03419  -0.03353  -0.03167  -0.03046
 Alpha virt. eigenvalues --   -0.02994  -0.02931  -0.02165  -0.02127  -0.02090
 Alpha virt. eigenvalues --   -0.01430  -0.01404  -0.01335  -0.01240  -0.01169
 Alpha virt. eigenvalues --   -0.00012   0.00023   0.00092   0.01436   0.01523
 Alpha virt. eigenvalues --    0.01938   0.01971   0.02076   0.02189   0.02229
 Alpha virt. eigenvalues --    0.02241   0.02280   0.02374   0.02805   0.02876
 Alpha virt. eigenvalues --    0.02950   0.03035   0.03084   0.04404   0.04573
 Alpha virt. eigenvalues --    0.06836   0.07301   0.07476   0.07553   0.07767
 Alpha virt. eigenvalues --    0.08049   0.08531   0.08587   0.08821   0.09165
 Alpha virt. eigenvalues --    0.09338   0.09399   0.09654   0.09899   0.10268
 Alpha virt. eigenvalues --    0.10308   0.10352   0.10417   0.10454   0.10658
 Alpha virt. eigenvalues --    0.10934   0.11086   0.11115   0.11676   0.11716
 Alpha virt. eigenvalues --    0.12366   0.13160   0.13287   0.13395   0.13596
 Alpha virt. eigenvalues --    0.13760   0.14482   0.14595   0.14694   0.15065
 Alpha virt. eigenvalues --    0.15555   0.16203   0.16396   0.16637   0.16765
 Alpha virt. eigenvalues --    0.16770   0.16983   0.17118   0.17295   0.17705
 Alpha virt. eigenvalues --    0.17939   0.18165   0.18210   0.18401   0.18589
 Alpha virt. eigenvalues --    0.18817   0.19022   0.19283   0.19371   0.19524
 Alpha virt. eigenvalues --    0.19614   0.20188   0.20324   0.20427   0.20667
 Alpha virt. eigenvalues --    0.20742   0.20905   0.20965   0.21346   0.21425
 Alpha virt. eigenvalues --    0.21507   0.21643   0.21730   0.21903   0.22237
 Alpha virt. eigenvalues --    0.22544   0.22800   0.23011   0.23272   0.23375
 Alpha virt. eigenvalues --    0.23585   0.23928   0.24095   0.24281   0.24633
 Alpha virt. eigenvalues --    0.24805   0.25221   0.25597   0.25662   0.25918
 Alpha virt. eigenvalues --    0.26126   0.26287   0.26477   0.26573   0.26760
 Alpha virt. eigenvalues --    0.27121   0.27271   0.27451   0.27519   0.27750
 Alpha virt. eigenvalues --    0.28091   0.28330   0.28367   0.28658   0.28744
 Alpha virt. eigenvalues --    0.29342   0.29721   0.29973   0.30259   0.30571
 Alpha virt. eigenvalues --    0.30725   0.31085   0.31254   0.31795   0.31858
 Alpha virt. eigenvalues --    0.32295   0.34879   0.35272   0.35849   0.36343
 Alpha virt. eigenvalues --    0.36681   0.36954   0.37263   0.38128   0.38446
 Alpha virt. eigenvalues --    0.38659   0.39172   0.39504   0.39727   0.40262
 Alpha virt. eigenvalues --    0.40756   0.40923   0.41058   0.41178   0.41775
 Alpha virt. eigenvalues --    0.42136   0.42397   0.42665   0.43318   0.43555
 Alpha virt. eigenvalues --    0.43788   0.44517   0.44720   0.44875   0.45225
 Alpha virt. eigenvalues --    0.45733   0.46268   0.46554   0.46773   0.47196
 Alpha virt. eigenvalues --    0.47393   0.47677   0.47937   0.48074   0.48153
 Alpha virt. eigenvalues --    0.48353   0.48416   0.48623   0.48890   0.48960
 Alpha virt. eigenvalues --    0.49113   0.49319   0.49491   0.49801   0.49984
 Alpha virt. eigenvalues --    0.50170   0.50374   0.50637   0.50881   0.51227
 Alpha virt. eigenvalues --    0.51745   0.51864   0.51915   0.52340   0.52598
 Alpha virt. eigenvalues --    0.52662   0.52995   0.53109   0.53234   0.53309
 Alpha virt. eigenvalues --    0.53710   0.54078   0.54291   0.54398   0.54720
 Alpha virt. eigenvalues --    0.54972   0.55437   0.55733   0.56504   0.56552
 Alpha virt. eigenvalues --    0.56864   0.57408   0.57801   0.58207   0.58427
 Alpha virt. eigenvalues --    0.58692   0.59223   0.59546   0.60402   0.60918
 Alpha virt. eigenvalues --    0.61532   0.62708   0.62787   0.62854   0.63558
 Alpha virt. eigenvalues --    0.64310   0.65473   0.65743   0.65843   0.65962
 Alpha virt. eigenvalues --    0.66309   0.66943   0.67397   0.67430   0.67711
 Alpha virt. eigenvalues --    0.68051   0.68545   0.70198   0.70661   0.71332
 Alpha virt. eigenvalues --    0.71576   0.72106   0.72248   0.72333   0.72411
 Alpha virt. eigenvalues --    0.72590   0.72804   0.73232   0.73592   0.73997
 Alpha virt. eigenvalues --    0.74632   0.74927   0.75784   0.75852   0.75993
 Alpha virt. eigenvalues --    0.76278   0.76781   0.77039   0.77235   0.77414
 Alpha virt. eigenvalues --    0.77718   0.78532   0.79269   0.79542   0.79642
 Alpha virt. eigenvalues --    0.79811   0.80348   0.80698   0.81140   0.81564
 Alpha virt. eigenvalues --    0.81579   0.81751   0.82119   0.82790   0.83216
 Alpha virt. eigenvalues --    0.84241   0.84370   0.84981   0.85435   0.86128
 Alpha virt. eigenvalues --    0.87259   0.87509   0.88087   0.88199   0.88906
 Alpha virt. eigenvalues --    0.89164   0.89215   0.89561   0.89612   0.90527
 Alpha virt. eigenvalues --    0.90789   0.90900   0.91375   0.91629   0.91815
 Alpha virt. eigenvalues --    0.92705   0.93060   0.93849   0.93956   0.94102
 Alpha virt. eigenvalues --    0.94486   0.94875   0.95991   0.96110   0.96983
 Alpha virt. eigenvalues --    0.97033   0.97251   0.97467   0.97894   0.97997
 Alpha virt. eigenvalues --    0.98274   0.98413   0.98621   0.98718   0.98924
 Alpha virt. eigenvalues --    0.99238   0.99830   1.00309   1.00431   1.00537
 Alpha virt. eigenvalues --    1.00829   1.01416   1.01537   1.01689   1.02141
 Alpha virt. eigenvalues --    1.02194   1.02435   1.02587   1.02683   1.02884
 Alpha virt. eigenvalues --    1.02912   1.03733   1.03987   1.04078   1.04139
 Alpha virt. eigenvalues --    1.04346   1.04495   1.04565   1.04630   1.04874
 Alpha virt. eigenvalues --    1.05054   1.05214   1.05277   1.05605   1.05840
 Alpha virt. eigenvalues --    1.06061   1.06401   1.06916   1.07117   1.07359
 Alpha virt. eigenvalues --    1.07505   1.07978   1.08801   1.09243   1.09398
 Alpha virt. eigenvalues --    1.09472   1.09798   1.10069   1.10188   1.10225
 Alpha virt. eigenvalues --    1.10795   1.10862   1.11084   1.11267   1.11479
 Alpha virt. eigenvalues --    1.11653   1.11810   1.11924   1.12636   1.12716
 Alpha virt. eigenvalues --    1.12959   1.13591   1.13811   1.14544   1.15230
 Alpha virt. eigenvalues --    1.15335   1.15981   1.16399   1.16713   1.17121
 Alpha virt. eigenvalues --    1.17651   1.17806   1.18030   1.18757   1.19093
 Alpha virt. eigenvalues --    1.20349   1.20800   1.21085   1.21299   1.21350
 Alpha virt. eigenvalues --    1.21461   1.22035   1.22126   1.22943   1.23851
 Alpha virt. eigenvalues --    1.25031   1.25923   1.26295   1.26753   1.26852
 Alpha virt. eigenvalues --    1.27124   1.28054   1.28374   1.28678   1.28780
 Alpha virt. eigenvalues --    1.28862   1.29044   1.29241   1.29679   1.29774
 Alpha virt. eigenvalues --    1.30100   1.30231   1.30408   1.30804   1.31036
 Alpha virt. eigenvalues --    1.31172   1.32030   1.32302   1.32837   1.33128
 Alpha virt. eigenvalues --    1.33322   1.33563   1.33724   1.33815   1.34074
 Alpha virt. eigenvalues --    1.34293   1.34370   1.34595   1.34800   1.34930
 Alpha virt. eigenvalues --    1.35113   1.35157   1.35481   1.35882   1.36016
 Alpha virt. eigenvalues --    1.36171   1.36370   1.36701   1.36846   1.37048
 Alpha virt. eigenvalues --    1.37226   1.37393   1.37750   1.37887   1.38041
 Alpha virt. eigenvalues --    1.38150   1.38575   1.38816   1.38950   1.39158
 Alpha virt. eigenvalues --    1.39393   1.39575   1.39653   1.39952   1.40234
 Alpha virt. eigenvalues --    1.40464   1.40542   1.40722   1.40841   1.41144
 Alpha virt. eigenvalues --    1.41200   1.41465   1.41638   1.41997   1.42349
 Alpha virt. eigenvalues --    1.42601   1.43208   1.43273   1.43414   1.43518
 Alpha virt. eigenvalues --    1.44031   1.44327   1.44643   1.45602   1.45833
 Alpha virt. eigenvalues --    1.46385   1.46790   1.47604   1.47901   1.47958
 Alpha virt. eigenvalues --    1.48418   1.48865   1.49277   1.49799   1.50403
 Alpha virt. eigenvalues --    1.50612   1.51134   1.51641   1.51964   1.53437
 Alpha virt. eigenvalues --    1.53617   1.55447   1.55818   1.55928   1.56024
 Alpha virt. eigenvalues --    1.56276   1.56485   1.56775   1.56835   1.57184
 Alpha virt. eigenvalues --    1.57357   1.58166   1.58479   1.59228   1.59362
 Alpha virt. eigenvalues --    1.59819   1.60190   1.60536   1.60632   1.60700
 Alpha virt. eigenvalues --    1.60912   1.61309   1.62331   1.62378   1.62683
 Alpha virt. eigenvalues --    1.64261   1.64512   1.65094   1.65882   1.67187
 Alpha virt. eigenvalues --    1.67811   1.68105   1.69747   1.70545   1.70911
 Alpha virt. eigenvalues --    1.71451   1.71679   1.72536   1.73241   1.74390
 Alpha virt. eigenvalues --    1.75234   1.75345   1.75481   1.75954   1.76738
 Alpha virt. eigenvalues --    1.76833   1.77119   1.77459   1.77777   1.78610
 Alpha virt. eigenvalues --    1.78762   1.79257   1.79340   1.80501   1.80578
 Alpha virt. eigenvalues --    1.81385   1.81553   1.81864   1.82348   1.82824
 Alpha virt. eigenvalues --    1.83162   1.83384   1.83978   1.84379   1.84513
 Alpha virt. eigenvalues --    1.85333   1.85411   1.85893   1.86132   1.86500
 Alpha virt. eigenvalues --    1.86745   1.87334   1.87796   1.88369   1.88684
 Alpha virt. eigenvalues --    1.89315   1.90172   1.90319   1.90567   1.90662
 Alpha virt. eigenvalues --    1.90918   1.91071   1.91487   1.92416   1.93944
 Alpha virt. eigenvalues --    1.94816   1.95279   1.95485   1.95825   1.96197
 Alpha virt. eigenvalues --    1.98680   1.99414   1.99440   1.99540   2.05279
 Alpha virt. eigenvalues --    2.06983   2.07613   2.08276   2.08393   2.08782
 Alpha virt. eigenvalues --    2.09035   2.09479   2.09783   2.10471   2.11220
 Alpha virt. eigenvalues --    2.11668   2.12024   2.12984   2.15148   2.15527
 Alpha virt. eigenvalues --    2.15861   2.16942   2.17297   2.17780   2.17911
 Alpha virt. eigenvalues --    2.20218   2.20694   2.20811   2.20989   2.21385
 Alpha virt. eigenvalues --    2.21713   2.22341   2.24256   2.25387   2.26045
 Alpha virt. eigenvalues --    2.26448   2.26518   2.27210   2.28297   2.28625
 Alpha virt. eigenvalues --    2.29398   2.29654   2.30067   2.34068   2.35481
 Alpha virt. eigenvalues --    2.36692   2.39436   2.40997   2.41278   2.44053
 Alpha virt. eigenvalues --    2.44179   2.50876   2.51883   2.57631   2.64818
 Alpha virt. eigenvalues --    2.64878   2.65047   2.65732   2.66141   2.66528
 Alpha virt. eigenvalues --    2.66840   2.66870   2.66942   2.67067   2.67095
 Alpha virt. eigenvalues --    2.67174   2.67297   2.67381   2.67403   2.67599
 Alpha virt. eigenvalues --    2.67707   2.67856   2.67909   2.67967   2.68090
 Alpha virt. eigenvalues --    2.68932   2.69111   2.69246   2.69332   2.69861
 Alpha virt. eigenvalues --    2.70160   2.70215   2.70394   2.70589   2.70770
 Alpha virt. eigenvalues --    2.70801   2.71393   2.71465   2.71541   2.71636
 Alpha virt. eigenvalues --    2.71710   2.72007   2.72586   2.72811   2.72964
 Alpha virt. eigenvalues --    2.73051   2.73146   2.73217   2.73356   2.73366
 Alpha virt. eigenvalues --    2.73558   2.73702   2.73882   2.73898   2.73988
 Alpha virt. eigenvalues --    2.74124   2.74228   2.74401   2.74575   2.74753
 Alpha virt. eigenvalues --    2.74827   2.74999   2.75326   2.75881   2.76052
 Alpha virt. eigenvalues --    2.76171   2.76404   2.76533   2.76829   2.76928
 Alpha virt. eigenvalues --    2.77070   2.77163   2.77226   2.78368   2.78445
 Alpha virt. eigenvalues --    2.78673   2.78880   2.79995   2.80188   2.80325
 Alpha virt. eigenvalues --    2.81126   2.81690   2.81731   2.82003   2.82223
 Alpha virt. eigenvalues --    2.82305   2.82799   2.83154   2.83328   2.83767
 Alpha virt. eigenvalues --    2.83848   2.83945   2.84020   2.84328   2.85089
 Alpha virt. eigenvalues --    2.85634   2.86161   2.86247   2.86348   2.86536
 Alpha virt. eigenvalues --    2.86600   2.86803   2.86989   2.88218   2.88503
 Alpha virt. eigenvalues --    2.88838   2.89024   2.89641   2.89722   2.89818
 Alpha virt. eigenvalues --    2.90025   2.90080   2.90196   2.90449   2.90485
 Alpha virt. eigenvalues --    2.90668   2.91821   2.91918   2.92044   2.92089
 Alpha virt. eigenvalues --    2.92395   2.92589   2.92901   2.93097   2.93231
 Alpha virt. eigenvalues --    2.93373   2.93638   2.93883   2.94064   2.94243
 Alpha virt. eigenvalues --    2.94270   2.95034   2.95295   2.95502   2.95862
 Alpha virt. eigenvalues --    2.95982   2.96041   2.96648   2.96766   2.96856
 Alpha virt. eigenvalues --    2.96999   2.97144   2.97247   2.97319   2.97617
 Alpha virt. eigenvalues --    2.97666   2.97876   2.98032   2.98421   2.99314
 Alpha virt. eigenvalues --    2.99446   2.99554   2.99769   2.99872   3.00148
 Alpha virt. eigenvalues --    3.00323   3.00588   3.01367   3.01774   3.02031
 Alpha virt. eigenvalues --    3.02935   3.03602   3.03680   3.03966   3.04975
 Alpha virt. eigenvalues --    3.06401   3.06582   3.07104   3.11161   3.11467
 Alpha virt. eigenvalues --    3.11621   3.11729   3.12230   3.12621   3.13799
 Alpha virt. eigenvalues --    3.13895   3.14049   3.17045   3.20180   3.21501
 Alpha virt. eigenvalues --    3.21639   3.23912   3.32678   3.40609   3.41267
 Alpha virt. eigenvalues --    3.42183   3.42573   3.44426   3.44609   3.45512
 Alpha virt. eigenvalues --    3.45773   3.45947   3.46981   3.47046   3.47381
 Alpha virt. eigenvalues --    3.48872   3.51224   3.51645   3.52282   3.53468
 Alpha virt. eigenvalues --    3.53637   3.54218   3.54627   3.54834   3.54943
 Alpha virt. eigenvalues --    3.55083   3.55252   3.55581   3.56556   3.57632
 Alpha virt. eigenvalues --    3.57979   3.58404   3.59499   3.59714   3.60564
 Alpha virt. eigenvalues --    3.60694   3.61268   3.61717   3.62033   3.62628
 Alpha virt. eigenvalues --    3.70036   3.74897  68.64582  68.65633  68.66905
 Alpha virt. eigenvalues --   68.69298  68.73021  68.73907  68.81715  68.82870
 Alpha virt. eigenvalues --   68.83350  68.86218  68.87354  68.88579 576.23010
 Alpha virt. eigenvalues --  576.24036 576.25283 576.27623 576.31360 576.32235
 Alpha virt. eigenvalues --  576.39894 576.41027 576.41493 576.44253 576.45369
 Alpha virt. eigenvalues --  576.46586
          Condensed to atoms (all electrons):
 Mulliken charges:
               1
     1  Cl  -0.924541
     2  C   -0.082688
     3  C    0.041378
     4  C   -0.078700
     5  C   -0.033747
     6  C   -0.032897
     7  C   -0.050552
     8  H    0.026964
     9  H    0.028498
    10  H    0.040307
    11  H    0.037108
    12  H    0.039205
    13  C   -0.084675
    14  C    0.027175
    15  H    0.015575
    16  H    0.036019
    17  H    0.035779
    18  O   -0.663354
    19  O   -0.661003
    20  O   -0.655531
    21  O   -0.662829
    22  W    1.735000
    23  W    1.673880
    24  W    1.684982
    25  W    1.694606
    26  W    1.675056
    27  W    1.725521
    28  W    1.620495
    29  W    1.684410
    30  O   -0.320748
    31  O   -0.366467
    32  O   -0.366213
    33  O   -0.364585
    34  O   -0.664032
    35  O   -0.670507
    36  O   -0.661036
    37  O   -0.663016
    38  O   -0.366535
    39  O   -0.367256
    40  O   -0.290860
    41  O   -0.366171
    42  O   -0.670049
    43  O   -0.662385
    44  O   -0.658842
    45  O   -0.665139
    46  O   -0.366617
    47  O   -0.320768
    48  O   -0.355601
    49  O   -0.365893
    50  W    1.671719
    51  W    1.675943
    52  W    1.672548
    53  W    1.682967
    54  O   -0.723321
    55  O   -0.705698
    56  O   -0.725097
    57  O   -0.721279
    58  O   -0.704099
    59  O   -0.725938
    60  O   -0.724268
    61  O   -0.720852
    62  O   -0.722857
    63  O   -0.706623
    64  O   -0.721746
    65  O   -0.725661
    66  O   -0.799957
    67  O   -0.799306
    68  O   -0.797521
    69  O   -0.809668
    70  K    0.862603
    71  K    0.861881
    72  K    0.857703
    73  V    1.189809
 Sum of Mulliken charges =  -1.00000
 Mulliken charges with hydrogens summed into heavy atoms:
               1
     1  Cl  -0.924541
     2  C   -0.055724
     3  C    0.041378
     4  C   -0.050203
     5  C    0.006560
     6  C    0.004211
     7  C   -0.011347
    13  C   -0.069100
    14  C    0.098973
    18  O   -0.663354
    19  O   -0.661003
    20  O   -0.655531
    21  O   -0.662829
    22  W    1.735000
    23  W    1.673880
    24  W    1.684982
    25  W    1.694606
    26  W    1.675056
    27  W    1.725521
    28  W    1.620495
    29  W    1.684410
    30  O   -0.320748
    31  O   -0.366467
    32  O   -0.366213
    33  O   -0.364585
    34  O   -0.664032
    35  O   -0.670507
    36  O   -0.661036
    37  O   -0.663016
    38  O   -0.366535
    39  O   -0.367256
    40  O   -0.290860
    41  O   -0.366171
    42  O   -0.670049
    43  O   -0.662385
    44  O   -0.658842
    45  O   -0.665139
    46  O   -0.366617
    47  O   -0.320768
    48  O   -0.355601
    49  O   -0.365893
    50  W    1.671719
    51  W    1.675943
    52  W    1.672548
    53  W    1.682967
    54  O   -0.723321
    55  O   -0.705698
    56  O   -0.725097
    57  O   -0.721279
    58  O   -0.704099
    59  O   -0.725938
    60  O   -0.724268
    61  O   -0.720852
    62  O   -0.722857
    63  O   -0.706623
    64  O   -0.721746
    65  O   -0.725661
    66  O   -0.799957
    67  O   -0.799306
    68  O   -0.797521
    69  O   -0.809668
    70  K    0.862603
    71  K    0.861881
    72  K    0.857703
    73  V    1.189809
 Electronic spatial extent (au):  <R**2>=         317143.3021
 Charge=             -1.0000 electrons
 Dipole moment (field-independent basis, Debye):
    X=             51.8331    Y=            -49.9359    Z=            -38.5844  Tot=             81.6640
 Quadrupole moment (field-independent basis, Debye-Ang):
   XX=          -1073.8266   YY=           -861.7685   ZZ=           -912.6589
   XY=            446.2941   XZ=            464.6226   YZ=           -462.7808
 Traceless Quadrupole moment (field-independent basis, Debye-Ang):
   XX=           -124.4086   YY=             87.6495   ZZ=             36.7591
   XY=            446.2941   XZ=            464.6226   YZ=           -462.7808
 Octapole moment (field-independent basis, Debye-Ang**2):
  XXX=          13713.2459  YYY=           -786.9350  ZZZ=         -19126.4705  XYY=           5887.7967
  XXY=          -3646.2614  XXZ=          -9611.0170  XZZ=           7404.0568  YZZ=          -3996.8036
  YYZ=          -8726.2394  XYZ=           4692.9280
 Hexadecapole moment (field-independent basis, Debye-Ang**3):
 XXXX=        -162687.8109 YYYY=         -49724.9106 ZZZZ=        -346267.7556 XXXY=          37398.3467
 XXXZ=         125548.7934 YYYX=          18379.2388 YYYZ=          -9604.0844 ZZZX=         128377.7544
 ZZZY=         -33484.4742 XXYY=         -54369.9304 XXZZ=        -109810.4195 YYZZ=         -96058.2481
 XXYZ=         -41912.5873 YYXZ=          59309.7659 ZZXY=          49007.9512
 N-N= 2.102485623555D+04 E-N=-5.913491429035D+04  KE= 6.765291522619D+03
   1 Symmetry operations used in ECPInt.
 ECPInt:  NShTT=  127765 NPrTT=  468030 LenC2=   96873 LenP2D=  221754.
 LDataN:  DoStor=T MaxTD1= 9 Len=  602
 D1PCM: PCM CHGder 1st derivatives, ID1Alg=3 FixD1E=F DoIter=F DoCFld=F I1PDM=0.
 Calling FoFJK, ICntrl=      2127 FMM=T ISym2X=0 I1Cent= 0 IOpClX= 0 NMat=1 NMatS=1 NMatT=0.
 Defaulting to unpruned grid for atomic number  74.
 Defaulting to unpruned grid for atomic number  74.
 Defaulting to unpruned grid for atomic number  74.
 Defaulting to unpruned grid for atomic number  74.
 Defaulting to unpruned grid for atomic number  74.
 Defaulting to unpruned grid for atomic number  74.
 Defaulting to unpruned grid for atomic number  74.
 Defaulting to unpruned grid for atomic number  74.
 Defaulting to unpruned grid for atomic number  74.
 Defaulting to unpruned grid for atomic number  74.
 Defaulting to unpruned grid for atomic number  74.
 Defaulting to unpruned grid for atomic number  74.
 Defaulting to unpruned grid for atomic number  74.
 Defaulting to unpruned grid for atomic number  74.
 Defaulting to unpruned grid for atomic number  74.
 Defaulting to unpruned grid for atomic number  74.
 Defaulting to unpruned grid for atomic number  74.
 Defaulting to unpruned grid for atomic number  74.
 Defaulting to unpruned grid for atomic number  74.
 Defaulting to unpruned grid for atomic number  74.
 Defaulting to unpruned grid for atomic number  74.
 Defaulting to unpruned grid for atomic number  74.
 Defaulting to unpruned grid for atomic number  74.
 Defaulting to unpruned grid for atomic number  74.
 Defaulting to unpruned grid for atomic number  74.
 Defaulting to unpruned grid for atomic number  74.
 Defaulting to unpruned grid for atomic number  74.
 Defaulting to unpruned grid for atomic number  74.
 Defaulting to unpruned grid for atomic number  74.
 Defaulting to unpruned grid for atomic number  74.
 Defaulting to unpruned grid for atomic number  74.
 Defaulting to unpruned grid for atomic number  74.
 Defaulting to unpruned grid for atomic number  74.
 Defaulting to unpruned grid for atomic number  74.
 Defaulting to unpruned grid for atomic number  74.
 Defaulting to unpruned grid for atomic number  74.
 Defaulting to unpruned grid for atomic number  74.
 Defaulting to unpruned grid for atomic number  74.
 Defaulting to unpruned grid for atomic number  74.
 Defaulting to unpruned grid for atomic number  74.
 Defaulting to unpruned grid for atomic number  74.
 Defaulting to unpruned grid for atomic number  74.
 Defaulting to unpruned grid for atomic number  74.
 Defaulting to unpruned grid for atomic number  74.
 Defaulting to unpruned grid for atomic number  74.
 Defaulting to unpruned grid for atomic number  74.
 Defaulting to unpruned grid for atomic number  74.
 Defaulting to unpruned grid for atomic number  74.
 Defaulting to unpruned grid for atomic number  74.
 Defaulting to unpruned grid for atomic number  74.
 Defaulting to unpruned grid for atomic number  74.
 Defaulting to unpruned grid for atomic number  74.
 Defaulting to unpruned grid for atomic number  74.
 Defaulting to unpruned grid for atomic number  74.
 Defaulting to unpruned grid for atomic number  74.
 Defaulting to unpruned grid for atomic number  74.
 -------------------------------------------------------------------
 Center     Atomic                   Forces (Hartrees/Bohr)
 Number     Number              X              Y              Z
 -------------------------------------------------------------------
      1       17          -0.002847398    0.007591100    0.002579956
      2        6          -0.001605503   -0.000708667   -0.001088819
      3        6          -0.001271622   -0.000090770    0.002477574
      4        6           0.000942707    0.001111637   -0.000048158
      5        6           0.000635868   -0.000686633    0.000810068
      6        6           0.000220383   -0.000250428    0.000655622
      7        6          -0.000478943   -0.001169695   -0.000334241
      8        1           0.000485704   -0.000000874   -0.000486550
      9        1          -0.000046452   -0.000632760   -0.000099598
     10        1          -0.000242296    0.000072027    0.000535562
     11        1          -0.000304462    0.000511218   -0.000011735
     12        1          -0.000107710    0.000159191    0.000246370
     13        6           0.007699199    0.007649059   -0.005722434
     14        6          -0.005132725   -0.011509061    0.001134829
     15        1          -0.000064146   -0.000401794    0.000503857
     16        1          -0.000602794    0.000247265    0.000754879
     17        1          -0.001169533    0.001405929   -0.000475820
     18        8          -0.002513421    0.000945348    0.000087983
     19        8           0.002332716   -0.001151959    0.000314599
     20        8           0.002550916   -0.002213954    0.000228481
     21        8          -0.002146823    0.001250728   -0.000360157
     22       74           0.001715617    0.009259093   -0.008450418
     23       74          -0.002316727   -0.009225023   -0.008621353
     24       74           0.006052981    0.007966061    0.008678008
     25       74          -0.006499564   -0.006565097    0.008908824
     26       74           0.007112177   -0.006716912   -0.009802254
     27       74          -0.006682967    0.006721777   -0.009251965
     28       74          -0.010055094    0.002847858    0.009563413
     29       74           0.009457751   -0.001477085    0.009626773
     30        8           0.000026419   -0.002816548    0.001536645
     31        8          -0.000194651    0.002509484    0.001324370
     32        8          -0.002221316   -0.001557334   -0.001405279
     33        8           0.002369185    0.001212947   -0.001710305
     34        8          -0.000556682   -0.000704392    0.002756387
     35        8           0.000975713   -0.000221355    0.003134946
     36        8           0.000626492   -0.000756639   -0.003115561
     37        8          -0.000151389    0.000563382   -0.003117750
     38        8          -0.003751215   -0.000931749   -0.001577861
     39        8           0.003933403    0.000934738   -0.001784353
     40        8           0.002574005   -0.005790688    0.001710516
     41        8          -0.001351369    0.003453969    0.001446758
     42        8          -0.001287935   -0.002974009    0.000734483
     43        8           0.001872913    0.002598229    0.000480510
     44        8          -0.000315759   -0.003133533   -0.000159992
     45        8           0.001257647    0.003077517   -0.000721524
     46        8          -0.001327239    0.002404848    0.003088235
     47        8           0.001498836   -0.002110017    0.003254010
     48        8           0.003089208    0.000543550   -0.003631605
     49        8          -0.002855107   -0.000677516   -0.003084114
     50       74           0.013024652    0.003973117    0.002522309
     51       74          -0.013483186   -0.003204969    0.002794179
     52       74          -0.005536774    0.014860327   -0.003260162
     53       74           0.004590224   -0.012552562   -0.002223240
     54        8          -0.000656736    0.001958247    0.002184390
     55        8           0.001009139   -0.001981592    0.001850256
     56        8           0.002196911    0.000084661   -0.002379728
     57        8          -0.001873157   -0.000879570   -0.001942466
     58        8           0.001061969   -0.003216013    0.001302024
     59        8          -0.000169053    0.002502415    0.001425261
     60        8          -0.002030302   -0.001575460   -0.001512872
     61        8           0.002318298    0.001100169   -0.001517908
     62        8          -0.001218080    0.001911402    0.001168666
     63        8           0.001292671   -0.002681908    0.000581457
     64        8           0.002434313   -0.000063919   -0.001405705
     65        8          -0.002529776   -0.000333234   -0.001107646
     66        8          -0.022877818   -0.004922077    0.015113696
     67        8           0.023435492    0.005820064    0.014622413
     68        8           0.009254633   -0.022257405   -0.015475509
     69        8          -0.009305346    0.021256048   -0.015452773
     70       19           0.000251697   -0.000902414   -0.000651363
     71       19           0.000866761    0.000424060    0.000684373
     72       19          -0.000903499    0.000006072    0.000820601
     73       23          -0.000482032    0.000112073    0.000347937
 -------------------------------------------------------------------
 Cartesian Forces:  Max     0.023435492 RMS     0.005349863

 GradGradGradGradGradGradGradGradGradGradGradGradGradGradGradGradGradGrad
 Berny optimization.
 Search for a local minimum.
 Step number   1 out of a maximum of    2
 All quantities printed in internal units (Hartrees-Bohrs-Radians)
 Second derivative matrix not updated -- first step.
 ITU=  0
     Eigenvalues ---   -0.00000   0.00000   0.00000   0.00010   0.00091
     Eigenvalues ---    0.00093   0.00255   0.00568   0.00617   0.01645
     Eigenvalues ---    0.01980   0.02892   0.02943   0.03218   0.03419
     Eigenvalues ---    0.03467   0.03713   0.03726   0.04158   0.04501
     Eigenvalues ---    0.04603   0.04606   0.04628   0.04849   0.04859
     Eigenvalues ---    0.04998   0.05363   0.05581   0.05616   0.06376
     Eigenvalues ---    0.06425   0.06557   0.06783   0.06861   0.07048
     Eigenvalues ---    0.07317   0.07399   0.07618   0.08371   0.08417
     Eigenvalues ---    0.08757   0.08796   0.08921   0.08948   0.09752
     Eigenvalues ---    0.09954   0.10174   0.10383   0.10443   0.10528
     Eigenvalues ---    0.10905   0.10926   0.11598   0.11695   0.12023
     Eigenvalues ---    0.12077   0.12134   0.12485   0.12541   0.12771
     Eigenvalues ---    0.12774   0.12859   0.12877   0.13124   0.13156
     Eigenvalues ---    0.13859   0.13927   0.14400   0.14685   0.14705
     Eigenvalues ---    0.16843   0.16876   0.17044   0.17160   0.17614
     Eigenvalues ---    0.17693   0.18699   0.19882   0.20006   0.20258
     Eigenvalues ---    0.20942   0.21028   0.22017   0.22071   0.22156
     Eigenvalues ---    0.22581   0.23159   0.23387   0.23923   0.23984
     Eigenvalues ---    0.24669   0.24810   0.25023   0.25777   0.26235
     Eigenvalues ---    0.26290   0.26708   0.27586   0.27761   0.27952
     Eigenvalues ---    0.28415   0.28432   0.28993   0.29736   0.29976
     Eigenvalues ---    0.30679   0.30739   0.30808   0.30867   0.30950
     Eigenvalues ---    0.31063   0.31241   0.31456   0.31616   0.32559
     Eigenvalues ---    0.32717   0.32816   0.32854   0.33038   0.33526
     Eigenvalues ---    0.33666   0.35271   0.35697   0.36056   0.36976
     Eigenvalues ---    0.37559   0.37721   0.37769   0.38470   0.38663
     Eigenvalues ---    0.39045   0.39438   0.40348   0.40514   0.41589
     Eigenvalues ---    0.42358   0.42525   0.43624   0.44214   0.44920
     Eigenvalues ---    0.45548   0.45703   0.46055   0.48162   0.48396
     Eigenvalues ---    0.48634   0.49226   0.49376   0.49895   0.49945
     Eigenvalues ---    0.50151   0.50778   0.51332   0.52118   0.52705
     Eigenvalues ---    0.53524   0.54019   0.56817   0.59066   0.64302
     Eigenvalues ---    0.67479   0.76976   0.81953   0.83072   0.96818
     Eigenvalues ---    0.97269   0.99276   1.00117   1.02273   1.04424
     Eigenvalues ---    1.08064   1.12068   1.12241   1.12868   1.16513
     Eigenvalues ---    1.19778   1.20222   1.20549   1.22364   1.23055
     Eigenvalues ---    1.23225   1.26521   1.27075   1.27193   1.27243
     Eigenvalues ---    1.28229   1.29829   1.30529   1.45262   1.45963
     Eigenvalues ---    1.46020   1.48610   1.52000   1.52146   1.52248
     Eigenvalues ---    1.52901   1.55769   1.55968   1.57118   1.58723
     Eigenvalues ---    1.58847   1.59545   1.61819   1.65449   1.77729
     Eigenvalues ---    1.87854   1.92361   1.93671   1.94924   2.00680
     Eigenvalues ---    2.04614   2.06883   3.69391
 Eigenvalue     1 is  -3.33D-16 should be greater than     0.000000 Eigenvector:
                          Y11       Y6        Y12       Y10       Y7
   1                    0.17520   0.17520   0.17520   0.17520   0.17520
                          Y5        Y2        Y4        Y8        Y9
   1                    0.17520   0.17520   0.17520   0.17520   0.17520
 Eigenvalue     2 is   2.95D-07 Eigenvector:
                          Y16       X16       X11       Y11       Y14
   1                    0.34001  -0.26310   0.26158  -0.25120   0.25105
                          Y15       Y17       Y13       X14       X6
   1                    0.23413   0.21493   0.19225  -0.18584   0.18255
 Eigenvalue     3 is   2.74D-06 Eigenvector:
                          X9        X10       Y12       Y9        X12
   1                    0.32721   0.29002   0.28070  -0.26256  -0.25543
                          Y8        Y10       X8        X15       Y17
   1                    0.24766  -0.23015  -0.21960   0.21470   0.20766
 Quadratic step=1.516D+01 exceeds max=3.000D-01 adjusted using Lamda=-6.760D-03.
 Angle between NR and scaled steps=  39.06 degrees.
 Angle between quadratic step and forces=  69.91 degrees.
 Linear search not attempted -- first point.
 B after Tr=     0.004328    0.003744    0.002119
         Rot=    1.000000   -0.000174    0.000080    0.000266 Ang=  -0.04 deg.
 Variable       Old X    -DE/DX   Delta X   Delta X   Delta X     New X
                                 (Linear)    (Quad)   (Total)
    X1      -18.84251  -0.00285   0.00000  -0.00282   0.00624 -18.83626
    Y1       14.81730   0.00759   0.00000   0.00768   0.01458  14.83189
    Z1       19.75031   0.00258   0.00000   0.00278   0.00705  19.75736
    X2      -15.69967  -0.00161   0.00000  -0.01322  -0.00833 -15.70800
    Y2        8.01519  -0.00071   0.00000  -0.01839  -0.01432   8.00087
    Z2       23.12235  -0.00109   0.00000  -0.01016  -0.00777  23.11457
    X3      -17.12268  -0.00127   0.00000  -0.00713  -0.00223 -17.12491
    Y3        7.39815  -0.00009   0.00000  -0.03969  -0.03412   7.36403
    Z3       20.96142   0.00248   0.00000  -0.00483  -0.00289  20.95853
    X4      -18.90524   0.00094   0.00000  -0.00478  -0.00096 -18.90620
    Y4        5.43920   0.00111   0.00000  -0.03679  -0.03035   5.40885
    Z4       21.16348  -0.00005   0.00000   0.01793   0.01891  21.18239
    X5      -19.25451   0.00064   0.00000  -0.00847  -0.00570 -19.26020
    Y5        4.13839  -0.00069   0.00000  -0.01283  -0.00699   4.13140
    Z5       23.42068   0.00081   0.00000   0.03363   0.03410  23.45479
    X6      -17.82057   0.00022   0.00000  -0.01322  -0.01044 -17.83101
    Y6        4.76442  -0.00025   0.00000   0.00881   0.01315   4.77758
    Z6       25.54313   0.00066   0.00000   0.02895   0.02988  25.57301
    X7      -16.04309  -0.00048   0.00000  -0.01288  -0.00904 -16.05213
    Y7        6.70915  -0.00117   0.00000   0.00414   0.00760   6.71674
    Z7       25.38086  -0.00033   0.00000   0.00461   0.00650  25.38736
    X8      -14.31765   0.00049   0.00000  -0.00434   0.00138 -14.31627
    Y8        9.54550  -0.00000   0.00000  -0.02537  -0.02201   9.52350
    Z8       23.05196  -0.00049   0.00000  -0.02970  -0.02656  23.02540
    X9      -20.03251  -0.00005   0.00000   0.00049   0.00430 -20.02821
    Y9        4.94563  -0.00063   0.00000  -0.06097  -0.05335   4.89227
    Z9       19.50315  -0.00010   0.00000   0.02068   0.02130  19.52445
   X10      -20.63691  -0.00024   0.00000  -0.01387  -0.01193 -20.64884
   Y10        2.60697   0.00007   0.00000  -0.00687  -0.00033   2.60663
   Z10       23.51283   0.00054   0.00000   0.05180   0.05152  23.56435
   X11      -18.06104  -0.00030   0.00000  -0.02118  -0.01923 -18.08026
   Y11        3.72016   0.00051   0.00000   0.03425   0.03810   3.75826
   Z11       27.30789  -0.00001   0.00000   0.04171   0.04224  27.35014
   X12      -14.90714  -0.00011   0.00000  -0.01411  -0.01026 -14.91739
   Y12        7.20950   0.00016   0.00000   0.02254   0.02483   7.23432
   Z12       27.03185   0.00025   0.00000   0.00068   0.00293  27.03478
   X13      -16.86153   0.00770   0.00000   0.01773   0.02370 -16.83783
   Y13        8.73037   0.00765   0.00000  -0.08408  -0.07781   8.65256
   Z13       18.54891  -0.00572   0.00000  -0.03370  -0.03126  18.51764
   X14      -15.30025  -0.00513   0.00000  -0.01555  -0.00847 -15.30872
   Y14       10.67621  -0.01151   0.00000  -0.08371  -0.07809  10.59812
   Z14       18.07703   0.00113   0.00000  -0.03990  -0.03654  18.04049
   X15      -18.12486  -0.00006   0.00000   0.03059   0.03644 -18.08842
   Y15        8.09098  -0.00040   0.00000  -0.11373  -0.10627   7.98471
   Z15       17.03724   0.00050   0.00000  -0.02989  -0.02789  17.00935
   X16      -15.23570  -0.00060   0.00000  -0.02411  -0.01626 -15.25196
   Y16       11.56056   0.00025   0.00000  -0.08981  -0.08357  11.47698
   Z16       16.21436   0.00075   0.00000  -0.04116  -0.03749  16.17687
   X17      -13.95756  -0.00117   0.00000  -0.06441  -0.05714 -14.01470
   Y17       11.37686   0.00141   0.00000  -0.01141  -0.00697  11.36989
   Z17       19.48077  -0.00048   0.00000  -0.02977  -0.02594  19.45483
   X18       -1.91524  -0.00251   0.00000  -0.01040  -0.01010  -1.92534
   Y18       -3.33642   0.00095   0.00000   0.00069   0.00055  -3.33587
   Z18       14.10379   0.00009   0.00000   0.00382   0.00447  14.10825
   X19      -15.88758   0.00233   0.00000   0.01044   0.01118 -15.87639
   Y19       -2.49953  -0.00115   0.00000   0.00994   0.01722  -2.48230
   Z19       14.11241   0.00031   0.00000   0.00521   0.00392  14.11634
   X20      -13.34327   0.00255   0.00000   0.01971   0.02222 -13.32106
   Y20        2.53030  -0.00221   0.00000   0.00340   0.00734   2.53764
   Z20       19.81660   0.00023   0.00000  -0.00275  -0.00188  19.81472
   X21       -4.40988  -0.00215   0.00000  -0.01363  -0.01686  -4.42675
   Y21       -8.21181   0.00125   0.00000   0.00579   0.00495  -8.20686
   Z21       19.95345  -0.00036   0.00000  -0.00698  -0.00842  19.94502
   X22       -6.48088   0.00172   0.00000   0.00364   0.00676  -6.47412
   Y22        1.40504   0.00926   0.00000   0.01049   0.01341   1.41845
   Z22       12.28352  -0.00845   0.00000  -0.01181  -0.01024  12.27329
   X23      -11.35771  -0.00232   0.00000   0.00076  -0.00075 -11.35846
   Y23       -7.22537  -0.00923   0.00000   0.00054   0.00600  -7.21936
   Z23       12.44739  -0.00862   0.00000  -0.00975  -0.01196  12.43543
   X24       -6.87159   0.00605   0.00000   0.01855   0.02035  -6.85124
   Y24        1.72860   0.00797   0.00000   0.00217   0.00206   1.73066
   Z24       21.55197   0.00868   0.00000   0.01199   0.01361  21.56559
   X25      -10.91620  -0.00650   0.00000  -0.01483  -0.01785 -10.93405
   Y25       -7.30625  -0.00657   0.00000   0.00799   0.01001  -7.29625
   Z25       21.67445   0.00891   0.00000   0.00788   0.00571  21.68016
   X26       -4.66838   0.00711   0.00000   0.00023   0.00007  -4.66831
   Y26       -4.81045  -0.00672   0.00000  -0.00983  -0.00780  -4.81825
   Z26       12.05941  -0.00980   0.00000  -0.00662  -0.00693  12.05249
   X27      -13.13243  -0.00668   0.00000  -0.00074   0.00115 -13.13128
   Y27       -1.00573   0.00672   0.00000   0.02189   0.02845  -0.97728
   Z27       12.00143  -0.00925   0.00000  -0.00545  -0.00577  11.99566
   X28      -12.90628  -0.01006   0.00000  -0.00524  -0.00467 -12.91095
   Y28       -0.47754   0.00285   0.00000   0.00725   0.01024  -0.46730
   Z28       21.91005   0.00956   0.00000   0.00493   0.00482  21.91488
   X29       -4.85996   0.00946   0.00000   0.00826   0.00637  -4.85359
   Y29       -5.08937  -0.00148   0.00000   0.00347   0.00216  -5.08721
   Z29       21.97300   0.00963   0.00000   0.00487   0.00444  21.97744
   X30       -6.05556   0.00003   0.00000   0.02315   0.02783  -6.02773
   Y30        3.68468  -0.00282   0.00000  -0.00561  -0.00216   3.68252
   Z30       10.09588   0.00154   0.00000  -0.01654  -0.01411  10.08178
   X31      -11.60187  -0.00019   0.00000  -0.01519  -0.01762 -11.61949
   Y31       -9.60778   0.00251   0.00000   0.00912   0.01547  -9.59231
   Z31       10.31250   0.00132   0.00000  -0.01011  -0.01319  10.29931
   X32       -5.11664  -0.00222   0.00000   0.00470   0.00702  -5.10962
   Y32        3.34383  -0.00156   0.00000   0.00364   0.00185   3.34568
   Z32       23.69935  -0.00141   0.00000   0.01401   0.01648  23.71582
   X33      -12.65680   0.00237   0.00000  -0.00097  -0.00517 -12.66196
   Y33       -8.84483   0.00121   0.00000   0.00447   0.00664  -8.83819
   Z33       23.88829  -0.00171   0.00000   0.00838   0.00540  23.89369
   X34       -5.10143  -0.00056   0.00000  -0.00229  -0.00053  -5.10196
   Y34       -1.63706  -0.00070   0.00000  -0.00479  -0.00201  -1.63907
   Z34       10.56217   0.00276   0.00000   0.00687   0.00760  10.56977
   X35      -12.69175   0.00098   0.00000   0.00520   0.00555 -12.68619
   Y35       -4.28630  -0.00022   0.00000   0.01401   0.02080  -4.26550
   Z35       10.63833   0.00313   0.00000   0.00949   0.00810  10.64643
   X36      -10.06014   0.00063   0.00000   0.00802   0.00918 -10.05096
   Y36        1.06368  -0.00076   0.00000  -0.00190  -0.00093   1.06275
   Z36       23.37409  -0.00312   0.00000  -0.00763  -0.00675  23.36734
   X37       -7.68767  -0.00015   0.00000  -0.00362  -0.00657  -7.69424
   Y37       -6.62872   0.00056   0.00000   0.00934   0.00903  -6.61969
   Z37       23.45653  -0.00312   0.00000  -0.01022  -0.01163  23.44490
   X38        0.55688  -0.00375   0.00000   0.00836   0.00987   0.56676
   Y38       -0.01296  -0.00093   0.00000  -0.00292  -0.00557  -0.01853
   Z38       17.53481  -0.00158   0.00000  -0.00620  -0.00400  17.53081
   X39      -18.36378   0.00393   0.00000  -0.00727  -0.00878 -18.37256
   Y39       -5.69088   0.00093   0.00000   0.01454   0.02193  -5.66895
   Z39       17.64631  -0.00178   0.00000  -0.00748  -0.01027  17.63604
   X40      -12.09802   0.00257   0.00000   0.02853   0.03370 -12.06432
   Y40        6.45210  -0.00579   0.00000   0.01487   0.01936   6.47146
   Z40       16.30544   0.00171   0.00000   0.01311   0.01555  16.32098
   X41       -5.59895  -0.00135   0.00000  -0.01033  -0.01513  -5.61408
   Y41      -12.18248   0.00345   0.00000  -0.00269  -0.00171 -12.18418
   Z41       16.52116   0.00145   0.00000   0.00471   0.00170  16.52286
   X42       -3.42839  -0.00129   0.00000  -0.00108   0.00177  -3.42663
   Y42        1.48518  -0.00297   0.00000  -0.00987  -0.00923   1.47595
   Z42       14.15069   0.00073   0.00000   0.00162   0.00370  14.15439
   X43      -14.38371   0.00187   0.00000   0.00551   0.00366 -14.38005
   Y43       -7.32782   0.00260   0.00000   0.01915   0.02557  -7.30224
   Z43       14.29446   0.00048   0.00000   0.00207  -0.00065  14.29381
   X44       -8.57507  -0.00032   0.00000   0.01470   0.01811  -8.55696
   Y44        4.19319  -0.00313   0.00000  -0.00871  -0.00727   4.18592
   Z44       19.69648  -0.00016   0.00000   0.00320   0.00541  19.70189
   X45       -9.19790   0.00126   0.00000  -0.00856  -0.01264  -9.21054
   Y45       -9.85230   0.00308   0.00000   0.01864   0.02037  -9.83193
   Z45       19.88111  -0.00072   0.00000  -0.00456  -0.00733  19.87378
   X46       -3.11314  -0.00133   0.00000   0.00528   0.00454  -3.10860
   Y46       -6.56557   0.00240   0.00000   0.00162   0.00359  -6.56198
   Z46        9.86573   0.00309   0.00000  -0.00137  -0.00204   9.86369
   X47      -14.77892   0.00150   0.00000  -0.01369  -0.01064 -14.78956
   Y47        0.50866  -0.00211   0.00000   0.00925   0.01748   0.52614
   Z47        9.72816   0.00325   0.00000   0.00602   0.00595   9.73411
   X48      -15.18614   0.00309   0.00000   0.00048   0.00078 -15.18536
   Y48       -0.34349   0.00054   0.00000   0.02373   0.02716  -0.31633
   Z48       24.16146  -0.00363   0.00000  -0.00158  -0.00200  24.15946
   X49       -2.53576  -0.00286   0.00000   0.00207  -0.00029  -2.53605
   Y49       -5.28506  -0.00068   0.00000  -0.01507  -0.01839  -5.30345
   Z49       24.17975  -0.00308   0.00000  -0.00070  -0.00083  24.17892
   X50       -2.39491   0.01302   0.00000   0.01032   0.01146  -2.38345
   Y50       -0.97370   0.00397   0.00000   0.00290   0.00210  -0.97160
   Z50       16.71430   0.00252   0.00000   0.00820   0.00960  16.72390
   X51      -15.41656  -0.01348   0.00000  -0.00932  -0.01020 -15.42675
   Y51       -4.74413  -0.00320   0.00000   0.00942   0.01553  -4.72860
   Z51       16.79013   0.00279   0.00000   0.00820   0.00620  16.79633
   X52      -11.21446  -0.00554   0.00000   0.01329   0.01676 -11.19771
   Y52        3.50046   0.01486   0.00000   0.01775   0.02151   3.52197
   Z52       17.09318  -0.00326   0.00000  -0.00589  -0.00434  17.08885
   X53       -6.55829   0.00459   0.00000  -0.00717  -0.01053  -6.56881
   Y53       -9.22334  -0.01255   0.00000  -0.00544  -0.00422  -9.22755
   Z53       17.31724  -0.00222   0.00000  -0.00953  -0.01168  17.30557
   X54       -8.00932  -0.00066   0.00000  -0.00028  -0.00090  -8.01022
   Y54       -5.84610   0.00196   0.00000  -0.00209   0.00193  -5.84417
   Z54       11.47641   0.00218   0.00000  -0.00785  -0.00904  11.46736
   X55       -9.78600   0.00101   0.00000   0.00164   0.00413  -9.78187
   Y55       -0.05555  -0.00198   0.00000   0.01388   0.01888  -0.03667
   Z55       11.37038   0.00185   0.00000  -0.00833  -0.00779  11.36258
   X56      -11.69543   0.00220   0.00000  -0.00743  -0.00871 -11.70415
   Y56       -3.78061   0.00008   0.00000   0.00699   0.00913  -3.77149
   Z56       22.53066  -0.00238   0.00000   0.00541   0.00434  22.53501
   X57       -6.02443  -0.00187   0.00000   0.01080   0.01057  -6.01386
   Y57       -1.79376  -0.00088   0.00000   0.00175   0.00085  -1.79290
   Z57       22.54137  -0.00194   0.00000   0.00887   0.00940  22.55077
   X58       -8.31023   0.00106   0.00000   0.01321   0.01678  -8.29345
   Y58        3.02452  -0.00322   0.00000   0.00813   0.01114   3.03566
   Z58       14.83020   0.00130   0.00000  -0.00559  -0.00375  14.82645
   X59       -9.45496  -0.00017   0.00000  -0.00512  -0.00789  -9.46285
   Y59       -8.83060   0.00250   0.00000  -0.00102   0.00255  -8.82805
   Z59       14.98684   0.00143   0.00000  -0.00815  -0.01061  14.97623
   X60       -4.42449  -0.00203   0.00000   0.01382   0.01570  -4.40879
   Y60        1.13221  -0.00158   0.00000   0.00242   0.00188   1.13409
   Z60       19.04626  -0.00151   0.00000   0.00883   0.01063  19.05690
   X61      -13.35851   0.00232   0.00000  -0.01117  -0.01353 -13.37204
   Y61       -6.81541   0.00110   0.00000   0.00843   0.01262  -6.80278
   Z61       19.15966  -0.00152   0.00000   0.00642   0.00404  19.16370
   X62       -4.87315  -0.00122   0.00000  -0.00423  -0.00617  -4.87932
   Y62       -7.31348   0.00191   0.00000  -0.00637  -0.00519  -7.31867
   Z62       14.84978   0.00117   0.00000  -0.00639  -0.00760  14.84218
   X63      -12.94327   0.00129   0.00000   0.00888   0.01165 -12.93162
   Y63        1.49142  -0.00268   0.00000   0.01741   0.02291   1.51433
   Z63       14.74463   0.00058   0.00000  -0.00476  -0.00418  14.74045
   X64      -14.83011   0.00243   0.00000  -0.00562  -0.00553 -14.83564
   Y64       -2.21570  -0.00006   0.00000   0.01007   0.01503  -2.20066
   Z64       19.20603  -0.00141   0.00000   0.00452   0.00350  19.20953
   X65       -2.97142  -0.00253   0.00000   0.00654   0.00596  -2.96547
   Y65       -3.46848  -0.00033   0.00000   0.00167   0.00032  -3.46816
   Z65       19.18824  -0.00111   0.00000   0.00507   0.00551  19.19374
   X66       -6.40375  -0.02288   0.00000  -0.03890  -0.03813  -6.44188
   Y66       -2.12758  -0.00492   0.00000  -0.00451  -0.00262  -2.13019
   Z66       15.14683   0.01511   0.00000   0.02310   0.02344  15.17028
   X67      -11.39783   0.02344   0.00000   0.03938   0.03932 -11.35851
   Y67       -3.69318   0.00582   0.00000   0.01905   0.02354  -3.66964
   Z67       15.20346   0.01462   0.00000   0.02350   0.02252  15.22598
   X68       -9.70129   0.00925   0.00000   0.02243   0.02354  -9.67775
   Y68       -0.37506  -0.02226   0.00000  -0.03027  -0.02790  -0.40297
   Z68       18.81001  -0.01548   0.00000  -0.02525  -0.02482  18.78519
   X69       -8.04191  -0.00931   0.00000  -0.01996  -0.02146  -8.06337
   Y69       -5.33135   0.02126   0.00000   0.04038   0.04186  -5.28949
   Z69       18.86228  -0.01545   0.00000  -0.02573  -0.02674  18.83554
   X70       -6.11454   0.00025   0.00000  -0.00431  -0.00785  -6.12239
   Y70      -11.54796  -0.00090   0.00000  -0.00719  -0.00391 -11.55187
   Z70       10.71819  -0.00065   0.00000  -0.00984  -0.01272  10.70547
   X71       -0.29949   0.00087   0.00000   0.01538   0.01601  -0.28348
   Y71        0.06671   0.00042   0.00000  -0.00078  -0.00500   0.06171
   Z71       23.32572   0.00068   0.00000   0.01008   0.01218  23.33789
   X72      -17.49934  -0.00090   0.00000  -0.01333  -0.01569 -17.51503
   Y72       -5.53451   0.00001   0.00000   0.01267   0.01759  -5.51693
   Z72       23.43659   0.00082   0.00000   0.00844   0.00583  23.44243
   X73       -8.89026  -0.00048   0.00000   0.00002   0.00010  -8.89016
   Y73       -2.87359   0.00011   0.00000   0.00623   0.00879  -2.86480
   Z73       16.99907   0.00035   0.00000  -0.00059  -0.00089  16.99818
         Item               Value     Threshold  Converged?
 Maximum Force            0.023435     0.000450     NO 
 RMS     Force            0.005350     0.000300     NO 
 Maximum Displacement     0.106271     0.001800     NO 
 RMS     Displacement     0.020024     0.001200     NO 
 Predicted change in Energy=-4.271285D-03
 GradGradGradGradGradGradGradGradGradGradGradGradGradGradGradGradGradGrad

 Unable to Open any file for archive entry.
 1\1\GINC-X11P1N2\Force\RwB97XD\def2SVP\C8H8Cl1K3O40V1W12(1-)\MAYUMIAO\
 01-Jun-2024\0\\# def2svp wb97xd scrf=(smd,solvent=acetonitrile) g09def
 ault scf=(xqc,maxcycle=64) force guess=read nosymm\\Title Card\\-1,1\C
 l,-9.97102593,7.84097783,10.45141355\C,-8.30790968,4.24145625,12.23581
 883\C,-9.06093384,3.91493097,11.09230381\C,-10.00422434,2.87830056,11.
 19923112\C,-10.18904697,2.18994324,12.39369072\C,-9.43024065,2.5212242
 9,13.51684336\C,-8.48963694,3.55032694,13.43097046\H,-7.57657235,5.051
 26293,12.198573\H,-10.60074747,2.61711332,10.32062139\H,-10.92058499,1
 .37954685,12.44245338\H,-9.55748926,1.96862356,14.45071334\H,-7.888516
 73,3.81510117,14.30463764\C,-8.92273774,4.61991113,9.81565828\C,-8.096
 5448,5.64960461,9.56595104\H,-9.59126396,4.28156466,9.01572087\H,-8.06
 238482,6.11758288,8.58027106\H,-7.3860228,6.0203759,10.30878194\O,-1.0
 1349877,-1.76555664,7.46340328\O,-8.4073431,-1.32269237,7.46796736\O,-
 7.06095617,1.3389747,10.48649336\O,-2.33361056,-4.34550383,10.55890855
 \W,-3.42953244,0.7435151,6.50015963\W,-6.01024311,-3.82350086,6.586876
 64\W,-3.63628999,0.91473728,11.40481372\W,-5.77660418,-3.86630343,11.4
 6962536\W,-2.47039893,-2.5455814,6.3815665\W,-6.94938483,-0.53221125,6
 .35088337\W,-6.8297077,-0.25270547,11.59430143\W,-2.57178195,-2.693178
 96,11.62761014\O,-3.20446231,1.94984902,5.34251104\O,-6.13944481,-5.08
 421611,5.45713992\O,-2.70760745,1.76947919,12.54115383\O,-6.69768759,-
 4.68048284,12.64113807\O,-2.69956226,-0.86629536,5.58925943\O,-6.71618
 291,-2.26821268,5.62956232\O,-5.32359889,0.56287406,12.36903396\O,-4.0
 6814089,-3.50776579,12.41266311\O,0.29468947,-0.0068572,9.27901919\O,-
 9.71769308,-3.01148358,9.33802674\O,-6.40199418,3.41430513,8.62846473\
 O,-2.96283874,-6.44668862,8.74262076\O,-1.81422755,0.78592113,7.488221
 39\O,-7.61153207,-3.87771284,7.56430431\O,-4.53773238,2.21893836,10.42
 292696\O,-4.86732145,-5.21361284,10.52062879\O,-1.6474027,-3.47434739,
 5.22071732\O,-7.82066797,0.26917312,5.14792012\O,-8.03615682,-0.181765
 2,12.78569504\O,-1.34186778,-2.79673077,12.79537353\W,-1.26733126,-0.5
 1526133,8.84482895\W,-8.15808995,-2.5104851,8.88495334\W,-5.93443808,1
 .85236286,9.04532341\W,-3.47049562,-4.88077953,9.16389072\O,-4.2383515
 3,-3.09362365,6.07305214\O,-5.17852899,-0.02939463,6.01694366\O,-6.188
 95734,-2.00061424,11.92271225\O,-3.18799021,-0.94921465,11.92838004\O,
 -4.39758455,1.60050834,7.84780323\O,-5.00335043,-4.67295026,7.93069648
 \O,-2.34134046,0.59914022,10.07884853\O,-7.06902109,-3.60655839,10.138
 85492\O,-2.57876085,-3.87012778,7.85816486\O,-6.84928538,0.78922684,7.
 80252479\O,-7.84775492,-1.17249728,10.16339237\O,-1.57240935,-1.835439
 66,10.15397745\O,-3.38871815,-1.1258656,8.0153593\O,-6.03146933,-1.954
 34893,8.04532297\O,-5.1337038,-0.19847473,9.95382628\O,-4.25559379,-2.
 82123082,9.98148951\K,-3.23567534,-6.110916,5.6718222\K,-0.1584847,0.0
 3530204,12.34343782\K,-9.26025208,-2.92873743,12.4021112\V,-4.70452342
 ,-1.52063807,8.99551787\\Version=ES64L-G16RevC.01\HF=-7327.6993202\RMS
 D=1.456e-09\RMSF=5.350e-03\Dipole=10.6033152,-21.4289964,2.5142711\Qua
 drupole=-92.4947225,65.1652546,27.3294679,331.8087718,345.43554,-344.0
 661843\PG=C01 [X(C8H8Cl1K3O40V1W12)]\\@
 The archive entry for this job was punched.


 THEORY:  SUPPOSITION WHICH HAS SCIENTIFIC BASIS,
          BUT NOT EXPERIMENTALLY PROVEN.
 FACT:    A THEORY WHICH HAS BEEN PROVEN BY ENOUGH 
          MONEY TO PAY FOR THE EXPERIMENTS.

                          --  THE WIZARD OF ID
 Job cpu time:       0 days 11 hours  6 minutes 19.9 seconds.
 Elapsed time:       0 days  0 hours 12 minutes 40.3 seconds.
 File lengths (MBytes):  RWF=   1248 Int=      0 D2E=      0 Chk=    249 Scr=      1
 Normal termination of Gaussian 16 at Sat Jun  1 19:39:07 2024.
