 Entering Gaussian System, Link 0=g16
 Input=JOBS/15_B.gjf
 Output=JOBS/15_B.log
 Initial command:
 /data/app/gaussian/C01-avx2//g16/l1.exe "/tmp/Gau-603681.inp" -scrdir="/tmp/"
 Entering Link 1 = /data/app/gaussian/C01-avx2//g16/l1.exe PID=    603682.
  
 Copyright (c) 1988-2019, Gaussian, Inc.  All Rights Reserved.
  
 This is part of the Gaussian(R) 16 program.  It is based on
 the Gaussian(R) 09 system (copyright 2009, Gaussian, Inc.),
 the Gaussian(R) 03 system (copyright 2003, Gaussian, Inc.),
 the Gaussian(R) 98 system (copyright 1998, Gaussian, Inc.),
 the Gaussian(R) 94 system (copyright 1995, Gaussian, Inc.),
 the Gaussian 92(TM) system (copyright 1992, Gaussian, Inc.),
 the Gaussian 90(TM) system (copyright 1990, Gaussian, Inc.),
 the Gaussian 88(TM) system (copyright 1988, Gaussian, Inc.),
 the Gaussian 86(TM) system (copyright 1986, Carnegie Mellon
 University), and the Gaussian 82(TM) system (copyright 1983,
 Carnegie Mellon University). Gaussian is a federally registered
 trademark of Gaussian, Inc.
  
 This software contains proprietary and confidential information,
 including trade secrets, belonging to Gaussian, Inc.
  
 This software is provided under written license and may be
 used, copied, transmitted, or stored only in accord with that
 written license.
  
 The following legend is applicable only to US Government
 contracts under FAR:
  
                    RESTRICTED RIGHTS LEGEND
  
 Use, reproduction and disclosure by the US Government is
 subject to restrictions as set forth in subparagraphs (a)
 and (c) of the Commercial Computer Software - Restricted
 Rights clause in FAR 52.227-19.
  
 Gaussian, Inc.
 340 Quinnipiac St., Bldg. 40, Wallingford CT 06492
  
  
 ---------------------------------------------------------------
 Warning -- This program may not be used in any manner that
 competes with the business of Gaussian, Inc. or will provide
 assistance to any competitor of Gaussian, Inc.  The licensee
 of this program is prohibited from giving any competitor of
 Gaussian, Inc. access to this program.  By using this program,
 the user acknowledges that Gaussian, Inc. is engaged in the
 business of creating and licensing software in the field of
 computational chemistry and represents and warrants to the
 licensee that it is not a competitor of Gaussian, Inc. and that
 it will not use this program in any manner prohibited above.
 ---------------------------------------------------------------
  

 Cite this work as:
 Gaussian 16, Revision C.01,
 M. J. Frisch, G. W. Trucks, H. B. Schlegel, G. E. Scuseria, 
 M. A. Robb, J. R. Cheeseman, G. Scalmani, V. Barone, 
 G. A. Petersson, H. Nakatsuji, X. Li, M. Caricato, A. V. Marenich, 
 J. Bloino, B. G. Janesko, R. Gomperts, B. Mennucci, H. P. Hratchian, 
 J. V. Ortiz, A. F. Izmaylov, J. L. Sonnenberg, D. Williams-Young, 
 F. Ding, F. Lipparini, F. Egidi, J. Goings, B. Peng, A. Petrone, 
 T. Henderson, D. Ranasinghe, V. G. Zakrzewski, J. Gao, N. Rega, 
 G. Zheng, W. Liang, M. Hada, M. Ehara, K. Toyota, R. Fukuda, 
 J. Hasegawa, M. Ishida, T. Nakajima, Y. Honda, O. Kitao, H. Nakai, 
 T. Vreven, K. Throssell, J. A. Montgomery, Jr., J. E. Peralta, 
 F. Ogliaro, M. J. Bearpark, J. J. Heyd, E. N. Brothers, K. N. Kudin, 
 V. N. Staroverov, T. A. Keith, R. Kobayashi, J. Normand, 
 K. Raghavachari, A. P. Rendell, J. C. Burant, S. S. Iyengar, 
 J. Tomasi, M. Cossi, J. M. Millam, M. Klene, C. Adamo, R. Cammi, 
 J. W. Ochterski, R. L. Martin, K. Morokuma, O. Farkas, 
 J. B. Foresman, and D. J. Fox, Gaussian, Inc., Wallingford CT, 2019.
 
 ******************************************
 Gaussian 16:  ES64L-G16RevC.01  3-Jul-2019
                 1-Jun-2024 
 ******************************************
 %chk=b.chk
 %nprocshared=56
 Will use up to   56 processors via shared memory.
 %mem=96gb
 ----------------------------------------------------------------------
 # def2svp wb97xd scrf=(smd,solvent=acetonitrile) g09default scf=(xqc,m
 axcycle=64) force guess=read nosymm
 ----------------------------------------------------------------------
 1/10=7,30=1,38=1,158=3,167=1/1,3;
 2/12=2,15=1,17=6,18=5,40=1/2;
 3/5=43,7=101,11=2,25=1,27=10,30=1,70=32201,71=1,72=2,74=-58,75=-4,116=-2,158=3/1,2,3;
 4/5=1,60=-1/1;
 5/5=2,7=64,8=3,13=1,38=6,53=2,87=10/2,8;
 6/7=2,8=2,9=2,10=2,28=1,87=10/1;
 7/29=1,30=1,87=10/1,2,3,16;
 1/10=7,30=1,158=3,167=1/3;
 99//99;
 Using 2006 physical constants.
 ----------
 Title Card
 ----------
 Symbolic Z-matrix:
 Charge = -1 Multiplicity = 1
 17                   -9.97481   7.85759   10.45613 
 6                    -8.30761   4.24028   12.23551 
 6                    -9.06202   3.91523   11.09249 
 6                    -10.00413   2.87669   11.19841 
 6                    -10.18892   2.18846   12.39354 
 6                    -9.43004   2.52109   13.51671 
 6                    -8.48896   3.54981   13.43003 
 1                    -7.57569   5.05032   12.19789 
 1                    -10.60117   2.61473   10.32083 
 1                    -10.92176   1.37994   12.44417 
 1                    -9.55791   1.96987   14.45079 
 1                    -7.8894    3.81604   14.30476 
 6                    -8.92624   4.62166   9.8171 
 6                    -8.10173   5.6539    9.56742 
 1                    -9.58885   4.27718   9.01521 
 1                    -8.06295   6.11593   8.57943 
 1                    -7.3864    6.01995   10.30756 
 8                    -1.01246  -1.76514   7.46257 
 8                    -8.4087   -1.32298   7.4674 
 8                    -7.0606    1.34025   10.48667 
 8                    -2.3329   -4.34691   10.55932 
 74                   -3.42805   0.74329   6.49891 
 74                   -6.01082  -3.82431   6.58649 
 74                   -3.6355    0.91542   11.40581 
 74                   -5.77715  -3.86703   11.47017 
 74                   -2.47045  -2.54586   6.38105 
 74                   -6.94849  -0.53321   6.35038 
 74                   -6.82926  -0.25235   11.59457 
 74                   -2.57207  -2.69348   11.6282 
 8                    -3.20305   1.94865   5.34005 
 8                    -6.14067  -5.0838    5.45447 
 8                    -2.70867   1.77009   12.54388 
 8                    -6.69641  -4.68169   12.64329 
 8                    -2.6992   -0.86649   5.58736 
 8                    -6.71645  -2.26876   5.62808 
 8                    -5.32355   0.56333   12.37017 
 8                    -4.06788  -3.50829   12.4137 
 8                     0.29439  -0.00601   9.27732 
 8                    -9.71726  -3.01222   9.33584 
 8                    -6.39888   3.41442   8.62883 
 8                    -2.96332  -6.44738   8.74405 
 8                    -1.81302   0.78635   7.48715 
 8                    -7.61206  -3.87857   7.5634 
 8                    -4.53643   2.21967   10.42368 
 8                    -4.86745  -5.2146    10.52139 
 8                    -1.64543  -3.47354   5.22162 
 8                    -7.82248   0.26844   5.14936 
 8                    -8.0365   -0.17942   12.78416 
 8                    -1.34138  -2.79937   12.79465 
 74                   -1.26684  -0.5154    8.84465 
 74                   -8.15857  -2.51036   8.88447 
 74                   -5.93354   1.85256   9.04501 
 74                   -3.4704   -4.88102   9.16449 
 8                    -4.23807  -3.09357   6.0723 
 8                    -5.17859  -0.02894   6.01547 
 8                    -6.1892   -2.00069   11.92335 
 8                    -3.18732  -0.94944   11.92965 
 8                    -4.39583   1.59925   7.8473 
 8                    -5.00408  -4.67388   7.92946 
 8                    -2.34128   0.60013   10.0799 
 8                    -7.06886  -3.6079    10.1398 
 8                    -2.57944  -3.8707    7.85829 
 8                    -6.84778   0.78907   7.80263 
 8                    -7.8473   -1.17311   10.16307 
 8                    -1.57276  -1.83478   10.15385 
 8                    -3.38786  -1.12709   8.01572 
 8                    -6.03216  -1.95304   8.04529 
 8                    -5.13535  -0.19838   9.95307 
 8                    -4.25418  -2.82144   9.98075 
 19                   -3.23504  -6.11355   5.6699 
 19                   -0.156     0.03659   12.3454 
 19                   -9.26298  -2.92889   12.40467 
 23                   -4.70456  -1.52098   8.99541 
 

 GradGradGradGradGradGradGradGradGradGradGradGradGradGradGradGradGradGrad
 Berny optimization.
 Initialization pass.
 Trust Radius=3.00D-01 FncErr=1.00D-07 GrdErr=1.00D-07 EigMax=2.50D+02 EigMin=1.00D-04
 Number of steps in this run=      2 maximum allowed number of steps=      2.
 GradGradGradGradGradGradGradGradGradGradGradGradGradGradGradGradGradGrad

 Symmetry turned off by external request.
 Stoichiometry    C8H8ClK3O40VW12(1-)
 Framework group  C1[X(C8H8ClK3O40VW12)]
 Deg. of freedom   213
 Full point group                 C1      NOp   1
                          Input orientation:                          
 ---------------------------------------------------------------------
 Center     Atomic      Atomic             Coordinates (Angstroms)
 Number     Number       Type             X           Y           Z
 ---------------------------------------------------------------------
      1         17           0       -9.974808    7.857586   10.456132
      2          6           0       -8.307614    4.240277   12.235515
      3          6           0       -9.062025    3.915230   11.092494
      4          6           0      -10.004133    2.876693   11.198407
      5          6           0      -10.188921    2.188456   12.393540
      6          6           0       -9.430035    2.521090   13.516711
      7          6           0       -8.488963    3.549806   13.430033
      8          1           0       -7.575695    5.050316   12.197894
      9          1           0      -10.601170    2.614731   10.320833
     10          1           0      -10.921755    1.379935   12.444168
     11          1           0       -9.557906    1.969869   14.450789
     12          1           0       -7.889395    3.816040   14.304760
     13          6           0       -8.926245    4.621659    9.817098
     14          6           0       -8.101730    5.653898    9.567420
     15          1           0       -9.588848    4.277182    9.015208
     16          1           0       -8.062946    6.115930    8.579430
     17          1           0       -7.386395    6.019947   10.307564
     18          8           0       -1.012455   -1.765136    7.462570
     19          8           0       -8.408701   -1.322982    7.467400
     20          8           0       -7.060599    1.340246   10.486671
     21          8           0       -2.332902   -4.346914   10.559319
     22         74           0       -3.428048    0.743288    6.498906
     23         74           0       -6.010820   -3.824305    6.586494
     24         74           0       -3.635500    0.915416   11.405806
     25         74           0       -5.777153   -3.867029   11.470168
     26         74           0       -2.470452   -2.545858    6.381045
     27         74           0       -6.948493   -0.533206    6.350383
     28         74           0       -6.829262   -0.252355   11.594568
     29         74           0       -2.572071   -2.693485   11.628196
     30          8           0       -3.203050    1.948655    5.340049
     31          8           0       -6.140673   -5.083800    5.454467
     32          8           0       -2.708668    1.770089   12.543878
     33          8           0       -6.696410   -4.681690   12.643290
     34          8           0       -2.699203   -0.866491    5.587365
     35          8           0       -6.716450   -2.268759    5.628078
     36          8           0       -5.323554    0.563330   12.370169
     37          8           0       -4.067883   -3.508289   12.413697
     38          8           0        0.294385   -0.006010    9.277318
     39          8           0       -9.717262   -3.012220    9.335837
     40          8           0       -6.398881    3.414423    8.628827
     41          8           0       -2.963324   -6.447381    8.744050
     42          8           0       -1.813019    0.786347    7.487154
     43          8           0       -7.612059   -3.878566    7.563398
     44          8           0       -4.536432    2.219670   10.423679
     45          8           0       -4.867451   -5.214600   10.521394
     46          8           0       -1.645426   -3.473538    5.221622
     47          8           0       -7.822484    0.268444    5.149358
     48          8           0       -8.036498   -0.179418   12.784156
     49          8           0       -1.341378   -2.799366   12.794654
     50         74           0       -1.266844   -0.515396    8.844649
     51         74           0       -8.158570   -2.510358    8.884467
     52         74           0       -5.933540    1.852562    9.045014
     53         74           0       -3.470404   -4.881016    9.164490
     54          8           0       -4.238068   -3.093568    6.072305
     55          8           0       -5.178590   -0.028944    6.015471
     56          8           0       -6.189205   -2.000692   11.923353
     57          8           0       -3.187317   -0.949436   11.929651
     58          8           0       -4.395831    1.599248    7.847305
     59          8           0       -5.004083   -4.673881    7.929459
     60          8           0       -2.341281    0.600129   10.079899
     61          8           0       -7.068858   -3.607899   10.139804
     62          8           0       -2.579442   -3.870700    7.858291
     63          8           0       -6.847783    0.789069    7.802627
     64          8           0       -7.847300   -1.173112   10.163067
     65          8           0       -1.572759   -1.834782   10.153849
     66          8           0       -3.387856   -1.127094    8.015720
     67          8           0       -6.032164   -1.953039    8.045292
     68          8           0       -5.135353   -0.198382    9.953073
     69          8           0       -4.254183   -2.821436    9.980747
     70         19           0       -3.235041   -6.113553    5.669899
     71         19           0       -0.156005    0.036592   12.345400
     72         19           0       -9.262983   -2.928894   12.404670
     73         23           0       -4.704557   -1.520983    8.995414
 ---------------------------------------------------------------------
 Rotational constants (GHZ):           0.0172094           0.0133318           0.0131263
 Standard basis: def2SVP (5D, 7F)
  1217 basis functions,  2313 primitive gaussians,  1337 cartesian basis functions
   321 alpha electrons      321 beta electrons
       nuclear repulsion energy     21019.8488154168 Hartrees.
 NAtoms=   73 NActive=   73 NUniq=   73 SFac= 1.00D+00 NAtFMM=   60 NAOKFM=T Big=T
 Integral buffers will be    131072 words long.
 Raffenetti 2 integral format.
 Two-electron integral symmetry is turned off.
 Nuclear repulsion after empirical dispersion term =    21019.5707558871 Hartrees.
 Force PCM accuracy= 1.00D-10.
 ------------------------------------------------------------------------------
 Polarizable Continuum Model (PCM)
 =================================
 Model                : PCM (using non-symmetric T matrix).
 Atomic radii         : SMD-Coulomb.
 Polarization charges : Total charges.
 Charge compensation  : None.
 Solution method      : On-the-fly selection.
 Cavity type          : VdW (van der Waals Surface) (Alpha=1.000).
 Cavity algorithm     : GePol (No added spheres)
                        Default sphere list used, NSphG=   73.
                        Lebedev-Laikov grids with approx.  5.0 points / Ang**2.
                        Smoothing algorithm: York/Karplus (Gamma=1.0000).
                        Polarization charges: spherical gaussians, with
                                              point-specific exponents (IZeta= 3).
                        Self-potential: point-specific (ISelfS= 7).
                        Self-field    : sphere-specific E.n sum rule (ISelfD= 2).
 1st derivatives      : Analytical E(r).r(x)/FMM algorithm (CHGder, D1EAlg=3).
                        Cavity 1st derivative terms included.
 Solvent              : Acetonitrile, Eps=  35.688000 Eps(inf)=   1.806874
 ------------------------------------------------------------------------------
 ------------------------------------------------------------------------------
 Atomic radii for non-electrostatic terms: SMD-CDS.
 ------------------------------------------------------------------------------
 Nuclear repulsion after PCM non-electrostatic terms =    21019.5649422602 Hartrees.
 One-electron integrals computed using PRISM.
   1 Symmetry operations used in ECPInt.
 ECPInt:  NShTT=  127765 NPrTT=  468030 LenC2=   96864 LenP2D=  221715.
 LDataN:  DoStor=T MaxTD1= 8 Len=  415
 NBasis=  1217 RedAO= T EigKep=  1.35D-04  NBF=  1217
 NBsUse=  1217 1.00D-06 EigRej= -1.00D+00 NBFU=  1217
 Defaulting to unpruned grid for atomic number  74.
 Defaulting to unpruned grid for atomic number  74.
 Defaulting to unpruned grid for atomic number  74.
 Defaulting to unpruned grid for atomic number  74.
 Defaulting to unpruned grid for atomic number  74.
 Defaulting to unpruned grid for atomic number  74.
 Defaulting to unpruned grid for atomic number  74.
 Defaulting to unpruned grid for atomic number  74.
 Initial guess from the checkpoint file:  "b.chk"
 B after Tr=     0.000779   -0.001158    0.000157
         Rot=    1.000000    0.000009    0.000008    0.000048 Ang=   0.01 deg.
 Initial guess <Sx>= 0.0000 <Sy>= 0.0000 <Sz>= 0.0000 <S**2>= 1.0140 S= 0.6243
 Requested convergence on RMS density matrix=1.00D-08 within  64 cycles.
 Requested convergence on MAX density matrix=1.00D-06.
 Requested convergence on             energy=1.00D-06.
 No special actions if energy rises.
 Defaulting to unpruned grid for atomic number  74.
 Defaulting to unpruned grid for atomic number  74.
 Defaulting to unpruned grid for atomic number  74.
 Defaulting to unpruned grid for atomic number  74.
 Defaulting to unpruned grid for atomic number  74.
 Defaulting to unpruned grid for atomic number  74.
 Defaulting to unpruned grid for atomic number  74.
 Defaulting to unpruned grid for atomic number  74.
 Defaulting to unpruned grid for atomic number  74.
 Defaulting to unpruned grid for atomic number  74.
 Defaulting to unpruned grid for atomic number  74.
 Defaulting to unpruned grid for atomic number  74.
 Defaulting to unpruned grid for atomic number  74.
 Defaulting to unpruned grid for atomic number  74.
 Defaulting to unpruned grid for atomic number  74.
 Defaulting to unpruned grid for atomic number  74.
 Defaulting to unpruned grid for atomic number  74.
 Defaulting to unpruned grid for atomic number  74.
 Defaulting to unpruned grid for atomic number  74.
 Defaulting to unpruned grid for atomic number  74.
 Defaulting to unpruned grid for atomic number  74.
 Defaulting to unpruned grid for atomic number  74.
 Defaulting to unpruned grid for atomic number  74.
 Defaulting to unpruned grid for atomic number  74.
 Defaulting to unpruned grid for atomic number  74.
 Defaulting to unpruned grid for atomic number  74.
 Defaulting to unpruned grid for atomic number  74.
 Defaulting to unpruned grid for atomic number  74.
 Defaulting to unpruned grid for atomic number  74.
 Defaulting to unpruned grid for atomic number  74.
 Defaulting to unpruned grid for atomic number  74.
 Defaulting to unpruned grid for atomic number  74.
 Defaulting to unpruned grid for atomic number  74.
 Defaulting to unpruned grid for atomic number  74.
 Defaulting to unpruned grid for atomic number  74.
 Defaulting to unpruned grid for atomic number  74.
 Defaulting to unpruned grid for atomic number  74.
 Defaulting to unpruned grid for atomic number  74.
 Defaulting to unpruned grid for atomic number  74.
 Defaulting to unpruned grid for atomic number  74.
 Defaulting to unpruned grid for atomic number  74.
 Defaulting to unpruned grid for atomic number  74.
 Defaulting to unpruned grid for atomic number  74.
 Defaulting to unpruned grid for atomic number  74.
 Defaulting to unpruned grid for atomic number  74.
 Defaulting to unpruned grid for atomic number  74.
 Defaulting to unpruned grid for atomic number  74.
 Defaulting to unpruned grid for atomic number  74.
 Defaulting to unpruned grid for atomic number  74.
 Defaulting to unpruned grid for atomic number  74.
 Defaulting to unpruned grid for atomic number  74.
 Defaulting to unpruned grid for atomic number  74.
 Defaulting to unpruned grid for atomic number  74.
 Defaulting to unpruned grid for atomic number  74.
 Defaulting to unpruned grid for atomic number  74.
 Defaulting to unpruned grid for atomic number  74.
 Inv3:  Mode=1 IEnd=    85995948.
 Iteration    1 A*A^-1 deviation from unit magnitude is 3.89D-15 for   1638.
 Iteration    1 A*A^-1 deviation from orthogonality  is 3.02D-15 for    873     86.
 Iteration    1 A^-1*A deviation from unit magnitude is 3.55D-15 for   3736.
 Iteration    1 A^-1*A deviation from orthogonality  is 4.14D-10 for   4709   3630.
 Iteration    2 A*A^-1 deviation from unit magnitude is 5.44D-15 for    352.
 Iteration    2 A*A^-1 deviation from orthogonality  is 4.19D-15 for    784    162.
 Iteration    2 A^-1*A deviation from unit magnitude is 1.33D-15 for   2233.
 Iteration    2 A^-1*A deviation from orthogonality  is 5.67D-16 for    895     51.
 Restarting incremental Fock formation.
 Restarting incremental Fock formation.
 Error on total polarization charges =  0.01561
 SCF Done:  E(UwB97XD) =  -7327.70051328     A.U. after   49 cycles
            NFock= 49  Conv=0.11D-08     -V/T= 2.0831
 <Sx>= 0.0000 <Sy>= 0.0000 <Sz>= 0.0000 <S**2>= 1.0141 S= 0.6243
 <L.S>=  0.00000000000    
 SMD-CDS (non-electrostatic) energy       (kcal/mol) =      -3.65
 (included in total energy above)
 Annihilation of the first spin contaminant:
 S**2 before annihilation     1.0141,   after     0.1131
 QCSCF skips out because SCF is already converged.

 **********************************************************************

            Population analysis using the SCF Density.

 **********************************************************************

 Alpha  occ. eigenvalues -- -197.10449-129.99037-129.99032-129.98993-101.61858
 Alpha  occ. eigenvalues --  -22.44152 -19.28506 -19.28492 -19.28461 -19.28400
 Alpha  occ. eigenvalues --  -19.28399 -19.28382 -19.28376 -19.28361 -19.28349
 Alpha  occ. eigenvalues --  -19.28252 -19.28250 -19.28169 -19.26961 -19.26908
 Alpha  occ. eigenvalues --  -19.26906 -19.26901 -19.26882 -19.26878 -19.26854
 Alpha  occ. eigenvalues --  -19.26846 -19.26839 -19.26837 -19.26814 -19.26812
 Alpha  occ. eigenvalues --  -19.26812 -19.26793 -19.26789 -19.26784 -19.26781
 Alpha  occ. eigenvalues --  -19.26769 -19.26748 -19.26725 -19.26719 -19.26696
 Alpha  occ. eigenvalues --  -19.26651 -19.26634 -19.24660 -19.24580 -19.24579
 Alpha  occ. eigenvalues --  -19.24555 -18.93724 -18.92639 -18.92592 -13.36444
 Alpha  occ. eigenvalues --  -13.36439 -13.36388 -10.69371 -10.69367 -10.69366
 Alpha  occ. eigenvalues --  -10.69366 -10.69362 -10.69362 -10.69317 -10.69312
 Alpha  occ. eigenvalues --  -10.69310 -10.32892 -10.32309 -10.31778 -10.30883
 Alpha  occ. eigenvalues --  -10.30862 -10.30811 -10.30479 -10.30388  -9.52263
 Alpha  occ. eigenvalues --   -7.27139  -7.26811  -7.26804  -3.21066  -3.21044
 Alpha  occ. eigenvalues --   -3.21039  -3.21036  -3.21009  -3.20997  -3.20987
 Alpha  occ. eigenvalues --   -3.20981  -3.20973  -3.20833  -3.20822  -3.20801
 Alpha  occ. eigenvalues --   -2.78554  -1.85321  -1.85288  -1.85266  -1.85235
 Alpha  occ. eigenvalues --   -1.85114  -1.85070  -1.85055  -1.85036  -1.85026
 Alpha  occ. eigenvalues --   -1.85016  -1.84988  -1.84933  -1.84370  -1.84258
 Alpha  occ. eigenvalues --   -1.84243  -1.84239  -1.84197  -1.84189  -1.84119
 Alpha  occ. eigenvalues --   -1.84106  -1.84079  -1.84076  -1.84048  -1.84040
 Alpha  occ. eigenvalues --   -1.83919  -1.83894  -1.83883  -1.83876  -1.83840
 Alpha  occ. eigenvalues --   -1.83802  -1.83785  -1.83781  -1.83764  -1.83662
 Alpha  occ. eigenvalues --   -1.83661  -1.83648  -1.81747  -1.81411  -1.81388
 Alpha  occ. eigenvalues --   -1.50151  -1.50145  -1.50096  -1.08597  -1.06960
 Alpha  occ. eigenvalues --   -1.06931  -1.06901  -1.06006  -1.05995  -1.05965
 Alpha  occ. eigenvalues --   -1.04569  -1.04560  -1.04546  -1.03961  -1.03936
 Alpha  occ. eigenvalues --   -1.03664  -1.03357  -1.03305  -1.03295  -1.03051
 Alpha  occ. eigenvalues --   -1.03026  -1.02225  -1.02207  -1.02175  -1.02082
 Alpha  occ. eigenvalues --   -1.02037  -1.02008  -1.01944  -1.01917  -1.01799
 Alpha  occ. eigenvalues --   -1.01760  -1.01745  -1.01633  -1.01583  -1.01569
 Alpha  occ. eigenvalues --   -1.01282  -1.00812  -1.00771  -1.00726  -1.00708
 Alpha  occ. eigenvalues --   -0.99956  -0.99883  -0.99817  -0.96067  -0.89237
 Alpha  occ. eigenvalues --   -0.85600  -0.85591  -0.85552  -0.85441  -0.85438
 Alpha  occ. eigenvalues --   -0.85438  -0.85432  -0.85392  -0.85375  -0.84149
 Alpha  occ. eigenvalues --   -0.82316  -0.80776  -0.71837  -0.69498  -0.64986
 Alpha  occ. eigenvalues --   -0.62306  -0.61696  -0.61653  -0.61611  -0.60556
 Alpha  occ. eigenvalues --   -0.58970  -0.58959  -0.58946  -0.58878  -0.58822
 Alpha  occ. eigenvalues --   -0.58744  -0.58733  -0.58687  -0.58539  -0.57328
 Alpha  occ. eigenvalues --   -0.57294  -0.57264  -0.56995  -0.56731  -0.56485
 Alpha  occ. eigenvalues --   -0.56449  -0.56410  -0.56006  -0.55847  -0.55347
 Alpha  occ. eigenvalues --   -0.55341  -0.55305  -0.54340  -0.54208  -0.54177
 Alpha  occ. eigenvalues --   -0.54001  -0.53649  -0.53605  -0.53581  -0.52727
 Alpha  occ. eigenvalues --   -0.52633  -0.52625  -0.52532  -0.52485  -0.51483
 Alpha  occ. eigenvalues --   -0.51468  -0.51455  -0.51363  -0.51305  -0.50676
 Alpha  occ. eigenvalues --   -0.50593  -0.50528  -0.50484  -0.50376  -0.50308
 Alpha  occ. eigenvalues --   -0.50240  -0.50058  -0.50046  -0.50003  -0.49764
 Alpha  occ. eigenvalues --   -0.49709  -0.49665  -0.49500  -0.49467  -0.49314
 Alpha  occ. eigenvalues --   -0.49253  -0.49217  -0.49123  -0.49088  -0.48990
 Alpha  occ. eigenvalues --   -0.48753  -0.48585  -0.48571  -0.48507  -0.47709
 Alpha  occ. eigenvalues --   -0.47693  -0.47113  -0.46502  -0.46045  -0.46032
 Alpha  occ. eigenvalues --   -0.45857  -0.45775  -0.45716  -0.45628  -0.45204
 Alpha  occ. eigenvalues --   -0.45121  -0.45117  -0.44834  -0.44627  -0.44503
 Alpha  occ. eigenvalues --   -0.44477  -0.44455  -0.44267  -0.44262  -0.44242
 Alpha  occ. eigenvalues --   -0.43371  -0.43041  -0.42548  -0.42512  -0.42450
 Alpha  occ. eigenvalues --   -0.42299  -0.42166  -0.42158  -0.42040  -0.41633
 Alpha  occ. eigenvalues --   -0.41606  -0.41562  -0.41030  -0.40997  -0.40806
 Alpha  occ. eigenvalues --   -0.40761  -0.40736  -0.40411  -0.40401  -0.40369
 Alpha  occ. eigenvalues --   -0.40212  -0.40180  -0.40173  -0.40150  -0.39884
 Alpha  occ. eigenvalues --   -0.39339  -0.39259  -0.39233  -0.39152  -0.39012
 Alpha  occ. eigenvalues --   -0.38918  -0.38892  -0.38821  -0.38719  -0.38685
 Alpha  occ. eigenvalues --   -0.38323  -0.38297  -0.38259  -0.37838  -0.37184
 Alpha  occ. eigenvalues --   -0.37176  -0.34515  -0.34490  -0.33542  -0.30072
 Alpha  occ. eigenvalues --   -0.25469
 Alpha virt. eigenvalues --   -0.11686  -0.06234  -0.06207  -0.04773  -0.04718
 Alpha virt. eigenvalues --   -0.04614  -0.01458  -0.01366  -0.01321  -0.01090
 Alpha virt. eigenvalues --   -0.00918  -0.00893  -0.00829  -0.00141  -0.00049
 Alpha virt. eigenvalues --   -0.00027   0.00720   0.00726   0.00776   0.00944
 Alpha virt. eigenvalues --    0.01035   0.01410   0.01836   0.01891   0.01924
 Alpha virt. eigenvalues --    0.02486   0.02749   0.02799   0.02855   0.03524
 Alpha virt. eigenvalues --    0.03627   0.03732   0.03902   0.03968   0.04330
 Alpha virt. eigenvalues --    0.04348   0.04396   0.04419   0.04635   0.05056
 Alpha virt. eigenvalues --    0.05117   0.06080   0.06452   0.08091   0.08302
 Alpha virt. eigenvalues --    0.08481   0.08624   0.08857   0.08893   0.09408
 Alpha virt. eigenvalues --    0.09785   0.09868   0.09885   0.09924   0.10014
 Alpha virt. eigenvalues --    0.10079   0.10182   0.10375   0.10864   0.10976
 Alpha virt. eigenvalues --    0.11548   0.11652   0.11959   0.12205   0.12265
 Alpha virt. eigenvalues --    0.12414   0.12453   0.12499   0.12858   0.13324
 Alpha virt. eigenvalues --    0.13438   0.13655   0.14047   0.14299   0.14816
 Alpha virt. eigenvalues --    0.14984   0.15016   0.15235   0.15402   0.15858
 Alpha virt. eigenvalues --    0.16142   0.16801   0.17118   0.17785   0.17883
 Alpha virt. eigenvalues --    0.18304   0.18469   0.18592   0.18798   0.18955
 Alpha virt. eigenvalues --    0.19294   0.19388   0.19510   0.19585   0.19633
 Alpha virt. eigenvalues --    0.19701   0.19960   0.20082   0.20709   0.20935
 Alpha virt. eigenvalues --    0.21174   0.21333   0.21402   0.21571   0.21622
 Alpha virt. eigenvalues --    0.21702   0.21951   0.21982   0.22161   0.22308
 Alpha virt. eigenvalues --    0.22418   0.22832   0.23199   0.23285   0.23354
 Alpha virt. eigenvalues --    0.23443   0.23645   0.23828   0.24101   0.24337
 Alpha virt. eigenvalues --    0.24526   0.24706   0.24777   0.25082   0.25234
 Alpha virt. eigenvalues --    0.25515   0.25557   0.25688   0.26353   0.26819
 Alpha virt. eigenvalues --    0.26896   0.27223   0.27384   0.27694   0.27954
 Alpha virt. eigenvalues --    0.28029   0.28435   0.28744   0.28785   0.29137
 Alpha virt. eigenvalues --    0.29292   0.29316   0.29445   0.29592   0.29761
 Alpha virt. eigenvalues --    0.30204   0.30608   0.31028   0.31293   0.31628
 Alpha virt. eigenvalues --    0.31765   0.32383   0.32592   0.32772   0.33321
 Alpha virt. eigenvalues --    0.33735   0.34429   0.35600   0.36934   0.37127
 Alpha virt. eigenvalues --    0.38224   0.38717   0.39003   0.39308   0.39619
 Alpha virt. eigenvalues --    0.40406   0.41388   0.41770   0.41906   0.42004
 Alpha virt. eigenvalues --    0.42244   0.42505   0.42640   0.43345   0.43957
 Alpha virt. eigenvalues --    0.44291   0.44484   0.44926   0.45313   0.45524
 Alpha virt. eigenvalues --    0.45603   0.45774   0.46016   0.46477   0.46693
 Alpha virt. eigenvalues --    0.46973   0.47169   0.47706   0.47888   0.48236
 Alpha virt. eigenvalues --    0.48378   0.48491   0.48720   0.49039   0.49085
 Alpha virt. eigenvalues --    0.49386   0.49804   0.49954   0.49982   0.50038
 Alpha virt. eigenvalues --    0.50159   0.50409   0.50629   0.50640   0.50891
 Alpha virt. eigenvalues --    0.51284   0.51415   0.51754   0.51829   0.52124
 Alpha virt. eigenvalues --    0.52518   0.52876   0.52969   0.53091   0.53444
 Alpha virt. eigenvalues --    0.53781   0.54052   0.54404   0.54442   0.54663
 Alpha virt. eigenvalues --    0.54786   0.55558   0.56026   0.56053   0.56388
 Alpha virt. eigenvalues --    0.56647   0.57017   0.57150   0.57330   0.57801
 Alpha virt. eigenvalues --    0.58621   0.58800   0.59052   0.59458   0.59766
 Alpha virt. eigenvalues --    0.60172   0.60573   0.60975   0.61317   0.61752
 Alpha virt. eigenvalues --    0.62003   0.62897   0.63646   0.64055   0.64753
 Alpha virt. eigenvalues --    0.65049   0.66385   0.66619   0.66656   0.66904
 Alpha virt. eigenvalues --    0.68183   0.68322   0.68661   0.68917   0.69445
 Alpha virt. eigenvalues --    0.69709   0.70230   0.70986   0.71424   0.71790
 Alpha virt. eigenvalues --    0.72223   0.72583   0.72866   0.72937   0.73203
 Alpha virt. eigenvalues --    0.73256   0.73493   0.73565   0.73800   0.73948
 Alpha virt. eigenvalues --    0.74286   0.74349   0.75207   0.75637   0.75874
 Alpha virt. eigenvalues --    0.76229   0.77013   0.77260   0.78020   0.78521
 Alpha virt. eigenvalues --    0.79058   0.79752   0.80018   0.80379   0.80716
 Alpha virt. eigenvalues --    0.81012   0.81137   0.82056   0.82270   0.82596
 Alpha virt. eigenvalues --    0.83034   0.83489   0.84044   0.84283   0.84468
 Alpha virt. eigenvalues --    0.84717   0.85267   0.85658   0.86558   0.87373
 Alpha virt. eigenvalues --    0.88017   0.88714   0.89319   0.89838   0.90160
 Alpha virt. eigenvalues --    0.90447   0.90688   0.91169   0.91704   0.91902
 Alpha virt. eigenvalues --    0.91967   0.92423   0.92802   0.92854   0.93103
 Alpha virt. eigenvalues --    0.93184   0.93344   0.93493   0.93910   0.94216
 Alpha virt. eigenvalues --    0.94980   0.95318   0.95825   0.96618   0.97015
 Alpha virt. eigenvalues --    0.97172   0.97263   0.97759   0.98167   0.99024
 Alpha virt. eigenvalues --    0.99315   0.99536   0.99705   1.00075   1.00401
 Alpha virt. eigenvalues --    1.00463   1.00684   1.00741   1.01041   1.01158
 Alpha virt. eigenvalues --    1.01207   1.01360   1.01854   1.02293   1.02692
 Alpha virt. eigenvalues --    1.02786   1.03140   1.03400   1.03706   1.03905
 Alpha virt. eigenvalues --    1.04308   1.04362   1.04743   1.04877   1.05093
 Alpha virt. eigenvalues --    1.05248   1.05472   1.05609   1.06136   1.06641
 Alpha virt. eigenvalues --    1.07096   1.07121   1.07376   1.07482   1.07578
 Alpha virt. eigenvalues --    1.07816   1.08123   1.08317   1.08569   1.08853
 Alpha virt. eigenvalues --    1.09033   1.09256   1.09461   1.10239   1.10967
 Alpha virt. eigenvalues --    1.11252   1.11448   1.11946   1.12201   1.12389
 Alpha virt. eigenvalues --    1.12439   1.12902   1.13065   1.13267   1.13385
 Alpha virt. eigenvalues --    1.13449   1.13741   1.13896   1.14242   1.14393
 Alpha virt. eigenvalues --    1.14765   1.15154   1.15278   1.15580   1.16287
 Alpha virt. eigenvalues --    1.16838   1.17496   1.17911   1.18271   1.18578
 Alpha virt. eigenvalues --    1.18840   1.19759   1.19870   1.20100   1.20487
 Alpha virt. eigenvalues --    1.20937   1.21733   1.22744   1.22868   1.22905
 Alpha virt. eigenvalues --    1.23253   1.23484   1.23774   1.23829   1.24739
 Alpha virt. eigenvalues --    1.25285   1.25709   1.27073   1.27620   1.27966
 Alpha virt. eigenvalues --    1.28327   1.29048   1.29540   1.30137   1.30336
 Alpha virt. eigenvalues --    1.30710   1.30833   1.31008   1.31118   1.31635
 Alpha virt. eigenvalues --    1.31847   1.31921   1.32226   1.32340   1.32523
 Alpha virt. eigenvalues --    1.32697   1.32843   1.33065   1.33344   1.34190
 Alpha virt. eigenvalues --    1.34894   1.35056   1.35113   1.35493   1.35748
 Alpha virt. eigenvalues --    1.35786   1.36071   1.36381   1.36606   1.36818
 Alpha virt. eigenvalues --    1.36918   1.37427   1.37938   1.37997   1.38176
 Alpha virt. eigenvalues --    1.38330   1.38665   1.38830   1.38938   1.39191
 Alpha virt. eigenvalues --    1.39244   1.39510   1.39628   1.39691   1.39977
 Alpha virt. eigenvalues --    1.40108   1.40298   1.40695   1.40940   1.41112
 Alpha virt. eigenvalues --    1.41148   1.41206   1.41572   1.41708   1.41880
 Alpha virt. eigenvalues --    1.42192   1.42477   1.42581   1.42724   1.43077
 Alpha virt. eigenvalues --    1.43170   1.43412   1.43682   1.43762   1.44332
 Alpha virt. eigenvalues --    1.44610   1.44916   1.45048   1.45397   1.45549
 Alpha virt. eigenvalues --    1.45640   1.45964   1.46422   1.46689   1.47539
 Alpha virt. eigenvalues --    1.48029   1.48141   1.49665   1.49804   1.49924
 Alpha virt. eigenvalues --    1.50386   1.50916   1.51804   1.52309   1.52495
 Alpha virt. eigenvalues --    1.52692   1.53155   1.53545   1.53844   1.55415
 Alpha virt. eigenvalues --    1.55534   1.57462   1.58095   1.58155   1.58333
 Alpha virt. eigenvalues --    1.58588   1.58971   1.59123   1.59545   1.60155
 Alpha virt. eigenvalues --    1.60681   1.60964   1.61461   1.61641   1.62018
 Alpha virt. eigenvalues --    1.62266   1.62569   1.62918   1.63445   1.64058
 Alpha virt. eigenvalues --    1.64637   1.64810   1.65039   1.65540   1.65852
 Alpha virt. eigenvalues --    1.66082   1.66856   1.68087   1.68468   1.69795
 Alpha virt. eigenvalues --    1.70383   1.70686   1.71027   1.72653   1.73111
 Alpha virt. eigenvalues --    1.73327   1.73484   1.74172   1.74461   1.74997
 Alpha virt. eigenvalues --    1.75859   1.76375   1.77598   1.77837   1.78041
 Alpha virt. eigenvalues --    1.78491   1.78737   1.79058   1.79423   1.79688
 Alpha virt. eigenvalues --    1.79959   1.81023   1.81092   1.81499   1.81649
 Alpha virt. eigenvalues --    1.82372   1.82824   1.83776   1.83975   1.84151
 Alpha virt. eigenvalues --    1.84558   1.85058   1.85183   1.85628   1.86062
 Alpha virt. eigenvalues --    1.86278   1.86579   1.86816   1.87414   1.87808
 Alpha virt. eigenvalues --    1.88450   1.88594   1.89121   1.89189   1.89452
 Alpha virt. eigenvalues --    1.89984   1.90494   1.91460   1.92157   1.92676
 Alpha virt. eigenvalues --    1.92998   1.93326   1.93762   1.93850   1.95055
 Alpha virt. eigenvalues --    1.96234   1.96909   1.97663   1.97840   1.98517
 Alpha virt. eigenvalues --    1.98888   2.01912   2.02000   2.02086   2.03771
 Alpha virt. eigenvalues --    2.05309   2.05800   2.07258   2.08415   2.08898
 Alpha virt. eigenvalues --    2.10721   2.11030   2.11547   2.12536   2.13178
 Alpha virt. eigenvalues --    2.14066   2.14873   2.14961   2.15774   2.17798
 Alpha virt. eigenvalues --    2.18541   2.18835   2.19256   2.19908   2.20502
 Alpha virt. eigenvalues --    2.20757   2.21076   2.21756   2.24809   2.26280
 Alpha virt. eigenvalues --    2.26529   2.26962   2.27694   2.28819   2.29911
 Alpha virt. eigenvalues --    2.30066   2.30745   2.31739   2.32240   2.32770
 Alpha virt. eigenvalues --    2.33374   2.33792   2.33812   2.34491   2.34690
 Alpha virt. eigenvalues --    2.34937   2.38979   2.39828   2.42155   2.42863
 Alpha virt. eigenvalues --    2.43309   2.48178   2.49507   2.54938   2.65630
 Alpha virt. eigenvalues --    2.67041   2.67086   2.67131   2.67237   2.67946
 Alpha virt. eigenvalues --    2.68435   2.69139   2.69213   2.69286   2.69549
 Alpha virt. eigenvalues --    2.69622   2.69732   2.69812   2.69885   2.70068
 Alpha virt. eigenvalues --    2.70111   2.70171   2.70632   2.70685   2.70747
 Alpha virt. eigenvalues --    2.70802   2.70859   2.71157   2.71442   2.71612
 Alpha virt. eigenvalues --    2.71704   2.72034   2.72764   2.72826   2.72980
 Alpha virt. eigenvalues --    2.73226   2.73270   2.73495   2.73620   2.73783
 Alpha virt. eigenvalues --    2.74046   2.74253   2.74306   2.74354   2.75380
 Alpha virt. eigenvalues --    2.75408   2.75539   2.75641   2.75667   2.75687
 Alpha virt. eigenvalues --    2.75832   2.75878   2.75994   2.76093   2.76188
 Alpha virt. eigenvalues --    2.76257   2.76383   2.76483   2.76909   2.77384
 Alpha virt. eigenvalues --    2.77439   2.77708   2.78068   2.78379   2.78514
 Alpha virt. eigenvalues --    2.78726   2.79111   2.79458   2.79592   2.79633
 Alpha virt. eigenvalues --    2.79783   2.79903   2.80124   2.80358   2.81139
 Alpha virt. eigenvalues --    2.82191   2.82369   2.82517   2.82707   2.82761
 Alpha virt. eigenvalues --    2.82976   2.83062   2.83498   2.83914   2.84731
 Alpha virt. eigenvalues --    2.84827   2.85143   2.85280   2.85758   2.85813
 Alpha virt. eigenvalues --    2.85924   2.86051   2.86400   2.87260   2.87496
 Alpha virt. eigenvalues --    2.87681   2.88438   2.88584   2.88658   2.88754
 Alpha virt. eigenvalues --    2.88804   2.89409   2.89450   2.89529   2.90372
 Alpha virt. eigenvalues --    2.91096   2.91262   2.92115   2.92150   2.92279
 Alpha virt. eigenvalues --    2.92721   2.92739   2.92862   2.93197   2.93245
 Alpha virt. eigenvalues --    2.93791   2.94169   2.94553   2.94609   2.94812
 Alpha virt. eigenvalues --    2.94868   2.94889   2.95248   2.95524   2.95773
 Alpha virt. eigenvalues --    2.96008   2.96157   2.96249   2.96423   2.96508
 Alpha virt. eigenvalues --    2.96709   2.96858   2.96908   2.97171   2.97398
 Alpha virt. eigenvalues --    2.97560   2.98098   2.98275   2.98315   2.99131
 Alpha virt. eigenvalues --    2.99198   2.99506   2.99552   2.99805   2.99852
 Alpha virt. eigenvalues --    3.00050   3.00332   3.00578   3.00856   3.00924
 Alpha virt. eigenvalues --    3.01534   3.01697   3.01829   3.02253   3.02404
 Alpha virt. eigenvalues --    3.02636   3.02881   3.03319   3.04147   3.07138
 Alpha virt. eigenvalues --    3.08680   3.08763   3.08894   3.08919   3.09286
 Alpha virt. eigenvalues --    3.09999   3.10354   3.10463   3.10499   3.13922
 Alpha virt. eigenvalues --    3.14086   3.14145   3.14788   3.15177   3.15244
 Alpha virt. eigenvalues --    3.16580   3.16636   3.16945   3.22319   3.27897
 Alpha virt. eigenvalues --    3.29254   3.29440   3.30318   3.42761   3.43385
 Alpha virt. eigenvalues --    3.44283   3.44752   3.45974   3.46592   3.46763
 Alpha virt. eigenvalues --    3.47685   3.47914   3.48149   3.49113   3.49213
 Alpha virt. eigenvalues --    3.49521   3.53363   3.53990   3.54574   3.55629
 Alpha virt. eigenvalues --    3.55842   3.56504   3.56823   3.57222   3.57282
 Alpha virt. eigenvalues --    3.57434   3.57525   3.57864   3.58830   3.59740
 Alpha virt. eigenvalues --    3.60128   3.61212   3.61631   3.61946   3.62641
 Alpha virt. eigenvalues --    3.62882   3.63450   3.63877   3.64210   3.64750
 Alpha virt. eigenvalues --    3.73208   3.77604  68.66729  68.67725  68.68984
 Alpha virt. eigenvalues --   68.71271  68.75091  68.76009  68.83818  68.84933
 Alpha virt. eigenvalues --   68.85441  68.88281  68.89346  68.90560 576.25179
 Alpha virt. eigenvalues --  576.26153 576.27387 576.29622 576.33457 576.34352
 Alpha virt. eigenvalues --  576.42017 576.43116 576.43602 576.46339 576.47388
 Alpha virt. eigenvalues --  576.48588
  Beta  occ. eigenvalues -- -197.10432-129.99037-129.99032-129.98993-101.62261
  Beta  occ. eigenvalues --  -22.42891 -19.28507 -19.28493 -19.28462 -19.28396
  Beta  occ. eigenvalues --  -19.28394 -19.28375 -19.28370 -19.28355 -19.28343
  Beta  occ. eigenvalues --  -19.28265 -19.28251 -19.28163 -19.26962 -19.26907
  Beta  occ. eigenvalues --  -19.26905 -19.26901 -19.26881 -19.26878 -19.26854
  Beta  occ. eigenvalues --  -19.26846 -19.26838 -19.26838 -19.26814 -19.26812
  Beta  occ. eigenvalues --  -19.26812 -19.26794 -19.26790 -19.26786 -19.26782
  Beta  occ. eigenvalues --  -19.26771 -19.26749 -19.26724 -19.26718 -19.26702
  Beta  occ. eigenvalues --  -19.26651 -19.26634 -19.24636 -19.24560 -19.24554
  Beta  occ. eigenvalues --  -19.24529 -18.93380 -18.91201 -18.91109 -13.36444
  Beta  occ. eigenvalues --  -13.36439 -13.36388 -10.69371 -10.69367 -10.69366
  Beta  occ. eigenvalues --  -10.69366 -10.69362 -10.69362 -10.69317 -10.69312
  Beta  occ. eigenvalues --  -10.69310 -10.33141 -10.32485 -10.31731 -10.30972
  Beta  occ. eigenvalues --  -10.30968 -10.30898 -10.30428 -10.30336  -9.52713
  Beta  occ. eigenvalues --   -7.28554  -7.27119  -7.27111  -3.21066  -3.21043
  Beta  occ. eigenvalues --   -3.21037  -3.21032  -3.21003  -3.20991  -3.20981
  Beta  occ. eigenvalues --   -3.20975  -3.20967  -3.20833  -3.20819  -3.20796
  Beta  occ. eigenvalues --   -2.74501  -1.85316  -1.85282  -1.85262  -1.85227
  Beta  occ. eigenvalues --   -1.85109  -1.85065  -1.85049  -1.85031  -1.85017
  Beta  occ. eigenvalues --   -1.85006  -1.84985  -1.84924  -1.84367  -1.84256
  Beta  occ. eigenvalues --   -1.84241  -1.84236  -1.84194  -1.84186  -1.84117
  Beta  occ. eigenvalues --   -1.84104  -1.84076  -1.84073  -1.84045  -1.84036
  Beta  occ. eigenvalues --   -1.83917  -1.83891  -1.83881  -1.83873  -1.83838
  Beta  occ. eigenvalues --   -1.83799  -1.83782  -1.83778  -1.83761  -1.83660
  Beta  occ. eigenvalues --   -1.83659  -1.83646  -1.80416  -1.75764  -1.75566
  Beta  occ. eigenvalues --   -1.50151  -1.50145  -1.50096  -1.08580  -1.06940
  Beta  occ. eigenvalues --   -1.06912  -1.06875  -1.06004  -1.05993  -1.05963
  Beta  occ. eigenvalues --   -1.04569  -1.04559  -1.04548  -1.03960  -1.03938
  Beta  occ. eigenvalues --   -1.03597  -1.03326  -1.03271  -1.03262  -1.03050
  Beta  occ. eigenvalues --   -1.03018  -1.02208  -1.02183  -1.02161  -1.02073
  Beta  occ. eigenvalues --   -1.02032  -1.01995  -1.01940  -1.01908  -1.01795
  Beta  occ. eigenvalues --   -1.01757  -1.01742  -1.01634  -1.01581  -1.01554
  Beta  occ. eigenvalues --   -1.01282  -1.00776  -1.00766  -1.00726  -1.00706
  Beta  occ. eigenvalues --   -0.99819  -0.99729  -0.99694  -0.96272  -0.89921
  Beta  occ. eigenvalues --   -0.85600  -0.85591  -0.85552  -0.85441  -0.85438
  Beta  occ. eigenvalues --   -0.85438  -0.85432  -0.85392  -0.85375  -0.84319
  Beta  occ. eigenvalues --   -0.84175  -0.82685  -0.72103  -0.69609  -0.65229
  Beta  occ. eigenvalues --   -0.62306  -0.61695  -0.61653  -0.61611  -0.60744
  Beta  occ. eigenvalues --   -0.58969  -0.58955  -0.58944  -0.58807  -0.58746
  Beta  occ. eigenvalues --   -0.58724  -0.58714  -0.58665  -0.58539  -0.57301
  Beta  occ. eigenvalues --   -0.57143  -0.57096  -0.56985  -0.56879  -0.56486
  Beta  occ. eigenvalues --   -0.56420  -0.56374  -0.55803  -0.55603  -0.55327
  Beta  occ. eigenvalues --   -0.55323  -0.55304  -0.54510  -0.54203  -0.54169
  Beta  occ. eigenvalues --   -0.53991  -0.53626  -0.53580  -0.53536  -0.52770
  Beta  occ. eigenvalues --   -0.52661  -0.52610  -0.52518  -0.52477  -0.51466
  Beta  occ. eigenvalues --   -0.51452  -0.51434  -0.51303  -0.51250  -0.50850
  Beta  occ. eigenvalues --   -0.50495  -0.50469  -0.50414  -0.50325  -0.50271
  Beta  occ. eigenvalues --   -0.50206  -0.50045  -0.50025  -0.49975  -0.49718
  Beta  occ. eigenvalues --   -0.49680  -0.49644  -0.49491  -0.49456  -0.49316
  Beta  occ. eigenvalues --   -0.49232  -0.49216  -0.49092  -0.49072  -0.48968
  Beta  occ. eigenvalues --   -0.48746  -0.48590  -0.48574  -0.48500  -0.47783
  Beta  occ. eigenvalues --   -0.47675  -0.47561  -0.45929  -0.45902  -0.45829
  Beta  occ. eigenvalues --   -0.45793  -0.45694  -0.45583  -0.45205  -0.45158
  Beta  occ. eigenvalues --   -0.45120  -0.45056  -0.44834  -0.44628  -0.44478
  Beta  occ. eigenvalues --   -0.44464  -0.44413  -0.44262  -0.44226  -0.44214
  Beta  occ. eigenvalues --   -0.43363  -0.43134  -0.42510  -0.42473  -0.42412
  Beta  occ. eigenvalues --   -0.42259  -0.42123  -0.42115  -0.42105  -0.41611
  Beta  occ. eigenvalues --   -0.41607  -0.41548  -0.41361  -0.41033  -0.40947
  Beta  occ. eigenvalues --   -0.40744  -0.40714  -0.40662  -0.40392  -0.40387
  Beta  occ. eigenvalues --   -0.40340  -0.40172  -0.40164  -0.40127  -0.39826
  Beta  occ. eigenvalues --   -0.39618  -0.39337  -0.39177  -0.39097  -0.39087
  Beta  occ. eigenvalues --   -0.38890  -0.38861  -0.38811  -0.38707  -0.38669
  Beta  occ. eigenvalues --   -0.38608  -0.38320  -0.38289  -0.38253  -0.37363
  Beta  occ. eigenvalues --   -0.37185  -0.37168  -0.35447  -0.35426  -0.33785
  Beta  occ. eigenvalues --   -0.30693
  Beta virt. eigenvalues --   -0.06233  -0.06207  -0.04772  -0.04717  -0.04613
  Beta virt. eigenvalues --   -0.01454  -0.01361  -0.01316  -0.01085  -0.00913
  Beta virt. eigenvalues --   -0.00890  -0.00827  -0.00141  -0.00039  -0.00020
  Beta virt. eigenvalues --    0.00726   0.00734   0.00785   0.00907   0.01044
  Beta virt. eigenvalues --    0.01550   0.01906   0.01918   0.01933   0.02497
  Beta virt. eigenvalues --    0.02777   0.02850   0.03034   0.03537   0.03727
  Beta virt. eigenvalues --    0.03816   0.04046   0.04093   0.04335   0.04354
  Beta virt. eigenvalues --    0.04416   0.04425   0.04643   0.05061   0.05128
  Beta virt. eigenvalues --    0.05727   0.06472   0.07433   0.08512   0.08578
  Beta virt. eigenvalues --    0.08623   0.08697   0.09388   0.09527   0.09675
  Beta virt. eigenvalues --    0.09869   0.09912   0.10047   0.10130   0.10140
  Beta virt. eigenvalues --    0.10216   0.10377   0.10708   0.10875   0.10983
  Beta virt. eigenvalues --    0.11468   0.11631   0.11709   0.11997   0.12219
  Beta virt. eigenvalues --    0.12395   0.12451   0.12518   0.12549   0.13341
  Beta virt. eigenvalues --    0.13452   0.13656   0.14028   0.14290   0.14882
  Beta virt. eigenvalues --    0.15031   0.15111   0.15261   0.15399   0.15861
  Beta virt. eigenvalues --    0.16120   0.16761   0.17130   0.17778   0.17869
  Beta virt. eigenvalues --    0.18292   0.18469   0.18637   0.18803   0.18966
  Beta virt. eigenvalues --    0.19340   0.19434   0.19572   0.19594   0.19663
  Beta virt. eigenvalues --    0.20033   0.20057   0.20423   0.20723   0.20938
  Beta virt. eigenvalues --    0.21173   0.21332   0.21397   0.21576   0.21634
  Beta virt. eigenvalues --    0.21709   0.21974   0.21987   0.22166   0.22332
  Beta virt. eigenvalues --    0.22402   0.22833   0.23177   0.23291   0.23348
  Beta virt. eigenvalues --    0.23434   0.23657   0.23796   0.24063   0.24295
  Beta virt. eigenvalues --    0.24505   0.24666   0.24781   0.25043   0.25232
  Beta virt. eigenvalues --    0.25504   0.25560   0.25649   0.26255   0.26821
  Beta virt. eigenvalues --    0.26895   0.27218   0.27372   0.27660   0.27953
  Beta virt. eigenvalues --    0.28022   0.28392   0.28745   0.28784   0.29108
  Beta virt. eigenvalues --    0.29314   0.29326   0.29434   0.29597   0.29761
  Beta virt. eigenvalues --    0.30211   0.30607   0.31021   0.31299   0.31627
  Beta virt. eigenvalues --    0.31768   0.32389   0.32597   0.32776   0.33346
  Beta virt. eigenvalues --    0.33704   0.34425   0.35388   0.36925   0.37104
  Beta virt. eigenvalues --    0.38202   0.38833   0.39008   0.39335   0.39617
  Beta virt. eigenvalues --    0.40333   0.41378   0.41812   0.41971   0.42093
  Beta virt. eigenvalues --    0.42250   0.42499   0.42765   0.43358   0.44041
  Beta virt. eigenvalues --    0.44309   0.44559   0.44951   0.45264   0.45527
  Beta virt. eigenvalues --    0.45663   0.45829   0.45962   0.46473   0.46543
  Beta virt. eigenvalues --    0.46971   0.47132   0.47663   0.47878   0.48214
  Beta virt. eigenvalues --    0.48349   0.48375   0.48708   0.49026   0.49080
  Beta virt. eigenvalues --    0.49375   0.49758   0.49878   0.49955   0.50041
  Beta virt. eigenvalues --    0.50155   0.50413   0.50622   0.50640   0.50843
  Beta virt. eigenvalues --    0.51278   0.51411   0.51732   0.51819   0.52113
  Beta virt. eigenvalues --    0.52519   0.52827   0.52929   0.53085   0.53407
  Beta virt. eigenvalues --    0.53755   0.54025   0.54376   0.54440   0.54662
  Beta virt. eigenvalues --    0.54776   0.55515   0.56060   0.56101   0.56403
  Beta virt. eigenvalues --    0.56621   0.57023   0.57140   0.57268   0.57783
  Beta virt. eigenvalues --    0.58500   0.58811   0.59034   0.59458   0.59586
  Beta virt. eigenvalues --    0.60091   0.60644   0.60805   0.61253   0.61743
  Beta virt. eigenvalues --    0.62005   0.62825   0.63539   0.64228   0.64704
  Beta virt. eigenvalues --    0.65058   0.66267   0.66604   0.66649   0.66758
  Beta virt. eigenvalues --    0.68007   0.68152   0.68354   0.68845   0.69019
  Beta virt. eigenvalues --    0.69818   0.70387   0.70643   0.71389   0.71831
  Beta virt. eigenvalues --    0.72139   0.72571   0.72781   0.72886   0.73185
  Beta virt. eigenvalues --    0.73261   0.73469   0.73549   0.73702   0.73838
  Beta virt. eigenvalues --    0.74178   0.74262   0.74917   0.75558   0.75644
  Beta virt. eigenvalues --    0.76221   0.77008   0.77314   0.77893   0.78403
  Beta virt. eigenvalues --    0.79093   0.79695   0.80085   0.80633   0.80948
  Beta virt. eigenvalues --    0.81118   0.81287   0.82039   0.82296   0.82556
  Beta virt. eigenvalues --    0.83034   0.83439   0.84017   0.84292   0.84347
  Beta virt. eigenvalues --    0.84730   0.85266   0.85657   0.86567   0.87344
  Beta virt. eigenvalues --    0.87787   0.88485   0.88837   0.89634   0.89945
  Beta virt. eigenvalues --    0.90090   0.90404   0.90537   0.90801   0.91354
  Beta virt. eigenvalues --    0.91453   0.91934   0.92036   0.92313   0.92378
  Beta virt. eigenvalues --    0.92679   0.92762   0.93292   0.93496   0.93777
  Beta virt. eigenvalues --    0.94955   0.95229   0.95698   0.95842   0.96837
  Beta virt. eigenvalues --    0.97263   0.97365   0.97910   0.98218   0.98869
  Beta virt. eigenvalues --    0.99329   0.99514   0.99726   0.99892   1.00103
  Beta virt. eigenvalues --    1.00428   1.00659   1.00736   1.01050   1.01215
  Beta virt. eigenvalues --    1.01218   1.01377   1.01905   1.02296   1.02618
  Beta virt. eigenvalues --    1.02775   1.02813   1.03407   1.03708   1.03875
  Beta virt. eigenvalues --    1.04092   1.04334   1.04744   1.04889   1.05068
  Beta virt. eigenvalues --    1.05263   1.05513   1.05664   1.06151   1.06681
  Beta virt. eigenvalues --    1.07124   1.07183   1.07427   1.07542   1.07687
  Beta virt. eigenvalues --    1.07850   1.08148   1.08498   1.08841   1.08900
  Beta virt. eigenvalues --    1.09061   1.09337   1.09548   1.10250   1.10972
  Beta virt. eigenvalues --    1.11258   1.11455   1.11953   1.12207   1.12389
  Beta virt. eigenvalues --    1.12449   1.12899   1.13079   1.13273   1.13368
  Beta virt. eigenvalues --    1.13457   1.13761   1.13896   1.14282   1.14554
  Beta virt. eigenvalues --    1.14737   1.15123   1.15240   1.15563   1.16188
  Beta virt. eigenvalues --    1.16653   1.17476   1.17819   1.18024   1.18599
  Beta virt. eigenvalues --    1.18925   1.19720   1.19946   1.20024   1.20448
  Beta virt. eigenvalues --    1.20609   1.21301   1.22703   1.22848   1.22905
  Beta virt. eigenvalues --    1.23256   1.23429   1.23738   1.23807   1.24658
  Beta virt. eigenvalues --    1.25148   1.25543   1.27075   1.27605   1.27896
  Beta virt. eigenvalues --    1.28326   1.29062   1.29431   1.30135   1.30334
  Beta virt. eigenvalues --    1.30666   1.30838   1.31045   1.31074   1.31639
  Beta virt. eigenvalues --    1.31858   1.31915   1.32160   1.32331   1.32546
  Beta virt. eigenvalues --    1.32722   1.32811   1.33062   1.33344   1.34039
  Beta virt. eigenvalues --    1.34879   1.34907   1.35079   1.35509   1.35739
  Beta virt. eigenvalues --    1.35786   1.36024   1.36384   1.36599   1.36780
  Beta virt. eigenvalues --    1.36922   1.37299   1.37933   1.38027   1.38180
  Beta virt. eigenvalues --    1.38346   1.38681   1.38815   1.38939   1.39143
  Beta virt. eigenvalues --    1.39250   1.39504   1.39632   1.39731   1.39909
  Beta virt. eigenvalues --    1.40094   1.40301   1.40706   1.40921   1.41141
  Beta virt. eigenvalues --    1.41164   1.41219   1.41561   1.41710   1.41877
  Beta virt. eigenvalues --    1.42200   1.42484   1.42583   1.42728   1.43057
  Beta virt. eigenvalues --    1.43181   1.43408   1.43693   1.43784   1.44343
  Beta virt. eigenvalues --    1.44615   1.44879   1.44997   1.45411   1.45555
  Beta virt. eigenvalues --    1.45624   1.45948   1.46382   1.46751   1.47552
  Beta virt. eigenvalues --    1.47986   1.48147   1.49672   1.49810   1.49934
  Beta virt. eigenvalues --    1.50390   1.50923   1.51823   1.52313   1.52508
  Beta virt. eigenvalues --    1.52692   1.53171   1.53559   1.53863   1.55431
  Beta virt. eigenvalues --    1.55542   1.57466   1.58112   1.58180   1.58355
  Beta virt. eigenvalues --    1.58618   1.58986   1.59142   1.59583   1.60168
  Beta virt. eigenvalues --    1.60703   1.60985   1.61467   1.61651   1.62027
  Beta virt. eigenvalues --    1.62273   1.62558   1.62930   1.63444   1.64127
  Beta virt. eigenvalues --    1.64750   1.64941   1.65181   1.65649   1.65902
  Beta virt. eigenvalues --    1.66161   1.66944   1.68254   1.68531   1.69853
  Beta virt. eigenvalues --    1.70410   1.70716   1.71021   1.72480   1.73111
  Beta virt. eigenvalues --    1.73309   1.73496   1.74198   1.74480   1.74975
  Beta virt. eigenvalues --    1.75809   1.76316   1.77550   1.77835   1.77992
  Beta virt. eigenvalues --    1.78439   1.78618   1.79049   1.79420   1.79634
  Beta virt. eigenvalues --    1.79939   1.81025   1.81105   1.81500   1.81603
  Beta virt. eigenvalues --    1.82377   1.82743   1.83757   1.84011   1.84103
  Beta virt. eigenvalues --    1.84562   1.85045   1.85132   1.85633   1.86073
  Beta virt. eigenvalues --    1.86255   1.86623   1.86823   1.87419   1.87816
  Beta virt. eigenvalues --    1.88415   1.88581   1.88993   1.89112   1.89397
  Beta virt. eigenvalues --    1.90000   1.90504   1.91439   1.92066   1.92670
  Beta virt. eigenvalues --    1.93041   1.93309   1.93746   1.93867   1.95062
  Beta virt. eigenvalues --    1.96279   1.96791   1.97701   1.97870   1.98585
  Beta virt. eigenvalues --    1.98915   2.01992   2.02056   2.02199   2.03515
  Beta virt. eigenvalues --    2.05154   2.05612   2.07185   2.08346   2.08570
  Beta virt. eigenvalues --    2.10730   2.11026   2.11535   2.11938   2.13141
  Beta virt. eigenvalues --    2.14078   2.14894   2.14973   2.15820   2.17823
  Beta virt. eigenvalues --    2.18359   2.18853   2.19259   2.19679   2.20464
  Beta virt. eigenvalues --    2.20925   2.21183   2.21886   2.24751   2.26575
  Beta virt. eigenvalues --    2.26707   2.27422   2.27784   2.29525   2.30095
  Beta virt. eigenvalues --    2.30391   2.31043   2.31497   2.32716   2.33252
  Beta virt. eigenvalues --    2.33636   2.34321   2.34362   2.34838   2.35750
  Beta virt. eigenvalues --    2.36328   2.38714   2.39681   2.42058   2.42746
  Beta virt. eigenvalues --    2.43373   2.47618   2.49228   2.54293   2.65361
  Beta virt. eigenvalues --    2.66748   2.67077   2.67103   2.67195   2.67942
  Beta virt. eigenvalues --    2.68341   2.69138   2.69211   2.69279   2.69549
  Beta virt. eigenvalues --    2.69623   2.69734   2.69816   2.69886   2.70079
  Beta virt. eigenvalues --    2.70130   2.70182   2.70615   2.70709   2.70762
  Beta virt. eigenvalues --    2.70822   2.70874   2.71091   2.71393   2.71602
  Beta virt. eigenvalues --    2.71707   2.72033   2.72766   2.72830   2.72986
  Beta virt. eigenvalues --    2.73250   2.73291   2.73496   2.73620   2.73776
  Beta virt. eigenvalues --    2.73820   2.74260   2.74308   2.74352   2.75390
  Beta virt. eigenvalues --    2.75413   2.75546   2.75650   2.75672   2.75693
  Beta virt. eigenvalues --    2.75843   2.75887   2.75997   2.76102   2.76194
  Beta virt. eigenvalues --    2.76262   2.76388   2.76489   2.76908   2.77402
  Beta virt. eigenvalues --    2.77459   2.77742   2.78091   2.78403   2.78524
  Beta virt. eigenvalues --    2.78746   2.79113   2.79490   2.79612   2.79647
  Beta virt. eigenvalues --    2.79810   2.79892   2.80039   2.80334   2.81141
  Beta virt. eigenvalues --    2.82256   2.82388   2.82566   2.82720   2.82771
  Beta virt. eigenvalues --    2.82983   2.83100   2.83492   2.83903   2.84748
  Beta virt. eigenvalues --    2.84841   2.85165   2.85301   2.85618   2.85768
  Beta virt. eigenvalues --    2.85921   2.86045   2.86407   2.87285   2.87523
  Beta virt. eigenvalues --    2.87710   2.88443   2.88586   2.88662   2.88757
  Beta virt. eigenvalues --    2.88807   2.89430   2.89478   2.89535   2.90374
  Beta virt. eigenvalues --    2.91111   2.91281   2.92126   2.92158   2.92286
  Beta virt. eigenvalues --    2.92733   2.92748   2.92872   2.93228   2.93280
  Beta virt. eigenvalues --    2.93816   2.94164   2.94559   2.94592   2.94748
  Beta virt. eigenvalues --    2.94876   2.94909   2.95205   2.95516   2.95780
  Beta virt. eigenvalues --    2.96017   2.96189   2.96268   2.96427   2.96518
  Beta virt. eigenvalues --    2.96694   2.96849   2.96873   2.97180   2.97407
  Beta virt. eigenvalues --    2.97564   2.98110   2.98280   2.98333   2.99153
  Beta virt. eigenvalues --    2.99202   2.99339   2.99560   2.99776   2.99885
  Beta virt. eigenvalues --    3.00079   3.00346   3.00656   3.00906   3.00974
  Beta virt. eigenvalues --    3.01550   3.01705   3.01842   3.02271   3.02439
  Beta virt. eigenvalues --    3.02648   3.02899   3.03335   3.04157   3.07142
  Beta virt. eigenvalues --    3.08704   3.08748   3.08844   3.09100   3.09299
  Beta virt. eigenvalues --    3.10117   3.10698   3.10803   3.11378   3.13933
  Beta virt. eigenvalues --    3.14094   3.14154   3.14793   3.15078   3.15241
  Beta virt. eigenvalues --    3.16593   3.16653   3.17025   3.22253   3.28402
  Beta virt. eigenvalues --    3.30166   3.30439   3.30601   3.42765   3.43391
  Beta virt. eigenvalues --    3.44286   3.44755   3.45779   3.46592   3.46771
  Beta virt. eigenvalues --    3.47690   3.47915   3.48152   3.49115   3.49215
  Beta virt. eigenvalues --    3.49524   3.53369   3.54009   3.54592   3.55633
  Beta virt. eigenvalues --    3.55852   3.56517   3.56832   3.57236   3.57317
  Beta virt. eigenvalues --    3.57447   3.57550   3.57888   3.58841   3.59743
  Beta virt. eigenvalues --    3.60132   3.61230   3.61637   3.61953   3.62644
  Beta virt. eigenvalues --    3.62885   3.63455   3.63878   3.64213   3.64756
  Beta virt. eigenvalues --    3.73145   3.77833  68.66731  68.67727  68.68986
  Beta virt. eigenvalues --   68.71273  68.75092  68.76011  68.83820  68.84934
  Beta virt. eigenvalues --   68.85443  68.88283  68.89347  68.90561 576.25210
  Beta virt. eigenvalues --  576.26178 576.27413 576.29648 576.33475 576.34392
  Beta virt. eigenvalues --  576.42049 576.43135 576.43636 576.46373 576.47408
  Beta virt. eigenvalues --  576.48620
          Condensed to atoms (all electrons):
          Atomic-Atomic Spin Densities.
 Mulliken charges and spin densities:
               1          2
     1  Cl  -0.360880  -0.607218
     2  C   -0.038423  -0.083011
     3  C    0.014684   0.050127
     4  C   -0.035845  -0.080160
     5  C   -0.031816   0.051449
     6  C    0.006090  -0.099485
     7  C   -0.049116   0.050458
     8  H    0.046823   0.003528
     9  H    0.048795   0.003441
    10  H    0.054172  -0.001827
    11  H    0.055772   0.004367
    12  H    0.053256  -0.001764
    13  C    0.000985  -0.217056
    14  C   -0.018501  -0.086473
    15  H    0.073421   0.009326
    16  H    0.095271   0.004506
    17  H    0.093753   0.003890
    18  O   -0.672103  -0.000564
    19  O   -0.669665  -0.000491
    20  O   -0.666607  -0.001931
    21  O   -0.671663  -0.000530
    22  W    1.717944   0.000346
    23  W    1.658642   0.000523
    24  W    1.671582   0.000201
    25  W    1.679600   0.000186
    26  W    1.660692   0.002789
    27  W    1.707436   0.002506
    28  W    1.611985   0.003345
    29  W    1.669638   0.002936
    30  O   -0.350359  -0.000539
    31  O   -0.395052  -0.000581
    32  O   -0.394322  -0.000615
    33  O   -0.393115  -0.000570
    34  O   -0.672380  -0.000292
    35  O   -0.677640  -0.000016
    36  O   -0.669842  -0.000113
    37  O   -0.671828  -0.000204
    38  O   -0.395387   0.002101
    39  O   -0.396073   0.002123
    40  O   -0.338588  -0.001292
    41  O   -0.395997   0.002125
    42  O   -0.677501   0.000067
    43  O   -0.670820   0.000179
    44  O   -0.667336   0.000313
    45  O   -0.673544   0.000108
    46  O   -0.395736   0.002286
    47  O   -0.352116   0.002171
    48  O   -0.387459   0.001735
    49  O   -0.395427   0.002355
    50  W    1.657124   0.002879
    51  W    1.661198   0.002763
    52  W    1.669772   0.003870
    53  W    1.668182   0.002724
    54  O   -0.721049   0.000124
    55  O   -0.703737   0.000020
    56  O   -0.721652   0.000197
    57  O   -0.719172   0.000081
    58  O   -0.701659  -0.000026
    59  O   -0.722997   0.000171
    60  O   -0.721565   0.000223
    61  O   -0.718169   0.000223
    62  O   -0.721238  -0.000172
    63  O   -0.704776  -0.000002
    64  O   -0.720871  -0.000190
    65  O   -0.723590  -0.000202
    66  O   -0.881935   0.005392
    67  O   -0.882271   0.007681
    68  O   -0.880305   0.007479
    69  O   -0.888481   0.006992
    70  K    0.849342   0.000208
    71  K    0.848811   0.000231
    72  K    0.844316   0.000259
    73  V    1.199321   0.934320
 Sum of Mulliken charges =  -1.00000   0.00000
 Mulliken charges and spin densities with hydrogens summed into heavy atoms:
               1          2
     1  Cl  -0.360880  -0.607218
     2  C    0.008400  -0.079483
     3  C    0.014684   0.050127
     4  C    0.012949  -0.076718
     5  C    0.022356   0.049622
     6  C    0.061862  -0.095117
     7  C    0.004141   0.048694
    13  C    0.074406  -0.207730
    14  C    0.170523  -0.078076
    18  O   -0.672103  -0.000564
    19  O   -0.669665  -0.000491
    20  O   -0.666607  -0.001931
    21  O   -0.671663  -0.000530
    22  W    1.717944   0.000346
    23  W    1.658642   0.000523
    24  W    1.671582   0.000201
    25  W    1.679600   0.000186
    26  W    1.660692   0.002789
    27  W    1.707436   0.002506
    28  W    1.611985   0.003345
    29  W    1.669638   0.002936
    30  O   -0.350359  -0.000539
    31  O   -0.395052  -0.000581
    32  O   -0.394322  -0.000615
    33  O   -0.393115  -0.000570
    34  O   -0.672380  -0.000292
    35  O   -0.677640  -0.000016
    36  O   -0.669842  -0.000113
    37  O   -0.671828  -0.000204
    38  O   -0.395387   0.002101
    39  O   -0.396073   0.002123
    40  O   -0.338588  -0.001292
    41  O   -0.395997   0.002125
    42  O   -0.677501   0.000067
    43  O   -0.670820   0.000179
    44  O   -0.667336   0.000313
    45  O   -0.673544   0.000108
    46  O   -0.395736   0.002286
    47  O   -0.352116   0.002171
    48  O   -0.387459   0.001735
    49  O   -0.395427   0.002355
    50  W    1.657124   0.002879
    51  W    1.661198   0.002763
    52  W    1.669772   0.003870
    53  W    1.668182   0.002724
    54  O   -0.721049   0.000124
    55  O   -0.703737   0.000020
    56  O   -0.721652   0.000197
    57  O   -0.719172   0.000081
    58  O   -0.701659  -0.000026
    59  O   -0.722997   0.000171
    60  O   -0.721565   0.000223
    61  O   -0.718169   0.000223
    62  O   -0.721238  -0.000172
    63  O   -0.704776  -0.000002
    64  O   -0.720871  -0.000190
    65  O   -0.723590  -0.000202
    66  O   -0.881935   0.005392
    67  O   -0.882271   0.007681
    68  O   -0.880305   0.007479
    69  O   -0.888481   0.006992
    70  K    0.849342   0.000208
    71  K    0.848811   0.000231
    72  K    0.844316   0.000259
    73  V    1.199321   0.934320
 Electronic spatial extent (au):  <R**2>=         316755.8791
 Charge=             -1.0000 electrons
 Dipole moment (field-independent basis, Debye):
    X=             29.4309    Y=            -13.6175    Z=            -30.8982  Tot=             44.7919
 Quadrupole moment (field-independent basis, Debye-Ang):
   XX=           -782.8862   YY=           -700.0526   ZZ=           -786.2764
   XY=            131.4530   XZ=            189.6304   YZ=            -92.8249
 Traceless Quadrupole moment (field-independent basis, Debye-Ang):
   XX=            -26.4811   YY=             56.3525   ZZ=            -29.8714
   XY=            131.4530   XZ=            189.6304   YZ=            -92.8249
 Octapole moment (field-independent basis, Debye-Ang**2):
  XXX=          10493.5910  YYY=            927.9555  ZZZ=         -17504.0747  XYY=           4086.4943
  XXY=           -691.7017  XXZ=          -6283.3295  XZZ=           4223.1762  YZZ=           -126.4253
  YYZ=          -6972.4779  XYZ=           1439.2526
 Hexadecapole moment (field-independent basis, Debye-Ang**3):
 XXXX=        -128759.3000 YYYY=         -38832.4163 ZZZZ=        -327097.7415 XXXY=           8802.5646
 XXXZ=          89615.3215 YYYX=           2425.7984 YYYZ=           8043.5651 ZZZX=          92263.5750
 ZZZY=           7886.6921 XXYY=         -35812.7227 XXZZ=         -72526.8519 YYZZ=         -77295.4514
 XXYZ=         -11188.0602 YYXZ=          40175.3774 ZZXY=          14737.2434
 N-N= 2.101956494226D+04 E-N=-5.914882439048D+04  KE= 6.765752983974D+03
                          Isotropic Fermi Contact Couplings
        Atom                 a.u.       MegaHertz       Gauss      10(-4) cm-1
     1  Cl(35)            -0.09895     -21.69214      -7.74030      -7.23572
     2  C(13)             -0.01292      -7.26362      -2.59184      -2.42288
     3  C(13)              0.01644       9.23980       3.29699       3.08207
     4  C(13)             -0.01257      -7.06507      -2.52099      -2.35665
     5  C(13)              0.01155       6.49339       2.31700       2.16596
     6  C(13)             -0.01611      -9.05520      -3.23112      -3.02049
     7  C(13)              0.01137       6.39141       2.28061       2.13194
     8  H(1)               0.00113       2.53292       0.90381       0.84489
     9  H(1)               0.00111       2.49120       0.88892       0.83098
    10  H(1)              -0.00054      -1.20006      -0.42821      -0.40030
    11  H(1)               0.00132       2.95780       1.05541       0.98661
    12  H(1)              -0.00052      -1.15918      -0.41363      -0.38666
    13  C(13)             -0.02973     -16.70861      -5.96205      -5.57339
    14  C(13)             -0.02619     -14.72388      -5.25385      -4.91136
    15  H(1)               0.00297       6.64331       2.37050       2.21597
    16  H(1)               0.00164       3.66861       1.30905       1.22372
    17  H(1)               0.00138       3.09485       1.10432       1.03233
    18  O(17)             -0.00045       0.13685       0.04883       0.04565
    19  O(17)             -0.00040       0.12028       0.04292       0.04012
    20  O(17)             -0.00159       0.48295       0.17233       0.16110
    21  O(17)             -0.00043       0.13109       0.04678       0.04373
    22  W(183)             0.00000       0.00000       0.00000       0.00000
    23  W(183)             0.00000       0.00000       0.00000       0.00000
    24  W(183)             0.00000       0.00000       0.00000       0.00000
    25  W(183)             0.00000       0.00000       0.00000       0.00000
    26  W(183)             0.00000       0.00000       0.00000       0.00000
    27  W(183)             0.00000       0.00000       0.00000       0.00000
    28  W(183)             0.00000       0.00000       0.00000       0.00000
    29  W(183)             0.00000       0.00000       0.00000       0.00000
    30  O(17)             -0.00020       0.06198       0.02212       0.02068
    31  O(17)             -0.00025       0.07522       0.02684       0.02509
    32  O(17)             -0.00026       0.07982       0.02848       0.02663
    33  O(17)             -0.00024       0.07163       0.02556       0.02389
    34  O(17)             -0.00004       0.01136       0.00405       0.00379
    35  O(17)              0.00017      -0.05122      -0.01828      -0.01708
    36  O(17)              0.00016      -0.04786      -0.01708      -0.01596
    37  O(17)              0.00006      -0.01957      -0.00698      -0.00653
    38  O(17)              0.00197      -0.59592      -0.21264      -0.19878
    39  O(17)              0.00193      -0.58556      -0.20894      -0.19532
    40  O(17)             -0.01337       4.05092       1.44547       1.35124
    41  O(17)              0.00193      -0.58590      -0.20906      -0.19544
    42  O(17)              0.00026      -0.08014      -0.02860      -0.02673
    43  O(17)              0.00034      -0.10441      -0.03726      -0.03483
    44  O(17)              0.00048      -0.14442      -0.05153      -0.04817
    45  O(17)              0.00029      -0.08688      -0.03100      -0.02898
    46  O(17)              0.00221      -0.67112      -0.23947      -0.22386
    47  O(17)              0.00197      -0.59615      -0.21272      -0.19886
    48  O(17)              0.00071      -0.21578      -0.07699      -0.07198
    49  O(17)              0.00224      -0.67860      -0.24214      -0.22636
    50  W(183)             0.00000       0.00000       0.00000       0.00000
    51  W(183)             0.00000       0.00000       0.00000       0.00000
    52  W(183)             0.00000       0.00000       0.00000       0.00000
    53  W(183)             0.00000       0.00000       0.00000       0.00000
    54  O(17)              0.00020      -0.05940      -0.02120      -0.01981
    55  O(17)              0.00006      -0.01712      -0.00611      -0.00571
    56  O(17)              0.00031      -0.09343      -0.03334      -0.03116
    57  O(17)              0.00009      -0.02783      -0.00993      -0.00928
    58  O(17)              0.00015      -0.04444      -0.01586      -0.01482
    59  O(17)              0.00030      -0.09036      -0.03224      -0.03014
    60  O(17)              0.00036      -0.10985      -0.03920      -0.03664
    61  O(17)              0.00038      -0.11644      -0.04155      -0.03884
    62  O(17)             -0.00026       0.07805       0.02785       0.02603
    63  O(17)             -0.00017       0.05035       0.01797       0.01679
    64  O(17)             -0.00028       0.08486       0.03028       0.02831
    65  O(17)             -0.00030       0.09215       0.03288       0.03074
    66  O(17)             -0.00820       2.48453       0.88654       0.82875
    67  O(17)             -0.00696       2.10966       0.75278       0.70371
    68  O(17)             -0.00713       2.16254       0.77165       0.72134
    69  O(17)             -0.00750       2.27322       0.81114       0.75826
    70  K(39)             -0.00002      -0.00201      -0.00072      -0.00067
    71  K(39)             -0.00002      -0.00195      -0.00070      -0.00065
    72  K(39)             -0.00002      -0.00220      -0.00078      -0.00073
    73  V(51)              0.07066      41.61304      14.84857      13.88062
 --------------------------------------------------------
       Center         ----  Spin Dipole Couplings  ----
                      3XX-RR        3YY-RR        3ZZ-RR
 --------------------------------------------------------
     1   Atom        0.383701     -1.704173      1.320471
     2   Atom       -0.018613     -0.011899      0.030512
     3   Atom        0.007245      0.002585     -0.009830
     4   Atom       -0.016887     -0.014777      0.031664
     5   Atom        0.011131      0.005812     -0.016944
     6   Atom       -0.020112     -0.015201      0.035313
     7   Atom        0.009764      0.005210     -0.014974
     8   Atom       -0.001455     -0.001241      0.002696
     9   Atom        0.000080      0.000255     -0.000335
    10   Atom        0.001532      0.000458     -0.001990
    11   Atom        0.003734      0.000154     -0.003889
    12   Atom        0.000603     -0.000555     -0.000047
    13   Atom       -0.058048     -0.038914      0.096961
    14   Atom       -0.026479     -0.041994      0.068473
    15   Atom       -0.002624      0.002378      0.000247
    16   Atom        0.007422      0.003200     -0.010622
    17   Atom       -0.011493      0.004991      0.006502
    18   Atom        0.001376     -0.001321     -0.000055
    19   Atom        0.001946     -0.001854     -0.000092
    20   Atom       -0.002151     -0.000304      0.002456
    21   Atom       -0.000613      0.000660     -0.000047
    22   Atom       -0.002008      0.000611      0.001397
    23   Atom       -0.001840      0.000684      0.001156
    24   Atom       -0.002418      0.001065      0.001353
    25   Atom       -0.002102      0.000635      0.001467
    26   Atom        0.000362     -0.002275      0.001913
    27   Atom        0.000529     -0.002514      0.001985
    28   Atom        0.000939     -0.003130      0.002191
    29   Atom        0.000688     -0.002755      0.002067
    30   Atom       -0.000142      0.000254     -0.000113
    31   Atom        0.000039      0.000025     -0.000064
    32   Atom       -0.000527      0.000631     -0.000105
    33   Atom       -0.000173      0.000247     -0.000074
    34   Atom       -0.000043     -0.002009      0.002052
    35   Atom       -0.000392     -0.002695      0.003087
    36   Atom       -0.002258     -0.000531      0.002789
    37   Atom       -0.001937     -0.000700      0.002637
    38   Atom        0.006195     -0.003098     -0.003097
    39   Atom        0.006235     -0.003177     -0.003058
    40   Atom       -0.011303      0.007412      0.003891
    41   Atom       -0.004465      0.007861     -0.003396
    42   Atom        0.002610     -0.000993     -0.001617
    43   Atom        0.002976     -0.001077     -0.001899
    44   Atom       -0.004557      0.005889     -0.001332
    45   Atom       -0.003375      0.004968     -0.001593
    46   Atom       -0.000742      0.000569      0.000172
    47   Atom        0.001679     -0.002767      0.001089
    48   Atom        0.004936     -0.007571      0.002635
    49   Atom        0.005025     -0.005028      0.000003
    50   Atom        0.006095     -0.002764     -0.003331
    51   Atom        0.006457     -0.003170     -0.003288
    52   Atom       -0.002115      0.004698     -0.002584
    53   Atom       -0.002060      0.005470     -0.003410
    54   Atom       -0.003175     -0.001710      0.004885
    55   Atom       -0.002880     -0.001923      0.004803
    56   Atom       -0.001159     -0.004532      0.005691
    57   Atom       -0.001148     -0.003813      0.004960
    58   Atom       -0.003984      0.006404     -0.002420
    59   Atom       -0.003946      0.006725     -0.002779
    60   Atom        0.002700     -0.000001     -0.002700
    61   Atom        0.002973     -0.000371     -0.002602
    62   Atom        0.000837      0.000965     -0.001802
    63   Atom        0.001219      0.000268     -0.001487
    64   Atom        0.005346     -0.003820     -0.001526
    65   Atom        0.004999     -0.003140     -0.001859
    66   Atom       -0.029991      0.000711      0.029281
    67   Atom       -0.035217     -0.001826      0.037043
    68   Atom       -0.063566      0.022049      0.041517
    69   Atom       -0.058750      0.027093      0.031657
    70   Atom       -0.000583      0.000561      0.000022
    71   Atom        0.000439     -0.000534      0.000095
    72   Atom        0.000765     -0.000964      0.000199
    73   Atom       -1.021229      0.254197      0.767033
 --------------------------------------------------------
                        XY            XZ            YZ
 --------------------------------------------------------
     1   Atom        2.220273      0.817186     -1.286847
     2   Atom        0.055265      0.022075     -0.019856
     3   Atom       -0.016865     -0.004922      0.009035
     4   Atom        0.053106      0.021316     -0.020520
     5   Atom       -0.027707     -0.012260      0.012228
     6   Atom        0.066772      0.029219     -0.024773
     7   Atom       -0.027048     -0.010629      0.013141
     8   Atom       -0.002115     -0.001952      0.000434
     9   Atom       -0.002044     -0.003543     -0.002631
    10   Atom       -0.000474     -0.001150      0.000919
    11   Atom        0.001742      0.002376      0.005424
    12   Atom       -0.001203      0.000242      0.002208
    13   Atom        0.164726      0.075215     -0.068481
    14   Atom        0.113771      0.054560     -0.054625
    15   Atom       -0.004418     -0.011449     -0.012984
    16   Atom        0.001032      0.010408      0.006393
    17   Atom       -0.001875     -0.010237     -0.004741
    18   Atom        0.000461     -0.001700      0.000227
    19   Atom        0.000348      0.002075     -0.000561
    20   Atom        0.003832      0.001450     -0.001238
    21   Atom       -0.001181      0.001359     -0.001343
    22   Atom        0.002228     -0.001946     -0.004113
    23   Atom        0.002200      0.002224      0.003929
    24   Atom        0.002346      0.001815      0.004223
    25   Atom        0.002003     -0.002008     -0.004136
    26   Atom       -0.002023     -0.004582      0.002401
    27   Atom       -0.001837      0.004704     -0.002736
    28   Atom       -0.001447     -0.004686      0.002620
    29   Atom       -0.001664      0.004782     -0.002210
    30   Atom        0.000422     -0.000164     -0.000580
    31   Atom        0.000448      0.000654      0.000306
    32   Atom        0.000451     -0.000159      0.000824
    33   Atom        0.000296     -0.000107     -0.000646
    34   Atom        0.000635     -0.003285     -0.000893
    35   Atom        0.000853      0.004030      0.001065
    36   Atom       -0.000364     -0.001841      0.003956
    37   Atom       -0.000643      0.001527     -0.003245
    38   Atom        0.004625      0.003719      0.001601
    39   Atom        0.004861     -0.003660     -0.001857
    40   Atom        0.013356      0.006785     -0.009224
[...]
                                 (Linear)    (Quad)   (Total)
    X1      -18.84966   0.00757   0.00000   0.00745   0.00921 -18.84045
    Y1       14.84868  -0.01166   0.00000  -0.01132  -0.01272  14.83596
    Z1       19.75923  -0.00377   0.00000  -0.00389  -0.00553  19.75369
    X2      -15.69912   0.00204   0.00000   0.00334   0.00466 -15.69446
    Y2        8.01296   0.00122   0.00000   0.00978   0.00844   8.02140
    Z2       23.12177   0.00171   0.00000  -0.00001  -0.00111  23.12067
    X3      -17.12474   0.00037   0.00000  -0.02380  -0.02243 -17.14718
    Y3        7.39871   0.00218   0.00000   0.02286   0.02146   7.42017
    Z3       20.96178  -0.00340   0.00000   0.01105   0.00993  20.97171
    X4      -18.90507  -0.00228   0.00000  -0.00727  -0.00600 -18.91107
    Y4        5.43616  -0.00223   0.00000  -0.00016  -0.00147   5.43469
    Z4       21.16192  -0.00084   0.00000  -0.00862  -0.00968  21.15224
    X5      -19.25427  -0.00037   0.00000   0.00261   0.00374 -19.25053
    Y5        4.13558  -0.00005   0.00000  -0.00351  -0.00466   4.13092
    Z5       23.42040  -0.00185   0.00000  -0.01338  -0.01437  23.40603
    X6      -17.82018   0.00034   0.00000   0.00621   0.00729 -17.81290
    Y6        4.76417   0.00018   0.00000   0.00308   0.00199   4.76616
    Z6       25.54288  -0.00219   0.00000  -0.01681  -0.01779  25.52509
    X7      -16.04182   0.00165   0.00000   0.01040   0.01158 -16.03024
    Y7        6.70816   0.00143   0.00000   0.00219   0.00101   6.70917
    Z7       25.37908  -0.00048   0.00000  -0.00831  -0.00934  25.36975
    X8      -14.31599   0.00025   0.00000   0.00763   0.00902 -14.30697
    Y8        9.54371  -0.00062   0.00000   0.00356   0.00216   9.54587
    Z8       23.05068  -0.00009   0.00000  -0.00299  -0.00413  23.04655
    X9      -20.03331   0.00015   0.00000  -0.00281  -0.00150 -20.03481
    Y9        4.94113  -0.00061   0.00000  -0.00486  -0.00622   4.93490
    Z9       19.50355  -0.00007   0.00000  -0.00942  -0.01049  19.49306
   X10      -20.63913   0.00008   0.00000   0.00350   0.00455 -20.63457
   Y10        2.60770   0.00029   0.00000  -0.00282  -0.00390   2.60379
   Z10       23.51607   0.00017   0.00000  -0.00538  -0.00633  23.50974
   X11      -18.06183  -0.00033   0.00000  -0.00073   0.00024 -18.06159
   Y11        3.72251   0.00061   0.00000   0.01016   0.00919   3.73171
   Z11       27.30803  -0.00006   0.00000  -0.01282  -0.01374  27.29430
   X12      -14.90880  -0.00034   0.00000   0.00712   0.00826 -14.90054
   Y12        7.21127   0.00001   0.00000  -0.00150  -0.00263   7.20864
   Z12       27.03208  -0.00064   0.00000  -0.00723  -0.00825  27.02382
   X13      -16.86816  -0.01796   0.00000  -0.07040  -0.06888 -16.93704
   Y13        8.73367  -0.01348   0.00000   0.06212   0.06056   8.79423
   Z13       18.55163   0.01187   0.00000   0.04566   0.04447  18.59610
   X14      -15.31005   0.00621   0.00000  -0.06807  -0.06644 -15.37649
   Y14       10.68432   0.02575   0.00000   0.10609   0.10442  10.78874
   Z14       18.07980   0.00002   0.00000   0.04004   0.03878  18.11858
   X15      -18.12030   0.00084   0.00000  -0.02612  -0.02458 -18.14487
   Y15        8.08270  -0.00053   0.00000   0.02206   0.02046   8.10317
   Z15       17.03627   0.00035   0.00000   0.02701   0.02581  17.06208
   X16      -15.23676   0.00030   0.00000  -0.02923  -0.02749 -15.26425
   Y16       11.55743  -0.00138   0.00000   0.04094   0.03915  11.59658
   Z16       16.21277  -0.00056   0.00000   0.01184   0.01053  16.22331
   X17      -13.95826   0.00063   0.00000  -0.02486  -0.02325 -13.98151
   Y17       11.37605  -0.00026   0.00000   0.06559   0.06395  11.44000
   Z17       19.47847  -0.00038   0.00000   0.01595   0.01470  19.49318
   X18       -1.91326   0.00534   0.00000   0.02667   0.02779  -1.88547
   Y18       -3.33562  -0.00032   0.00000  -0.00213  -0.00467  -3.34030
   Z18       14.10221  -0.00189   0.00000  -0.01502  -0.01490  14.08732
   X19      -15.89014  -0.00526   0.00000  -0.02019  -0.01903 -15.90917
   Y19       -2.50007   0.00082   0.00000  -0.00427  -0.00616  -2.50623
   Z19       14.11134  -0.00199   0.00000  -0.01610  -0.01655  14.09480
   X20      -13.34260  -0.00340   0.00000  -0.00892  -0.00774 -13.35033
   Y20        2.53270   0.00501   0.00000   0.02072   0.01907   2.55176
   Z20       19.81694   0.00099   0.00000   0.01027   0.00960  19.82653
   X21       -4.40854   0.00359   0.00000   0.01272   0.01339  -4.39515
   Y21       -8.21448  -0.00386   0.00000  -0.02386  -0.02592  -8.24040
   Z21       19.95422   0.00192   0.00000   0.01482   0.01516  19.96938
   X22       -6.47807  -0.00191   0.00000   0.01571   0.01712  -6.46095
   Y22        1.40461  -0.01639   0.00000  -0.02490  -0.02734   1.37727
   Z22       12.28115   0.01512   0.00000   0.00919   0.00885  12.29000
   X23      -11.35880   0.00352   0.00000  -0.01046  -0.00945 -11.36825
   Y23       -7.22689   0.01502   0.00000   0.01062   0.00841  -7.21848
   Z23       12.44667   0.01543   0.00000   0.00714   0.00715  12.45382
   X24       -6.87010  -0.00987   0.00000  -0.01698  -0.01589  -6.88599
   Y24        1.72989  -0.01301   0.00000  -0.00164  -0.00349   1.72640
   Z24       21.55385  -0.01544   0.00000  -0.00976  -0.01014  21.54371
   X25      -10.91724   0.01079   0.00000   0.02157   0.02223 -10.89501
   Y25       -7.30763   0.01105   0.00000  -0.00267  -0.00432  -7.31194
   Z25       21.67548  -0.01577   0.00000  -0.00892  -0.00888  21.66660
   X26       -4.66848  -0.01321   0.00000   0.00509   0.00622  -4.66226
   Y26       -4.81097   0.01196   0.00000   0.01087   0.00833  -4.80264
   Z26       12.05843   0.01700   0.00000   0.00968   0.00979  12.06822
   X27      -13.13075   0.01313   0.00000   0.00469   0.00599 -13.12475
   Y27       -1.00761  -0.01288   0.00000  -0.02353  -0.02568  -1.03330
   Z27       12.00049   0.01606   0.00000   0.01131   0.01088  12.01136
   X28      -12.90543   0.01880   0.00000   0.01527   0.01624 -12.88919
   Y28       -0.47688  -0.00491   0.00000   0.01034   0.00880  -0.46808
   Z28       21.91056  -0.01689   0.00000  -0.01285  -0.01331  21.89725
   X29       -4.86051  -0.01737   0.00000  -0.01151  -0.01076  -4.87127
   Y29       -5.08995   0.00274   0.00000  -0.01544  -0.01735  -5.10730
   Z29       21.97411  -0.01660   0.00000  -0.00993  -0.00981  21.96430
   X30       -6.05289   0.00153   0.00000  -0.00115   0.00045  -6.05244
   Y30        3.68242   0.00445   0.00000  -0.01304  -0.01564   3.66678
   Z30       10.09123  -0.00562   0.00000  -0.00169  -0.00216  10.08907
   X31      -11.60419  -0.00091   0.00000   0.00492   0.00589 -11.59830
   Y31       -9.60699  -0.00480   0.00000   0.00097  -0.00136  -9.60835
   Z31       10.30745  -0.00547   0.00000  -0.00316  -0.00301  10.30444
   X32       -5.11864   0.00345   0.00000  -0.00010   0.00098  -5.11766
   Y32        3.34498   0.00369   0.00000  -0.00954  -0.01133   3.33365
   Z32       23.70449   0.00584   0.00000   0.00273   0.00232  23.70681
   X33      -12.65438  -0.00322   0.00000   0.00482   0.00532 -12.64906
   Y33       -8.84711  -0.00359   0.00000   0.00547   0.00404  -8.84307
   Z33       23.89236   0.00565   0.00000   0.00271   0.00278  23.89513
   X34       -5.10075   0.00210   0.00000   0.01981   0.02115  -5.07961
   Y34       -1.63743   0.00129   0.00000  -0.00052  -0.00314  -1.64057
   Z34       10.55859  -0.00479   0.00000  -0.01619  -0.01629  10.54230
   X35      -12.69225  -0.00236   0.00000  -0.01425  -0.01305 -12.70530
   Y35       -4.28733  -0.00043   0.00000  -0.00968  -0.01193  -4.29927
   Z35       10.63553  -0.00481   0.00000  -0.01698  -0.01720  10.61832
   X36      -10.06006  -0.00100   0.00000  -0.00464  -0.00366 -10.06372
   Y36        1.06454   0.00267   0.00000   0.01827   0.01668   1.08122
   Z36       23.37623   0.00452   0.00000   0.01087   0.01041  23.38664
   X37       -7.68718   0.00060   0.00000   0.00656   0.00718  -7.68001
   Y37       -6.62971  -0.00231   0.00000  -0.01961  -0.02130  -6.65101
   Z37       23.45849   0.00464   0.00000   0.01394   0.01406  23.47255
   X38        0.55631   0.00798   0.00000   0.00099   0.00214   0.55845
   Y38       -0.01136   0.00322   0.00000   0.00268   0.00024  -0.01112
   Z38       17.53159   0.00192   0.00000   0.00169   0.00169  17.53328
   X39      -18.36296  -0.00804   0.00000   0.00416   0.00504 -18.35792
   Y39       -5.69227  -0.00320   0.00000  -0.00896  -0.01052  -5.70279
   Z39       17.64217   0.00197   0.00000   0.00126   0.00092  17.64309
   X40      -12.09213  -0.00466   0.00000  -0.00742  -0.00592 -12.09806
   Y40        6.45232   0.01173   0.00000   0.00168  -0.00025   6.45207
   Z40       16.30612  -0.00061   0.00000   0.00836   0.00749  16.31361
   X41       -5.59987   0.00184   0.00000  -0.00756  -0.00694  -5.60681
   Y41      -12.18378  -0.00780   0.00000  -0.00688  -0.00910 -12.19288
   Z41       16.52386  -0.00165   0.00000  -0.00070  -0.00016  16.52370
   X42       -3.42611   0.00342   0.00000   0.02370   0.02504  -3.40106
   Y42        1.48598   0.00355   0.00000   0.00153  -0.00094   1.48504
   Z42       14.14867  -0.00235   0.00000  -0.01552  -0.01576  14.13291
   X43      -14.38471  -0.00396   0.00000  -0.01963  -0.01870 -14.40341
   Y43       -7.32943  -0.00334   0.00000  -0.00989  -0.01184  -7.34127
   Z43       14.29275  -0.00178   0.00000  -0.01446  -0.01455  14.27820
   X44       -8.57261  -0.00006   0.00000  -0.00315  -0.00188  -8.57449
   Y44        4.19457   0.00563   0.00000   0.02058   0.01870   4.21327
   Z44       19.69790   0.00109   0.00000   0.00833   0.00773  19.70563
   X45       -9.19815  -0.00076   0.00000   0.00718   0.00779  -9.19036
   Y45       -9.85417  -0.00475   0.00000  -0.02231  -0.02415  -9.87831
   Z45       19.88255   0.00215   0.00000   0.01395   0.01421  19.89676
   X46       -3.10940   0.00496   0.00000   0.00501   0.00614  -3.10327
   Y46       -6.56404  -0.00479   0.00000  -0.01049  -0.01325  -6.57728
   Z46        9.86744  -0.00532   0.00000   0.00466   0.00494   9.87238
   X47      -14.78235  -0.00489   0.00000   0.00491   0.00637 -14.77598
   Y47        0.50729   0.00328   0.00000  -0.00124  -0.00346   0.50383
   Z47        9.73088  -0.00480   0.00000   0.00615   0.00555   9.73643
   X48      -15.18678  -0.00689   0.00000   0.00106   0.00195 -15.18483
   Y48       -0.33905   0.00159   0.00000   0.00123  -0.00006  -0.33911
   Z48       24.15855   0.00570   0.00000  -0.00437  -0.00492  24.15363
   X49       -2.53484   0.00629   0.00000   0.00415   0.00481  -2.53002
   Y49       -5.29004  -0.00143   0.00000  -0.00478  -0.00666  -5.29670
   Z49       24.17839   0.00512   0.00000  -0.00451  -0.00428  24.17411
   X50       -2.39399  -0.02268   0.00000  -0.00603  -0.00489  -2.39888
   Y50       -0.97396  -0.00838   0.00000  -0.01057  -0.01292  -0.98688
   Z50       16.71396  -0.00513   0.00000  -0.01769  -0.01773  16.69623
   X51      -15.41746   0.02335   0.00000   0.01155   0.01251 -15.40495
   Y51       -4.74389   0.00678   0.00000   0.00251   0.00076  -4.74313
   Z51       16.78921  -0.00570   0.00000  -0.01930  -0.01959  16.76962
   X52      -11.21277   0.00928   0.00000   0.00542   0.00675 -11.20601
   Y52        3.50083  -0.02664   0.00000  -0.01557  -0.01749   3.48334
   Z52       17.09260   0.00613   0.00000   0.01759   0.01694  17.10954
   X53       -6.55811  -0.00706   0.00000   0.00005   0.00078  -6.55733
   Y53       -9.22378   0.02217   0.00000   0.00622   0.00410  -9.21968
   Z53       17.31838   0.00470   0.00000   0.01739   0.01771  17.33609
   X54       -8.00879   0.00083   0.00000  -0.00026   0.00084  -8.00794
   Y54       -5.84600  -0.00171   0.00000   0.01031   0.00789  -5.83811
   Z54       11.47499  -0.00312   0.00000   0.00936   0.00941  11.48440
   X55       -9.78612  -0.00079   0.00000   0.00821   0.00959  -9.77653
   Y55       -0.05470   0.00191   0.00000  -0.02278  -0.02513  -0.07983
   Z55       11.36759  -0.00305   0.00000   0.00939   0.00902  11.37661
   X56      -11.69590  -0.00223   0.00000   0.01587   0.01666 -11.67924
   Y56       -3.78076   0.00047   0.00000   0.00657   0.00500  -3.77576
   Z56       22.53187   0.00308   0.00000  -0.01144  -0.01166  22.52021
   X57       -6.02316   0.00177   0.00000  -0.01300  -0.01211  -6.03527
   Y57       -1.79417   0.00076   0.00000  -0.00928  -0.01111  -1.80528
   Z57       22.54377   0.00323   0.00000  -0.00989  -0.01002  22.53375
   X58       -8.30692  -0.00030   0.00000   0.00955   0.01094  -8.29597
   Y58        3.02214   0.00317   0.00000  -0.01870  -0.02090   3.00124
   Z58       14.82926  -0.00097   0.00000   0.01141   0.01090  14.84015
   X59       -9.45635  -0.00087   0.00000  -0.00650  -0.00566  -9.46201
   Y59       -8.83235  -0.00305   0.00000   0.00956   0.00742  -8.82493
   Z59       14.98451  -0.00214   0.00000   0.00937   0.00955  14.99406
   X60       -4.42438   0.00182   0.00000  -0.01320  -0.01205  -4.43643
   Y60        1.13408   0.00258   0.00000  -0.00582  -0.00794   1.12614
   Z60       19.04825   0.00217   0.00000  -0.01072  -0.01097  19.03728
   X61      -13.35821  -0.00220   0.00000   0.01744   0.01821 -13.33999
   Y61       -6.81794  -0.00221   0.00000   0.00028  -0.00141  -6.81936
   Z61       19.16145   0.00191   0.00000  -0.01104  -0.01112  19.15033
   X62       -4.87444   0.00198   0.00000   0.00184   0.00276  -4.87168
   Y62       -7.31456  -0.00296   0.00000   0.00513   0.00277  -7.31179
   Z62       14.85002  -0.00103   0.00000   0.01290   0.01316  14.86318
   X63      -12.94043  -0.00139   0.00000   0.00615   0.00748 -12.93296
   Y63        1.49112   0.00380   0.00000  -0.01330  -0.01529   1.47583
   Z63       14.74483  -0.00027   0.00000   0.01378   0.01320  14.75802
   X64      -14.82925  -0.00333   0.00000   0.01168   0.01266 -14.81658
   Y64       -2.21686   0.00045   0.00000   0.00516   0.00353  -2.21333
   Z64       19.20541   0.00128   0.00000  -0.01499  -0.01542  19.19000
   X65       -2.97208   0.00348   0.00000  -0.00676  -0.00583  -2.97791
   Y65       -3.46724   0.00032   0.00000  -0.00995  -0.01212  -3.47936
   Z65       19.18799   0.00096   0.00000  -0.01268  -0.01259  19.17540
   X66       -6.40212   0.04226   0.00000   0.07585   0.07699  -6.32513
   Y66       -2.12990   0.00801   0.00000   0.00523   0.00295  -2.12694
   Z66       15.14752  -0.02728   0.00000  -0.04367  -0.04379  15.10373
   X67      -11.39914  -0.04306   0.00000  -0.06846  -0.06739 -11.46653
   Y67       -3.69071  -0.00923   0.00000  -0.01766  -0.01969  -3.71040
   Z67       15.20340  -0.02723   0.00000  -0.04476  -0.04497  15.15843
   X68       -9.70441  -0.01814   0.00000  -0.02862  -0.02753  -9.73194
   Y68       -0.37489   0.04088   0.00000   0.06290   0.06102  -0.31387
   Z68       18.80858   0.02717   0.00000   0.04207   0.04171  18.85029
   X69       -8.03924   0.01806   0.00000   0.03454   0.03539  -8.00385
   Y69       -5.33174  -0.03898   0.00000  -0.06619  -0.06815  -5.39989
   Z69       18.86088   0.02765   0.00000   0.04262   0.04265  18.90352
   X70       -6.11334  -0.00037   0.00000  -0.00254  -0.00167  -6.11501
   Y70      -11.55294   0.00125   0.00000   0.00713   0.00457 -11.54837
   Z70       10.71456   0.00094   0.00000   0.01070   0.01118  10.72574
   X71       -0.29481  -0.00114   0.00000  -0.01061  -0.00967  -0.30448
   Y71        0.06915  -0.00039   0.00000  -0.00826  -0.01030   0.05885
   Z71       23.32943  -0.00089   0.00000  -0.00981  -0.00984  23.31959
   X72      -17.50450   0.00123   0.00000   0.01518   0.01586 -17.48864
   Y72       -5.53481   0.00054   0.00000   0.00384   0.00261  -5.53220
   Z72       23.44143  -0.00075   0.00000  -0.01022  -0.01054  23.43089
   X73       -8.89032   0.00081   0.00000   0.00412   0.00516  -8.88517
   Y73       -2.87424  -0.00030   0.00000  -0.00374  -0.00577  -2.88001
   Z73       16.99887  -0.00079   0.00000  -0.00211  -0.00227  16.99660
         Item               Value     Threshold  Converged?
 Maximum Force            0.043063     0.000450     NO 
 RMS     Force            0.009726     0.000300     NO 
 Maximum Displacement     0.104425     0.001800     NO 
 RMS     Displacement     0.020263     0.001200     NO 
 Predicted change in Energy=-1.477095D-02
 GradGradGradGradGradGradGradGradGradGradGradGradGradGradGradGradGradGrad

 Unable to Open any file for archive entry.
 1\1\GINC-X11P1N2\Force\UwB97XD\def2SVP\C8H8Cl1K3O40V1W12(1-)\MAYUMIAO\
 01-Jun-2024\0\\# def2svp wb97xd scrf=(smd,solvent=acetonitrile) g09def
 ault scf=(xqc,maxcycle=64) force guess=read nosymm\\Title Card\\-1,1\C
 l,-9.97480823,7.85758553,10.45613207\C,-8.30761444,4.24027702,12.23551
 482\C,-9.06202465,3.91523011,11.09249443\C,-10.00413287,2.87669278,11.
 1984074\C,-10.1889208,2.18845586,12.39353976\C,-9.43003544,2.52108986,
 13.51671124\C,-8.48896341,3.54980619,13.43003254\H,-7.57569476,5.05031
 565,12.19789362\H,-10.60116952,2.614731,10.3208331\H,-10.92175541,1.37
 993504,12.4441676\H,-9.55790636,1.96986942,14.45078904\H,-7.88939525,3
 .81603977,14.30475966\C,-8.9262446,4.62165889,9.81709799\C,-8.10172972
 ,5.65389794,9.56742006\H,-9.58884814,4.27718235,9.01520829\H,-8.062946
 18,6.11593026,8.57942973\H,-7.38639544,6.01994715,10.30756435\O,-1.012
 45525,-1.76513563,7.4625699\O,-8.40870143,-1.32298179,7.46740039\O,-7.
 06059934,1.34024614,10.48667131\O,-2.3329015,-4.34691369,10.55931889\W
 ,-3.42804834,0.74328837,6.49890573\W,-6.0108196,-3.82430539,6.5864943\
 W,-3.63550038,0.91541641,11.40580573\W,-5.7771532,-3.86702895,11.47016
 847\W,-2.47045157,-2.54585791,6.38104525\W,-6.94849337,-0.53320607,6.3
 5038316\W,-6.82926176,-0.25235484,11.59456804\W,-2.57207144,-2.6934846
 6,11.62819586\O,-3.20304952,1.94865463,5.34004931\O,-6.1406733,-5.0838
 0028,5.45446744\O,-2.70866799,1.77008864,12.54387766\O,-6.69641028,-4.
 68168953,12.64329043\O,-2.69920303,-0.86649111,5.58736494\O,-6.7164503
 9,-2.26875906,5.62807757\O,-5.32355412,0.56332988,12.37016858\O,-4.067
 88297,-3.50828898,12.41369746\O,0.29438532,-0.00600999,9.27731798\O,-9
 .71726154,-3.01221954,9.33583674\O,-6.39888143,3.41442273,8.62882721\O
 ,-2.96332375,-6.44738121,8.74405045\O,-1.81301924,0.7863466,7.48715421
 \O,-7.61205888,-3.87856593,7.56339778\O,-4.53643203,2.21967018,10.4236
 7884\O,-4.86745089,-5.21460041,10.5213937\O,-1.6454261,-3.4735382,5.22
 16224\O,-7.82248407,0.26844443,5.14935754\O,-8.03649801,-0.17941809,12
 .784156\O,-1.34137776,-2.79936607,12.7946539\W,-1.26684427,-0.51539626
 ,8.8446488\W,-8.15856996,-2.51035832,8.88446748\W,-5.93354011,1.852562
 07,9.04501395\W,-3.47040411,-4.88101625,9.16448997\O,-4.23806834,-3.09
 356767,6.07230482\O,-5.17858968,-0.02894435,6.01547052\O,-6.18920475,-
 2.00069247,11.92335347\O,-3.18731674,-0.94943583,11.92965056\O,-4.3958
 3087,1.59924801,7.84730458\O,-5.00408252,-4.67388091,7.92945882\O,-2.3
 4128066,0.60012941,10.07989905\O,-7.06885803,-3.60789934,10.1398042\O,
 -2.57944159,-3.87069962,7.8582905\O,-6.84778292,0.78906891,7.80262693\
 O,-7.84730015,-1.17311164,10.1630672\O,-1.57275868,-1.83478184,10.1538
 4921\O,-3.38785632,-1.12709362,8.01571974\O,-6.03216418,-1.9530388,8.0
 4529219\O,-5.13535296,-0.19838211,9.95307275\O,-4.25418269,-2.82143599
 ,9.98074722\K,-3.23504117,-6.11355331,5.66989862\K,-0.15600484,0.03659
 244,12.34540017\K,-9.26298277,-2.92889381,12.40466986\V,-4.7045573,-1.
 5209832,8.99541449\\Version=ES64L-G16RevC.01\HF=-7327.7005133\S2=1.014
 058\S2-1=0.\S2A=0.113108\RMSD=1.131e-09\RMSF=9.726e-03\Dipole=1.789615
 ,-7.1397796,5.5384506\Quadrupole=-19.6880741,41.896694,-22.2086199,97.
 7320723,140.9855945,-69.01301\PG=C01 [X(C8H8Cl1K3O40V1W12)]\\@
 The archive entry for this job was punched.


 ERWIN WITH HIS PSI CAN DO
 CALCULATIONS QUITE A FEW.
 BUT ONE THING HAS NOT BEEN SEEN
 JUST WHAT DOES PSI REALLY MEAN.
 -- WALTER HUCKEL, TRANS. BY FELIX BLOCH
 Job cpu time:       1 days  4 hours 47 minutes  1.2 seconds.
 Elapsed time:       0 days  0 hours 32 minutes 56.3 seconds.
 File lengths (MBytes):  RWF=   1859 Int=      0 D2E=      0 Chk=    306 Scr=      1
 Normal termination of Gaussian 16 at Sat Jun  1 20:12:06 2024.
