 Entering Gaussian System, Link 0=g16
 Input=JOBS/16_A.gjf
 Output=JOBS/16_A.log
 Initial command:
 /data/app/gaussian/C01-avx2//g16/l1.exe "/tmp/Gau-606740.inp" -scrdir="/tmp/"
 Entering Link 1 = /data/app/gaussian/C01-avx2//g16/l1.exe PID=    606741.
  
 Copyright (c) 1988-2019, Gaussian, Inc.  All Rights Reserved.
  
 This is part of the Gaussian(R) 16 program.  It is based on
 the Gaussian(R) 09 system (copyright 2009, Gaussian, Inc.),
 the Gaussian(R) 03 system (copyright 2003, Gaussian, Inc.),
 the Gaussian(R) 98 system (copyright 1998, Gaussian, Inc.),
 the Gaussian(R) 94 system (copyright 1995, Gaussian, Inc.),
 the Gaussian 92(TM) system (copyright 1992, Gaussian, Inc.),
 the Gaussian 90(TM) system (copyright 1990, Gaussian, Inc.),
 the Gaussian 88(TM) system (copyright 1988, Gaussian, Inc.),
 the Gaussian 86(TM) system (copyright 1986, Carnegie Mellon
 University), and the Gaussian 82(TM) system (copyright 1983,
 Carnegie Mellon University). Gaussian is a federally registered
 trademark of Gaussian, Inc.
  
 This software contains proprietary and confidential information,
 including trade secrets, belonging to Gaussian, Inc.
  
 This software is provided under written license and may be
 used, copied, transmitted, or stored only in accord with that
 written license.
  
 The following legend is applicable only to US Government
 contracts under FAR:
  
                    RESTRICTED RIGHTS LEGEND
  
 Use, reproduction and disclosure by the US Government is
 subject to restrictions as set forth in subparagraphs (a)
 and (c) of the Commercial Computer Software - Restricted
 Rights clause in FAR 52.227-19.
  
 Gaussian, Inc.
 340 Quinnipiac St., Bldg. 40, Wallingford CT 06492
  
  
 ---------------------------------------------------------------
 Warning -- This program may not be used in any manner that
 competes with the business of Gaussian, Inc. or will provide
 assistance to any competitor of Gaussian, Inc.  The licensee
 of this program is prohibited from giving any competitor of
 Gaussian, Inc. access to this program.  By using this program,
 the user acknowledges that Gaussian, Inc. is engaged in the
 business of creating and licensing software in the field of
 computational chemistry and represents and warrants to the
 licensee that it is not a competitor of Gaussian, Inc. and that
 it will not use this program in any manner prohibited above.
 ---------------------------------------------------------------
  

 Cite this work as:
 Gaussian 16, Revision C.01,
 M. J. Frisch, G. W. Trucks, H. B. Schlegel, G. E. Scuseria, 
 M. A. Robb, J. R. Cheeseman, G. Scalmani, V. Barone, 
 G. A. Petersson, H. Nakatsuji, X. Li, M. Caricato, A. V. Marenich, 
 J. Bloino, B. G. Janesko, R. Gomperts, B. Mennucci, H. P. Hratchian, 
 J. V. Ortiz, A. F. Izmaylov, J. L. Sonnenberg, D. Williams-Young, 
 F. Ding, F. Lipparini, F. Egidi, J. Goings, B. Peng, A. Petrone, 
 T. Henderson, D. Ranasinghe, V. G. Zakrzewski, J. Gao, N. Rega, 
 G. Zheng, W. Liang, M. Hada, M. Ehara, K. Toyota, R. Fukuda, 
 J. Hasegawa, M. Ishida, T. Nakajima, Y. Honda, O. Kitao, H. Nakai, 
 T. Vreven, K. Throssell, J. A. Montgomery, Jr., J. E. Peralta, 
 F. Ogliaro, M. J. Bearpark, J. J. Heyd, E. N. Brothers, K. N. Kudin, 
 V. N. Staroverov, T. A. Keith, R. Kobayashi, J. Normand, 
 K. Raghavachari, A. P. Rendell, J. C. Burant, S. S. Iyengar, 
 J. Tomasi, M. Cossi, J. M. Millam, M. Klene, C. Adamo, R. Cammi, 
 J. W. Ochterski, R. L. Martin, K. Morokuma, O. Farkas, 
 J. B. Foresman, and D. J. Fox, Gaussian, Inc., Wallingford CT, 2019.
 
 ******************************************
 Gaussian 16:  ES64L-G16RevC.01  3-Jul-2019
                 1-Jun-2024 
 ******************************************
 %chk=a.chk
 %nprocshared=56
 Will use up to   56 processors via shared memory.
 %mem=96gb
 ----------------------------------------------------------------------
 # def2svp wb97xd scrf=(smd,solvent=acetonitrile) g09default scf=(xqc,m
 axcycle=64) force guess=read nosymm
 ----------------------------------------------------------------------
 1/10=7,30=1,38=1,158=3,167=1/1,3;
 2/12=2,15=1,17=6,18=5,40=1/2;
 3/5=43,7=101,11=2,25=1,27=10,30=1,70=32201,71=1,72=2,74=-58,75=-4,116=-2,158=3/1,2,3;
 4/5=1,60=-1/1;
 5/5=2,7=64,8=3,13=1,38=6,53=2,87=10/2,8;
 6/7=2,8=2,9=2,10=2,28=1,87=10/1;
 7/29=1,30=1,87=10/1,2,3,16;
 1/10=7,30=1,158=3,167=1/3;
 99//99;
 Using 2006 physical constants.
 ----------
 Title Card
 ----------
 Symbolic Z-matrix:
 Charge = -1 Multiplicity = 1
 17                   -9.97836   7.87555   10.46125 
 6                    -8.30738   4.23962   12.23458 
 6                    -9.06362   3.91517   11.09322 
 6                    -10.00398   2.8752    11.198 
 6                    -10.18826   2.18727   12.39346 
 6                    -9.4298    2.52094   13.51589 
 6                    -8.48831   3.54888   13.42961 
 1                    -7.57481   5.04904   12.19702 
 1                    -10.60164   2.61201   10.32081 
 1                    -10.9231   1.38015   12.44605 
 1                    -9.55854   1.97127   14.45115 
 1                    -7.89038   3.81695   14.30466 
 6                    -8.92993   4.62378   9.81821 
 6                    -8.10723   5.65785   9.56916 
 1                    -9.58648   4.2727    9.01491 
 1                    -8.06396   6.11441   8.57863 
 1                    -7.38745   6.02032   10.3063 
 8                    -1.01156  -1.76443   7.46158 
 8                    -8.40991  -1.32363   7.46674 
 8                    -7.05979   1.34148   10.48701 
 8                    -2.33249  -4.34837   10.55983 
 74                   -3.42642   0.74322   6.49741 
 74                   -6.01148  -3.82606   6.58532 
 74                   -3.63459   0.91644   11.40705 
 74                   -5.77805  -3.8681    11.47125 
 74                   -2.47059  -2.5459    6.38076 
 74                   -6.9478   -0.53388   6.34954 
 74                   -6.82842  -0.25177   11.59443 
 74                   -2.57228  -2.69387   11.62892 
 8                    -3.20135   1.94725   5.33723 
 8                    -6.14206  -5.08289   5.4518 
 8                    -2.70988   1.77074   12.54703 
 8                    -6.69475  -4.68292   12.64556 
 8                    -2.69868  -0.86681   5.58586 
 8                    -6.71673  -2.26938   5.62707 
 8                    -5.32349   0.56386   12.3708 
 8                    -4.06754  -3.50894   12.41423 
 8                     0.29491  -0.00475   9.27569 
 8                    -9.71771  -3.01341   9.33368 
 8                    -6.39601   3.41555   8.62938 
 8                    -2.96397  -6.44817   8.74567 
 8                    -1.81179   0.7862    7.48599 
 8                    -7.61253  -3.87894   7.56246 
 8                    -4.53533   2.22009   10.4245 
 8                    -4.86725  -5.2151    10.5222 
 8                    -1.64287  -3.4731    5.22229 
 8                    -7.82444   0.26746   5.15118 
 8                    -8.03736  -0.17666   12.7828 
 8                    -1.34069  -2.80245   12.79389 
 74                   -1.2669   -0.51583   8.84409 
 74                   -8.1585   -2.50986   8.88361 
 74                   -5.93229   1.85192   9.04507 
 74                   -3.47003  -4.88172   9.16519 
 8                    -4.23791  -3.09326   6.07171 
 8                    -5.17839  -0.02883   6.01405 
 8                    -6.18913  -2.00073   11.92377 
 8                    -3.18691  -0.94975   11.93085 
 8                    -4.39389   1.59758   7.8471 
 8                    -5.00492  -4.67454   7.9284 
 8                    -2.34133   0.60094   10.08073 
 8                    -7.06854  -3.60916   10.14043 
 8                    -2.58009  -3.87112   7.8585 
 8                    -6.84619   0.78868   7.80279 
 8                    -7.84673  -1.17372   10.16253 
 8                    -1.57325  -1.83425   10.15358 
 8                    -3.3872   -1.12831   8.01606 
 8                    -6.03273  -1.95182   8.045 
 8                    -5.13669  -0.19854   9.95217 
 8                    -4.2529   -2.82173   9.98008 
 19                   -3.23436  -6.11634   5.66789 
 19                   -0.15335   0.03799   12.34748 
 19                   -9.26586  -2.92894   12.40744 
 23                   -4.70452  -1.52095   8.99533 
 

 GradGradGradGradGradGradGradGradGradGradGradGradGradGradGradGradGradGrad
 Berny optimization.
 Initialization pass.
 Trust Radius=3.00D-01 FncErr=1.00D-07 GrdErr=1.00D-07 EigMax=2.50D+02 EigMin=1.00D-04
 Number of steps in this run=      2 maximum allowed number of steps=      2.
 GradGradGradGradGradGradGradGradGradGradGradGradGradGradGradGradGradGrad

 Symmetry turned off by external request.
 Stoichiometry    C8H8ClK3O40VW12(1-)
 Framework group  C1[X(C8H8ClK3O40VW12)]
 Deg. of freedom   213
 Full point group                 C1      NOp   1
                          Input orientation:                          
 ---------------------------------------------------------------------
 Center     Atomic      Atomic             Coordinates (Angstroms)
 Number     Number       Type             X           Y           Z
 ---------------------------------------------------------------------
      1         17           0       -9.978365    7.875551   10.461246
      2          6           0       -8.307378    4.239625   12.234579
      3          6           0       -9.063624    3.915169   11.093222
      4          6           0      -10.003977    2.875197   11.198003
      5          6           0      -10.188259    2.187275   12.393460
      6          6           0       -9.429804    2.520942   13.515893
      7          6           0       -8.488308    3.548876   13.429610
      8          1           0       -7.574809    5.049036   12.197021
      9          1           0      -10.601636    2.612015   10.320806
     10          1           0      -10.923097    1.380154   12.446050
     11          1           0       -9.558538    1.971271   14.451148
     12          1           0       -7.890381    3.816949   14.304660
     13          6           0       -8.929925    4.623778    9.818214
     14          6           0       -8.107227    5.657848    9.569162
     15          1           0       -9.586480    4.272701    9.014913
     16          1           0       -8.063957    6.114410    8.578630
     17          1           0       -7.387455    6.020320   10.306298
     18          8           0       -1.011565   -1.764435    7.461577
     19          8           0       -8.409906   -1.323634    7.466744
     20          8           0       -7.059791    1.341484   10.487007
     21          8           0       -2.332495   -4.348368   10.559830
     22         74           0       -3.426420    0.743220    6.497414
     23         74           0       -6.011484   -3.826059    6.585324
     24         74           0       -3.634594    0.916442   11.407047
     25         74           0       -5.778052   -3.868100   11.471246
     26         74           0       -2.470587   -2.545903    6.380759
     27         74           0       -6.947803   -0.533877    6.349541
     28         74           0       -6.828421   -0.251770   11.594429
     29         74           0       -2.572283   -2.693870   11.628915
     30          8           0       -3.201355    1.947245    5.337232
     31          8           0       -6.142061   -5.082894    5.451800
     32          8           0       -2.709881    1.770742   12.547031
     33          8           0       -6.694750   -4.682917   12.645557
     34          8           0       -2.698683   -0.866808    5.585862
     35          8           0       -6.716730   -2.269379    5.627070
     36          8           0       -5.323487    0.563859   12.370799
     37          8           0       -4.067543   -3.508941   12.414227
     38          8           0        0.294915   -0.004746    9.275689
     39          8           0       -9.717711   -3.013412    9.333681
     40          8           0       -6.396010    3.415554    8.629377
     41          8           0       -2.963970   -6.448171    8.745672
     42          8           0       -1.811791    0.786201    7.485989
     43          8           0       -7.612528   -3.878939    7.562459
     44          8           0       -4.535333    2.220094   10.424505
     45          8           0       -4.867249   -5.215103   10.522202
     46          8           0       -1.642870   -3.473098    5.222289
     47          8           0       -7.824445    0.267460    5.151178
     48          8           0       -8.037360   -0.176663   12.782804
     49          8           0       -1.340690   -2.802455   12.793887
     50         74           0       -1.266904   -0.515831    8.844086
     51         74           0       -8.158497   -2.509861    8.883608
     52         74           0       -5.932294    1.851923    9.045067
     53         74           0       -3.470029   -4.881724    9.165188
     54          8           0       -4.237915   -3.093264    6.071707
     55          8           0       -5.178390   -0.028829    6.014045
     56          8           0       -6.189133   -2.000725   11.923773
     57          8           0       -3.186908   -0.949751   11.930852
     58          8           0       -4.393887    1.597579    7.847095
     59          8           0       -5.004919   -4.674539    7.928398
     60          8           0       -2.341330    0.600944   10.080728
     61          8           0       -7.068543   -3.609163   10.140434
     62          8           0       -2.580091   -3.871119    7.858503
     63          8           0       -6.846185    0.788676    7.802785
     64          8           0       -7.846730   -1.173716   10.162533
     65          8           0       -1.573250   -1.834253   10.153575
     66          8           0       -3.387198   -1.128314    8.016059
     67          8           0       -6.032733   -1.951816    8.045004
     68          8           0       -5.136691   -0.198538    9.952167
     69          8           0       -4.252901   -2.821733    9.980079
     70         19           0       -3.234362   -6.116336    5.667889
     71         19           0       -0.153353    0.037995   12.347477
     72         19           0       -9.265861   -2.928942   12.407437
     73         23           0       -4.704525   -1.520949    8.995327
 ---------------------------------------------------------------------
 Rotational constants (GHZ):           0.0172002           0.0133230           0.0131180
 Standard basis: def2SVP (5D, 7F)
  1217 basis functions,  2313 primitive gaussians,  1337 cartesian basis functions
   321 alpha electrons      321 beta electrons
       nuclear repulsion energy     21014.4514229966 Hartrees.
 NAtoms=   73 NActive=   73 NUniq=   73 SFac= 1.00D+00 NAtFMM=   60 NAOKFM=T Big=T
 Integral buffers will be    131072 words long.
 Raffenetti 2 integral format.
 Two-electron integral symmetry is turned off.
 Nuclear repulsion after empirical dispersion term =    21014.1734144369 Hartrees.
 Force PCM accuracy= 1.00D-10.
 ------------------------------------------------------------------------------
 Polarizable Continuum Model (PCM)
 =================================
 Model                : PCM (using non-symmetric T matrix).
 Atomic radii         : SMD-Coulomb.
 Polarization charges : Total charges.
 Charge compensation  : None.
 Solution method      : On-the-fly selection.
 Cavity type          : VdW (van der Waals Surface) (Alpha=1.000).
 Cavity algorithm     : GePol (No added spheres)
                        Default sphere list used, NSphG=   73.
                        Lebedev-Laikov grids with approx.  5.0 points / Ang**2.
                        Smoothing algorithm: York/Karplus (Gamma=1.0000).
                        Polarization charges: spherical gaussians, with
                                              point-specific exponents (IZeta= 3).
                        Self-potential: point-specific (ISelfS= 7).
                        Self-field    : sphere-specific E.n sum rule (ISelfD= 2).
 1st derivatives      : Analytical E(r).r(x)/FMM algorithm (CHGder, D1EAlg=3).
                        Cavity 1st derivative terms included.
 Solvent              : Acetonitrile, Eps=  35.688000 Eps(inf)=   1.806874
 ------------------------------------------------------------------------------
 ------------------------------------------------------------------------------
 Atomic radii for non-electrostatic terms: SMD-CDS.
 ------------------------------------------------------------------------------
 Nuclear repulsion after PCM non-electrostatic terms =    21014.1675965178 Hartrees.
 One-electron integrals computed using PRISM.
   1 Symmetry operations used in ECPInt.
 ECPInt:  NShTT=  127765 NPrTT=  468030 LenC2=   96844 LenP2D=  221661.
 LDataN:  DoStor=T MaxTD1= 8 Len=  415
 NBasis=  1217 RedAO= T EigKep=  1.35D-04  NBF=  1217
 NBsUse=  1217 1.00D-06 EigRej= -1.00D+00 NBFU=  1217
 Defaulting to unpruned grid for atomic number  74.
 Defaulting to unpruned grid for atomic number  74.
 Defaulting to unpruned grid for atomic number  74.
 Defaulting to unpruned grid for atomic number  74.
 Defaulting to unpruned grid for atomic number  74.
 Defaulting to unpruned grid for atomic number  74.
 Defaulting to unpruned grid for atomic number  74.
 Defaulting to unpruned grid for atomic number  74.
 Initial guess from the checkpoint file:  "a.chk"
 B after Tr=     0.000965   -0.001409    0.000116
         Rot=    1.000000    0.000008    0.000010    0.000056 Ang=   0.01 deg.
 Requested convergence on RMS density matrix=1.00D-08 within  64 cycles.
 Requested convergence on MAX density matrix=1.00D-06.
 Requested convergence on             energy=1.00D-06.
 No special actions if energy rises.
 Defaulting to unpruned grid for atomic number  74.
 Defaulting to unpruned grid for atomic number  74.
 Defaulting to unpruned grid for atomic number  74.
 Defaulting to unpruned grid for atomic number  74.
 Defaulting to unpruned grid for atomic number  74.
 Defaulting to unpruned grid for atomic number  74.
 Defaulting to unpruned grid for atomic number  74.
 Defaulting to unpruned grid for atomic number  74.
 Defaulting to unpruned grid for atomic number  74.
 Defaulting to unpruned grid for atomic number  74.
 Defaulting to unpruned grid for atomic number  74.
 Defaulting to unpruned grid for atomic number  74.
 Defaulting to unpruned grid for atomic number  74.
 Defaulting to unpruned grid for atomic number  74.
 Defaulting to unpruned grid for atomic number  74.
 Defaulting to unpruned grid for atomic number  74.
 Defaulting to unpruned grid for atomic number  74.
 Defaulting to unpruned grid for atomic number  74.
 Defaulting to unpruned grid for atomic number  74.
 Defaulting to unpruned grid for atomic number  74.
 Defaulting to unpruned grid for atomic number  74.
 Defaulting to unpruned grid for atomic number  74.
 Defaulting to unpruned grid for atomic number  74.
 Defaulting to unpruned grid for atomic number  74.
 Defaulting to unpruned grid for atomic number  74.
 Defaulting to unpruned grid for atomic number  74.
 Defaulting to unpruned grid for atomic number  74.
 Defaulting to unpruned grid for atomic number  74.
 Defaulting to unpruned grid for atomic number  74.
 Defaulting to unpruned grid for atomic number  74.
 Defaulting to unpruned grid for atomic number  74.
 Defaulting to unpruned grid for atomic number  74.
 Defaulting to unpruned grid for atomic number  74.
 Defaulting to unpruned grid for atomic number  74.
 Defaulting to unpruned grid for atomic number  74.
 Defaulting to unpruned grid for atomic number  74.
 Defaulting to unpruned grid for atomic number  74.
 Defaulting to unpruned grid for atomic number  74.
 Defaulting to unpruned grid for atomic number  74.
 Defaulting to unpruned grid for atomic number  74.
 Defaulting to unpruned grid for atomic number  74.
 Defaulting to unpruned grid for atomic number  74.
 Defaulting to unpruned grid for atomic number  74.
 Defaulting to unpruned grid for atomic number  74.
 Defaulting to unpruned grid for atomic number  74.
 Defaulting to unpruned grid for atomic number  74.
 Defaulting to unpruned grid for atomic number  74.
 Defaulting to unpruned grid for atomic number  74.
 Defaulting to unpruned grid for atomic number  74.
 Defaulting to unpruned grid for atomic number  74.
 Defaulting to unpruned grid for atomic number  74.
 Defaulting to unpruned grid for atomic number  74.
 Defaulting to unpruned grid for atomic number  74.
 Defaulting to unpruned grid for atomic number  74.
 Defaulting to unpruned grid for atomic number  74.
 Defaulting to unpruned grid for atomic number  74.
 Inv3:  Mode=1 IEnd=    86124492.
 Iteration    1 A*A^-1 deviation from unit magnitude is 4.00D-15 for   1053.
 Iteration    1 A*A^-1 deviation from orthogonality  is 2.59D-15 for   3866   3129.
 Iteration    1 A^-1*A deviation from unit magnitude is 4.33D-15 for   4670.
 Iteration    1 A^-1*A deviation from orthogonality  is 3.68D-11 for   4428   3632.
 Error on total polarization charges =  0.01601
 SCF Done:  E(RwB97XD) =  -7327.69980994     A.U. after   11 cycles
            NFock= 11  Conv=0.79D-08     -V/T= 2.0831
 SMD-CDS (non-electrostatic) energy       (kcal/mol) =      -3.65
 (included in total energy above)
 QCSCF skips out because SCF is already converged.

 **********************************************************************

            Population analysis using the SCF Density.

 **********************************************************************

 Alpha  occ. eigenvalues -- -197.29035-130.00076-130.00040-129.99955-101.47605
 Alpha  occ. eigenvalues --  -22.62200 -19.33481 -19.33475 -19.33470 -19.33454
 Alpha  occ. eigenvalues --  -19.30720 -19.30683 -19.30681 -19.30672 -19.30659
 Alpha  occ. eigenvalues --  -19.30646 -19.30632 -19.30593 -19.30497 -19.30325
 Alpha  occ. eigenvalues --  -19.30320 -19.30039 -19.29321 -19.29316 -19.29287
 Alpha  occ. eigenvalues --  -19.29284 -19.29276 -19.29274 -19.29259 -19.29210
 Alpha  occ. eigenvalues --  -19.29176 -19.29150 -19.29144 -19.29134 -19.29107
 Alpha  occ. eigenvalues --  -19.29104 -19.29092 -19.29083 -19.29073 -19.29060
 Alpha  occ. eigenvalues --  -19.29037 -19.29007 -19.28968 -19.28945 -19.28929
 Alpha  occ. eigenvalues --  -19.28699 -19.11152 -19.11143 -19.11136 -13.37477
 Alpha  occ. eigenvalues --  -13.37441 -13.37344 -10.70406 -10.70399 -10.70399
 Alpha  occ. eigenvalues --  -10.70370 -10.70363 -10.70363 -10.70275 -10.70268
 Alpha  occ. eigenvalues --  -10.70266 -10.29753 -10.29306 -10.29239 -10.29033
 Alpha  occ. eigenvalues --  -10.28930 -10.28899 -10.28016 -10.27375  -9.38065
 Alpha  occ. eigenvalues --   -7.12888  -7.12847  -7.12844  -3.23283  -3.23268
 Alpha  occ. eigenvalues --   -3.23263  -3.23257  -3.23251  -3.23245  -3.23187
 Alpha  occ. eigenvalues --   -3.23187  -3.23133  -3.22907  -3.22899  -3.22621
 Alpha  occ. eigenvalues --   -2.91552  -1.93966  -1.93935  -1.93919  -1.87704
 Alpha  occ. eigenvalues --   -1.87634  -1.87624  -1.87556  -1.87472  -1.87459
 Alpha  occ. eigenvalues --   -1.87438  -1.87414  -1.87358  -1.87231  -1.87203
 Alpha  occ. eigenvalues --   -1.86974  -1.86595  -1.86476  -1.86468  -1.86445
 Alpha  occ. eigenvalues --   -1.86419  -1.86376  -1.86305  -1.86285  -1.86267
 Alpha  occ. eigenvalues --   -1.86253  -1.86224  -1.86189  -1.86118  -1.86088
 Alpha  occ. eigenvalues --   -1.86085  -1.86055  -1.86013  -1.85957  -1.85940
 Alpha  occ. eigenvalues --   -1.85878  -1.85840  -1.85750  -1.85604  -1.85524
 Alpha  occ. eigenvalues --   -1.51167  -1.51132  -1.51036  -1.12933  -1.11156
 Alpha  occ. eigenvalues --   -1.11056  -1.11053  -1.08906  -1.08497  -1.08447
 Alpha  occ. eigenvalues --   -1.08275  -1.07497  -1.07437  -1.07410  -1.06865
 Alpha  occ. eigenvalues --   -1.06844  -1.06798  -1.06267  -1.06222  -1.05309
 Alpha  occ. eigenvalues --   -1.05296  -1.04932  -1.04925  -1.04884  -1.04191
 Alpha  occ. eigenvalues --   -1.04185  -1.04156  -1.04020  -1.04008  -1.03989
 Alpha  occ. eigenvalues --   -1.03932  -1.03874  -1.03857  -1.03746  -1.03693
 Alpha  occ. eigenvalues --   -1.03613  -1.03527  -1.03278  -1.03254  -1.03104
 Alpha  occ. eigenvalues --   -1.03088  -1.03026  -1.02875  -0.94325  -0.86636
 Alpha  occ. eigenvalues --   -0.86603  -0.86514  -0.86448  -0.86446  -0.86441
 Alpha  occ. eigenvalues --   -0.86410  -0.86406  -0.86319  -0.86304  -0.82753
 Alpha  occ. eigenvalues --   -0.79717  -0.70777  -0.69704  -0.67955  -0.64546
 Alpha  occ. eigenvalues --   -0.63921  -0.63863  -0.63834  -0.63204  -0.63184
 Alpha  occ. eigenvalues --   -0.63080  -0.62964  -0.62600  -0.62533  -0.61852
 Alpha  occ. eigenvalues --   -0.61542  -0.61526  -0.61428  -0.61193  -0.61183
 Alpha  occ. eigenvalues --   -0.61131  -0.60368  -0.59425  -0.59394  -0.59390
 Alpha  occ. eigenvalues --   -0.59331  -0.59313  -0.58627  -0.57956  -0.57919
 Alpha  occ. eigenvalues --   -0.57854  -0.56985  -0.56956  -0.56910  -0.56247
 Alpha  occ. eigenvalues --   -0.56214  -0.56075  -0.55698  -0.54854  -0.54800
 Alpha  occ. eigenvalues --   -0.54753  -0.54515  -0.54205  -0.54087  -0.54042
 Alpha  occ. eigenvalues --   -0.53999  -0.53927  -0.53234  -0.53200  -0.53065
 Alpha  occ. eigenvalues --   -0.52999  -0.52879  -0.52691  -0.52668  -0.52627
 Alpha  occ. eigenvalues --   -0.52583  -0.52471  -0.52418  -0.52395  -0.51576
 Alpha  occ. eigenvalues --   -0.51549  -0.51348  -0.51323  -0.51299  -0.51239
 Alpha  occ. eigenvalues --   -0.51178  -0.51130  -0.50986  -0.50782  -0.50605
 Alpha  occ. eigenvalues --   -0.50583  -0.50565  -0.49905  -0.49879  -0.49269
 Alpha  occ. eigenvalues --   -0.49244  -0.49199  -0.49188  -0.49152  -0.49075
 Alpha  occ. eigenvalues --   -0.48879  -0.48053  -0.48013  -0.47887  -0.47586
 Alpha  occ. eigenvalues --   -0.47349  -0.47249  -0.47193  -0.46974  -0.46918
 Alpha  occ. eigenvalues --   -0.46834  -0.46599  -0.46567  -0.46422  -0.46152
 Alpha  occ. eigenvalues --   -0.46100  -0.46044  -0.45567  -0.45073  -0.44899
 Alpha  occ. eigenvalues --   -0.44859  -0.44149  -0.44114  -0.43972  -0.43494
 Alpha  occ. eigenvalues --   -0.43281  -0.43221  -0.43100  -0.43082  -0.43036
 Alpha  occ. eigenvalues --   -0.42718  -0.42704  -0.42661  -0.42576  -0.42566
 Alpha  occ. eigenvalues --   -0.42489  -0.42448  -0.42427  -0.42279  -0.42267
 Alpha  occ. eigenvalues --   -0.42231  -0.42013  -0.41889  -0.41830  -0.41813
 Alpha  occ. eigenvalues --   -0.41188  -0.41161  -0.41112  -0.41027  -0.40546
 Alpha  occ. eigenvalues --   -0.40519  -0.40507  -0.40340  -0.39408  -0.39377
 Alpha  occ. eigenvalues --   -0.36770  -0.32490  -0.28805  -0.24530  -0.24491
 Alpha  occ. eigenvalues --   -0.22996
 Alpha virt. eigenvalues --   -0.09134  -0.08949  -0.08330  -0.08291  -0.06895
 Alpha virt. eigenvalues --   -0.06854  -0.06766  -0.04160  -0.03948  -0.03903
 Alpha virt. eigenvalues --   -0.03628  -0.03433  -0.03360  -0.03162  -0.03035
 Alpha virt. eigenvalues --   -0.02981  -0.02927  -0.02156  -0.02119  -0.02087
 Alpha virt. eigenvalues --   -0.01429  -0.01403  -0.01332  -0.01241  -0.01164
 Alpha virt. eigenvalues --   -0.00011   0.00018   0.00086   0.01444   0.01507
 Alpha virt. eigenvalues --    0.01929   0.01962   0.02062   0.02188   0.02226
 Alpha virt. eigenvalues --    0.02233   0.02272   0.02369   0.02799   0.02869
 Alpha virt. eigenvalues --    0.02950   0.03022   0.03076   0.04371   0.04568
 Alpha virt. eigenvalues --    0.06822   0.07296   0.07469   0.07544   0.07756
 Alpha virt. eigenvalues --    0.08046   0.08509   0.08565   0.08808   0.09160
 Alpha virt. eigenvalues --    0.09330   0.09392   0.09649   0.09889   0.10246
 Alpha virt. eigenvalues --    0.10284   0.10338   0.10402   0.10440   0.10646
 Alpha virt. eigenvalues --    0.10923   0.11078   0.11104   0.11664   0.11723
 Alpha virt. eigenvalues --    0.12349   0.13144   0.13278   0.13383   0.13589
 Alpha virt. eigenvalues --    0.13756   0.14452   0.14588   0.14686   0.15047
 Alpha virt. eigenvalues --    0.15548   0.16172   0.16388   0.16596   0.16759
 Alpha virt. eigenvalues --    0.16764   0.16952   0.17117   0.17285   0.17695
 Alpha virt. eigenvalues --    0.17916   0.18156   0.18205   0.18385   0.18588
 Alpha virt. eigenvalues --    0.18787   0.18996   0.19266   0.19358   0.19510
 Alpha virt. eigenvalues --    0.19610   0.20181   0.20318   0.20416   0.20656
 Alpha virt. eigenvalues --    0.20728   0.20897   0.20946   0.21325   0.21407
 Alpha virt. eigenvalues --    0.21487   0.21626   0.21712   0.21889   0.22217
 Alpha virt. eigenvalues --    0.22523   0.22777   0.22997   0.23246   0.23364
 Alpha virt. eigenvalues --    0.23568   0.23915   0.24084   0.24269   0.24609
 Alpha virt. eigenvalues --    0.24791   0.25212   0.25582   0.25637   0.25917
 Alpha virt. eigenvalues --    0.26105   0.26270   0.26482   0.26578   0.26763
 Alpha virt. eigenvalues --    0.27104   0.27263   0.27443   0.27494   0.27726
 Alpha virt. eigenvalues --    0.28075   0.28315   0.28355   0.28645   0.28733
 Alpha virt. eigenvalues --    0.29326   0.29687   0.29945   0.30241   0.30541
 Alpha virt. eigenvalues --    0.30694   0.31061   0.31231   0.31783   0.31839
 Alpha virt. eigenvalues --    0.32277   0.34881   0.35267   0.35842   0.36337
 Alpha virt. eigenvalues --    0.36679   0.36948   0.37251   0.38122   0.38434
 Alpha virt. eigenvalues --    0.38660   0.39180   0.39517   0.39723   0.40272
 Alpha virt. eigenvalues --    0.40741   0.40910   0.41051   0.41164   0.41764
 Alpha virt. eigenvalues --    0.42133   0.42377   0.42649   0.43309   0.43551
 Alpha virt. eigenvalues --    0.43774   0.44508   0.44708   0.44852   0.45198
 Alpha virt. eigenvalues --    0.45711   0.46248   0.46530   0.46751   0.47173
 Alpha virt. eigenvalues --    0.47396   0.47674   0.47950   0.48082   0.48165
 Alpha virt. eigenvalues --    0.48356   0.48409   0.48620   0.48874   0.48967
 Alpha virt. eigenvalues --    0.49122   0.49338   0.49510   0.49834   0.49990
 Alpha virt. eigenvalues --    0.50193   0.50415   0.50651   0.50903   0.51227
 Alpha virt. eigenvalues --    0.51728   0.51880   0.51900   0.52349   0.52604
 Alpha virt. eigenvalues --    0.52659   0.52999   0.53097   0.53234   0.53301
 Alpha virt. eigenvalues --    0.53715   0.54060   0.54268   0.54392   0.54691
 Alpha virt. eigenvalues --    0.54982   0.55437   0.55721   0.56483   0.56552
 Alpha virt. eigenvalues --    0.56854   0.57401   0.57775   0.58179   0.58406
 Alpha virt. eigenvalues --    0.58666   0.59183   0.59527   0.60375   0.60906
 Alpha virt. eigenvalues --    0.61504   0.62658   0.62765   0.62826   0.63486
 Alpha virt. eigenvalues --    0.64302   0.65436   0.65721   0.65811   0.65933
 Alpha virt. eigenvalues --    0.66267   0.66917   0.67357   0.67398   0.67673
 Alpha virt. eigenvalues --    0.68002   0.68510   0.70143   0.70635   0.71284
 Alpha virt. eigenvalues --    0.71531   0.72065   0.72201   0.72284   0.72361
 Alpha virt. eigenvalues --    0.72549   0.72747   0.73211   0.73583   0.73997
 Alpha virt. eigenvalues --    0.74626   0.74940   0.75766   0.75830   0.75974
 Alpha virt. eigenvalues --    0.76302   0.76769   0.77019   0.77103   0.77414
 Alpha virt. eigenvalues --    0.77705   0.78540   0.79275   0.79537   0.79643
 Alpha virt. eigenvalues --    0.79819   0.80350   0.80692   0.81127   0.81551
 Alpha virt. eigenvalues --    0.81576   0.81748   0.82117   0.82779   0.83204
 Alpha virt. eigenvalues --    0.84225   0.84365   0.84972   0.85434   0.86105
 Alpha virt. eigenvalues --    0.87213   0.87515   0.88070   0.88175   0.88886
 Alpha virt. eigenvalues --    0.89160   0.89199   0.89545   0.89598   0.90508
 Alpha virt. eigenvalues --    0.90757   0.90866   0.91372   0.91605   0.91760
 Alpha virt. eigenvalues --    0.92678   0.93043   0.93822   0.93971   0.94104
 Alpha virt. eigenvalues --    0.94477   0.94868   0.95989   0.96102   0.96990
 Alpha virt. eigenvalues --    0.97016   0.97277   0.97460   0.97893   0.98003
 Alpha virt. eigenvalues --    0.98273   0.98413   0.98622   0.98719   0.98912
 Alpha virt. eigenvalues --    0.99221   0.99798   1.00244   1.00409   1.00495
 Alpha virt. eigenvalues --    1.00851   1.01418   1.01557   1.01669   1.02126
 Alpha virt. eigenvalues --    1.02184   1.02434   1.02578   1.02695   1.02858
 Alpha virt. eigenvalues --    1.02911   1.03718   1.03992   1.04085   1.04145
 Alpha virt. eigenvalues --    1.04340   1.04480   1.04561   1.04620   1.04874
 Alpha virt. eigenvalues --    1.05062   1.05236   1.05264   1.05599   1.05860
 Alpha virt. eigenvalues --    1.06049   1.06403   1.06872   1.07123   1.07328
 Alpha virt. eigenvalues --    1.07504   1.07973   1.08800   1.09153   1.09389
 Alpha virt. eigenvalues --    1.09416   1.09788   1.10082   1.10192   1.10234
 Alpha virt. eigenvalues --    1.10797   1.10869   1.11073   1.11248   1.11497
 Alpha virt. eigenvalues --    1.11657   1.11786   1.11939   1.12433   1.12670
 Alpha virt. eigenvalues --    1.12918   1.13573   1.13814   1.14518   1.15228
 Alpha virt. eigenvalues --    1.15320   1.15975   1.16364   1.16699   1.17096
 Alpha virt. eigenvalues --    1.17613   1.17762   1.17970   1.18733   1.19044
 Alpha virt. eigenvalues --    1.20092   1.20785   1.21056   1.21286   1.21335
 Alpha virt. eigenvalues --    1.21418   1.22027   1.22122   1.22933   1.23794
 Alpha virt. eigenvalues --    1.25018   1.25876   1.26358   1.26729   1.26817
 Alpha virt. eigenvalues --    1.27121   1.28026   1.28271   1.28629   1.28719
 Alpha virt. eigenvalues --    1.28836   1.29017   1.29218   1.29463   1.29740
 Alpha virt. eigenvalues --    1.30078   1.30195   1.30354   1.30774   1.30976
 Alpha virt. eigenvalues --    1.31078   1.31997   1.32243   1.32857   1.33128
 Alpha virt. eigenvalues --    1.33295   1.33537   1.33737   1.33745   1.34034
 Alpha virt. eigenvalues --    1.34231   1.34326   1.34554   1.34728   1.34878
 Alpha virt. eigenvalues --    1.35036   1.35182   1.35541   1.35843   1.35997
 Alpha virt. eigenvalues --    1.36128   1.36416   1.36704   1.36800   1.37009
 Alpha virt. eigenvalues --    1.37141   1.37344   1.37698   1.37737   1.37969
 Alpha virt. eigenvalues --    1.38053   1.38516   1.38739   1.38944   1.39170
 Alpha virt. eigenvalues --    1.39393   1.39543   1.39647   1.39901   1.40148
 Alpha virt. eigenvalues --    1.40417   1.40518   1.40739   1.40815   1.41076
 Alpha virt. eigenvalues --    1.41178   1.41363   1.41595   1.42063   1.42323
 Alpha virt. eigenvalues --    1.42567   1.43179   1.43219   1.43368   1.43465
 Alpha virt. eigenvalues --    1.43978   1.44251   1.44577   1.45507   1.45588
 Alpha virt. eigenvalues --    1.46335   1.46822   1.47619   1.47886   1.47930
 Alpha virt. eigenvalues --    1.48426   1.48835   1.49261   1.49765   1.50387
 Alpha virt. eigenvalues --    1.50588   1.51114   1.51624   1.51957   1.53425
 Alpha virt. eigenvalues --    1.53616   1.55428   1.55817   1.55915   1.55990
 Alpha virt. eigenvalues --    1.56233   1.56447   1.56753   1.56810   1.57188
 Alpha virt. eigenvalues --    1.57321   1.58165   1.58462   1.59215   1.59305
 Alpha virt. eigenvalues --    1.59799   1.60164   1.60537   1.60628   1.60654
 Alpha virt. eigenvalues --    1.60868   1.61287   1.62331   1.62352   1.62710
 Alpha virt. eigenvalues --    1.64221   1.64487   1.65088   1.65830   1.67178
 Alpha virt. eigenvalues --    1.67806   1.68086   1.69727   1.70549   1.70910
 Alpha virt. eigenvalues --    1.71471   1.71680   1.72526   1.73190   1.74345
 Alpha virt. eigenvalues --    1.75186   1.75286   1.75422   1.75861   1.76679
 Alpha virt. eigenvalues --    1.76752   1.77082   1.77381   1.77716   1.78569
 Alpha virt. eigenvalues --    1.78741   1.79176   1.79276   1.80451   1.80541
 Alpha virt. eigenvalues --    1.81309   1.81522   1.81841   1.82314   1.82778
 Alpha virt. eigenvalues --    1.83084   1.83332   1.83900   1.84368   1.84489
 Alpha virt. eigenvalues --    1.85291   1.85419   1.85828   1.86118   1.86435
 Alpha virt. eigenvalues --    1.86671   1.87279   1.87750   1.88350   1.88681
 Alpha virt. eigenvalues --    1.89315   1.90148   1.90271   1.90548   1.90634
 Alpha virt. eigenvalues --    1.90897   1.91126   1.91502   1.92423   1.93925
 Alpha virt. eigenvalues --    1.94845   1.95291   1.95436   1.95788   1.96158
 Alpha virt. eigenvalues --    1.98629   1.99371   1.99455   1.99542   2.05220
 Alpha virt. eigenvalues --    2.06987   2.07444   2.08225   2.08364   2.08732
 Alpha virt. eigenvalues --    2.09001   2.09431   2.09745   2.10488   2.11151
 Alpha virt. eigenvalues --    2.11600   2.11988   2.13007   2.15069   2.15512
 Alpha virt. eigenvalues --    2.15940   2.16850   2.17290   2.17741   2.17847
 Alpha virt. eigenvalues --    2.20201   2.20688   2.20818   2.20999   2.21395
 Alpha virt. eigenvalues --    2.21682   2.22326   2.24214   2.25357   2.25975
 Alpha virt. eigenvalues --    2.26444   2.26538   2.27264   2.28292   2.28595
 Alpha virt. eigenvalues --    2.29370   2.29653   2.30034   2.33709   2.35759
 Alpha virt. eigenvalues --    2.36647   2.39402   2.40997   2.41150   2.44018
 Alpha virt. eigenvalues --    2.44159   2.50705   2.51933   2.57663   2.64840
 Alpha virt. eigenvalues --    2.64904   2.65068   2.65757   2.66125   2.66548
 Alpha virt. eigenvalues --    2.66842   2.66883   2.66954   2.67070   2.67099
 Alpha virt. eigenvalues --    2.67178   2.67298   2.67388   2.67407   2.67580
 Alpha virt. eigenvalues --    2.67719   2.67831   2.67917   2.67963   2.68045
 Alpha virt. eigenvalues --    2.68934   2.69114   2.69261   2.69389   2.69905
 Alpha virt. eigenvalues --    2.70158   2.70218   2.70398   2.70582   2.70775
 Alpha virt. eigenvalues --    2.70807   2.71398   2.71468   2.71545   2.71635
 Alpha virt. eigenvalues --    2.71711   2.72020   2.72584   2.72819   2.72969
 Alpha virt. eigenvalues --    2.73065   2.73154   2.73228   2.73364   2.73371
 Alpha virt. eigenvalues --    2.73554   2.73720   2.73887   2.73914   2.74005
 Alpha virt. eigenvalues --    2.74138   2.74242   2.74406   2.74593   2.74762
 Alpha virt. eigenvalues --    2.74836   2.75019   2.75326   2.75862   2.76061
 Alpha virt. eigenvalues --    2.76171   2.76381   2.76537   2.76834   2.76946
 Alpha virt. eigenvalues --    2.77087   2.77172   2.77231   2.78374   2.78464
 Alpha virt. eigenvalues --    2.78672   2.78894   2.80011   2.80199   2.80335
 Alpha virt. eigenvalues --    2.81136   2.81699   2.81726   2.82005   2.82224
 Alpha virt. eigenvalues --    2.82293   2.82797   2.83131   2.83324   2.83759
 Alpha virt. eigenvalues --    2.83809   2.83948   2.84026   2.84334   2.85059
 Alpha virt. eigenvalues --    2.85601   2.86126   2.86217   2.86362   2.86552
 Alpha virt. eigenvalues --    2.86614   2.86790   2.86965   2.88118   2.88501
 Alpha virt. eigenvalues --    2.88806   2.89068   2.89612   2.89707   2.89796
 Alpha virt. eigenvalues --    2.89977   2.90059   2.90159   2.90427   2.90466
 Alpha virt. eigenvalues --    2.90647   2.91798   2.91899   2.92021   2.92056
 Alpha virt. eigenvalues --    2.92362   2.92557   2.92839   2.93070   2.93209
 Alpha virt. eigenvalues --    2.93345   2.93630   2.93840   2.94052   2.94220
 Alpha virt. eigenvalues --    2.94296   2.95057   2.95310   2.95512   2.95827
 Alpha virt. eigenvalues --    2.95974   2.96020   2.96591   2.96742   2.96822
 Alpha virt. eigenvalues --    2.96927   2.97096   2.97196   2.97282   2.97592
 Alpha virt. eigenvalues --    2.97665   2.97877   2.98003   2.98365   2.99261
 Alpha virt. eigenvalues --    2.99475   2.99500   2.99752   2.99876   3.00159
 Alpha virt. eigenvalues --    3.00338   3.00594   3.01394   3.01728   3.01977
 Alpha virt. eigenvalues --    3.03017   3.03578   3.03658   3.03995   3.04923
 Alpha virt. eigenvalues --    3.06302   3.06528   3.07022   3.11114   3.11365
 Alpha virt. eigenvalues --    3.11510   3.11614   3.12147   3.12547   3.13704
 Alpha virt. eigenvalues --    3.13798   3.13968   3.17031   3.20030   3.21561
 Alpha virt. eigenvalues --    3.21713   3.23863   3.32610   3.40517   3.41195
 Alpha virt. eigenvalues --    3.42083   3.42501   3.44342   3.44501   3.45402
 Alpha virt. eigenvalues --    3.45649   3.45843   3.46839   3.46940   3.47279
 Alpha virt. eigenvalues --    3.48801   3.51048   3.51592   3.52174   3.53341
 Alpha virt. eigenvalues --    3.53484   3.54152   3.54497   3.54792   3.54886
 Alpha virt. eigenvalues --    3.55065   3.55176   3.55564   3.56410   3.57507
 Alpha virt. eigenvalues --    3.57821   3.58225   3.59368   3.59595   3.60466
 Alpha virt. eigenvalues --    3.60587   3.61180   3.61590   3.61912   3.62483
 Alpha virt. eigenvalues --    3.69957   3.74898  68.64582  68.65633  68.66913
 Alpha virt. eigenvalues --   68.69278  68.72997  68.73898  68.81708  68.82841
 Alpha virt. eigenvalues --   68.83317  68.86158  68.87280  68.88516 576.23011
 Alpha virt. eigenvalues --  576.24036 576.25291 576.27604 576.31337 576.32227
 Alpha virt. eigenvalues --  576.39887 576.40997 576.41460 576.44195 576.45297
 Alpha virt. eigenvalues --  576.46526
          Condensed to atoms (all electrons):
 Mulliken charges:
               1
     1  Cl  -0.926373
     2  C   -0.081895
     3  C    0.041373
     4  C   -0.078197
     5  C   -0.033769
     6  C   -0.032487
     7  C   -0.050715
     8  H    0.027522
     9  H    0.028894
    10  H    0.040306
    11  H    0.036977
    12  H    0.039297
    13  C   -0.086245
    14  C    0.024516
    15  H    0.016511
    16  H    0.037233
    17  H    0.036541
    18  O   -0.663356
    19  O   -0.660651
    20  O   -0.655550
    21  O   -0.662704
    22  W    1.733682
    23  W    1.671456
    24  W    1.682285
    25  W    1.692070
    26  W    1.674381
    27  W    1.725212
    28  W    1.620431
    29  W    1.683634
    30  O   -0.320686
    31  O   -0.365905
    32  O   -0.365859
    33  O   -0.364042
    34  O   -0.664045
    35  O   -0.670466
    36  O   -0.660886
    37  O   -0.662861
    38  O   -0.366164
    39  O   -0.366568
    40  O   -0.291541
    41  O   -0.365655
    42  O   -0.669971
    43  O   -0.662276
    44  O   -0.658592
    45  O   -0.665372
    46  O   -0.366090
    47  O   -0.320337
    48  O   -0.355058
    49  O   -0.365227
    50  W    1.671213
    51  W    1.674983
    52  W    1.673169
    53  W    1.682668
    54  O   -0.722879
    55  O   -0.705355
    56  O   -0.725196
    57  O   -0.721054
    58  O   -0.704194
    59  O   -0.725585
    60  O   -0.723894
    61  O   -0.720217
    62  O   -0.722800
    63  O   -0.706409
    64  O   -0.721472
    65  O   -0.725398
    66  O   -0.799885
    67  O   -0.799369
    68  O   -0.797321
    69  O   -0.808965
    70  K    0.863508
    71  K    0.862800
    72  K    0.858874
    73  V    1.189994
 Sum of Mulliken charges =  -1.00000
 Mulliken charges with hydrogens summed into heavy atoms:
               1
     1  Cl  -0.926373
     2  C   -0.054373
     3  C    0.041373
     4  C   -0.049303
     5  C    0.006538
     6  C    0.004490
     7  C   -0.011418
    13  C   -0.069734
    14  C    0.098290
    18  O   -0.663356
    19  O   -0.660651
    20  O   -0.655550
    21  O   -0.662704
    22  W    1.733682
    23  W    1.671456
    24  W    1.682285
    25  W    1.692070
    26  W    1.674381
    27  W    1.725212
    28  W    1.620431
    29  W    1.683634
    30  O   -0.320686
    31  O   -0.365905
    32  O   -0.365859
    33  O   -0.364042
    34  O   -0.664045
    35  O   -0.670466
    36  O   -0.660886
    37  O   -0.662861
    38  O   -0.366164
    39  O   -0.366568
    40  O   -0.291541
    41  O   -0.365655
    42  O   -0.669971
    43  O   -0.662276
    44  O   -0.658592
    45  O   -0.665372
    46  O   -0.366090
    47  O   -0.320337
    48  O   -0.355058
    49  O   -0.365227
    50  W    1.671213
    51  W    1.674983
    52  W    1.673169
    53  W    1.682668
    54  O   -0.722879
    55  O   -0.705355
    56  O   -0.725196
    57  O   -0.721054
    58  O   -0.704194
    59  O   -0.725585
    60  O   -0.723894
    61  O   -0.720217
    62  O   -0.722800
    63  O   -0.706409
    64  O   -0.721472
    65  O   -0.725398
    66  O   -0.799885
    67  O   -0.799369
    68  O   -0.797321
    69  O   -0.808965
    70  K    0.863508
    71  K    0.862800
    72  K    0.858874
    73  V    1.189994
 Electronic spatial extent (au):  <R**2>=         317233.0766
 Charge=             -1.0000 electrons
 Dipole moment (field-independent basis, Debye):
    X=             51.9031    Y=            -50.2290    Z=            -38.5639  Tot=             81.8783
 Quadrupole moment (field-independent basis, Debye-Ang):
   XX=          -1074.5114   YY=           -864.6215   ZZ=           -911.8636
   XY=            449.3638   XZ=            465.2180   YZ=           -465.8085
 Traceless Quadrupole moment (field-independent basis, Debye-Ang):
   XX=           -124.1793   YY=             85.7107   ZZ=             38.4686
   XY=            449.3638   XZ=            465.2180   YZ=           -465.8085
 Octapole moment (field-independent basis, Debye-Ang**2):
  XXX=          13721.2153  YYY=           -825.7476  ZZZ=         -19108.6337  XYY=           5920.3277
  XXY=          -3679.1296  XXZ=          -9614.6587  XZZ=           7406.8949  YZZ=          -4030.2071
  YYZ=          -8761.6232  XYZ=           4728.0544
 Hexadecapole moment (field-independent basis, Debye-Ang**3):
 XXXX=        -162798.4446 YYYY=         -50111.4852 ZZZZ=        -345963.0007 XXXY=          37762.6027
 XXXZ=         125593.1060 YYYX=          18765.1571 YYYZ=         -10009.0489 ZZZX=         128352.5373
 ZZZY=         -33868.9787 XXYY=         -54733.3869 XXZZ=        -109803.8227 YYZZ=         -96481.8282
 XXYZ=         -42297.5447 YYXZ=          59679.5266 ZZXY=          49414.6035
 N-N= 2.101416759652D+04 E-N=-5.911344046538D+04  KE= 6.765238633551D+03
   1 Symmetry operations used in ECPInt.
 ECPInt:  NShTT=  127765 NPrTT=  468030 LenC2=   96844 LenP2D=  221661.
 LDataN:  DoStor=T MaxTD1= 9 Len=  602
 D1PCM: PCM CHGder 1st derivatives, ID1Alg=3 FixD1E=F DoIter=F DoCFld=F I1PDM=0.
 Calling FoFJK, ICntrl=      2127 FMM=T ISym2X=0 I1Cent= 0 IOpClX= 0 NMat=1 NMatS=1 NMatT=0.
 Defaulting to unpruned grid for atomic number  74.
 Defaulting to unpruned grid for atomic number  74.
 Defaulting to unpruned grid for atomic number  74.
 Defaulting to unpruned grid for atomic number  74.
 Defaulting to unpruned grid for atomic number  74.
 Defaulting to unpruned grid for atomic number  74.
 Defaulting to unpruned grid for atomic number  74.
 Defaulting to unpruned grid for atomic number  74.
 Defaulting to unpruned grid for atomic number  74.
 Defaulting to unpruned grid for atomic number  74.
 Defaulting to unpruned grid for atomic number  74.
 Defaulting to unpruned grid for atomic number  74.
 Defaulting to unpruned grid for atomic number  74.
 Defaulting to unpruned grid for atomic number  74.
 Defaulting to unpruned grid for atomic number  74.
 Defaulting to unpruned grid for atomic number  74.
 Defaulting to unpruned grid for atomic number  74.
 Defaulting to unpruned grid for atomic number  74.
 Defaulting to unpruned grid for atomic number  74.
 Defaulting to unpruned grid for atomic number  74.
 Defaulting to unpruned grid for atomic number  74.
 Defaulting to unpruned grid for atomic number  74.
 Defaulting to unpruned grid for atomic number  74.
 Defaulting to unpruned grid for atomic number  74.
 Defaulting to unpruned grid for atomic number  74.
 Defaulting to unpruned grid for atomic number  74.
 Defaulting to unpruned grid for atomic number  74.
 Defaulting to unpruned grid for atomic number  74.
 Defaulting to unpruned grid for atomic number  74.
 Defaulting to unpruned grid for atomic number  74.
 Defaulting to unpruned grid for atomic number  74.
 Defaulting to unpruned grid for atomic number  74.
 Defaulting to unpruned grid for atomic number  74.
 Defaulting to unpruned grid for atomic number  74.
 Defaulting to unpruned grid for atomic number  74.
 Defaulting to unpruned grid for atomic number  74.
 Defaulting to unpruned grid for atomic number  74.
 Defaulting to unpruned grid for atomic number  74.
 Defaulting to unpruned grid for atomic number  74.
 Defaulting to unpruned grid for atomic number  74.
 Defaulting to unpruned grid for atomic number  74.
 Defaulting to unpruned grid for atomic number  74.
 Defaulting to unpruned grid for atomic number  74.
 Defaulting to unpruned grid for atomic number  74.
 Defaulting to unpruned grid for atomic number  74.
 Defaulting to unpruned grid for atomic number  74.
 Defaulting to unpruned grid for atomic number  74.
 Defaulting to unpruned grid for atomic number  74.
 Defaulting to unpruned grid for atomic number  74.
 Defaulting to unpruned grid for atomic number  74.
 Defaulting to unpruned grid for atomic number  74.
 Defaulting to unpruned grid for atomic number  74.
 Defaulting to unpruned grid for atomic number  74.
 Defaulting to unpruned grid for atomic number  74.
 Defaulting to unpruned grid for atomic number  74.
 Defaulting to unpruned grid for atomic number  74.
 -------------------------------------------------------------------
 Center     Atomic                   Forces (Hartrees/Bohr)
 Number     Number              X              Y              Z
 -------------------------------------------------------------------
      1       17          -0.002625006    0.007485914    0.002422688
      2        6          -0.001337670   -0.000189657   -0.000838185
      3        6          -0.001368046   -0.000832849    0.002010563
      4        6           0.000821025    0.001106746    0.000843046
      5        6           0.000577542   -0.000139198    0.000527429
      6        6           0.000201406   -0.000442662    0.000963458
      7        6          -0.000627034   -0.000969726   -0.000014456
      8        1           0.000123701   -0.000193167   -0.000541025
      9        1           0.000048268   -0.000373056   -0.000231327
     10        1          -0.000042918   -0.000119974    0.000322300
     11        1          -0.000337037    0.000410785    0.000051435
     12        1           0.000029362   -0.000075807    0.000067972
     13        6           0.009125712    0.008212069   -0.005807899
     14        6          -0.004754626   -0.013909545    0.000319009
     15        1          -0.000842312    0.000091535    0.000205836
     16        1          -0.001041069    0.000835689    0.000777103
     17        1          -0.001633408    0.002240541    0.000210691
     18        8          -0.002931231    0.000850315    0.000351719
     19        8           0.002873646   -0.001133139    0.000455943
     20        8           0.002765712   -0.002562533    0.000027342
     21        8          -0.002428775    0.001641996   -0.000566140
     22       74           0.001302015    0.008909335   -0.008321208
     23       74          -0.002019921   -0.008547386   -0.008315996
     24       74           0.005730867    0.007531608    0.008530292
     25       74          -0.006019573   -0.006110897    0.008557163
     26       74           0.007163747   -0.006702093   -0.009413991
     27       74          -0.006530767    0.006594084   -0.008466004
     28       74          -0.010119127    0.002826421    0.009221381
     29       74           0.009211935   -0.001568166    0.009051484
     30        8          -0.000053673   -0.002698778    0.001864452
     31        8          -0.000086729    0.002219969    0.001481555
     32        8          -0.002088518   -0.001683379   -0.001792812
     33        8           0.002113331    0.001314108   -0.001909908
     34        8          -0.000603910   -0.000763180    0.003325797
     35        8           0.001062596   -0.000018619    0.003562862
     36        8           0.000660651   -0.000959916   -0.003524023
     37        8          -0.000142060    0.000704002   -0.003494958
     38        8          -0.003796638   -0.001126418   -0.001309161
     39        8           0.003663408    0.001009326   -0.001396465
     40        8           0.002224887   -0.005777666    0.001679371
     41        8          -0.001186836    0.003160971    0.001179968
     42        8          -0.001634457   -0.003208526    0.000857220
     43        8           0.002141371    0.002841037    0.000619640
     44        8          -0.000521826   -0.003493073   -0.000290911
     45        8           0.001293856    0.003465085   -0.000896642
     46        8          -0.001620527    0.002161575    0.002962043
     47        8           0.001507534   -0.001771379    0.002624454
     48        8           0.003200452    0.000209292   -0.003471519
     49        8          -0.002720550   -0.000409096   -0.002782276
     50       74           0.012859596    0.004172178    0.002540484
     51       74          -0.012968515   -0.003393505    0.002677930
     52       74          -0.005152422    0.014638654   -0.003182278
     53       74           0.004210503   -0.012030469   -0.002100901
     54        8          -0.000760229    0.001736500    0.002156432
     55        8           0.001100397   -0.001976966    0.001890831
     56        8           0.002166174    0.000030614   -0.002367512
     57        8          -0.001832328   -0.000682606   -0.002016639
     58        8           0.000747005   -0.002944057    0.001387746
     59        8           0.000084037    0.002439109    0.001571370
     60        8          -0.001735932   -0.001784376   -0.001692401
     61        8           0.001970484    0.001348560   -0.001711867
     62        8          -0.000992217    0.001985843    0.000980173
     63        8           0.001008227   -0.002676348    0.000463541
     64        8           0.002297700    0.000055284   -0.001271150
     65        8          -0.002374988   -0.000550984   -0.001025025
     66        8          -0.022927013   -0.004379708    0.014669718
     67        8           0.023573895    0.005164382    0.014356395
     68        8           0.010031052   -0.022076554   -0.014931954
     69        8          -0.009878633    0.021150883   -0.015050874
     70       19           0.000268342   -0.000762836   -0.000538259
     71       19           0.000792387    0.000370714    0.000546956
     72       19          -0.000752337    0.000071439    0.000663957
     73       23          -0.000463963    0.000051727    0.000294014
 -------------------------------------------------------------------
 Cartesian Forces:  Max     0.023573895 RMS     0.005311470

 GradGradGradGradGradGradGradGradGradGradGradGradGradGradGradGradGradGrad
 Berny optimization.
 Search for a local minimum.
 Step number   1 out of a maximum of    2
 All quantities printed in internal units (Hartrees-Bohrs-Radians)
 Second derivative matrix not updated -- first step.
 ITU=  0
     Eigenvalues ---    0.00000   0.00000   0.00000   0.00010   0.00091
     Eigenvalues ---    0.00092   0.00255   0.00568   0.00617   0.01644
     Eigenvalues ---    0.01978   0.02889   0.02944   0.03214   0.03412
     Eigenvalues ---    0.03461   0.03711   0.03722   0.04155   0.04499
     Eigenvalues ---    0.04598   0.04600   0.04614   0.04838   0.04852
     Eigenvalues ---    0.04999   0.05354   0.05574   0.05600   0.06364
     Eigenvalues ---    0.06415   0.06541   0.06781   0.06860   0.07046
     Eigenvalues ---    0.07312   0.07383   0.07619   0.08353   0.08410
     Eigenvalues ---    0.08740   0.08771   0.08908   0.08940   0.09750
     Eigenvalues ---    0.09935   0.10138   0.10376   0.10429   0.10506
     Eigenvalues ---    0.10878   0.10910   0.11573   0.11653   0.12006
     Eigenvalues ---    0.12050   0.12108   0.12485   0.12546   0.12738
     Eigenvalues ---    0.12765   0.12808   0.12862   0.13073   0.13136
     Eigenvalues ---    0.13797   0.13918   0.14350   0.14608   0.14741
     Eigenvalues ---    0.16800   0.16837   0.17010   0.17159   0.17592
     Eigenvalues ---    0.17682   0.18650   0.19816   0.19951   0.20233
     Eigenvalues ---    0.20881   0.21038   0.21939   0.21992   0.22093
     Eigenvalues ---    0.22536   0.23116   0.23378   0.23885   0.23923
     Eigenvalues ---    0.24629   0.24756   0.24959   0.25708   0.26121
     Eigenvalues ---    0.26228   0.26519   0.27554   0.27696   0.27897
     Eigenvalues ---    0.28367   0.28390   0.28912   0.29659   0.29971
     Eigenvalues ---    0.30659   0.30697   0.30771   0.30809   0.30872
     Eigenvalues ---    0.30982   0.31204   0.31392   0.31556   0.32427
     Eigenvalues ---    0.32637   0.32734   0.32764   0.32965   0.33494
     Eigenvalues ---    0.33612   0.35228   0.35620   0.35952   0.36906
     Eigenvalues ---    0.37487   0.37675   0.37704   0.38325   0.38567
     Eigenvalues ---    0.38930   0.39333   0.40263   0.40384   0.41504
     Eigenvalues ---    0.42299   0.42428   0.43620   0.44076   0.44919
     Eigenvalues ---    0.45472   0.45654   0.45934   0.47861   0.48261
     Eigenvalues ---    0.48545   0.49013   0.49170   0.49755   0.49814
     Eigenvalues ---    0.49999   0.50681   0.51358   0.51864   0.52515
     Eigenvalues ---    0.53355   0.53841   0.56356   0.59043   0.64347
     Eigenvalues ---    0.67470   0.76983   0.81880   0.83056   0.96822
     Eigenvalues ---    0.97266   0.99114   0.99996   1.02176   1.04415
     Eigenvalues ---    1.07882   1.11943   1.12253   1.12729   1.16440
     Eigenvalues ---    1.19712   1.20165   1.20539   1.22395   1.22982
     Eigenvalues ---    1.23182   1.26377   1.26931   1.27105   1.27204
     Eigenvalues ---    1.28024   1.29643   1.30121   1.45287   1.45894
     Eigenvalues ---    1.46026   1.48545   1.51954   1.52071   1.52227
     Eigenvalues ---    1.52854   1.55772   1.55910   1.57018   1.58666
     Eigenvalues ---    1.58764   1.59600   1.61786   1.65213   1.74689
     Eigenvalues ---    1.84285   1.88748   1.90946   1.92336   1.95287
     Eigenvalues ---    2.00839   2.03783   3.57373
 Eigenvalue     1 is   4.44D-16 Eigenvector:
                          Y11       Y12       Y6        Y10       Y7
   1                    0.17518   0.17518   0.17518   0.17518   0.17518
                          Y5        Y2        Y4        Y8        Y3
   1                    0.17518   0.17518   0.17518   0.17518   0.17518
 Eigenvalue     2 is   2.75D-07 Eigenvector:
                          Y16       X16       X11       Y11       Y14
   1                    0.33974  -0.26320   0.26157  -0.25139   0.24979
                          Y15       Y17       Y13       X14       X6
   1                    0.23552   0.21369   0.19196  -0.18587   0.18248
 Eigenvalue     3 is   2.76D-06 Eigenvector:
                          X9        X10       Y12       Y9        X12
   1                    0.32789   0.29046   0.27911  -0.26170  -0.25474
                          Y8        Y10       X8        X15       Y17
   1                    0.24815  -0.23101  -0.21910   0.21516   0.20916
 Quadratic step=1.505D+01 exceeds max=3.000D-01 adjusted using Lamda=-6.837D-03.
 Angle between NR and scaled steps=  40.28 degrees.
 Angle between quadratic step and forces=  69.30 degrees.
 Linear search not attempted -- first point.
 B after Tr=     0.004289    0.003420    0.002087
         Rot=    1.000000   -0.000169    0.000077    0.000267 Ang=  -0.04 deg.
 Variable       Old X    -DE/DX   Delta X   Delta X   Delta X     New X
                                 (Linear)    (Quad)   (Total)
    X1      -18.85638  -0.00263   0.00000  -0.00258   0.00659 -18.84978
    Y1       14.88263   0.00749   0.00000   0.00758   0.01438  14.89701
    Z1       19.76889   0.00242   0.00000   0.00261   0.00681  19.77570
    X2      -15.69867  -0.00134   0.00000  -0.01268  -0.00770 -15.70637
    Y2        8.01173  -0.00019   0.00000  -0.01869  -0.01470   7.99703
    Z2       23.12000  -0.00084   0.00000  -0.00977  -0.00741  23.11259
    X3      -17.12777  -0.00137   0.00000  -0.00206   0.00292 -17.12485
    Y3        7.39860  -0.00083   0.00000  -0.04368  -0.03820   7.36039
    Z3       20.96315   0.00201   0.00000  -0.00740  -0.00547  20.95768
    X4      -18.90478   0.00082   0.00000  -0.00482  -0.00092 -18.90570
    Y4        5.43334   0.00111   0.00000  -0.03457  -0.02822   5.40511
    Z4       21.16116   0.00084   0.00000   0.01944   0.02043  21.18159
    X5      -19.25302   0.00058   0.00000  -0.00917  -0.00630 -19.25932
    Y5        4.13335  -0.00014   0.00000  -0.01043  -0.00466   4.12869
    Z5       23.42024   0.00053   0.00000   0.03409   0.03460  23.45484
    X6      -17.81975   0.00020   0.00000  -0.01395  -0.01106 -17.83081
    Y6        4.76389  -0.00044   0.00000   0.00855   0.01284   4.77673
    Z6       25.54134   0.00096   0.00000   0.03052   0.03146  25.57280
    X7      -16.04058  -0.00063   0.00000  -0.01349  -0.00954 -16.05012
    Y7        6.70640  -0.00097   0.00000   0.00425   0.00765   6.71405
    Z7       25.37828  -0.00001   0.00000   0.00592   0.00780  25.38608
    X8      -14.31432   0.00012   0.00000  -0.00604  -0.00023 -14.31454
    Y8        9.54129  -0.00019   0.00000  -0.02513  -0.02185   9.51944
    Z8       23.04903  -0.00054   0.00000  -0.02969  -0.02660  23.02243
    X9      -20.03419   0.00005   0.00000   0.00080   0.00467 -20.02951
    Y9        4.93599  -0.00037   0.00000  -0.05516  -0.04765   4.88834
    Z9       19.50350  -0.00023   0.00000   0.02091   0.02155  19.52505
   X10      -20.64166  -0.00004   0.00000  -0.01085  -0.00881 -20.65047
   Y10        2.60811  -0.00012   0.00000  -0.00804  -0.00157   2.60654
   Z10       23.51963   0.00032   0.00000   0.04773   0.04751  23.56714
   X11      -18.06302  -0.00034   0.00000  -0.02093  -0.01886 -18.08188
   Y11        3.72516   0.00041   0.00000   0.03120   0.03502   3.76018
   Z11       27.30871   0.00005   0.00000   0.04196   0.04253  27.35124
   X12      -14.91066   0.00003   0.00000  -0.01064  -0.00667 -14.91733
   Y12        7.21299  -0.00008   0.00000   0.01860   0.02084   7.23383
   Z12       27.03189   0.00007   0.00000  -0.00009   0.00214  27.03403
   X13      -16.87511   0.00913   0.00000   0.02666   0.03270 -16.84242
   Y13        8.73767   0.00821   0.00000  -0.09096  -0.08481   8.65286
   Z13       18.55374  -0.00581   0.00000  -0.03907  -0.03667  18.51707
   X14      -15.32044  -0.00475   0.00000  -0.00886  -0.00170 -15.32214
   Y14       10.69178  -0.01391   0.00000  -0.09151  -0.08601  10.60577
   Z14       18.08310   0.00032   0.00000  -0.04544  -0.04213  18.04096
   X15      -18.11582  -0.00084   0.00000   0.02707   0.03298 -18.08284
   Y15        8.07424   0.00009   0.00000  -0.10773  -0.10041   7.97382
   Z15       17.03572   0.00021   0.00000  -0.03209  -0.03010  17.00562
   X16      -15.23867  -0.00104   0.00000  -0.02872  -0.02081 -15.25948
   Y16       11.55456   0.00084   0.00000  -0.08336  -0.07726  11.47730
   Z16       16.21126   0.00078   0.00000  -0.04119  -0.03759  16.17368
   X17      -13.96027  -0.00163   0.00000  -0.07278  -0.06543 -14.02570
   Y17       11.37676   0.00224   0.00000  -0.00206   0.00227  11.37902
   Z17       19.47608   0.00021   0.00000  -0.02573  -0.02196  19.45412
   X18       -1.91158  -0.00293   0.00000  -0.01292  -0.01259  -1.92417
   Y18       -3.33430   0.00085   0.00000  -0.00101  -0.00133  -3.33563
   Z18       14.10034   0.00035   0.00000   0.00581   0.00647  14.10680
   X19      -15.89242   0.00287   0.00000   0.01348   0.01426 -15.87816
   Y19       -2.50131  -0.00113   0.00000   0.01121   0.01833  -2.48298
   Z19       14.11010   0.00046   0.00000   0.00641   0.00520  14.11530
   X20      -13.34107   0.00277   0.00000   0.01968   0.02226 -13.31881
   Y20        2.53504  -0.00256   0.00000  -0.00034   0.00349   2.53853
   Z20       19.81757   0.00003   0.00000  -0.00302  -0.00213  19.81544
   X21       -4.40778  -0.00243   0.00000  -0.01471  -0.01788  -4.42566
   Y21       -8.21723   0.00164   0.00000   0.00866   0.00770  -8.20953
   Z21       19.95519  -0.00057   0.00000  -0.00838  -0.00975  19.94544
   X22       -6.47499   0.00130   0.00000   0.00122   0.00437  -6.47063
   Y22        1.40448   0.00891   0.00000   0.01076   0.01349   1.41797
   Z22       12.27833  -0.00832   0.00000  -0.00843  -0.00686  12.27147
   X23      -11.36006  -0.00202   0.00000   0.00212   0.00063 -11.35943
   Y23       -7.23020  -0.00855   0.00000   0.00143   0.00670  -7.22350
   Z23       12.44446  -0.00832   0.00000  -0.00705  -0.00916  12.43529
   X24       -6.86839   0.00573   0.00000   0.01840   0.02028  -6.84811
   Y24        1.73182   0.00753   0.00000   0.00054   0.00032   1.73215
   Z24       21.55619   0.00853   0.00000   0.00906   0.01068  21.56687
   X25      -10.91894  -0.00602   0.00000  -0.01473  -0.01768 -10.93662
   Y25       -7.30965  -0.00611   0.00000   0.00968   0.01161  -7.29804
   Z25       21.67751   0.00856   0.00000   0.00519   0.00312  21.68063
   X26       -4.66873   0.00716   0.00000  -0.00105  -0.00119  -4.66993
   Y26       -4.81106  -0.00670   0.00000  -0.00967  -0.00784  -4.81889
   Z26       12.05789  -0.00941   0.00000  -0.00512  -0.00538  12.05250
   X27      -13.12945  -0.00653   0.00000   0.00070   0.00261 -13.12684
   Y27       -1.00888   0.00659   0.00000   0.02228   0.02865  -0.98023
   Z27       11.99889  -0.00847   0.00000  -0.00429  -0.00457  11.99433
   X28      -12.90385  -0.01012   0.00000  -0.00398  -0.00333 -12.90717
   Y28       -0.47578   0.00283   0.00000   0.00551   0.00841  -0.46736
   Z28       21.91030   0.00922   0.00000   0.00443   0.00436  21.91466
   X29       -4.86091   0.00921   0.00000   0.00722   0.00541  -4.85550
   Y29       -5.09068  -0.00157   0.00000   0.00443   0.00301  -5.08767
   Z29       21.97547   0.00905   0.00000   0.00343   0.00305  21.97851
   X30       -6.04968  -0.00005   0.00000   0.02032   0.02502  -6.02467
   Y30        3.67976  -0.00270   0.00000  -0.00298   0.00025   3.68001
   Z30       10.08591   0.00186   0.00000  -0.01040  -0.00800  10.07791
   X31      -11.60681  -0.00009   0.00000  -0.01349  -0.01590 -11.62272
   Y31       -9.60528   0.00222   0.00000   0.00866   0.01480  -9.59047
   Z31       10.30241   0.00148   0.00000  -0.00628  -0.00923  10.29318
   X32       -5.12093  -0.00209   0.00000   0.00591   0.00832  -5.11261
   Y32        3.34622  -0.00168   0.00000   0.00232   0.00045   3.34667
   Z32       23.71045  -0.00179   0.00000   0.00917   0.01160  23.72205
   X33      -12.65124   0.00211   0.00000  -0.00234  -0.00645 -12.65770
   Y33       -8.84943   0.00131   0.00000   0.00608   0.00817  -8.84126
   Z33       23.89664  -0.00191   0.00000   0.00442   0.00156  23.89820
   X34       -5.09977  -0.00060   0.00000  -0.00375  -0.00197  -5.10174
   Y34       -1.63803  -0.00076   0.00000  -0.00410  -0.00153  -1.63956
   Z34       10.55575   0.00333   0.00000   0.01112   0.01187  10.56762
   X35      -12.69278   0.00106   0.00000   0.00693   0.00729 -12.68549
   Y35       -4.28851  -0.00002   0.00000   0.01473   0.02132  -4.26719
   Z35       10.63362   0.00356   0.00000   0.01291   0.01159  10.64521
   X36      -10.05993   0.00066   0.00000   0.00937   0.01061 -10.04932
   Y36        1.06554  -0.00096   0.00000  -0.00427  -0.00338   1.06216
   Z36       23.37742  -0.00352   0.00000  -0.01019  -0.00929  23.36813
   X37       -7.68654  -0.00014   0.00000  -0.00446  -0.00732  -7.69387
   Y37       -6.63094   0.00070   0.00000   0.01085   0.01045  -6.62048
   Z37       23.45949  -0.00349   0.00000  -0.01317  -0.01451  23.44498
   X38        0.55731  -0.00380   0.00000   0.00743   0.00901   0.56631
   Y38       -0.00897  -0.00113   0.00000  -0.00599  -0.00879  -0.01776
   Z38       17.52851  -0.00131   0.00000  -0.00468  -0.00251  17.52600
   X39      -18.36381   0.00366   0.00000  -0.00664  -0.00810 -18.37191
   Y39       -5.69452   0.00101   0.00000   0.01736   0.02462  -5.66991
   Z39       17.63810  -0.00140   0.00000  -0.00543  -0.00810  17.63000
   X40      -12.08671   0.00222   0.00000   0.02128   0.02650 -12.06021
   Y40        6.45446  -0.00578   0.00000   0.01226   0.01660   6.47107
   Z40       16.30716   0.00168   0.00000   0.01459   0.01700  16.32416
   X41       -5.60109  -0.00119   0.00000  -0.00913  -0.01390  -5.61499
   Y41      -12.18528   0.00316   0.00000  -0.00098  -0.00015 -12.18543
   Z41       16.52693   0.00118   0.00000   0.00371   0.00081  16.52774
   X42       -3.42379  -0.00163   0.00000  -0.00404  -0.00115  -3.42494
   Y42        1.48570  -0.00321   0.00000  -0.01085  -0.01038   1.47532
   Z42       14.14647   0.00086   0.00000   0.00442   0.00647  14.15294
   X43      -14.38559   0.00214   0.00000   0.00762   0.00580 -14.37979
   Y43       -7.33013   0.00284   0.00000   0.02059   0.02685  -7.30328
   Z43       14.29098   0.00062   0.00000   0.00453   0.00192  14.29290
   X44       -8.57054  -0.00052   0.00000   0.01303   0.01651  -8.55403
   Y44        4.19537  -0.00349   0.00000  -0.01132  -0.00999   4.18538
   Z44       19.69946  -0.00029   0.00000   0.00110   0.00328  19.70274
   X45       -9.19777   0.00129   0.00000  -0.00875  -0.01278  -9.21055
   Y45       -9.85512   0.00347   0.00000   0.02148   0.02309  -9.83203
   Z45       19.88408  -0.00090   0.00000  -0.00717  -0.00982  19.87426
   X46       -3.10457  -0.00162   0.00000   0.00228   0.00155  -3.10302
   Y46       -6.56320   0.00216   0.00000   0.00047   0.00221  -6.56099
   Z46        9.86870   0.00296   0.00000  -0.00029  -0.00090   9.86780
   X47      -14.78606   0.00151   0.00000  -0.00906  -0.00600 -14.79206
   Y47        0.50543  -0.00177   0.00000   0.01020   0.01821   0.52364
   Z47        9.73432   0.00262   0.00000   0.00373   0.00370   9.73802
   X48      -15.18841   0.00320   0.00000   0.00204   0.00243 -15.18598
   Y48       -0.33384   0.00021   0.00000   0.02043   0.02379  -0.31006
   Z48       24.15600  -0.00347   0.00000  -0.00172  -0.00209  24.15391
   X49       -2.53354  -0.00272   0.00000   0.00112  -0.00115  -2.53469
   Y49       -5.29587  -0.00041   0.00000  -0.01255  -0.01594  -5.31182
   Z49       24.17694  -0.00278   0.00000  -0.00139  -0.00149  24.17546
   X50       -2.39410   0.01286   0.00000   0.00918   0.01037  -2.38373
   Y50       -0.97478   0.00417   0.00000   0.00162   0.00067  -0.97411
   Z50       16.71290   0.00254   0.00000   0.00870   0.01009  16.72299
   X51      -15.41732  -0.01297   0.00000  -0.00795  -0.00878 -15.42611
   Y51       -4.74295  -0.00339   0.00000   0.01050   0.01647  -4.72648
   Z51       16.78759   0.00268   0.00000   0.00877   0.00688  16.79446
   X52      -11.21041  -0.00515   0.00000   0.01088   0.01440 -11.19601
   Y52        3.49963   0.01464   0.00000   0.01613   0.01975   3.51937
   Z52       17.09270  -0.00318   0.00000  -0.00544  -0.00390  17.08880
   X53       -6.55740   0.00421   0.00000  -0.00717  -0.01048  -6.56788
   Y53       -9.22512  -0.01203   0.00000  -0.00355  -0.00248  -9.22760
   Z53       17.31970  -0.00210   0.00000  -0.00992  -0.01196  17.30773
   X54       -8.00850  -0.00076   0.00000  -0.00071  -0.00131  -8.00981
   Y54       -5.84542   0.00174   0.00000  -0.00227   0.00155  -5.84387
   Z54       11.47386   0.00216   0.00000  -0.00624  -0.00737  11.46649
   X55       -9.78574   0.00110   0.00000   0.00208   0.00459  -9.78115
   Y55       -0.05448  -0.00198   0.00000   0.01390   0.01869  -0.03578
   Z55       11.36490   0.00189   0.00000  -0.00626  -0.00569  11.35921
   X56      -11.69577   0.00217   0.00000  -0.00656  -0.00776 -11.70353
   Y56       -3.78082   0.00003   0.00000   0.00655   0.00860  -3.77222
   Z56       22.53267  -0.00237   0.00000   0.00416   0.00316  22.53583
   X57       -6.02238  -0.00183   0.00000   0.01048   0.01033  -6.01206
   Y57       -1.79477  -0.00068   0.00000   0.00222   0.00122  -1.79355
   Z57       22.54604  -0.00202   0.00000   0.00671   0.00726  22.55331
   X58       -8.30324   0.00075   0.00000   0.00931   0.01293  -8.29032
   Y58        3.01899  -0.00294   0.00000   0.00932   0.01215   3.03113
   Z58       14.82886   0.00139   0.00000  -0.00433  -0.00250  14.82636
   X59       -9.45793   0.00008   0.00000  -0.00368  -0.00641  -9.46434
   Y59       -8.83360   0.00244   0.00000  -0.00010   0.00330  -8.83030
   Z59       14.98250   0.00157   0.00000  -0.00658  -0.00894  14.97356
   X60       -4.42447  -0.00174   0.00000   0.01413   0.01608  -4.40839
   Y60        1.13562  -0.00178   0.00000   0.00055  -0.00011   1.13551
   Z60       19.04982  -0.00169   0.00000   0.00704   0.00883  19.05865
   X61      -13.35761   0.00197   0.00000  -0.01160  -0.01390 -13.37151
   Y61       -6.82033   0.00135   0.00000   0.01043   0.01450  -6.80583
   Z61       19.16264  -0.00171   0.00000   0.00491   0.00263  19.16528
   X62       -4.87567  -0.00099   0.00000  -0.00374  -0.00564  -4.88131
   Y62       -7.31535   0.00199   0.00000  -0.00534  -0.00434  -7.31969
   Z62       14.85042   0.00098   0.00000  -0.00636  -0.00750  14.84292
   X63      -12.93742   0.00101   0.00000   0.00652   0.00933 -12.92808
   Y63        1.49038  -0.00268   0.00000   0.01690   0.02224   1.51262
   Z63       14.74513   0.00046   0.00000  -0.00447  -0.00387  14.74125
   X64      -14.82817   0.00230   0.00000  -0.00492  -0.00478 -14.83295
   Y64       -2.21800   0.00006   0.00000   0.01055   0.01539  -2.20262
   Z64       19.20440  -0.00127   0.00000   0.00497   0.00402  19.20842
   X65       -2.97301  -0.00237   0.00000   0.00631   0.00578  -2.96723
   Y65       -3.46623  -0.00055   0.00000   0.00038  -0.00111  -3.46734
   Z65       19.18748  -0.00103   0.00000   0.00478   0.00524  19.19271
   X66       -6.40088  -0.02293   0.00000  -0.03964  -0.03884  -6.43971
   Y66       -2.13220  -0.00438   0.00000  -0.00361  -0.00188  -2.13409
   Z66       15.14816   0.01467   0.00000   0.02317   0.02354  15.17170
   X67      -11.40021   0.02357   0.00000   0.04051   0.04049 -11.35972
   Y67       -3.68840   0.00516   0.00000   0.01812   0.02245  -3.66595
   Z67       15.20286   0.01436   0.00000   0.02369   0.02278  15.22563
   X68       -9.70694   0.01003   0.00000   0.02398   0.02515  -9.68179
   Y68       -0.37518  -0.02208   0.00000  -0.03078  -0.02854  -0.40372
   Z68       18.80687  -0.01493   0.00000  -0.02489  -0.02444  18.78243
   X69       -8.03682  -0.00988   0.00000  -0.02100  -0.02244  -8.05926
   Y69       -5.33230   0.02115   0.00000   0.04094   0.04229  -5.29001
   Z69       18.85962  -0.01505   0.00000  -0.02576  -0.02670  18.83291
   X70       -6.11206   0.00027   0.00000  -0.00442  -0.00795  -6.12001
   Y70      -11.55820  -0.00076   0.00000  -0.00560  -0.00253 -11.56073
   Z70       10.71076  -0.00054   0.00000  -0.00789  -0.01065  10.70010
   X71       -0.28980   0.00079   0.00000   0.01414   0.01486  -0.27494
   Y71        0.07180   0.00037   0.00000  -0.00168  -0.00600   0.06580
   Z71       23.33335   0.00055   0.00000   0.00774   0.00981  23.34316
   X72      -17.50994  -0.00075   0.00000  -0.01144  -0.01372 -17.52366
   Y72       -5.53490   0.00007   0.00000   0.01344   0.01828  -5.51662
   Z72       23.44666   0.00066   0.00000   0.00682   0.00434  23.45100
   X73       -8.89026  -0.00046   0.00000   0.00030   0.00043  -8.88983
   Y73       -2.87418   0.00005   0.00000   0.00618   0.00860  -2.86558
   Z73       16.99870   0.00029   0.00000  -0.00056  -0.00082  16.99789
         Item               Value     Threshold  Converged?
 Maximum Force            0.023574     0.000450     NO 
 RMS     Force            0.005311     0.000300     NO 
 Maximum Displacement     0.100410     0.001800     NO 
 RMS     Displacement     0.020035     0.001200     NO 
 Predicted change in Energy=-4.364204D-03
 GradGradGradGradGradGradGradGradGradGradGradGradGradGradGradGradGradGrad

 Unable to Open any file for archive entry.
 1\1\GINC-X11P1N2\Force\RwB97XD\def2SVP\C8H8Cl1K3O40V1W12(1-)\MAYUMIAO\
 01-Jun-2024\0\\# def2svp wb97xd scrf=(smd,solvent=acetonitrile) g09def
 ault scf=(xqc,maxcycle=64) force guess=read nosymm\\Title Card\\-1,1\C
 l,-9.97836497,7.87555059,10.46124637\C,-8.30737817,4.23962462,12.23457
 878\C,-9.06362448,3.91516904,11.09322237\C,-10.00397723,2.87519738,11.
 19800283\C,-10.18825926,2.18727462,12.39345964\C,-9.42980353,2.5209418
 2,13.51589342\C,-8.48830775,3.54887602,13.42960994\H,-7.57480942,5.049
 03579,12.19702095\H,-10.60163572,2.61201471,10.3208062\H,-10.92309683,
 1.38015432,12.44605041\H,-9.55853819,1.97127106,14.45114799\H,-7.89038
 142,3.81694884,14.30466033\C,-8.92992503,4.62377788,9.81821373\C,-8.10
 722658,5.65784751,9.56916214\H,-9.58648002,4.27270129,9.01491255\H,-8.
 06395654,6.1144103,8.57863049\H,-7.38745492,6.02031981,10.30629803\O,-
 1.01156454,-1.76443464,7.46157696\O,-8.40990582,-1.32363393,7.46674381
 \O,-7.05979056,1.34148447,10.48700719\O,-2.33249469,-4.34836837,10.559
 83015\W,-3.42641977,0.74321973,6.49741404\W,-6.01148352,-3.82605926,6.
 58532388\W,-3.63459438,0.91644197,11.40704666\W,-5.7780518,-3.86809996
 ,11.47124572\W,-2.47058706,-2.54590258,6.38075857\W,-6.94780306,-0.533
 87654,6.34954136\W,-6.8284207,-0.25176975,11.59442929\W,-2.57228259,-2
 .69387018,11.62891539\O,-3.20135494,1.9472454,5.33723213\O,-6.1420609,
 -5.08289439,5.45180032\O,-2.70988081,1.77074202,12.54703122\O,-6.69474
 995,-4.68291655,12.64555707\O,-2.69868264,-0.86680753,5.5858616\O,-6.7
 1672987,-2.26937934,5.62706991\O,-5.3234872,0.56385863,12.37079892\O,-
 4.06754326,-3.50894069,12.41422674\O,0.29491494,-0.00474551,9.27568862
 \O,-9.71771055,-3.01341178,9.33368139\O,-6.39600955,3.41555434,8.62937
 669\O,-2.96397046,-6.44817105,8.74567216\O,-1.81179098,0.78620094,7.48
 598875\O,-7.61252827,-3.87893856,7.56245852\O,-4.53533301,2.22009418,1
 0.42450499\O,-4.86724941,-5.21510311,10.52220196\O,-1.64286976,-3.4730
 9752,5.22228934\O,-7.82444454,0.2674598,5.15117788\O,-8.03735959,-0.17
 666274,12.78280436\O,-1.34068976,-2.80245493,12.79388738\W,-1.26690402
 ,-0.5158309,8.84408641\W,-8.15849691,-2.50986133,8.88360838\W,-5.93229
 384,1.85192344,9.0450665\W,-3.47002912,-4.88172414,9.16518836\O,-4.237
 91471,-3.09326391,6.07170658\O,-5.17838997,-0.02882873,6.01404539\O,-6
 .18913264,-2.00072519,11.92377343\O,-3.18690844,-0.94975091,11.9308520
 3\O,-4.39388682,1.59757858,7.84709513\O,-5.00491855,-4.67453912,7.9283
 9796\O,-2.34133,0.60094385,10.08072843\O,-7.06854313,-3.60916349,10.14
 043386\O,-2.58009119,-3.87111859,7.85850278\O,-6.84618542,0.7886764,7.
 80278525\O,-7.84673044,-1.17371581,10.16253339\O,-1.57325014,-1.834252
 54,10.15357504\O,-3.3871981,-1.12831416,8.01605934\O,-6.03273294,-1.95
 181648,8.04500446\O,-5.13669129,-0.19853835,9.95216729\O,-4.2529012,-2
 .82173344,9.98007855\K,-3.23436153,-6.11633621,5.66788896\K,-0.1533533
 2,0.03799497,12.34747738\K,-9.26586067,-2.92894183,12.40743679\V,-4.70
 452458,-1.52094931,8.99532718\\Version=ES64L-G16RevC.01\HF=-7327.69980
 99\RMSD=7.867e-09\RMSF=5.311e-03\Dipole=10.6309596,-21.5433406,2.52274
 34\Quadrupole=-92.324252,63.7238022,28.6004498,334.0909789,345.8782026
 ,-346.3172282\PG=C01 [X(C8H8Cl1K3O40V1W12)]\\@
 The archive entry for this job was punched.


 ERWIN WITH HIS PSI CAN DO
 CALCULATIONS QUITE A FEW.
 BUT ONE THING HAS NOT BEEN SEEN
 JUST WHAT DOES PSI REALLY MEAN.
 -- WALTER HUCKEL, TRANS. BY FELIX BLOCH
 Job cpu time:       0 days  9 hours 16 minutes 42.6 seconds.
 Elapsed time:       0 days  0 hours 10 minutes 32.3 seconds.
 File lengths (MBytes):  RWF=   1249 Int=      0 D2E=      0 Chk=    249 Scr=      1
 Normal termination of Gaussian 16 at Sat Jun  1 21:00:44 2024.
