 Entering Gaussian System, Link 0=g16
 Input=JOBS/17_A.gjf
 Output=JOBS/17_A.log
 Initial command:
 /data/app/gaussian/C01-avx2//g16/l1.exe "/tmp/Gau-608750.inp" -scrdir="/tmp/"
 Entering Link 1 = /data/app/gaussian/C01-avx2//g16/l1.exe PID=    608751.
  
 Copyright (c) 1988-2019, Gaussian, Inc.  All Rights Reserved.
  
 This is part of the Gaussian(R) 16 program.  It is based on
 the Gaussian(R) 09 system (copyright 2009, Gaussian, Inc.),
 the Gaussian(R) 03 system (copyright 2003, Gaussian, Inc.),
 the Gaussian(R) 98 system (copyright 1998, Gaussian, Inc.),
 the Gaussian(R) 94 system (copyright 1995, Gaussian, Inc.),
 the Gaussian 92(TM) system (copyright 1992, Gaussian, Inc.),
 the Gaussian 90(TM) system (copyright 1990, Gaussian, Inc.),
 the Gaussian 88(TM) system (copyright 1988, Gaussian, Inc.),
 the Gaussian 86(TM) system (copyright 1986, Carnegie Mellon
 University), and the Gaussian 82(TM) system (copyright 1983,
 Carnegie Mellon University). Gaussian is a federally registered
 trademark of Gaussian, Inc.
  
 This software contains proprietary and confidential information,
 including trade secrets, belonging to Gaussian, Inc.
  
 This software is provided under written license and may be
 used, copied, transmitted, or stored only in accord with that
 written license.
  
 The following legend is applicable only to US Government
 contracts under FAR:
  
                    RESTRICTED RIGHTS LEGEND
  
 Use, reproduction and disclosure by the US Government is
 subject to restrictions as set forth in subparagraphs (a)
 and (c) of the Commercial Computer Software - Restricted
 Rights clause in FAR 52.227-19.
  
 Gaussian, Inc.
 340 Quinnipiac St., Bldg. 40, Wallingford CT 06492
  
  
 ---------------------------------------------------------------
 Warning -- This program may not be used in any manner that
 competes with the business of Gaussian, Inc. or will provide
 assistance to any competitor of Gaussian, Inc.  The licensee
 of this program is prohibited from giving any competitor of
 Gaussian, Inc. access to this program.  By using this program,
 the user acknowledges that Gaussian, Inc. is engaged in the
 business of creating and licensing software in the field of
 computational chemistry and represents and warrants to the
 licensee that it is not a competitor of Gaussian, Inc. and that
 it will not use this program in any manner prohibited above.
 ---------------------------------------------------------------
  

 Cite this work as:
 Gaussian 16, Revision C.01,
 M. J. Frisch, G. W. Trucks, H. B. Schlegel, G. E. Scuseria, 
 M. A. Robb, J. R. Cheeseman, G. Scalmani, V. Barone, 
 G. A. Petersson, H. Nakatsuji, X. Li, M. Caricato, A. V. Marenich, 
 J. Bloino, B. G. Janesko, R. Gomperts, B. Mennucci, H. P. Hratchian, 
 J. V. Ortiz, A. F. Izmaylov, J. L. Sonnenberg, D. Williams-Young, 
 F. Ding, F. Lipparini, F. Egidi, J. Goings, B. Peng, A. Petrone, 
 T. Henderson, D. Ranasinghe, V. G. Zakrzewski, J. Gao, N. Rega, 
 G. Zheng, W. Liang, M. Hada, M. Ehara, K. Toyota, R. Fukuda, 
 J. Hasegawa, M. Ishida, T. Nakajima, Y. Honda, O. Kitao, H. Nakai, 
 T. Vreven, K. Throssell, J. A. Montgomery, Jr., J. E. Peralta, 
 F. Ogliaro, M. J. Bearpark, J. J. Heyd, E. N. Brothers, K. N. Kudin, 
 V. N. Staroverov, T. A. Keith, R. Kobayashi, J. Normand, 
 K. Raghavachari, A. P. Rendell, J. C. Burant, S. S. Iyengar, 
 J. Tomasi, M. Cossi, J. M. Millam, M. Klene, C. Adamo, R. Cammi, 
 J. W. Ochterski, R. L. Martin, K. Morokuma, O. Farkas, 
 J. B. Foresman, and D. J. Fox, Gaussian, Inc., Wallingford CT, 2019.
 
 ******************************************
 Gaussian 16:  ES64L-G16RevC.01  3-Jul-2019
                 1-Jun-2024 
 ******************************************
 %chk=a.chk
 %nprocshared=56
 Will use up to   56 processors via shared memory.
 %mem=96gb
 ----------------------------------------------------------------------
 # def2svp wb97xd scrf=(smd,solvent=acetonitrile) g09default scf=(xqc,m
 axcycle=64) force guess=read nosymm
 ----------------------------------------------------------------------
 1/10=7,30=1,38=1,158=3,167=1/1,3;
 2/12=2,15=1,17=6,18=5,40=1/2;
 3/5=43,7=101,11=2,25=1,27=10,30=1,70=32201,71=1,72=2,74=-58,75=-4,116=-2,158=3/1,2,3;
 4/5=1,60=-1/1;
 5/5=2,7=64,8=3,13=1,38=6,53=2,87=10/2,8;
 6/7=2,8=2,9=2,10=2,28=1,87=10/1;
 7/29=1,30=1,87=10/1,2,3,16;
 1/10=7,30=1,158=3,167=1/3;
 99//99;
 Using 2006 physical constants.
 ----------
 Title Card
 ----------
 Symbolic Z-matrix:
 Charge = -1 Multiplicity = 1
 17                   -9.98102   7.89163   10.4658 
 6                    -8.30721   4.23917   12.23431 
 6                    -9.06529   3.91524   11.09337 
 6                    -10.00417   2.87373   11.19802 
 6                    -10.18787   2.18622   12.393 
 6                    -9.42942   2.52057   13.51567 
 6                    -8.48768   3.54831   13.42891 
 1                    -7.57407   5.04775   12.19603 
 1                    -10.6019   2.60959   10.32075 
 1                    -10.92407   1.38038   12.44772 
 1                    -9.55925   1.97272   14.45137 
 1                    -7.89119   3.81762   14.30449 
 6                    -8.93266   4.62581   9.81956 
 6                    -8.11219   5.6604    9.57023 
 1                    -9.58491   4.26896   9.01459 
 1                    -8.06532   6.11333   8.5782 
 1                    -7.38898   6.02161   10.30553 
 8                    -1.01099  -1.76369   7.46063 
 8                    -8.41071  -1.32433   7.46601 
 8                    -7.05873   1.34243   10.48738 
 8                    -2.33238  -4.3496    10.56032 
 74                   -3.42516   0.74296   6.49617 
 74                   -6.0119   -3.82694   6.58489 
 74                   -3.63374   0.91723   11.40811 
 74                   -5.77856  -3.86871   11.47179 
 74                   -2.4706   -2.54625   6.38043 
 74                   -6.94672  -0.53487   6.34949 
 74                   -6.82802  -0.25131   11.59447 
 74                   -2.57264  -2.69425   11.62927 
 8                    -3.19968   1.94602   5.33454 
 8                    -6.14343  -5.08271   5.44877 
 8                    -2.71095   1.77135   12.55001 
 8                    -6.69342  -4.68423   12.64794 
 8                    -2.69811  -0.86709   5.585 
 8                    -6.71701  -2.26989   5.62663 
 8                    -5.32334   0.56438   12.37087 
 8                    -4.0672   -3.50961   12.41427 
 8                     0.29508  -0.00368   9.27419 
 8                    -9.718    -3.0145    9.33176 
 8                    -6.39348   3.41601   8.63039 
 8                    -2.96447  -6.44943   8.74703 
 8                    -1.81083   0.78563   7.48488 
 8                    -7.61279  -3.8789    7.56155 
 8                    -4.53459   2.22017   10.42528 
 8                    -4.86682  -5.21514   10.52292 
 8                    -1.64058  -3.47279   5.22303 
 8                    -7.82666   0.26691   5.15227 
 8                    -8.03796  -0.17411   12.78132 
 8                    -1.33984  -2.80538   12.79334 
 74                   -1.26637  -0.51609   8.84374 
 74                   -8.15875  -2.50963   8.88285 
 74                   -5.93133   1.8521    9.04491 
 74                   -3.46985  -4.8819    9.16599 
 8                    -4.23791  -3.09289   6.07129 
 8                    -5.17799  -0.02897   6.01287 
 8                    -6.18882  -2.00068   11.92395 
 8                    -3.18677  -0.94999   11.9318 
 8                    -4.39212   1.59588   7.84716 
 8                    -5.00566  -4.67495   7.9276 
 8                    -2.34151   0.60148   10.08127 
 8                    -7.06816  -3.61014   10.14077 
 8                    -2.58054  -3.87137   7.85873 
 8                    -6.84484   0.78816   7.80297 
 8                    -7.84612  -1.17407   10.16198 
 8                    -1.57376  -1.83399   10.15322 
 8                    -3.38653  -1.12915   8.01607 
 8                    -6.0331   -1.95093   8.04456 
 8                    -5.13756  -0.19841   9.95165 
 8                    -4.25203  -2.82198   9.97961 
 19                   -3.23373  -6.11874   5.66616 
 19                   -0.15101   0.03925   12.34924 
 19                   -9.26834  -2.92884   12.40985 
 23                   -4.70455  -1.52126   8.99517 
 

 GradGradGradGradGradGradGradGradGradGradGradGradGradGradGradGradGradGrad
 Berny optimization.
 Initialization pass.
 Trust Radius=3.00D-01 FncErr=1.00D-07 GrdErr=1.00D-07 EigMax=2.50D+02 EigMin=1.00D-04
 Number of steps in this run=      2 maximum allowed number of steps=      2.
 GradGradGradGradGradGradGradGradGradGradGradGradGradGradGradGradGradGrad

 Symmetry turned off by external request.
 Stoichiometry    C8H8ClK3O40VW12(1-)
 Framework group  C1[X(C8H8ClK3O40VW12)]
 Deg. of freedom   213
 Full point group                 C1      NOp   1
                          Input orientation:                          
 ---------------------------------------------------------------------
 Center     Atomic      Atomic             Coordinates (Angstroms)
 Number     Number       Type             X           Y           Z
 ---------------------------------------------------------------------
      1         17           0       -9.981017    7.891633   10.465797
      2          6           0       -8.307206    4.239172   12.234308
      3          6           0       -9.065290    3.915241   11.093368
      4          6           0      -10.004173    2.873732   11.198021
      5          6           0      -10.187869    2.186220   12.392996
      6          6           0       -9.429422    2.520565   13.515666
      7          6           0       -8.487679    3.548313   13.428907
      8          1           0       -7.574072    5.047753   12.196033
      9          1           0      -10.601897    2.609585   10.320753
     10          1           0      -10.924074    1.380380   12.447720
     11          1           0       -9.559247    1.972720   14.451366
     12          1           0       -7.891185    3.817620   14.304494
     13          6           0       -8.932657    4.625807    9.819556
     14          6           0       -8.112191    5.660404    9.570230
     15          1           0       -9.584908    4.268963    9.014589
     16          1           0       -8.065319    6.113335    8.578196
     17          1           0       -7.388984    6.021611   10.305527
     18          8           0       -1.010986   -1.763691    7.460633
     19          8           0       -8.410706   -1.324335    7.466011
     20          8           0       -7.058735    1.342433   10.487379
     21          8           0       -2.332381   -4.349605   10.560320
     22         74           0       -3.425161    0.742965    6.496166
     23         74           0       -6.011901   -3.826945    6.584892
     24         74           0       -3.633742    0.917229   11.408106
     25         74           0       -5.778564   -3.868713   11.471786
     26         74           0       -2.470599   -2.546247    6.380430
     27         74           0       -6.946723   -0.534871    6.349492
     28         74           0       -6.828021   -0.251315   11.594473
     29         74           0       -2.572638   -2.694253   11.629272
     30          8           0       -3.199679    1.946025    5.334539
     31          8           0       -6.143434   -5.082714    5.448770
     32          8           0       -2.710946    1.771353   12.550013
     33          8           0       -6.693423   -4.684234   12.647935
     34          8           0       -2.698107   -0.867088    5.585001
     35          8           0       -6.717005   -2.269893    5.626632
     36          8           0       -5.323345    0.564378   12.370866
     37          8           0       -4.067201   -3.509611   12.414270
     38          8           0        0.295078   -0.003683    9.274185
     39          8           0       -9.718001   -3.014497    9.331756
     40          8           0       -6.393479    3.416007    8.630393
     41          8           0       -2.964472   -6.449434    8.747028
     42          8           0       -1.810832    0.785630    7.484877
     43          8           0       -7.612785   -3.878900    7.561554
     44          8           0       -4.534587    2.220169   10.425276
     45          8           0       -4.866825   -5.215144   10.522921
     46          8           0       -1.640583   -3.472794    5.223027
     47          8           0       -7.826661    0.266913    5.152267
     48          8           0       -8.037960   -0.174112   12.781321
     49          8           0       -1.339840   -2.805382   12.793335
     50         74           0       -1.266370   -0.516092    8.843744
     51         74           0       -8.158749   -2.509632    8.882846
     52         74           0       -5.931330    1.852099    9.044906
     53         74           0       -3.469850   -4.881897    9.165991
     54          8           0       -4.237906   -3.092886    6.071287
     55          8           0       -5.177992   -0.028969    6.012872
     56          8           0       -6.188815   -2.000684   11.923948
     57          8           0       -3.186774   -0.949994   11.931798
     58          8           0       -4.392123    1.595877    7.847164
     59          8           0       -5.005659   -4.674948    7.927600
     60          8           0       -2.341509    0.601480   10.081272
     61          8           0       -7.068163   -3.610137   10.140770
     62          8           0       -2.580537   -3.871365    7.858734
     63          8           0       -6.844840    0.788156    7.802966
     64          8           0       -7.846125   -1.174066   10.161976
     65          8           0       -1.573757   -1.833995   10.153221
     66          8           0       -3.386529   -1.129152    8.016068
     67          8           0       -6.033097   -1.950927    8.044563
     68          8           0       -5.137564   -0.198406    9.951648
     69          8           0       -4.252027   -2.821975    9.979610
     70         19           0       -3.233728   -6.118736    5.666163
     71         19           0       -0.151007    0.039247   12.349244
     72         19           0       -9.268342   -2.928842   12.409853
     73         23           0       -4.704549   -1.521262    8.995175
 ---------------------------------------------------------------------
 Rotational constants (GHZ):           0.0171933           0.0133158           0.0131107
 Standard basis: def2SVP (5D, 7F)
  1217 basis functions,  2313 primitive gaussians,  1337 cartesian basis functions
   321 alpha electrons      321 beta electrons
       nuclear repulsion energy     21010.0697473782 Hartrees.
 NAtoms=   73 NActive=   73 NUniq=   73 SFac= 1.00D+00 NAtFMM=   60 NAOKFM=T Big=T
 Integral buffers will be    131072 words long.
 Raffenetti 2 integral format.
 Two-electron integral symmetry is turned off.
 Nuclear repulsion after empirical dispersion term =    21009.7917810158 Hartrees.
 Force PCM accuracy= 1.00D-10.
 ------------------------------------------------------------------------------
 Polarizable Continuum Model (PCM)
 =================================
 Model                : PCM (using non-symmetric T matrix).
 Atomic radii         : SMD-Coulomb.
 Polarization charges : Total charges.
 Charge compensation  : None.
 Solution method      : On-the-fly selection.
 Cavity type          : VdW (van der Waals Surface) (Alpha=1.000).
 Cavity algorithm     : GePol (No added spheres)
                        Default sphere list used, NSphG=   73.
                        Lebedev-Laikov grids with approx.  5.0 points / Ang**2.
                        Smoothing algorithm: York/Karplus (Gamma=1.0000).
                        Polarization charges: spherical gaussians, with
                                              point-specific exponents (IZeta= 3).
                        Self-potential: point-specific (ISelfS= 7).
                        Self-field    : sphere-specific E.n sum rule (ISelfD= 2).
 1st derivatives      : Analytical E(r).r(x)/FMM algorithm (CHGder, D1EAlg=3).
                        Cavity 1st derivative terms included.
 Solvent              : Acetonitrile, Eps=  35.688000 Eps(inf)=   1.806874
 ------------------------------------------------------------------------------
 ------------------------------------------------------------------------------
 Atomic radii for non-electrostatic terms: SMD-CDS.
 ------------------------------------------------------------------------------
 Nuclear repulsion after PCM non-electrostatic terms =    21009.7859585424 Hartrees.
 One-electron integrals computed using PRISM.
   1 Symmetry operations used in ECPInt.
 ECPInt:  NShTT=  127765 NPrTT=  468030 LenC2=   96834 LenP2D=  221620.
 LDataN:  DoStor=T MaxTD1= 8 Len=  415
 NBasis=  1217 RedAO= T EigKep=  1.35D-04  NBF=  1217
 NBsUse=  1217 1.00D-06 EigRej= -1.00D+00 NBFU=  1217
 Defaulting to unpruned grid for atomic number  74.
 Defaulting to unpruned grid for atomic number  74.
 Defaulting to unpruned grid for atomic number  74.
 Defaulting to unpruned grid for atomic number  74.
 Defaulting to unpruned grid for atomic number  74.
 Defaulting to unpruned grid for atomic number  74.
 Defaulting to unpruned grid for atomic number  74.
 Defaulting to unpruned grid for atomic number  74.
 Initial guess from the checkpoint file:  "a.chk"
 B after Tr=     0.000929   -0.001327    0.000168
         Rot=    1.000000    0.000011    0.000009    0.000052 Ang=   0.01 deg.
 Requested convergence on RMS density matrix=1.00D-08 within  64 cycles.
 Requested convergence on MAX density matrix=1.00D-06.
 Requested convergence on             energy=1.00D-06.
 No special actions if energy rises.
 Defaulting to unpruned grid for atomic number  74.
 Defaulting to unpruned grid for atomic number  74.
 Defaulting to unpruned grid for atomic number  74.
 Defaulting to unpruned grid for atomic number  74.
 Defaulting to unpruned grid for atomic number  74.
 Defaulting to unpruned grid for atomic number  74.
 Defaulting to unpruned grid for atomic number  74.
 Defaulting to unpruned grid for atomic number  74.
 Defaulting to unpruned grid for atomic number  74.
 Defaulting to unpruned grid for atomic number  74.
 Defaulting to unpruned grid for atomic number  74.
 Defaulting to unpruned grid for atomic number  74.
 Defaulting to unpruned grid for atomic number  74.
 Defaulting to unpruned grid for atomic number  74.
 Defaulting to unpruned grid for atomic number  74.
 Defaulting to unpruned grid for atomic number  74.
 Defaulting to unpruned grid for atomic number  74.
 Defaulting to unpruned grid for atomic number  74.
 Defaulting to unpruned grid for atomic number  74.
 Defaulting to unpruned grid for atomic number  74.
 Defaulting to unpruned grid for atomic number  74.
 Defaulting to unpruned grid for atomic number  74.
 Defaulting to unpruned grid for atomic number  74.
 Defaulting to unpruned grid for atomic number  74.
 Defaulting to unpruned grid for atomic number  74.
 Defaulting to unpruned grid for atomic number  74.
 Defaulting to unpruned grid for atomic number  74.
 Defaulting to unpruned grid for atomic number  74.
 Defaulting to unpruned grid for atomic number  74.
 Defaulting to unpruned grid for atomic number  74.
 Defaulting to unpruned grid for atomic number  74.
 Defaulting to unpruned grid for atomic number  74.
 Defaulting to unpruned grid for atomic number  74.
 Defaulting to unpruned grid for atomic number  74.
 Defaulting to unpruned grid for atomic number  74.
 Defaulting to unpruned grid for atomic number  74.
 Defaulting to unpruned grid for atomic number  74.
 Defaulting to unpruned grid for atomic number  74.
 Defaulting to unpruned grid for atomic number  74.
 Defaulting to unpruned grid for atomic number  74.
 Defaulting to unpruned grid for atomic number  74.
 Defaulting to unpruned grid for atomic number  74.
 Defaulting to unpruned grid for atomic number  74.
 Defaulting to unpruned grid for atomic number  74.
 Defaulting to unpruned grid for atomic number  74.
 Defaulting to unpruned grid for atomic number  74.
 Defaulting to unpruned grid for atomic number  74.
 Defaulting to unpruned grid for atomic number  74.
 Defaulting to unpruned grid for atomic number  74.
 Defaulting to unpruned grid for atomic number  74.
 Defaulting to unpruned grid for atomic number  74.
 Defaulting to unpruned grid for atomic number  74.
 Defaulting to unpruned grid for atomic number  74.
 Defaulting to unpruned grid for atomic number  74.
 Defaulting to unpruned grid for atomic number  74.
 Defaulting to unpruned grid for atomic number  74.
 Inv3:  Mode=1 IEnd=    86188800.
 Iteration    1 A*A^-1 deviation from unit magnitude is 3.55D-15 for    885.
 Iteration    1 A*A^-1 deviation from orthogonality  is 2.89D-15 for   3439   1548.
 Iteration    1 A^-1*A deviation from unit magnitude is 3.55D-15 for   2150.
 Iteration    1 A^-1*A deviation from orthogonality  is 1.08D-11 for   4429   3632.
 Error on total polarization charges =  0.01600
 SCF Done:  E(RwB97XD) =  -7327.70002396     A.U. after   12 cycles
            NFock= 12  Conv=0.36D-08     -V/T= 2.0831
 SMD-CDS (non-electrostatic) energy       (kcal/mol) =      -3.65
 (included in total energy above)
 QCSCF skips out because SCF is already converged.

 **********************************************************************

            Population analysis using the SCF Density.

 **********************************************************************

 Alpha  occ. eigenvalues -- -197.29047-130.00088-130.00056-129.99974-101.47600
 Alpha  occ. eigenvalues --  -22.62211 -19.33486 -19.33477 -19.33469 -19.33445
 Alpha  occ. eigenvalues --  -19.30707 -19.30678 -19.30675 -19.30667 -19.30663
 Alpha  occ. eigenvalues --  -19.30649 -19.30630 -19.30594 -19.30503 -19.30322
 Alpha  occ. eigenvalues --  -19.30302 -19.30052 -19.29323 -19.29315 -19.29289
 Alpha  occ. eigenvalues --  -19.29285 -19.29276 -19.29270 -19.29262 -19.29209
 Alpha  occ. eigenvalues --  -19.29184 -19.29154 -19.29150 -19.29135 -19.29111
 Alpha  occ. eigenvalues --  -19.29111 -19.29093 -19.29087 -19.29077 -19.29066
 Alpha  occ. eigenvalues --  -19.29037 -19.29004 -19.28968 -19.28946 -19.28935
 Alpha  occ. eigenvalues --  -19.28701 -19.11162 -19.11154 -19.11146 -13.37489
 Alpha  occ. eigenvalues --  -13.37458 -13.37363 -10.70419 -10.70412 -10.70411
 Alpha  occ. eigenvalues --  -10.70387 -10.70380 -10.70380 -10.70294 -10.70287
 Alpha  occ. eigenvalues --  -10.70285 -10.29768 -10.29306 -10.29242 -10.29039
 Alpha  occ. eigenvalues --  -10.28938 -10.28911 -10.28029 -10.27407  -9.38060
 Alpha  occ. eigenvalues --   -7.12882  -7.12842  -7.12839  -3.23287  -3.23270
 Alpha  occ. eigenvalues --   -3.23263  -3.23258  -3.23253  -3.23247  -3.23188
 Alpha  occ. eigenvalues --   -3.23183  -3.23134  -3.22909  -3.22899  -3.22628
 Alpha  occ. eigenvalues --   -2.91556  -1.93967  -1.93937  -1.93922  -1.87699
 Alpha  occ. eigenvalues --   -1.87633  -1.87616  -1.87553  -1.87467  -1.87454
 Alpha  occ. eigenvalues --   -1.87440  -1.87409  -1.87359  -1.87224  -1.87192
 Alpha  occ. eigenvalues --   -1.86986  -1.86596  -1.86477  -1.86468  -1.86445
 Alpha  occ. eigenvalues --   -1.86421  -1.86375  -1.86306  -1.86285  -1.86268
 Alpha  occ. eigenvalues --   -1.86254  -1.86223  -1.86189  -1.86119  -1.86088
 Alpha  occ. eigenvalues --   -1.86085  -1.86056  -1.86015  -1.85957  -1.85940
 Alpha  occ. eigenvalues --   -1.85879  -1.85842  -1.85751  -1.85608  -1.85528
 Alpha  occ. eigenvalues --   -1.51178  -1.51148  -1.51054  -1.12926  -1.11152
 Alpha  occ. eigenvalues --   -1.11052  -1.11044  -1.08900  -1.08492  -1.08439
 Alpha  occ. eigenvalues --   -1.08268  -1.07494  -1.07434  -1.07404  -1.06861
 Alpha  occ. eigenvalues --   -1.06839  -1.06793  -1.06264  -1.06218  -1.05305
 Alpha  occ. eigenvalues --   -1.05294  -1.04932  -1.04923  -1.04884  -1.04186
 Alpha  occ. eigenvalues --   -1.04181  -1.04151  -1.04010  -1.03999  -1.03983
 Alpha  occ. eigenvalues --   -1.03926  -1.03872  -1.03853  -1.03741  -1.03693
 Alpha  occ. eigenvalues --   -1.03606  -1.03528  -1.03271  -1.03233  -1.03106
 Alpha  occ. eigenvalues --   -1.03089  -1.03024  -1.02882  -0.94334  -0.86646
 Alpha  occ. eigenvalues --   -0.86617  -0.86530  -0.86469  -0.86457  -0.86451
 Alpha  occ. eigenvalues --   -0.86424  -0.86421  -0.86336  -0.86321  -0.82771
 Alpha  occ. eigenvalues --   -0.79735  -0.70770  -0.69722  -0.67960  -0.64539
 Alpha  occ. eigenvalues --   -0.63914  -0.63855  -0.63828  -0.63201  -0.63179
 Alpha  occ. eigenvalues --   -0.63071  -0.62973  -0.62593  -0.62522  -0.61847
 Alpha  occ. eigenvalues --   -0.61535  -0.61519  -0.61422  -0.61187  -0.61177
 Alpha  occ. eigenvalues --   -0.61126  -0.60361  -0.59416  -0.59387  -0.59383
 Alpha  occ. eigenvalues --   -0.59325  -0.59307  -0.58635  -0.57949  -0.57912
 Alpha  occ. eigenvalues --   -0.57848  -0.56980  -0.56949  -0.56904  -0.56241
 Alpha  occ. eigenvalues --   -0.56203  -0.56067  -0.55689  -0.54844  -0.54790
 Alpha  occ. eigenvalues --   -0.54743  -0.54530  -0.54200  -0.54081  -0.54039
 Alpha  occ. eigenvalues --   -0.53996  -0.53917  -0.53230  -0.53194  -0.53061
 Alpha  occ. eigenvalues --   -0.52992  -0.52872  -0.52692  -0.52664  -0.52621
 Alpha  occ. eigenvalues --   -0.52575  -0.52473  -0.52415  -0.52405  -0.51568
 Alpha  occ. eigenvalues --   -0.51544  -0.51343  -0.51315  -0.51291  -0.51231
 Alpha  occ. eigenvalues --   -0.51164  -0.51123  -0.50981  -0.50776  -0.50593
 Alpha  occ. eigenvalues --   -0.50579  -0.50560  -0.49899  -0.49877  -0.49266
 Alpha  occ. eigenvalues --   -0.49242  -0.49203  -0.49195  -0.49143  -0.49067
 Alpha  occ. eigenvalues --   -0.48872  -0.48049  -0.48005  -0.47885  -0.47617
 Alpha  occ. eigenvalues --   -0.47345  -0.47249  -0.47194  -0.46974  -0.46919
 Alpha  occ. eigenvalues --   -0.46834  -0.46596  -0.46563  -0.46419  -0.46151
 Alpha  occ. eigenvalues --   -0.46098  -0.46042  -0.45572  -0.45069  -0.44893
 Alpha  occ. eigenvalues --   -0.44854  -0.44145  -0.44114  -0.43969  -0.43494
 Alpha  occ. eigenvalues --   -0.43277  -0.43218  -0.43097  -0.43078  -0.43036
 Alpha  occ. eigenvalues --   -0.42716  -0.42702  -0.42658  -0.42574  -0.42564
 Alpha  occ. eigenvalues --   -0.42485  -0.42446  -0.42422  -0.42274  -0.42263
 Alpha  occ. eigenvalues --   -0.42229  -0.42011  -0.41885  -0.41827  -0.41815
 Alpha  occ. eigenvalues --   -0.41190  -0.41168  -0.41125  -0.41029  -0.40543
 Alpha  occ. eigenvalues --   -0.40519  -0.40504  -0.40330  -0.39410  -0.39378
 Alpha  occ. eigenvalues --   -0.36790  -0.32506  -0.28808  -0.24524  -0.24486
 Alpha  occ. eigenvalues --   -0.23027
 Alpha virt. eigenvalues --   -0.09146  -0.08950  -0.08329  -0.08286  -0.06898
 Alpha virt. eigenvalues --   -0.06851  -0.06762  -0.04178  -0.03949  -0.03906
 Alpha virt. eigenvalues --   -0.03631  -0.03447  -0.03370  -0.03166  -0.03034
 Alpha virt. eigenvalues --   -0.02979  -0.02931  -0.02159  -0.02122  -0.02092
 Alpha virt. eigenvalues --   -0.01440  -0.01406  -0.01335  -0.01250  -0.01167
 Alpha virt. eigenvalues --   -0.00013   0.00015   0.00080   0.01443   0.01496
 Alpha virt. eigenvalues --    0.01920   0.01954   0.02054   0.02184   0.02219
 Alpha virt. eigenvalues --    0.02231   0.02268   0.02365   0.02794   0.02866
 Alpha virt. eigenvalues --    0.02945   0.03014   0.03073   0.04350   0.04565
 Alpha virt. eigenvalues --    0.06824   0.07293   0.07465   0.07539   0.07749
 Alpha virt. eigenvalues --    0.08044   0.08498   0.08554   0.08798   0.09157
 Alpha virt. eigenvalues --    0.09327   0.09388   0.09645   0.09884   0.10234
 Alpha virt. eigenvalues --    0.10273   0.10330   0.10393   0.10434   0.10640
 Alpha virt. eigenvalues --    0.10913   0.11072   0.11097   0.11652   0.11717
 Alpha virt. eigenvalues --    0.12339   0.13134   0.13270   0.13375   0.13585
 Alpha virt. eigenvalues --    0.13753   0.14443   0.14583   0.14681   0.15040
 Alpha virt. eigenvalues --    0.15542   0.16152   0.16377   0.16573   0.16751
 Alpha virt. eigenvalues --    0.16756   0.16932   0.17110   0.17276   0.17688
 Alpha virt. eigenvalues --    0.17905   0.18151   0.18203   0.18377   0.18586
 Alpha virt. eigenvalues --    0.18772   0.18982   0.19252   0.19350   0.19501
 Alpha virt. eigenvalues --    0.19605   0.20175   0.20314   0.20411   0.20650
 Alpha virt. eigenvalues --    0.20720   0.20892   0.20936   0.21315   0.21396
 Alpha virt. eigenvalues --    0.21475   0.21617   0.21703   0.21882   0.22206
 Alpha virt. eigenvalues --    0.22511   0.22764   0.22987   0.23232   0.23358
 Alpha virt. eigenvalues --    0.23558   0.23909   0.24076   0.24262   0.24598
 Alpha virt. eigenvalues --    0.24785   0.25205   0.25575   0.25628   0.25916
 Alpha virt. eigenvalues --    0.26093   0.26262   0.26480   0.26579   0.26764
 Alpha virt. eigenvalues --    0.27093   0.27258   0.27439   0.27484   0.27717
 Alpha virt. eigenvalues --    0.28067   0.28307   0.28349   0.28640   0.28726
 Alpha virt. eigenvalues --    0.29316   0.29669   0.29932   0.30229   0.30526
 Alpha virt. eigenvalues --    0.30680   0.31049   0.31219   0.31774   0.31830
 Alpha virt. eigenvalues --    0.32269   0.34877   0.35260   0.35837   0.36332
 Alpha virt. eigenvalues --    0.36676   0.36942   0.37250   0.38128   0.38433
 Alpha virt. eigenvalues --    0.38663   0.39185   0.39523   0.39725   0.40280
 Alpha virt. eigenvalues --    0.40735   0.40908   0.41046   0.41159   0.41759
 Alpha virt. eigenvalues --    0.42133   0.42371   0.42647   0.43303   0.43548
 Alpha virt. eigenvalues --    0.43764   0.44505   0.44703   0.44841   0.45187
 Alpha virt. eigenvalues --    0.45701   0.46240   0.46520   0.46740   0.47160
 Alpha virt. eigenvalues --    0.47398   0.47667   0.47950   0.48083   0.48168
 Alpha virt. eigenvalues --    0.48352   0.48405   0.48618   0.48866   0.48972
 Alpha virt. eigenvalues --    0.49126   0.49343   0.49514   0.49847   0.49989
 Alpha virt. eigenvalues --    0.50200   0.50438   0.50653   0.50916   0.51229
 Alpha virt. eigenvalues --    0.51718   0.51872   0.51906   0.52348   0.52606
 Alpha virt. eigenvalues --    0.52657   0.52995   0.53086   0.53231   0.53289
 Alpha virt. eigenvalues --    0.53717   0.54059   0.54266   0.54391   0.54682
 Alpha virt. eigenvalues --    0.54986   0.55435   0.55712   0.56475   0.56548
 Alpha virt. eigenvalues --    0.56847   0.57392   0.57763   0.58163   0.58393
 Alpha virt. eigenvalues --    0.58652   0.59167   0.59516   0.60366   0.60897
 Alpha virt. eigenvalues --    0.61489   0.62630   0.62755   0.62815   0.63454
 Alpha virt. eigenvalues --    0.64294   0.65420   0.65712   0.65798   0.65919
 Alpha virt. eigenvalues --    0.66251   0.66904   0.67337   0.67383   0.67654
 Alpha virt. eigenvalues --    0.67981   0.68497   0.70116   0.70620   0.71259
 Alpha virt. eigenvalues --    0.71511   0.72048   0.72179   0.72264   0.72338
 Alpha virt. eigenvalues --    0.72532   0.72721   0.73201   0.73576   0.73993
 Alpha virt. eigenvalues --    0.74619   0.74945   0.75751   0.75816   0.75966
 Alpha virt. eigenvalues --    0.76310   0.76756   0.76995   0.77054   0.77405
 Alpha virt. eigenvalues --    0.77699   0.78535   0.79263   0.79528   0.79635
 Alpha virt. eigenvalues --    0.79816   0.80343   0.80686   0.81115   0.81539
 Alpha virt. eigenvalues --    0.81572   0.81741   0.82112   0.82768   0.83202
 Alpha virt. eigenvalues --    0.84213   0.84361   0.84963   0.85427   0.86103
 Alpha virt. eigenvalues --    0.87191   0.87515   0.88066   0.88165   0.88875
 Alpha virt. eigenvalues --    0.89156   0.89202   0.89540   0.89596   0.90495
 Alpha virt. eigenvalues --    0.90743   0.90851   0.91363   0.91598   0.91749
 Alpha virt. eigenvalues --    0.92667   0.93037   0.93824   0.93978   0.94107
 Alpha virt. eigenvalues --    0.94470   0.94865   0.95990   0.96098   0.96990
 Alpha virt. eigenvalues --    0.97007   0.97283   0.97453   0.97884   0.98003
 Alpha virt. eigenvalues --    0.98273   0.98411   0.98622   0.98713   0.98904
 Alpha virt. eigenvalues --    0.99217   0.99786   1.00214   1.00394   1.00489
 Alpha virt. eigenvalues --    1.00859   1.01417   1.01566   1.01665   1.02124
 Alpha virt. eigenvalues --    1.02181   1.02434   1.02575   1.02696   1.02858
 Alpha virt. eigenvalues --    1.02916   1.03709   1.03995   1.04090   1.04148
 Alpha virt. eigenvalues --    1.04335   1.04471   1.04559   1.04613   1.04870
 Alpha virt. eigenvalues --    1.05060   1.05241   1.05257   1.05593   1.05869
 Alpha virt. eigenvalues --    1.06042   1.06405   1.06848   1.07127   1.07320
 Alpha virt. eigenvalues --    1.07509   1.07972   1.08799   1.09111   1.09378
 Alpha virt. eigenvalues --    1.09417   1.09782   1.10084   1.10194   1.10237
 Alpha virt. eigenvalues --    1.10795   1.10875   1.11069   1.11240   1.11507
 Alpha virt. eigenvalues --    1.11660   1.11779   1.11946   1.12328   1.12667
 Alpha virt. eigenvalues --    1.12907   1.13568   1.13815   1.14501   1.15225
 Alpha virt. eigenvalues --    1.15314   1.15974   1.16345   1.16687   1.17079
 Alpha virt. eigenvalues --    1.17589   1.17739   1.17941   1.18722   1.19020
 Alpha virt. eigenvalues --    1.20003   1.20778   1.21049   1.21279   1.21329
 Alpha virt. eigenvalues --    1.21400   1.22023   1.22120   1.22929   1.23766
 Alpha virt. eigenvalues --    1.25017   1.25855   1.26374   1.26710   1.26804
 Alpha virt. eigenvalues --    1.27122   1.28014   1.28212   1.28614   1.28681
 Alpha virt. eigenvalues --    1.28834   1.29008   1.29210   1.29363   1.29731
 Alpha virt. eigenvalues --    1.30074   1.30181   1.30334   1.30762   1.30950
 Alpha virt. eigenvalues --    1.31044   1.31977   1.32218   1.32868   1.33112
 Alpha virt. eigenvalues --    1.33270   1.33519   1.33702   1.33759   1.34015
 Alpha virt. eigenvalues --    1.34203   1.34304   1.34533   1.34694   1.34860
 Alpha virt. eigenvalues --    1.34994   1.35183   1.35520   1.35797   1.36003
 Alpha virt. eigenvalues --    1.36109   1.36445   1.36697   1.36773   1.36984
 Alpha virt. eigenvalues --    1.37121   1.37327   1.37666   1.37690   1.37945
 Alpha virt. eigenvalues --    1.38017   1.38493   1.38713   1.38947   1.39169
 Alpha virt. eigenvalues --    1.39399   1.39534   1.39655   1.39882   1.40115
 Alpha virt. eigenvalues --    1.40403   1.40518   1.40750   1.40808   1.41046
 Alpha virt. eigenvalues --    1.41175   1.41336   1.41583   1.42070   1.42321
 Alpha virt. eigenvalues --    1.42560   1.43167   1.43206   1.43352   1.43444
 Alpha virt. eigenvalues --    1.43964   1.44229   1.44558   1.45404   1.45578
 Alpha virt. eigenvalues --    1.46332   1.46847   1.47624   1.47881   1.47920
 Alpha virt. eigenvalues --    1.48431   1.48824   1.49255   1.49756   1.50382
 Alpha virt. eigenvalues --    1.50581   1.51101   1.51608   1.51952   1.53408
 Alpha virt. eigenvalues --    1.53607   1.55422   1.55809   1.55903   1.55967
 Alpha virt. eigenvalues --    1.56209   1.56428   1.56742   1.56798   1.57192
 Alpha virt. eigenvalues --    1.57308   1.58160   1.58452   1.59211   1.59283
 Alpha virt. eigenvalues --    1.59782   1.60157   1.60527   1.60626   1.60640
 Alpha virt. eigenvalues --    1.60851   1.61281   1.62332   1.62341   1.62712
 Alpha virt. eigenvalues --    1.64206   1.64473   1.65086   1.65804   1.67175
 Alpha virt. eigenvalues --    1.67803   1.68081   1.69721   1.70546   1.70908
 Alpha virt. eigenvalues --    1.71475   1.71680   1.72525   1.73190   1.74333
 Alpha virt. eigenvalues --    1.75165   1.75258   1.75405   1.75826   1.76655
 Alpha virt. eigenvalues --    1.76725   1.77066   1.77351   1.77698   1.78560
 Alpha virt. eigenvalues --    1.78735   1.79149   1.79270   1.80431   1.80528
 Alpha virt. eigenvalues --    1.81281   1.81517   1.81822   1.82303   1.82764
 Alpha virt. eigenvalues --    1.83063   1.83315   1.83875   1.84358   1.84486
 Alpha virt. eigenvalues --    1.85276   1.85416   1.85798   1.86120   1.86411
 Alpha virt. eigenvalues --    1.86637   1.87260   1.87732   1.88342   1.88687
 Alpha virt. eigenvalues --    1.89318   1.90123   1.90237   1.90534   1.90618
 Alpha virt. eigenvalues --    1.90882   1.91148   1.91506   1.92420   1.93905
 Alpha virt. eigenvalues --    1.94844   1.95271   1.95416   1.95754   1.96140
 Alpha virt. eigenvalues --    1.98603   1.99339   1.99446   1.99532   2.05184
 Alpha virt. eigenvalues --    2.06911   2.07431   2.08205   2.08358   2.08715
 Alpha virt. eigenvalues --    2.08994   2.09413   2.09722   2.10475   2.11097
 Alpha virt. eigenvalues --    2.11549   2.11964   2.13000   2.15011   2.15427
 Alpha virt. eigenvalues --    2.15951   2.16808   2.17280   2.17719   2.17827
 Alpha virt. eigenvalues --    2.20183   2.20672   2.20816   2.20998   2.21394
 Alpha virt. eigenvalues --    2.21683   2.22296   2.24179   2.25338   2.25924
 Alpha virt. eigenvalues --    2.26440   2.26537   2.27281   2.28284   2.28570
 Alpha virt. eigenvalues --    2.29342   2.29645   2.30017   2.33553   2.35812
 Alpha virt. eigenvalues --    2.36583   2.39387   2.41001   2.41161   2.43972
 Alpha virt. eigenvalues --    2.44173   2.50668   2.51979   2.57745   2.64847
 Alpha virt. eigenvalues --    2.64914   2.65075   2.65769   2.66121   2.66551
 Alpha virt. eigenvalues --    2.66837   2.66884   2.66957   2.67068   2.67098
 Alpha virt. eigenvalues --    2.67177   2.67292   2.67387   2.67404   2.67559
 Alpha virt. eigenvalues --    2.67721   2.67812   2.67917   2.67957   2.68037
 Alpha virt. eigenvalues --    2.68938   2.69116   2.69263   2.69411   2.69936
 Alpha virt. eigenvalues --    2.70163   2.70224   2.70406   2.70582   2.70773
 Alpha virt. eigenvalues --    2.70811   2.71400   2.71470   2.71547   2.71631
 Alpha virt. eigenvalues --    2.71710   2.72020   2.72574   2.72821   2.72973
 Alpha virt. eigenvalues --    2.73068   2.73158   2.73227   2.73361   2.73370
 Alpha virt. eigenvalues --    2.73545   2.73722   2.73885   2.73917   2.74013
 Alpha virt. eigenvalues --    2.74138   2.74246   2.74402   2.74603   2.74763
 Alpha virt. eigenvalues --    2.74835   2.75024   2.75316   2.75859   2.76057
 Alpha virt. eigenvalues --    2.76163   2.76362   2.76527   2.76822   2.76946
 Alpha virt. eigenvalues --    2.77085   2.77169   2.77230   2.78371   2.78470
 Alpha virt. eigenvalues --    2.78665   2.78891   2.80004   2.80192   2.80327
 Alpha virt. eigenvalues --    2.81134   2.81704   2.81722   2.82010   2.82223
 Alpha virt. eigenvalues --    2.82303   2.82797   2.83123   2.83323   2.83762
 Alpha virt. eigenvalues --    2.83820   2.83950   2.84032   2.84337   2.85069
 Alpha virt. eigenvalues --    2.85604   2.86122   2.86216   2.86369   2.86557
 Alpha virt. eigenvalues --    2.86625   2.86793   2.86961   2.88061   2.88475
 Alpha virt. eigenvalues --    2.88778   2.89030   2.89599   2.89700   2.89785
 Alpha virt. eigenvalues --    2.89948   2.90042   2.90138   2.90414   2.90456
 Alpha virt. eigenvalues --    2.90633   2.91786   2.91889   2.92001   2.92038
 Alpha virt. eigenvalues --    2.92347   2.92544   2.92806   2.93053   2.93194
 Alpha virt. eigenvalues --    2.93328   2.93625   2.93810   2.94047   2.94200
 Alpha virt. eigenvalues --    2.94286   2.95042   2.95295   2.95500   2.95797
 Alpha virt. eigenvalues --    2.95962   2.95995   2.96550   2.96718   2.96794
 Alpha virt. eigenvalues --    2.96887   2.97064   2.97159   2.97257   2.97567
 Alpha virt. eigenvalues --    2.97653   2.97857   2.98002   2.98384   2.99218
 Alpha virt. eigenvalues --    2.99459   2.99478   2.99740   2.99865   3.00151
 Alpha virt. eigenvalues --    3.00349   3.00598   3.01399   3.01698   3.01947
 Alpha virt. eigenvalues --    3.03026   3.03552   3.03634   3.03995   3.04903
 Alpha virt. eigenvalues --    3.06264   3.06515   3.06996   3.11087   3.11331
 Alpha virt. eigenvalues --    3.11484   3.11583   3.12133   3.12525   3.13676
 Alpha virt. eigenvalues --    3.13776   3.13940   3.16951   3.19990   3.21596
 Alpha virt. eigenvalues --    3.21746   3.23894   3.32683   3.40496   3.41182
 Alpha virt. eigenvalues --    3.42031   3.42459   3.44325   3.44462   3.45358
 Alpha virt. eigenvalues --    3.45601   3.45812   3.46798   3.46908   3.47255
 Alpha virt. eigenvalues --    3.48762   3.50963   3.51551   3.52119   3.53282
 Alpha virt. eigenvalues --    3.53407   3.54120   3.54423   3.54762   3.54864
 Alpha virt. eigenvalues --    3.55043   3.55147   3.55562   3.56346   3.57440
 Alpha virt. eigenvalues --    3.57742   3.58145   3.59298   3.59530   3.60414
 Alpha virt. eigenvalues --    3.60535   3.61129   3.61533   3.61850   3.62411
 Alpha virt. eigenvalues --    3.69919   3.74915  68.64565  68.65619  68.66889
 Alpha virt. eigenvalues --   68.69267  68.72967  68.73879  68.81688  68.82807
 Alpha virt. eigenvalues --   68.83287  68.86108  68.87229  68.88473 576.22994
 Alpha virt. eigenvalues --  576.24023 576.25268 576.27593 576.31307 576.32209
 Alpha virt. eigenvalues --  576.39868 576.40964 576.41429 576.44146 576.45247
 Alpha virt. eigenvalues --  576.46484
          Condensed to atoms (all electrons):
 Mulliken charges:
               1
     1  Cl  -0.927360
     2  C   -0.081079
     3  C    0.040657
     4  C   -0.077659
     5  C   -0.033754
     6  C   -0.032192
     7  C   -0.050729
     8  H    0.027572
     9  H    0.029148
    10  H    0.040355
    11  H    0.036830
    12  H    0.039275
    13  C   -0.086496
    14  C    0.022681
    15  H    0.017153
    16  H    0.037758
    17  H    0.036984
    18  O   -0.663300
    19  O   -0.660320
    20  O   -0.655550
    21  O   -0.662407
    22  W    1.733304
    23  W    1.670698
    24  W    1.681251
    25  W    1.691223
    26  W    1.674157
    27  W    1.725219
    28  W    1.620407
    29  W    1.683402
    30  O   -0.320920
    31  O   -0.366468
    32  O   -0.365843
    33  O   -0.364237
    34  O   -0.663978
    35  O   -0.670246
    36  O   -0.660801
    37  O   -0.662626
    38  O   -0.365841
    39  O   -0.366413
    40  O   -0.291400
    41  O   -0.365971
    42  O   -0.669894
    43  O   -0.662083
    44  O   -0.658459
    45  O   -0.665294
    46  O   -0.365933
    47  O   -0.321174
    48  O   -0.354675
    49  O   -0.365301
    50  W    1.670994
    51  W    1.674642
    52  W    1.673626
    53  W    1.682684
    54  O   -0.722677
    55  O   -0.705138
    56  O   -0.725251
    57  O   -0.720929
    58  O   -0.704275
    59  O   -0.725327
    60  O   -0.723760
    61  O   -0.719931
    62  O   -0.722770
    63  O   -0.706405
    64  O   -0.721409
    65  O   -0.725342
    66  O   -0.799731
    67  O   -0.799660
    68  O   -0.797012
    69  O   -0.808863
    70  K    0.863887
    71  K    0.863255
    72  K    0.859427
    73  V    1.190294
 Sum of Mulliken charges =  -1.00000
 Mulliken charges with hydrogens summed into heavy atoms:
               1
     1  Cl  -0.927360
     2  C   -0.053507
     3  C    0.040657
     4  C   -0.048512
     5  C    0.006602
     6  C    0.004638
     7  C   -0.011454
    13  C   -0.069343
    14  C    0.097423
    18  O   -0.663300
    19  O   -0.660320
    20  O   -0.655550
    21  O   -0.662407
    22  W    1.733304
    23  W    1.670698
    24  W    1.681251
    25  W    1.691223
    26  W    1.674157
    27  W    1.725219
    28  W    1.620407
    29  W    1.683402
    30  O   -0.320920
    31  O   -0.366468
    32  O   -0.365843
    33  O   -0.364237
    34  O   -0.663978
    35  O   -0.670246
    36  O   -0.660801
    37  O   -0.662626
    38  O   -0.365841
    39  O   -0.366413
    40  O   -0.291400
    41  O   -0.365971
    42  O   -0.669894
    43  O   -0.662083
    44  O   -0.658459
    45  O   -0.665294
    46  O   -0.365933
    47  O   -0.321174
    48  O   -0.354675
    49  O   -0.365301
    50  W    1.670994
    51  W    1.674642
    52  W    1.673626
    53  W    1.682684
    54  O   -0.722677
    55  O   -0.705138
    56  O   -0.725251
    57  O   -0.720929
    58  O   -0.704275
    59  O   -0.725327
    60  O   -0.723760
    61  O   -0.719931
    62  O   -0.722770
    63  O   -0.706405
    64  O   -0.721409
    65  O   -0.725342
    66  O   -0.799731
    67  O   -0.799660
    68  O   -0.797012
    69  O   -0.808863
    70  K    0.863887
    71  K    0.863255
    72  K    0.859427
    73  V    1.190294
 Electronic spatial extent (au):  <R**2>=         317271.7985
 Charge=             -1.0000 electrons
 Dipole moment (field-independent basis, Debye):
    X=             51.9402    Y=            -50.3362    Z=            -38.5273  Tot=             81.9504
 Quadrupole moment (field-independent basis, Debye-Ang):
   XX=          -1074.8491   YY=           -866.0939   ZZ=           -911.1392
   XY=            450.6102   XZ=            465.3034   YZ=           -467.0005
 Traceless Quadrupole moment (field-independent basis, Debye-Ang):
   XX=           -124.1551   YY=             84.6001   ZZ=             39.5549
   XY=            450.6102   XZ=            465.3034   YZ=           -467.0005
 Octapole moment (field-independent basis, Debye-Ang**2):
  XXX=          13724.8202  YYY=           -842.6416  ZZZ=         -19096.8313  XYY=           5935.9691
  XXY=          -3692.9302  XXZ=          -9614.6930  XZZ=           7405.1241  YZZ=          -4043.8285
  YYZ=          -8779.0749  XYZ=           4742.9249
 Hexadecapole moment (field-independent basis, Debye-Ang**3):
 XXXX=        -162845.0227 YYYY=         -50300.8858 ZZZZ=        -345789.3839 XXXY=          37917.8207
 XXXZ=         125597.6703 YYYX=          18938.9204 YYYZ=         -10190.4538 ZZZX=         128302.4968
 ZZZY=         -34027.9751 XXYY=         -54903.0401 XXZZ=        -109773.9739 YYZZ=         -96687.7004
 XXYZ=         -42462.8973 YYXZ=          59854.7345 ZZXY=          49589.6736
 N-N= 2.100978595854D+04 E-N=-5.910460125331D+04  KE= 6.765212838088D+03
   1 Symmetry operations used in ECPInt.
 ECPInt:  NShTT=  127765 NPrTT=  468030 LenC2=   96834 LenP2D=  221620.
 LDataN:  DoStor=T MaxTD1= 9 Len=  602
 D1PCM: PCM CHGder 1st derivatives, ID1Alg=3 FixD1E=F DoIter=F DoCFld=F I1PDM=0.
 Calling FoFJK, ICntrl=      2127 FMM=T ISym2X=0 I1Cent= 0 IOpClX= 0 NMat=1 NMatS=1 NMatT=0.
 Defaulting to unpruned grid for atomic number  74.
 Defaulting to unpruned grid for atomic number  74.
 Defaulting to unpruned grid for atomic number  74.
 Defaulting to unpruned grid for atomic number  74.
 Defaulting to unpruned grid for atomic number  74.
 Defaulting to unpruned grid for atomic number  74.
 Defaulting to unpruned grid for atomic number  74.
 Defaulting to unpruned grid for atomic number  74.
 Defaulting to unpruned grid for atomic number  74.
 Defaulting to unpruned grid for atomic number  74.
 Defaulting to unpruned grid for atomic number  74.
 Defaulting to unpruned grid for atomic number  74.
 Defaulting to unpruned grid for atomic number  74.
 Defaulting to unpruned grid for atomic number  74.
 Defaulting to unpruned grid for atomic number  74.
 Defaulting to unpruned grid for atomic number  74.
 Defaulting to unpruned grid for atomic number  74.
 Defaulting to unpruned grid for atomic number  74.
 Defaulting to unpruned grid for atomic number  74.
 Defaulting to unpruned grid for atomic number  74.
 Defaulting to unpruned grid for atomic number  74.
 Defaulting to unpruned grid for atomic number  74.
 Defaulting to unpruned grid for atomic number  74.
 Defaulting to unpruned grid for atomic number  74.
 Defaulting to unpruned grid for atomic number  74.
 Defaulting to unpruned grid for atomic number  74.
 Defaulting to unpruned grid for atomic number  74.
 Defaulting to unpruned grid for atomic number  74.
 Defaulting to unpruned grid for atomic number  74.
 Defaulting to unpruned grid for atomic number  74.
 Defaulting to unpruned grid for atomic number  74.
 Defaulting to unpruned grid for atomic number  74.
 Defaulting to unpruned grid for atomic number  74.
 Defaulting to unpruned grid for atomic number  74.
 Defaulting to unpruned grid for atomic number  74.
 Defaulting to unpruned grid for atomic number  74.
 Defaulting to unpruned grid for atomic number  74.
 Defaulting to unpruned grid for atomic number  74.
 Defaulting to unpruned grid for atomic number  74.
 Defaulting to unpruned grid for atomic number  74.
 Defaulting to unpruned grid for atomic number  74.
 Defaulting to unpruned grid for atomic number  74.
 Defaulting to unpruned grid for atomic number  74.
 Defaulting to unpruned grid for atomic number  74.
 Defaulting to unpruned grid for atomic number  74.
 Defaulting to unpruned grid for atomic number  74.
 Defaulting to unpruned grid for atomic number  74.
 Defaulting to unpruned grid for atomic number  74.
 Defaulting to unpruned grid for atomic number  74.
 Defaulting to unpruned grid for atomic number  74.
 Defaulting to unpruned grid for atomic number  74.
 Defaulting to unpruned grid for atomic number  74.
 Defaulting to unpruned grid for atomic number  74.
 Defaulting to unpruned grid for atomic number  74.
 Defaulting to unpruned grid for atomic number  74.
 Defaulting to unpruned grid for atomic number  74.
 -------------------------------------------------------------------
 Center     Atomic                   Forces (Hartrees/Bohr)
 Number     Number              X              Y              Z
 -------------------------------------------------------------------
      1       17          -0.002532499    0.007368369    0.002342198
      2        6          -0.001741892   -0.000367214   -0.001402210
      3        6          -0.000904714   -0.000866213    0.002675603
      4        6           0.000793622    0.001485234    0.000129560
      5        6           0.000555210   -0.000309473    0.001461274
      6        6           0.000113243   -0.000229899    0.000502956
      7        6          -0.000803676   -0.001073947    0.000327658
      8        1           0.000152986   -0.000042082   -0.000532191
      9        1           0.000152816   -0.000235005   -0.000078957
     10        1           0.000072488   -0.000156862    0.000177160
     11        1          -0.000346656    0.000222898    0.000257957
     12        1           0.000146064   -0.000144132    0.000062735
     13        6           0.008304116    0.007042949   -0.006226103
     14        6          -0.003311460   -0.013358941    0.000207669
     15        1          -0.000830695    0.000469616    0.000425685
     16        1          -0.001260685    0.000969220    0.000762958
     17        1          -0.002152306    0.002298974    0.000130077
     18        8          -0.002979424    0.000708208    0.000472639
     19        8           0.003012896   -0.001080077    0.000568685
     20        8           0.002723668   -0.002610273   -0.000126734
     21        8          -0.002428642    0.001780763   -0.000657916
     22       74           0.001271533    0.008960118   -0.008430065
     23       74          -0.001927560   -0.009275870   -0.009129306
     24       74           0.005642140    0.007261457    0.008446579
     25       74          -0.006367541   -0.006160491    0.008956125
     26       74           0.007243364   -0.006686465   -0.009267701
     27       74          -0.007423964    0.007490262   -0.009404882
     28       74          -0.009883551    0.002785916    0.008798884
     29       74           0.009699955   -0.001404146    0.009269999
     30        8          -0.000162781   -0.002876742    0.002252891
     31        8           0.000086344    0.002981204    0.002396399
     32        8          -0.002059144   -0.001789682   -0.002057392
     33        8           0.002361515    0.001722285   -0.002523455
     34        8          -0.000633457   -0.000809307    0.003399250
     35        8           0.001128736    0.000043709    0.003602012
     36        8           0.000630351   -0.001050107   -0.003496630
     37        8          -0.000182664    0.000748009   -0.003489465
     38        8          -0.003577326   -0.001156145   -0.001120318
     39        8           0.003837654    0.001145789   -0.001306696
     40        8           0.001900553   -0.005162082    0.001454918
     41        8          -0.001382084    0.003892733    0.001297237
     42        8          -0.001716753   -0.003151633    0.000921179
     43        8           0.002156298    0.002808293    0.000722037
     44        8          -0.000566553   -0.003448176   -0.000391872
     45        8           0.001235164    0.003441432   -0.000995002
     46        8          -0.001833381    0.002119668    0.002974955
     47        8           0.002369945   -0.002379110    0.003475664
     48        8           0.003099996    0.000043328   -0.003226947
     49        8          -0.003142462   -0.000225018   -0.003082480
     50       74           0.012358055    0.004204248    0.002500771
     51       74          -0.013011813   -0.003527016    0.002875354
     52       74          -0.004719927    0.013722606   -0.002903228
     53       74           0.004356846   -0.012728987   -0.002488021
     54        8          -0.000744055    0.001626460    0.002124859
     55        8           0.001096322   -0.001966755    0.001909184
     56        8           0.002106132   -0.000011577   -0.002322034
     57        8          -0.001729689   -0.000695134   -0.002033661
     58        8           0.000555212   -0.002731612    0.001370394
     59        8           0.000211582    0.002407390    0.001664584
     60        8          -0.001561190   -0.001829736   -0.001706065
     61        8           0.001841175    0.001427007   -0.001732410
     62        8          -0.000952207    0.001973643    0.000953500
     63        8           0.000935337   -0.002593997    0.000473669
     64        8           0.002206225    0.000049284   -0.001238386
     65        8          -0.002291074   -0.000633898   -0.000981243
     66        8          -0.023156048   -0.004298997    0.014678266
     67        8           0.023571930    0.004922045    0.014268827
     68        8           0.010359868   -0.022318296   -0.014942820
     69        8          -0.010039850    0.021067934   -0.014921656
     70       19           0.000261227   -0.000712093   -0.000499292
     71       19           0.000766073    0.000343024    0.000497147
     72       19          -0.000687634    0.000084277    0.000591384
     73       23          -0.000271287    0.000478834    0.000334254
 -------------------------------------------------------------------
 Cartesian Forces:  Max     0.023571930 RMS     0.005332816

 GradGradGradGradGradGradGradGradGradGradGradGradGradGradGradGradGradGrad
 Berny optimization.
 Search for a local minimum.
 Step number   1 out of a maximum of    2
 All quantities printed in internal units (Hartrees-Bohrs-Radians)
 Second derivative matrix not updated -- first step.
 ITU=  0
     Eigenvalues ---    0.00000   0.00000   0.00000   0.00010   0.00091
     Eigenvalues ---    0.00092   0.00256   0.00568   0.00617   0.01646
     Eigenvalues ---    0.01982   0.02890   0.02949   0.03211   0.03409
     Eigenvalues ---    0.03458   0.03710   0.03721   0.04153   0.04502
     Eigenvalues ---    0.04596   0.04597   0.04608   0.04833   0.04849
     Eigenvalues ---    0.04998   0.05350   0.05569   0.05592   0.06358
     Eigenvalues ---    0.06409   0.06536   0.06782   0.06862   0.07046
     Eigenvalues ---    0.07311   0.07376   0.07617   0.08344   0.08408
     Eigenvalues ---    0.08732   0.08760   0.08903   0.08947   0.09752
     Eigenvalues ---    0.09926   0.10120   0.10371   0.10424   0.10497
     Eigenvalues ---    0.10864   0.10902   0.11558   0.11633   0.11997
     Eigenvalues ---    0.12034   0.12095   0.12482   0.12544   0.12719
     Eigenvalues ---    0.12751   0.12783   0.12856   0.13047   0.13123
     Eigenvalues ---    0.13793   0.13913   0.14324   0.14574   0.14752
     Eigenvalues ---    0.16779   0.16817   0.16996   0.17162   0.17581
     Eigenvalues ---    0.17676   0.18624   0.19783   0.19925   0.20225
     Eigenvalues ---    0.20852   0.21024   0.21888   0.21949   0.22076
     Eigenvalues ---    0.22505   0.23092   0.23370   0.23866   0.23897
     Eigenvalues ---    0.24609   0.24730   0.24929   0.25711   0.26061
     Eigenvalues ---    0.26192   0.26447   0.27535   0.27663   0.27872
     Eigenvalues ---    0.28340   0.28376   0.28874   0.29622   0.29993
     Eigenvalues ---    0.30643   0.30676   0.30754   0.30784   0.30836
     Eigenvalues ---    0.30944   0.31189   0.31361   0.31530   0.32364
     Eigenvalues ---    0.32591   0.32691   0.32727   0.32938   0.33485
     Eigenvalues ---    0.33593   0.35264   0.35579   0.35904   0.36872
     Eigenvalues ---    0.37453   0.37648   0.37661   0.38253   0.38521
     Eigenvalues ---    0.38882   0.39272   0.40226   0.40328   0.41461
     Eigenvalues ---    0.42276   0.42390   0.43612   0.44026   0.44934
     Eigenvalues ---    0.45425   0.45630   0.45879   0.47719   0.48197
     Eigenvalues ---    0.48497   0.48907   0.49075   0.49683   0.49750
     Eigenvalues ---    0.49933   0.50637   0.51384   0.51748   0.52415
     Eigenvalues ---    0.53269   0.53757   0.56143   0.59030   0.64352
     Eigenvalues ---    0.67462   0.76905   0.81846   0.83001   0.96784
     Eigenvalues ---    0.97263   0.99045   0.99933   1.02144   1.04409
     Eigenvalues ---    1.07799   1.11886   1.12229   1.12646   1.16401
     Eigenvalues ---    1.19673   1.20126   1.20565   1.22392   1.22946
     Eigenvalues ---    1.23171   1.26262   1.26875   1.27046   1.27203
     Eigenvalues ---    1.27931   1.29517   1.29943   1.45024   1.45891
     Eigenvalues ---    1.45959   1.48554   1.51733   1.52039   1.52202
     Eigenvalues ---    1.52777   1.55664   1.55778   1.56807   1.58487
     Eigenvalues ---    1.58687   1.59561   1.61666   1.65443   1.73093
     Eigenvalues ---    1.82336   1.86624   1.88951   1.91449   1.92857
     Eigenvalues ---    1.98991   2.02366   3.50282
 Eigenvalue     1 is   2.22D-16 Eigenvector:
                          Y16       Y14       Y15       Y17       Y13
   1                    0.17516   0.17516   0.17516   0.17516   0.17516
                          Y9        Y3        Y4        Y8        Y2
   1                    0.17516   0.17516   0.17516   0.17516   0.17516
 Eigenvalue     2 is   2.75D-07 Eigenvector:
                          Y16       X16       X11       Y11       Y14
   1                    0.33961  -0.26326   0.26156  -0.25145   0.24933
                          Y15       Y17       Y13       X14       X6
   1                    0.23597   0.21325   0.19181  -0.18590   0.18248
 Eigenvalue     3 is   2.82D-06 Eigenvector:
                          X9        X10       Y12       Y9        X12
   1                    0.32825   0.29055   0.27855  -0.26135  -0.25456
                          Y8        Y10       X8        X15       Y17
   1                    0.24836  -0.23127  -0.21883   0.21543   0.20950
 Quadratic step=1.490D+01 exceeds max=3.000D-01 adjusted using Lamda=-6.823D-03.
 Angle between NR and scaled steps=  40.82 degrees.
 Angle between quadratic step and forces=  69.02 degrees.
 Linear search not attempted -- first point.
 B after Tr=     0.004307    0.003368    0.002094
         Rot=    1.000000   -0.000169    0.000077    0.000265 Ang=  -0.04 deg.
 Variable       Old X    -DE/DX   Delta X   Delta X   Delta X     New X
                                 (Linear)    (Quad)   (Total)
    X1      -18.86139  -0.00253   0.00000  -0.00249   0.00668 -18.85471
    Y1       14.91302   0.00737   0.00000   0.00747   0.01416  14.92718
    Z1       19.77749   0.00234   0.00000   0.00252   0.00674  19.78423
    X2      -15.69834  -0.00174   0.00000  -0.01313  -0.00815 -15.70649
    Y2        8.01087  -0.00037   0.00000  -0.01881  -0.01491   7.99596
    Z2       23.11949  -0.00140   0.00000  -0.00981  -0.00745  23.11205
    X3      -17.13092  -0.00090   0.00000  -0.00019   0.00479 -17.12613
    Y3        7.39873  -0.00087   0.00000  -0.04443  -0.03905   7.35968
    Z3       20.96343   0.00268   0.00000  -0.00759  -0.00566  20.95777
    X4      -18.90515   0.00079   0.00000  -0.00508  -0.00117 -18.90632
    Y4        5.43057   0.00149   0.00000  -0.03275  -0.02651   5.40406
    Z4       21.16119   0.00013   0.00000   0.01974   0.02074  21.18193
    X5      -19.25228   0.00056   0.00000  -0.00990  -0.00703 -19.25931
    Y5        4.13136  -0.00031   0.00000  -0.00931  -0.00365   4.12771
    Z5       23.41937   0.00146   0.00000   0.03535   0.03587  23.45524
    X6      -17.81902   0.00011   0.00000  -0.01476  -0.01187 -17.83089
    Y6        4.76318  -0.00023   0.00000   0.00900   0.01319   4.77637
    Z6       25.54091   0.00050   0.00000   0.03127   0.03222  25.57313
    X7      -16.03939  -0.00080   0.00000  -0.01425  -0.01030 -16.04969
    Y7        6.70534  -0.00107   0.00000   0.00441   0.00772   6.71306
    Z7       25.37696   0.00033   0.00000   0.00679   0.00867  25.38562
    X8      -14.31292   0.00015   0.00000  -0.00707  -0.00127 -14.31419
    Y8        9.53887  -0.00004   0.00000  -0.02422  -0.02103   9.51784
    Z8       23.04716  -0.00053   0.00000  -0.02940  -0.02631  23.02085
    X9      -20.03468   0.00015   0.00000   0.00049   0.00437 -20.03031
    Y9        4.93140  -0.00024   0.00000  -0.05168  -0.04429   4.88711
    Z9       19.50340  -0.00008   0.00000   0.02151   0.02216  19.52555
   X10      -20.64351   0.00007   0.00000  -0.00971  -0.00766 -20.65116
   Y10        2.60854  -0.00016   0.00000  -0.00854  -0.00217   2.60636
   Z10       23.52278   0.00018   0.00000   0.04660   0.04639  23.56917
   X11      -18.06436  -0.00035   0.00000  -0.02050  -0.01843 -18.08278
   Y11        3.72790   0.00022   0.00000   0.02949   0.03321   3.76112
   Z11       27.30912   0.00026   0.00000   0.04246   0.04303  27.35216
   X12      -14.91218   0.00015   0.00000  -0.00922  -0.00525 -14.91743
   Y12        7.21426  -0.00014   0.00000   0.01708   0.01924   7.23349
   Z12       27.03158   0.00006   0.00000  -0.00006   0.00217  27.03375
   X13      -16.88027   0.00830   0.00000   0.02887   0.03491 -16.84537
   Y13        8.74151   0.00704   0.00000  -0.09367  -0.08762   8.65388
   Z13       18.55627  -0.00623   0.00000  -0.04131  -0.03890  18.51738
   X14      -15.32982  -0.00331   0.00000  -0.00527   0.00187 -15.32794
   Y14       10.69661  -0.01336   0.00000  -0.09305  -0.08765  10.60897
   Z14       18.08511   0.00021   0.00000  -0.04812  -0.04481  18.04031
   X15      -18.11285  -0.00083   0.00000   0.02511   0.03101 -18.08184
   Y15        8.06717   0.00047   0.00000  -0.10491  -0.09770   7.96947
   Z15       17.03510   0.00043   0.00000  -0.03208  -0.03009  17.00502
   X16      -15.24124  -0.00126   0.00000  -0.02968  -0.02178 -15.26303
   Y16       11.55253   0.00097   0.00000  -0.08058  -0.07457  11.47795
   Z16       16.21044   0.00076   0.00000  -0.04234  -0.03873  16.17171
   X17      -13.96316  -0.00215   0.00000  -0.07489  -0.06756 -14.03071
   Y17       11.37920   0.00230   0.00000   0.00084   0.00508  11.38428
   Z17       19.47462   0.00013   0.00000  -0.02612  -0.02235  19.45227
   X18       -1.91049  -0.00298   0.00000  -0.01372  -0.01336  -1.92384
   Y18       -3.33289   0.00071   0.00000  -0.00216  -0.00253  -3.33543
   Z18       14.09855   0.00047   0.00000   0.00692   0.00759  14.10614
   X19      -15.89393   0.00301   0.00000   0.01420   0.01501 -15.87892
   Y19       -2.50263  -0.00108   0.00000   0.01200   0.01902  -2.48361
   Z19       14.10872   0.00057   0.00000   0.00717   0.00597  14.11469
   X20      -13.33908   0.00272   0.00000   0.01927   0.02186 -13.31721
   Y20        2.53683  -0.00261   0.00000  -0.00207   0.00167   2.53850
   Z20       19.81827  -0.00013   0.00000  -0.00365  -0.00276  19.81552
   X21       -4.40756  -0.00243   0.00000  -0.01444  -0.01756  -4.42512
   Y21       -8.21956   0.00178   0.00000   0.00964   0.00862  -8.21094
   Z21       19.95611  -0.00066   0.00000  -0.00917  -0.01053  19.94558
   X22       -6.47262   0.00127   0.00000   0.00031   0.00348  -6.46914
   Y22        1.40400   0.00896   0.00000   0.01102   0.01368   1.41768
   Z22       12.27598  -0.00843   0.00000  -0.00704  -0.00547  12.27051
   X23      -11.36085  -0.00193   0.00000   0.00274   0.00130 -11.35955
   Y23       -7.23188  -0.00928   0.00000   0.00129   0.00648  -7.22540
   Z23       12.44364  -0.00913   0.00000  -0.00640  -0.00850  12.43514
   X24       -6.86678   0.00564   0.00000   0.01851   0.02041  -6.84637
   Y24        1.73331   0.00726   0.00000  -0.00039  -0.00067   1.73264
   Z24       21.55820   0.00845   0.00000   0.00773   0.00935  21.56755
   X25      -10.91990  -0.00637   0.00000  -0.01498  -0.01789 -10.93779
   Y25       -7.31081  -0.00616   0.00000   0.01010   0.01194  -7.29886
   Z25       21.67853   0.00896   0.00000   0.00431   0.00225  21.68079
   X26       -4.66876   0.00724   0.00000  -0.00158  -0.00169  -4.67044
   Y26       -4.81171  -0.00669   0.00000  -0.00969  -0.00791  -4.81962
   Z26       12.05727  -0.00927   0.00000  -0.00449  -0.00475  12.05252
   X27      -13.12740  -0.00742   0.00000   0.00080   0.00274 -13.12467
   Y27       -1.01076   0.00749   0.00000   0.02290   0.02918  -0.98158
   Z27       11.99880  -0.00940   0.00000  -0.00439  -0.00465  11.99415
   X28      -12.90309  -0.00988   0.00000  -0.00336  -0.00269 -12.90578
   Y28       -0.47492   0.00279   0.00000   0.00445   0.00726  -0.46766
   Z28       21.91038   0.00880   0.00000   0.00402   0.00396  21.91434
   X29       -4.86158   0.00970   0.00000   0.00730   0.00552  -4.85607
   Y29       -5.09140  -0.00140   0.00000   0.00495   0.00348  -5.08792
   Z29       21.97614   0.00927   0.00000   0.00312   0.00275  21.97888
   X30       -6.04652  -0.00016   0.00000   0.01911   0.02381  -6.02270
   Y30        3.67745  -0.00288   0.00000  -0.00209   0.00108   3.67853
   Z30       10.08082   0.00225   0.00000  -0.00731  -0.00491  10.07591
   X31      -11.60941   0.00009   0.00000  -0.01241  -0.01478 -11.62418
   Y31       -9.60494   0.00298   0.00000   0.00946   0.01551  -9.58942
   Z31       10.29668   0.00240   0.00000  -0.00355  -0.00649  10.29020
   X32       -5.12295  -0.00206   0.00000   0.00657   0.00899  -5.11396
   Y32        3.34737  -0.00179   0.00000   0.00151  -0.00042   3.34695
   Z32       23.71609  -0.00206   0.00000   0.00679   0.00922  23.72531
   X33      -12.64874   0.00236   0.00000  -0.00270  -0.00677 -12.65550
   Y33       -8.85192   0.00172   0.00000   0.00713   0.00914  -8.84278
   Z33       23.90113  -0.00252   0.00000   0.00197  -0.00087  23.90026
   X34       -5.09868  -0.00063   0.00000  -0.00447  -0.00266  -5.10134
   Y34       -1.63856  -0.00081   0.00000  -0.00392  -0.00141  -1.63997
   Z34       10.55412   0.00340   0.00000   0.01241   0.01316  10.56728
   X35      -12.69330   0.00113   0.00000   0.00769   0.00809 -12.68521
   Y35       -4.28948   0.00004   0.00000   0.01504   0.02154  -4.26794
   Z35       10.63279   0.00360   0.00000   0.01341   0.01210  10.64489
   X36      -10.05966   0.00063   0.00000   0.00993   0.01119 -10.04847
   Y36        1.06652  -0.00105   0.00000  -0.00562  -0.00481   1.06171
   Z36       23.37755  -0.00350   0.00000  -0.01084  -0.00994  23.36761
   X37       -7.68590  -0.00018   0.00000  -0.00476  -0.00758  -7.69348
   Y37       -6.63220   0.00075   0.00000   0.01148   0.01101  -6.62119
   Z37       23.45957  -0.00349   0.00000  -0.01370  -0.01503  23.44454
   X38        0.55762  -0.00358   0.00000   0.00737   0.00897   0.56658
   Y38       -0.00696  -0.00116   0.00000  -0.00726  -0.01011  -0.01707
   Z38       17.52567  -0.00112   0.00000  -0.00371  -0.00153  17.52414
   X39      -18.36436   0.00384   0.00000  -0.00596  -0.00739 -18.37175
   Y39       -5.69657   0.00115   0.00000   0.01839   0.02554  -5.67103
   Z39       17.63446  -0.00131   0.00000  -0.00434  -0.00700  17.62747
   X40      -12.08192   0.00190   0.00000   0.01811   0.02332 -12.05860
   Y40        6.45532  -0.00516   0.00000   0.01197   0.01623   6.47154
   Z40       16.30908   0.00145   0.00000   0.01451   0.01692  16.32600
   X41       -5.60204  -0.00138   0.00000  -0.00894  -0.01365  -5.61569
   Y41      -12.18766   0.00389   0.00000   0.00074   0.00150 -12.18616
   Z41       16.52949   0.00130   0.00000   0.00335   0.00047  16.52995
   X42       -3.42198  -0.00172   0.00000  -0.00520  -0.00230  -3.42428
   Y42        1.48463  -0.00315   0.00000  -0.01062  -0.01022   1.47441
   Z42       14.14437   0.00092   0.00000   0.00591   0.00797  14.15234
   X43      -14.38608   0.00216   0.00000   0.00827   0.00649 -14.37959
   Y43       -7.33006   0.00281   0.00000   0.02042   0.02659  -7.30347
   Z43       14.28927   0.00072   0.00000   0.00557   0.00298  14.29224
   X44       -8.56913  -0.00057   0.00000   0.01276   0.01624  -8.55289
   Y44        4.19551  -0.00345   0.00000  -0.01214  -0.01089   4.18462
   Z44       19.70092  -0.00039   0.00000  -0.00011   0.00207  19.70299
   X45       -9.19697   0.00124   0.00000  -0.00919  -0.01316  -9.21013
   Y45       -9.85519   0.00344   0.00000   0.02177   0.02331  -9.83188
   Z45       19.88544  -0.00100   0.00000  -0.00839  -0.01104  19.87440
   X46       -3.10025  -0.00183   0.00000   0.00077   0.00007  -3.10018
   Y46       -6.56263   0.00212   0.00000   0.00006   0.00174  -6.56089
   Z46        9.87009   0.00297   0.00000   0.00018  -0.00042   9.86967
   X47      -14.79024   0.00237   0.00000  -0.00594  -0.00286 -14.79310
   Y47        0.50439  -0.00238   0.00000   0.00970   0.01762   0.52201
   Z47        9.73637   0.00348   0.00000   0.00418   0.00416   9.74053
   X48      -15.18954   0.00310   0.00000   0.00257   0.00299 -15.18656
   Y48       -0.32902   0.00004   0.00000   0.01850   0.02177  -0.30726
   Z48       24.15320  -0.00323   0.00000  -0.00160  -0.00196  24.15124
   X49       -2.53193  -0.00314   0.00000   0.00028  -0.00196  -2.53389
   Y49       -5.30140  -0.00023   0.00000  -0.01112  -0.01457  -5.31597
   Z49       24.17590  -0.00308   0.00000  -0.00205  -0.00214  24.17376
   X50       -2.39309   0.01236   0.00000   0.00858   0.00979  -2.38330
   Y50       -0.97527   0.00420   0.00000   0.00107   0.00006  -0.97521
   Z50       16.71225   0.00250   0.00000   0.00908   0.01047  16.72273
   X51      -15.41780  -0.01301   0.00000  -0.00758  -0.00837 -15.42617
   Y51       -4.74252  -0.00353   0.00000   0.01074   0.01662  -4.72590
   Z51       16.78615   0.00288   0.00000   0.00925   0.00737  16.79351
   X52      -11.20859  -0.00472   0.00000   0.01005   0.01358 -11.19501
   Y52        3.49996   0.01372   0.00000   0.01518   0.01872   3.51868
   Z52       17.09240  -0.00290   0.00000  -0.00542  -0.00387  17.08853
   X53       -6.55707   0.00436   0.00000  -0.00693  -0.01019  -6.56725
   Y53       -9.22545  -0.01273   0.00000  -0.00329  -0.00229  -9.22774
   Z53       17.32121  -0.00249   0.00000  -0.01042  -0.01246  17.30875
   X54       -8.00848  -0.00074   0.00000  -0.00071  -0.00127  -8.00976
   Y54       -5.84471   0.00163   0.00000  -0.00265   0.00109  -5.84361
   Z54       11.47307   0.00212   0.00000  -0.00581  -0.00693  11.46614
   X55       -9.78499   0.00110   0.00000   0.00193   0.00447  -9.78052
   Y55       -0.05474  -0.00197   0.00000   0.01434   0.01906  -0.03568
   Z55       11.36268   0.00191   0.00000  -0.00571  -0.00514  11.35754
   X56      -11.69517   0.00211   0.00000  -0.00641  -0.00758 -11.70275
   Y56       -3.78075  -0.00001   0.00000   0.00602   0.00799  -3.77276
   Z56       22.53300  -0.00232   0.00000   0.00376   0.00278  22.53577
   X57       -6.02213  -0.00173   0.00000   0.01086   0.01074  -6.01139
   Y57       -1.79523  -0.00070   0.00000   0.00223   0.00117  -1.79406
   Z57       22.54783  -0.00203   0.00000   0.00594   0.00650  22.55433
   X58       -8.29991   0.00056   0.00000   0.00753   0.01115  -8.28876
   Y58        3.01577  -0.00273   0.00000   0.01024   0.01300   3.02877
   Z58       14.82899   0.00137   0.00000  -0.00423  -0.00240  14.82659
   X59       -9.45932   0.00021   0.00000  -0.00287  -0.00556  -9.46488
   Y59       -8.83437   0.00241   0.00000  -0.00008   0.00325  -8.83112
   Z59       14.98099   0.00166   0.00000  -0.00621  -0.00856  14.97244
   X60       -4.42481  -0.00156   0.00000   0.01453   0.01650  -4.40831
   Y60        1.13663  -0.00183   0.00000  -0.00021  -0.00094   1.13569
   Z60       19.05084  -0.00171   0.00000   0.00649   0.00829  19.05913
   X61      -13.35689   0.00184   0.00000  -0.01192  -0.01418 -13.37108
   Y61       -6.82217   0.00143   0.00000   0.01101   0.01500  -6.80717
   Z61       19.16328  -0.00173   0.00000   0.00457   0.00230  19.16558
   X62       -4.87651  -0.00095   0.00000  -0.00360  -0.00547  -4.88198
   Y62       -7.31582   0.00197   0.00000  -0.00524  -0.00430  -7.32012
   Z62       14.85086   0.00095   0.00000  -0.00644  -0.00757  14.84328
   X63      -12.93487   0.00094   0.00000   0.00558   0.00841 -12.92646
   Y63        1.48940  -0.00259   0.00000   0.01701   0.02226   1.51166
   Z63       14.74547   0.00047   0.00000  -0.00463  -0.00402  14.74145
   X64      -14.82703   0.00221   0.00000  -0.00473  -0.00456 -14.83158
   Y64       -2.21866   0.00005   0.00000   0.01035   0.01509  -2.20357
   Z64       19.20335  -0.00124   0.00000   0.00519   0.00425  19.20760
   X65       -2.97397  -0.00229   0.00000   0.00644   0.00594  -2.96803
   Y65       -3.46575  -0.00063   0.00000  -0.00008  -0.00162  -3.46737
   Z65       19.18681  -0.00098   0.00000   0.00490   0.00536  19.19217
   X66       -6.39961  -0.02316   0.00000  -0.04020  -0.03937  -6.43898
   Y66       -2.13379  -0.00430   0.00000  -0.00334  -0.00168  -2.13547
   Z66       15.14817   0.01468   0.00000   0.02352   0.02390  15.17207
   X67      -11.40090   0.02357   0.00000   0.04086   0.04087 -11.36003
   Y67       -3.68672   0.00492   0.00000   0.01786   0.02212  -3.66460
   Z67       15.20202   0.01427   0.00000   0.02365   0.02275  15.22477
   X68       -9.70859   0.01036   0.00000   0.02473   0.02593  -9.68266
   Y68       -0.37493  -0.02232   0.00000  -0.03156  -0.02940  -0.40433
   Z68       18.80589  -0.01494   0.00000  -0.02521  -0.02474  18.78114
   X69       -8.03517  -0.01004   0.00000  -0.02112  -0.02252  -8.05769
   Y69       -5.33276   0.02107   0.00000   0.04107   0.04236  -5.29040
   Z69       18.85873  -0.01492   0.00000  -0.02586  -0.02680  18.83193
   X70       -6.11086   0.00026   0.00000  -0.00460  -0.00807  -6.11893
   Y70      -11.56273  -0.00071   0.00000  -0.00482  -0.00182 -11.56455
   Z70       10.70750  -0.00050   0.00000  -0.00701  -0.00977  10.69773
   X71       -0.28536   0.00077   0.00000   0.01365   0.01439  -0.27098
   Y71        0.07417   0.00034   0.00000  -0.00212  -0.00648   0.06768
   Z71       23.33669   0.00050   0.00000   0.00681   0.00889  23.34558
   X72      -17.51463  -0.00069   0.00000  -0.01051  -0.01275 -17.52738
   Y72       -5.53471   0.00008   0.00000   0.01344   0.01818  -5.51653
   Z72       23.45122   0.00059   0.00000   0.00608   0.00361  23.45483
   X73       -8.89031  -0.00027   0.00000   0.00060   0.00076  -8.88955
   Y73       -2.87477   0.00048   0.00000   0.00642   0.00877  -2.86600
   Z73       16.99842   0.00033   0.00000  -0.00060  -0.00084  16.99757
         Item               Value     Threshold  Converged?
 Maximum Force            0.023572     0.000450     NO 
 RMS     Force            0.005333     0.000300     NO 
 Maximum Displacement     0.097698     0.001800     NO 
 RMS     Displacement     0.020041     0.001200     NO 
 Predicted change in Energy=-4.436937D-03
 GradGradGradGradGradGradGradGradGradGradGradGradGradGradGradGradGradGrad

 Unable to Open any file for archive entry.
 1\1\GINC-X11P1N2\Force\RwB97XD\def2SVP\C8H8Cl1K3O40V1W12(1-)\MAYUMIAO\
 01-Jun-2024\0\\# def2svp wb97xd scrf=(smd,solvent=acetonitrile) g09def
 ault scf=(xqc,maxcycle=64) force guess=read nosymm\\Title Card\\-1,1\C
 l,-9.98101669,7.89163277,10.46579703\C,-8.30720553,4.23917179,12.23430
 755\C,-9.06529029,3.91524087,11.09336826\C,-10.00417307,2.87373158,11.
 19802068\C,-10.18786935,2.18621977,12.39299643\C,-9.42942155,2.5205651
 7,13.51566634\C,-8.4876787,3.54831333,13.42890707\H,-7.57407237,5.0477
 5285,12.19603316\H,-10.60189683,2.60958511,10.3207533\H,-10.92407361,1
 .38037979,12.44771958\H,-9.55924699,1.97272029,14.45136642\H,-7.891185
 47,3.81762021,14.30449381\C,-8.9326566,4.62580671,9.81955567\C,-8.1121
 9104,5.66040404,9.57023035\H,-9.58490804,4.26896336,9.01458887\H,-8.06
 531941,6.11333475,8.57819553\H,-7.38898441,6.02161147,10.30552718\O,-1
 .01098557,-1.76369053,7.46063288\O,-8.41070602,-1.32433469,7.46601135\
 O,-7.05873491,1.34243298,10.48737885\O,-2.33238148,-4.34960451,10.5603
 2006\W,-3.42516073,0.74296459,6.49616642\W,-6.01190143,-3.82694464,6.5
 8489249\W,-3.63374199,0.91722912,11.40810644\W,-5.7785641,-3.86871269,
 11.47178637\W,-2.47059934,-2.54624668,6.38043045\W,-6.94672277,-0.5348
 7083,6.3494919\W,-6.82802148,-0.25131494,11.59447284\W,-2.57263843,-2.
 69425315,11.62927155\O,-3.19967867,1.94602465,5.33453916\O,-6.14343369
 ,-5.08271404,5.44876988\O,-2.71094626,1.77135339,12.55001349\O,-6.6934
 2259,-4.68423388,12.64793533\O,-2.69810667,-0.86708817,5.58500089\O,-6
 .71700506,-2.26989306,5.62663182\O,-5.32334485,0.56437787,12.37086553\
 O,-4.06720147,-3.50961083,12.41427018\O,0.2950782,-0.00368323,9.274185
 2\O,-9.71800115,-3.01449696,9.3317564\O,-6.39347881,3.41600666,8.63039
 284\O,-2.96447166,-6.44943384,8.74702831\O,-1.81083216,0.78563036,7.48
 487721\O,-7.61278542,-3.87890014,7.56155449\O,-4.53458741,2.22016887,1
 0.42527616\O,-4.86682473,-5.21514375,10.52292109\O,-1.64058297,-3.4727
 9408,5.22302698\O,-7.82666051,0.26691258,5.15226714\O,-8.03796047,-0.1
 7411185,12.78132124\O,-1.33984,-2.80538164,12.79333525\W,-1.26637026,-
 0.51609205,8.8437435\W,-8.15874899,-2.50963245,8.88284604\W,-5.9313304
 9,1.85209908,9.0449062\W,-3.46984998,-4.88189659,9.16599097\O,-4.23790
 635,-3.09288608,6.07128676\O,-5.17799239,-0.02896874,6.01287189\O,-6.1
 8881548,-2.00068417,11.92394809\O,-3.18677389,-0.94999392,11.9317983\O
 ,-4.39212305,1.59587718,7.84716426\O,-5.00565912,-4.6749478,7.92760011
 \O,-2.34150857,0.60147962,10.08127235\O,-7.06816325,-3.61013732,10.140
 77007\O,-2.58053672,-3.87136501,7.85873425\O,-6.84483955,0.78815595,7.
 8029662\O,-7.84612457,-1.17406612,10.1619764\O,-1.57375673,-1.83399488
 ,10.15322056\O,-3.38652918,-1.12915224,8.01606776\O,-6.03309722,-1.950
 92711,8.04456311\O,-5.13756399,-0.19840555,9.95164778\O,-4.25202687,-2
 .82197517,9.97961047\K,-3.23372803,-6.11873554,5.66616287\K,-0.1510073
 7,0.03924676,12.34924438\K,-9.26834216,-2.92884169,12.40985342\V,-4.70
 454922,-1.52126195,8.99517486\\Version=ES64L-G16RevC.01\HF=-7327.70002
 4\RMSD=3.608e-09\RMSF=5.333e-03\Dipole=10.6456716,-21.5850931,2.537357
 7\Quadrupole=-92.3062452,62.8981355,29.4081097,335.0176851,345.9416605
 ,-347.203478\PG=C01 [X(C8H8Cl1K3O40V1W12)]\\@
 The archive entry for this job was punched.


 THERE IS MORE TO LIFE THAN INCREASING ITS SPEED.

                                       -- GANDHI
 Job cpu time:       0 days  9 hours 35 minutes 52.3 seconds.
 Elapsed time:       0 days  0 hours 10 minutes 54.9 seconds.
 File lengths (MBytes):  RWF=   1250 Int=      0 D2E=      0 Chk=    249 Scr=      1
 Normal termination of Gaussian 16 at Sat Jun  1 21:37:09 2024.
