 Entering Gaussian System, Link 0=g16
 Input=JOBS/17_B.gjf
 Output=JOBS/17_B.log
 Initial command:
 /data/app/gaussian/C01-avx2//g16/l1.exe "/tmp/Gau-607714.inp" -scrdir="/tmp/"
 Entering Link 1 = /data/app/gaussian/C01-avx2//g16/l1.exe PID=    607715.
  
 Copyright (c) 1988-2019, Gaussian, Inc.  All Rights Reserved.
  
 This is part of the Gaussian(R) 16 program.  It is based on
 the Gaussian(R) 09 system (copyright 2009, Gaussian, Inc.),
 the Gaussian(R) 03 system (copyright 2003, Gaussian, Inc.),
 the Gaussian(R) 98 system (copyright 1998, Gaussian, Inc.),
 the Gaussian(R) 94 system (copyright 1995, Gaussian, Inc.),
 the Gaussian 92(TM) system (copyright 1992, Gaussian, Inc.),
 the Gaussian 90(TM) system (copyright 1990, Gaussian, Inc.),
 the Gaussian 88(TM) system (copyright 1988, Gaussian, Inc.),
 the Gaussian 86(TM) system (copyright 1986, Carnegie Mellon
 University), and the Gaussian 82(TM) system (copyright 1983,
 Carnegie Mellon University). Gaussian is a federally registered
 trademark of Gaussian, Inc.
  
 This software contains proprietary and confidential information,
 including trade secrets, belonging to Gaussian, Inc.
  
 This software is provided under written license and may be
 used, copied, transmitted, or stored only in accord with that
 written license.
  
 The following legend is applicable only to US Government
 contracts under FAR:
  
                    RESTRICTED RIGHTS LEGEND
  
 Use, reproduction and disclosure by the US Government is
 subject to restrictions as set forth in subparagraphs (a)
 and (c) of the Commercial Computer Software - Restricted
 Rights clause in FAR 52.227-19.
  
 Gaussian, Inc.
 340 Quinnipiac St., Bldg. 40, Wallingford CT 06492
  
  
 ---------------------------------------------------------------
 Warning -- This program may not be used in any manner that
 competes with the business of Gaussian, Inc. or will provide
 assistance to any competitor of Gaussian, Inc.  The licensee
 of this program is prohibited from giving any competitor of
 Gaussian, Inc. access to this program.  By using this program,
 the user acknowledges that Gaussian, Inc. is engaged in the
 business of creating and licensing software in the field of
 computational chemistry and represents and warrants to the
 licensee that it is not a competitor of Gaussian, Inc. and that
 it will not use this program in any manner prohibited above.
 ---------------------------------------------------------------
  

 Cite this work as:
 Gaussian 16, Revision C.01,
 M. J. Frisch, G. W. Trucks, H. B. Schlegel, G. E. Scuseria, 
 M. A. Robb, J. R. Cheeseman, G. Scalmani, V. Barone, 
 G. A. Petersson, H. Nakatsuji, X. Li, M. Caricato, A. V. Marenich, 
 J. Bloino, B. G. Janesko, R. Gomperts, B. Mennucci, H. P. Hratchian, 
 J. V. Ortiz, A. F. Izmaylov, J. L. Sonnenberg, D. Williams-Young, 
 F. Ding, F. Lipparini, F. Egidi, J. Goings, B. Peng, A. Petrone, 
 T. Henderson, D. Ranasinghe, V. G. Zakrzewski, J. Gao, N. Rega, 
 G. Zheng, W. Liang, M. Hada, M. Ehara, K. Toyota, R. Fukuda, 
 J. Hasegawa, M. Ishida, T. Nakajima, Y. Honda, O. Kitao, H. Nakai, 
 T. Vreven, K. Throssell, J. A. Montgomery, Jr., J. E. Peralta, 
 F. Ogliaro, M. J. Bearpark, J. J. Heyd, E. N. Brothers, K. N. Kudin, 
 V. N. Staroverov, T. A. Keith, R. Kobayashi, J. Normand, 
 K. Raghavachari, A. P. Rendell, J. C. Burant, S. S. Iyengar, 
 J. Tomasi, M. Cossi, J. M. Millam, M. Klene, C. Adamo, R. Cammi, 
 J. W. Ochterski, R. L. Martin, K. Morokuma, O. Farkas, 
 J. B. Foresman, and D. J. Fox, Gaussian, Inc., Wallingford CT, 2019.
 
 ******************************************
 Gaussian 16:  ES64L-G16RevC.01  3-Jul-2019
                 1-Jun-2024 
 ******************************************
 %chk=b.chk
 %nprocshared=56
 Will use up to   56 processors via shared memory.
 %mem=96gb
 ----------------------------------------------------------------------
 # def2svp wb97xd scrf=(smd,solvent=acetonitrile) g09default scf=(xqc,m
 axcycle=64) force guess=read nosymm
 ----------------------------------------------------------------------
 1/10=7,30=1,38=1,158=3,167=1/1,3;
 2/12=2,15=1,17=6,18=5,40=1/2;
 3/5=43,7=101,11=2,25=1,27=10,30=1,70=32201,71=1,72=2,74=-58,75=-4,116=-2,158=3/1,2,3;
 4/5=1,60=-1/1;
 5/5=2,7=64,8=3,13=1,38=6,53=2,87=10/2,8;
 6/7=2,8=2,9=2,10=2,28=1,87=10/1;
 7/29=1,30=1,87=10/1,2,3,16;
 1/10=7,30=1,158=3,167=1/3;
 99//99;
 Using 2006 physical constants.
 ----------
 Title Card
 ----------
 Symbolic Z-matrix:
 Charge = -1 Multiplicity = 1
 17                   -9.98102   7.89163   10.4658 
 6                    -8.30721   4.23917   12.23431 
 6                    -9.06529   3.91524   11.09337 
 6                    -10.00417   2.87373   11.19802 
 6                    -10.18787   2.18622   12.393 
 6                    -9.42942   2.52057   13.51567 
 6                    -8.48768   3.54831   13.42891 
 1                    -7.57407   5.04775   12.19603 
 1                    -10.6019   2.60959   10.32075 
 1                    -10.92407   1.38038   12.44772 
 1                    -9.55925   1.97272   14.45137 
 1                    -7.89119   3.81762   14.30449 
 6                    -8.93266   4.62581   9.81956 
 6                    -8.11219   5.6604    9.57023 
 1                    -9.58491   4.26896   9.01459 
 1                    -8.06532   6.11333   8.5782 
 1                    -7.38898   6.02161   10.30553 
 8                    -1.01099  -1.76369   7.46063 
 8                    -8.41071  -1.32433   7.46601 
 8                    -7.05873   1.34243   10.48738 
 8                    -2.33238  -4.3496    10.56032 
 74                   -3.42516   0.74296   6.49617 
 74                   -6.0119   -3.82694   6.58489 
 74                   -3.63374   0.91723   11.40811 
 74                   -5.77856  -3.86871   11.47179 
 74                   -2.4706   -2.54625   6.38043 
 74                   -6.94672  -0.53487   6.34949 
 74                   -6.82802  -0.25131   11.59447 
 74                   -2.57264  -2.69425   11.62927 
 8                    -3.19968   1.94602   5.33454 
 8                    -6.14343  -5.08271   5.44877 
 8                    -2.71095   1.77135   12.55001 
 8                    -6.69342  -4.68423   12.64794 
 8                    -2.69811  -0.86709   5.585 
 8                    -6.71701  -2.26989   5.62663 
 8                    -5.32334   0.56438   12.37087 
 8                    -4.0672   -3.50961   12.41427 
 8                     0.29508  -0.00368   9.27419 
 8                    -9.718    -3.0145    9.33176 
 8                    -6.39348   3.41601   8.63039 
 8                    -2.96447  -6.44943   8.74703 
 8                    -1.81083   0.78563   7.48488 
 8                    -7.61279  -3.8789    7.56155 
 8                    -4.53459   2.22017   10.42528 
 8                    -4.86682  -5.21514   10.52292 
 8                    -1.64058  -3.47279   5.22303 
 8                    -7.82666   0.26691   5.15227 
 8                    -8.03796  -0.17411   12.78132 
 8                    -1.33984  -2.80538   12.79334 
 74                   -1.26637  -0.51609   8.84374 
 74                   -8.15875  -2.50963   8.88285 
 74                   -5.93133   1.8521    9.04491 
 74                   -3.46985  -4.8819    9.16599 
 8                    -4.23791  -3.09289   6.07129 
 8                    -5.17799  -0.02897   6.01287 
 8                    -6.18882  -2.00068   11.92395 
 8                    -3.18677  -0.94999   11.9318 
 8                    -4.39212   1.59588   7.84716 
 8                    -5.00566  -4.67495   7.9276 
 8                    -2.34151   0.60148   10.08127 
 8                    -7.06816  -3.61014   10.14077 
 8                    -2.58054  -3.87137   7.85873 
 8                    -6.84484   0.78816   7.80297 
 8                    -7.84612  -1.17407   10.16198 
 8                    -1.57376  -1.83399   10.15322 
 8                    -3.38653  -1.12915   8.01607 
 8                    -6.0331   -1.95093   8.04456 
 8                    -5.13756  -0.19841   9.95165 
 8                    -4.25203  -2.82198   9.97961 
 19                   -3.23373  -6.11874   5.66616 
 19                   -0.15101   0.03925   12.34924 
 19                   -9.26834  -2.92884   12.40985 
 23                   -4.70455  -1.52126   8.99517 
 

 GradGradGradGradGradGradGradGradGradGradGradGradGradGradGradGradGradGrad
 Berny optimization.
 Initialization pass.
 Trust Radius=3.00D-01 FncErr=1.00D-07 GrdErr=1.00D-07 EigMax=2.50D+02 EigMin=1.00D-04
 Number of steps in this run=      2 maximum allowed number of steps=      2.
 GradGradGradGradGradGradGradGradGradGradGradGradGradGradGradGradGradGrad

 Symmetry turned off by external request.
 Stoichiometry    C8H8ClK3O40VW12(1-)
 Framework group  C1[X(C8H8ClK3O40VW12)]
 Deg. of freedom   213
 Full point group                 C1      NOp   1
                          Input orientation:                          
 ---------------------------------------------------------------------
 Center     Atomic      Atomic             Coordinates (Angstroms)
 Number     Number       Type             X           Y           Z
 ---------------------------------------------------------------------
      1         17           0       -9.981017    7.891633   10.465797
      2          6           0       -8.307206    4.239172   12.234308
      3          6           0       -9.065290    3.915241   11.093368
      4          6           0      -10.004173    2.873732   11.198021
      5          6           0      -10.187869    2.186220   12.392996
      6          6           0       -9.429422    2.520565   13.515666
      7          6           0       -8.487679    3.548313   13.428907
      8          1           0       -7.574072    5.047753   12.196033
      9          1           0      -10.601897    2.609585   10.320753
     10          1           0      -10.924074    1.380380   12.447720
     11          1           0       -9.559247    1.972720   14.451366
     12          1           0       -7.891185    3.817620   14.304494
     13          6           0       -8.932657    4.625807    9.819556
     14          6           0       -8.112191    5.660404    9.570230
     15          1           0       -9.584908    4.268963    9.014589
     16          1           0       -8.065319    6.113335    8.578196
     17          1           0       -7.388984    6.021611   10.305527
     18          8           0       -1.010986   -1.763691    7.460633
     19          8           0       -8.410706   -1.324335    7.466011
     20          8           0       -7.058735    1.342433   10.487379
     21          8           0       -2.332381   -4.349605   10.560320
     22         74           0       -3.425161    0.742965    6.496166
     23         74           0       -6.011901   -3.826945    6.584892
     24         74           0       -3.633742    0.917229   11.408106
     25         74           0       -5.778564   -3.868713   11.471786
     26         74           0       -2.470599   -2.546247    6.380430
     27         74           0       -6.946723   -0.534871    6.349492
     28         74           0       -6.828021   -0.251315   11.594473
     29         74           0       -2.572638   -2.694253   11.629272
     30          8           0       -3.199679    1.946025    5.334539
     31          8           0       -6.143434   -5.082714    5.448770
     32          8           0       -2.710946    1.771353   12.550013
     33          8           0       -6.693423   -4.684234   12.647935
     34          8           0       -2.698107   -0.867088    5.585001
     35          8           0       -6.717005   -2.269893    5.626632
     36          8           0       -5.323345    0.564378   12.370866
     37          8           0       -4.067201   -3.509611   12.414270
     38          8           0        0.295078   -0.003683    9.274185
     39          8           0       -9.718001   -3.014497    9.331756
     40          8           0       -6.393479    3.416007    8.630393
     41          8           0       -2.964472   -6.449434    8.747028
     42          8           0       -1.810832    0.785630    7.484877
     43          8           0       -7.612785   -3.878900    7.561554
     44          8           0       -4.534587    2.220169   10.425276
     45          8           0       -4.866825   -5.215144   10.522921
     46          8           0       -1.640583   -3.472794    5.223027
     47          8           0       -7.826661    0.266913    5.152267
     48          8           0       -8.037960   -0.174112   12.781321
     49          8           0       -1.339840   -2.805382   12.793335
     50         74           0       -1.266370   -0.516092    8.843744
     51         74           0       -8.158749   -2.509632    8.882846
     52         74           0       -5.931330    1.852099    9.044906
     53         74           0       -3.469850   -4.881897    9.165991
     54          8           0       -4.237906   -3.092886    6.071287
     55          8           0       -5.177992   -0.028969    6.012872
     56          8           0       -6.188815   -2.000684   11.923948
     57          8           0       -3.186774   -0.949994   11.931798
     58          8           0       -4.392123    1.595877    7.847164
     59          8           0       -5.005659   -4.674948    7.927600
     60          8           0       -2.341509    0.601480   10.081272
     61          8           0       -7.068163   -3.610137   10.140770
     62          8           0       -2.580537   -3.871365    7.858734
     63          8           0       -6.844840    0.788156    7.802966
     64          8           0       -7.846125   -1.174066   10.161976
     65          8           0       -1.573757   -1.833995   10.153221
     66          8           0       -3.386529   -1.129152    8.016068
     67          8           0       -6.033097   -1.950927    8.044563
     68          8           0       -5.137564   -0.198406    9.951648
     69          8           0       -4.252027   -2.821975    9.979610
     70         19           0       -3.233728   -6.118736    5.666163
     71         19           0       -0.151007    0.039247   12.349244
     72         19           0       -9.268342   -2.928842   12.409853
     73         23           0       -4.704549   -1.521262    8.995175
 ---------------------------------------------------------------------
 Rotational constants (GHZ):           0.0171933           0.0133158           0.0131107
 Standard basis: def2SVP (5D, 7F)
  1217 basis functions,  2313 primitive gaussians,  1337 cartesian basis functions
   321 alpha electrons      321 beta electrons
       nuclear repulsion energy     21010.0697473782 Hartrees.
 NAtoms=   73 NActive=   73 NUniq=   73 SFac= 1.00D+00 NAtFMM=   60 NAOKFM=T Big=T
 Integral buffers will be    131072 words long.
 Raffenetti 2 integral format.
 Two-electron integral symmetry is turned off.
 Nuclear repulsion after empirical dispersion term =    21009.7917810158 Hartrees.
 Force PCM accuracy= 1.00D-10.
 ------------------------------------------------------------------------------
 Polarizable Continuum Model (PCM)
 =================================
 Model                : PCM (using non-symmetric T matrix).
 Atomic radii         : SMD-Coulomb.
 Polarization charges : Total charges.
 Charge compensation  : None.
 Solution method      : On-the-fly selection.
 Cavity type          : VdW (van der Waals Surface) (Alpha=1.000).
 Cavity algorithm     : GePol (No added spheres)
                        Default sphere list used, NSphG=   73.
                        Lebedev-Laikov grids with approx.  5.0 points / Ang**2.
                        Smoothing algorithm: York/Karplus (Gamma=1.0000).
                        Polarization charges: spherical gaussians, with
                                              point-specific exponents (IZeta= 3).
                        Self-potential: point-specific (ISelfS= 7).
                        Self-field    : sphere-specific E.n sum rule (ISelfD= 2).
 1st derivatives      : Analytical E(r).r(x)/FMM algorithm (CHGder, D1EAlg=3).
                        Cavity 1st derivative terms included.
 Solvent              : Acetonitrile, Eps=  35.688000 Eps(inf)=   1.806874
 ------------------------------------------------------------------------------
 ------------------------------------------------------------------------------
 Atomic radii for non-electrostatic terms: SMD-CDS.
 ------------------------------------------------------------------------------
 Nuclear repulsion after PCM non-electrostatic terms =    21009.7859585424 Hartrees.
 One-electron integrals computed using PRISM.
   1 Symmetry operations used in ECPInt.
 ECPInt:  NShTT=  127765 NPrTT=  468030 LenC2=   96834 LenP2D=  221620.
 LDataN:  DoStor=T MaxTD1= 8 Len=  415
 NBasis=  1217 RedAO= T EigKep=  1.35D-04  NBF=  1217
 NBsUse=  1217 1.00D-06 EigRej= -1.00D+00 NBFU=  1217
 Defaulting to unpruned grid for atomic number  74.
 Defaulting to unpruned grid for atomic number  74.
 Defaulting to unpruned grid for atomic number  74.
 Defaulting to unpruned grid for atomic number  74.
 Defaulting to unpruned grid for atomic number  74.
 Defaulting to unpruned grid for atomic number  74.
 Defaulting to unpruned grid for atomic number  74.
 Defaulting to unpruned grid for atomic number  74.
 Initial guess from the checkpoint file:  "b.chk"
 B after Tr=     0.000929   -0.001327    0.000168
         Rot=    1.000000    0.000011    0.000009    0.000052 Ang=   0.01 deg.
 Initial guess <Sx>= 0.0000 <Sy>= 0.0000 <Sz>= 0.0000 <S**2>= 1.0140 S= 0.6243
 Requested convergence on RMS density matrix=1.00D-08 within  64 cycles.
 Requested convergence on MAX density matrix=1.00D-06.
 Requested convergence on             energy=1.00D-06.
 No special actions if energy rises.
 Defaulting to unpruned grid for atomic number  74.
 Defaulting to unpruned grid for atomic number  74.
 Defaulting to unpruned grid for atomic number  74.
 Defaulting to unpruned grid for atomic number  74.
 Defaulting to unpruned grid for atomic number  74.
 Defaulting to unpruned grid for atomic number  74.
 Defaulting to unpruned grid for atomic number  74.
 Defaulting to unpruned grid for atomic number  74.
 Defaulting to unpruned grid for atomic number  74.
 Defaulting to unpruned grid for atomic number  74.
 Defaulting to unpruned grid for atomic number  74.
 Defaulting to unpruned grid for atomic number  74.
 Defaulting to unpruned grid for atomic number  74.
 Defaulting to unpruned grid for atomic number  74.
 Defaulting to unpruned grid for atomic number  74.
 Defaulting to unpruned grid for atomic number  74.
 Defaulting to unpruned grid for atomic number  74.
 Defaulting to unpruned grid for atomic number  74.
 Defaulting to unpruned grid for atomic number  74.
 Defaulting to unpruned grid for atomic number  74.
 Defaulting to unpruned grid for atomic number  74.
 Defaulting to unpruned grid for atomic number  74.
 Defaulting to unpruned grid for atomic number  74.
 Defaulting to unpruned grid for atomic number  74.
 Defaulting to unpruned grid for atomic number  74.
 Defaulting to unpruned grid for atomic number  74.
 Defaulting to unpruned grid for atomic number  74.
 Defaulting to unpruned grid for atomic number  74.
 Defaulting to unpruned grid for atomic number  74.
 Defaulting to unpruned grid for atomic number  74.
 Defaulting to unpruned grid for atomic number  74.
 Defaulting to unpruned grid for atomic number  74.
 Defaulting to unpruned grid for atomic number  74.
 Defaulting to unpruned grid for atomic number  74.
 Defaulting to unpruned grid for atomic number  74.
 Defaulting to unpruned grid for atomic number  74.
 Defaulting to unpruned grid for atomic number  74.
 Defaulting to unpruned grid for atomic number  74.
 Defaulting to unpruned grid for atomic number  74.
 Defaulting to unpruned grid for atomic number  74.
 Defaulting to unpruned grid for atomic number  74.
 Defaulting to unpruned grid for atomic number  74.
 Defaulting to unpruned grid for atomic number  74.
 Defaulting to unpruned grid for atomic number  74.
 Defaulting to unpruned grid for atomic number  74.
 Defaulting to unpruned grid for atomic number  74.
 Defaulting to unpruned grid for atomic number  74.
 Defaulting to unpruned grid for atomic number  74.
 Defaulting to unpruned grid for atomic number  74.
 Defaulting to unpruned grid for atomic number  74.
 Defaulting to unpruned grid for atomic number  74.
 Defaulting to unpruned grid for atomic number  74.
 Defaulting to unpruned grid for atomic number  74.
 Defaulting to unpruned grid for atomic number  74.
 Defaulting to unpruned grid for atomic number  74.
 Defaulting to unpruned grid for atomic number  74.
 Inv3:  Mode=1 IEnd=    86188800.
 Iteration    1 A*A^-1 deviation from unit magnitude is 3.33D-15 for    885.
 Iteration    1 A*A^-1 deviation from orthogonality  is 3.11D-15 for   3439   1548.
 Iteration    1 A^-1*A deviation from unit magnitude is 3.55D-15 for   2150.
 Iteration    1 A^-1*A deviation from orthogonality  is 1.50D-11 for   4641   3632.
 Restarting incremental Fock formation.
 Error on total polarization charges =  0.01561
 SCF Done:  E(UwB97XD) =  -7327.70018024     A.U. after   35 cycles
            NFock= 35  Conv=0.22D-08     -V/T= 2.0831
 <Sx>= 0.0000 <Sy>= 0.0000 <Sz>= 0.0000 <S**2>= 1.0140 S= 0.6243
 <L.S>=  0.00000000000    
 SMD-CDS (non-electrostatic) energy       (kcal/mol) =      -3.65
 (included in total energy above)
 Annihilation of the first spin contaminant:
 S**2 before annihilation     1.0140,   after     0.1124
 QCSCF skips out because SCF is already converged.

 **********************************************************************

            Population analysis using the SCF Density.

 **********************************************************************

 Alpha  occ. eigenvalues -- -197.10463-129.99073-129.99066-129.99033-101.61985
 Alpha  occ. eigenvalues --  -22.44164 -19.28515 -19.28496 -19.28465 -19.28396
 Alpha  occ. eigenvalues --  -19.28388 -19.28376 -19.28356 -19.28355 -19.28343
 Alpha  occ. eigenvalues --  -19.28253 -19.28236 -19.28155 -19.26955 -19.26911
 Alpha  occ. eigenvalues --  -19.26904 -19.26898 -19.26876 -19.26875 -19.26854
 Alpha  occ. eigenvalues --  -19.26842 -19.26841 -19.26828 -19.26811 -19.26809
 Alpha  occ. eigenvalues --  -19.26801 -19.26793 -19.26790 -19.26785 -19.26783
 Alpha  occ. eigenvalues --  -19.26772 -19.26753 -19.26723 -19.26712 -19.26694
 Alpha  occ. eigenvalues --  -19.26656 -19.26634 -19.24650 -19.24574 -19.24572
 Alpha  occ. eigenvalues --  -19.24556 -18.93735 -18.92649 -18.92608 -13.36481
 Alpha  occ. eigenvalues --  -13.36474 -13.36429 -10.69408 -10.69404 -10.69403
 Alpha  occ. eigenvalues --  -10.69401 -10.69397 -10.69396 -10.69357 -10.69353
 Alpha  occ. eigenvalues --  -10.69351 -10.32855 -10.32249 -10.31770 -10.30873
 Alpha  occ. eigenvalues --  -10.30845 -10.30808 -10.30465 -10.30378  -9.52390
 Alpha  occ. eigenvalues --   -7.27269  -7.26935  -7.26928  -3.21063  -3.21039
 Alpha  occ. eigenvalues --   -3.21039  -3.21033  -3.21007  -3.20994  -3.20984
 Alpha  occ. eigenvalues --   -3.20975  -3.20972  -3.20834  -3.20820  -3.20798
 Alpha  occ. eigenvalues --   -2.78555  -1.85316  -1.85281  -1.85257  -1.85227
 Alpha  occ. eigenvalues --   -1.85111  -1.85064  -1.85042  -1.85026  -1.85016
 Alpha  occ. eigenvalues --   -1.85008  -1.84984  -1.84921  -1.84364  -1.84252
 Alpha  occ. eigenvalues --   -1.84237  -1.84233  -1.84193  -1.84184  -1.84115
 Alpha  occ. eigenvalues --   -1.84101  -1.84075  -1.84069  -1.84044  -1.84033
 Alpha  occ. eigenvalues --   -1.83915  -1.83889  -1.83877  -1.83871  -1.83836
 Alpha  occ. eigenvalues --   -1.83798  -1.83780  -1.83777  -1.83758  -1.83659
 Alpha  occ. eigenvalues --   -1.83657  -1.83644  -1.81747  -1.81406  -1.81386
 Alpha  occ. eigenvalues --   -1.50186  -1.50177  -1.50133  -1.08574  -1.06941
 Alpha  occ. eigenvalues --   -1.06911  -1.06882  -1.05985  -1.05972  -1.05943
 Alpha  occ. eigenvalues --   -1.04552  -1.04542  -1.04530  -1.03943  -1.03920
 Alpha  occ. eigenvalues --   -1.03642  -1.03335  -1.03285  -1.03274  -1.03036
 Alpha  occ. eigenvalues --   -1.03011  -1.02222  -1.02202  -1.02170  -1.02073
 Alpha  occ. eigenvalues --   -1.02027  -1.01995  -1.01931  -1.01903  -1.01789
 Alpha  occ. eigenvalues --   -1.01746  -1.01731  -1.01620  -1.01572  -1.01551
 Alpha  occ. eigenvalues --   -1.01278  -1.00800  -1.00761  -1.00713  -1.00698
 Alpha  occ. eigenvalues --   -0.99942  -0.99872  -0.99806  -0.96064  -0.89222
 Alpha  occ. eigenvalues --   -0.85630  -0.85620  -0.85585  -0.85475  -0.85471
 Alpha  occ. eigenvalues --   -0.85469  -0.85463  -0.85429  -0.85412  -0.84153
 Alpha  occ. eigenvalues --   -0.82300  -0.80859  -0.71827  -0.69492  -0.64972
 Alpha  occ. eigenvalues --   -0.62280  -0.61671  -0.61626  -0.61587  -0.60538
 Alpha  occ. eigenvalues --   -0.58945  -0.58934  -0.58927  -0.58857  -0.58797
 Alpha  occ. eigenvalues --   -0.58721  -0.58712  -0.58665  -0.58511  -0.57312
 Alpha  occ. eigenvalues --   -0.57277  -0.57248  -0.56969  -0.56712  -0.56460
 Alpha  occ. eigenvalues --   -0.56423  -0.56382  -0.55979  -0.55827  -0.55325
 Alpha  occ. eigenvalues --   -0.55322  -0.55285  -0.54325  -0.54182  -0.54152
 Alpha  occ. eigenvalues --   -0.53975  -0.53637  -0.53595  -0.53568  -0.52708
 Alpha  occ. eigenvalues --   -0.52613  -0.52599  -0.52510  -0.52462  -0.51468
 Alpha  occ. eigenvalues --   -0.51457  -0.51437  -0.51362  -0.51303  -0.50680
 Alpha  occ. eigenvalues --   -0.50573  -0.50516  -0.50467  -0.50361  -0.50279
 Alpha  occ. eigenvalues --   -0.50234  -0.50057  -0.50030  -0.50000  -0.49759
 Alpha  occ. eigenvalues --   -0.49683  -0.49654  -0.49486  -0.49454  -0.49300
 Alpha  occ. eigenvalues --   -0.49244  -0.49197  -0.49107  -0.49065  -0.48972
 Alpha  occ. eigenvalues --   -0.48730  -0.48568  -0.48550  -0.48485  -0.47693
 Alpha  occ. eigenvalues --   -0.47679  -0.47111  -0.46477  -0.46035  -0.46021
 Alpha  occ. eigenvalues --   -0.45862  -0.45758  -0.45682  -0.45606  -0.45194
 Alpha  occ. eigenvalues --   -0.45118  -0.45113  -0.44829  -0.44625  -0.44489
 Alpha  occ. eigenvalues --   -0.44467  -0.44442  -0.44253  -0.44248  -0.44228
 Alpha  occ. eigenvalues --   -0.43366  -0.43014  -0.42539  -0.42498  -0.42434
 Alpha  occ. eigenvalues --   -0.42290  -0.42154  -0.42140  -0.42038  -0.41622
 Alpha  occ. eigenvalues --   -0.41596  -0.41549  -0.41023  -0.40987  -0.40792
 Alpha  occ. eigenvalues --   -0.40749  -0.40730  -0.40407  -0.40397  -0.40356
 Alpha  occ. eigenvalues --   -0.40207  -0.40172  -0.40162  -0.40138  -0.39866
 Alpha  occ. eigenvalues --   -0.39334  -0.39254  -0.39228  -0.39140  -0.39007
 Alpha  occ. eigenvalues --   -0.38917  -0.38887  -0.38813  -0.38705  -0.38672
 Alpha  occ. eigenvalues --   -0.38308  -0.38284  -0.38246  -0.37837  -0.37178
 Alpha  occ. eigenvalues --   -0.37173  -0.34599  -0.34576  -0.33545  -0.30028
 Alpha  occ. eigenvalues --   -0.25487
 Alpha virt. eigenvalues --   -0.11813  -0.06226  -0.06189  -0.04772  -0.04707
 Alpha virt. eigenvalues --   -0.04600  -0.01475  -0.01383  -0.01332  -0.01079
 Alpha virt. eigenvalues --   -0.00910  -0.00879  -0.00820  -0.00138  -0.00052
 Alpha virt. eigenvalues --   -0.00023   0.00712   0.00726   0.00773   0.00938
 Alpha virt. eigenvalues --    0.01040   0.01411   0.01827   0.01881   0.01921
 Alpha virt. eigenvalues --    0.02482   0.02744   0.02794   0.02850   0.03532
 Alpha virt. eigenvalues --    0.03619   0.03736   0.03892   0.03961   0.04330
 Alpha virt. eigenvalues --    0.04342   0.04377   0.04403   0.04629   0.05035
 Alpha virt. eigenvalues --    0.05107   0.06087   0.06451   0.08097   0.08307
 Alpha virt. eigenvalues --    0.08476   0.08606   0.08853   0.08890   0.09386
 Alpha virt. eigenvalues --    0.09770   0.09856   0.09879   0.09916   0.10009
 Alpha virt. eigenvalues --    0.10070   0.10176   0.10366   0.10865   0.10967
 Alpha virt. eigenvalues --    0.11541   0.11639   0.11948   0.12185   0.12246
 Alpha virt. eigenvalues --    0.12401   0.12439   0.12493   0.12859   0.13317
 Alpha virt. eigenvalues --    0.13431   0.13639   0.14045   0.14292   0.14792
 Alpha virt. eigenvalues --    0.14969   0.14987   0.15227   0.15391   0.15853
 Alpha virt. eigenvalues --    0.16130   0.16788   0.17098   0.17771   0.17864
 Alpha virt. eigenvalues --    0.18303   0.18457   0.18577   0.18793   0.18939
 Alpha virt. eigenvalues --    0.19272   0.19374   0.19506   0.19569   0.19624
 Alpha virt. eigenvalues --    0.19693   0.19913   0.20081   0.20703   0.20923
 Alpha virt. eigenvalues --    0.21163   0.21328   0.21387   0.21552   0.21596
 Alpha virt. eigenvalues --    0.21693   0.21935   0.21964   0.22152   0.22294
 Alpha virt. eigenvalues --    0.22408   0.22818   0.23182   0.23259   0.23326
 Alpha virt. eigenvalues --    0.23414   0.23629   0.23824   0.24084   0.24328
 Alpha virt. eigenvalues --    0.24493   0.24679   0.24755   0.25069   0.25216
 Alpha virt. eigenvalues --    0.25498   0.25531   0.25667   0.26357   0.26819
 Alpha virt. eigenvalues --    0.26888   0.27204   0.27376   0.27685   0.27937
 Alpha virt. eigenvalues --    0.28010   0.28426   0.28745   0.28785   0.29120
 Alpha virt. eigenvalues --    0.29283   0.29314   0.29445   0.29582   0.29753
 Alpha virt. eigenvalues --    0.30171   0.30572   0.30996   0.31264   0.31597
 Alpha virt. eigenvalues --    0.31739   0.32353   0.32578   0.32751   0.33310
 Alpha virt. eigenvalues --    0.33736   0.34435   0.35617   0.36932   0.37151
 Alpha virt. eigenvalues --    0.38233   0.38726   0.39008   0.39315   0.39638
 Alpha virt. eigenvalues --    0.40415   0.41396   0.41772   0.41905   0.42010
 Alpha virt. eigenvalues --    0.42245   0.42501   0.42656   0.43346   0.43943
 Alpha virt. eigenvalues --    0.44280   0.44473   0.44907   0.45300   0.45506
 Alpha virt. eigenvalues --    0.45598   0.45767   0.45996   0.46471   0.46681
 Alpha virt. eigenvalues --    0.46967   0.47153   0.47714   0.47879   0.48218
 Alpha virt. eigenvalues --    0.48367   0.48481   0.48707   0.49039   0.49102
 Alpha virt. eigenvalues --    0.49382   0.49800   0.49952   0.49968   0.50031
 Alpha virt. eigenvalues --    0.50162   0.50432   0.50634   0.50686   0.50902
 Alpha virt. eigenvalues --    0.51299   0.51421   0.51767   0.51854   0.52143
 Alpha virt. eigenvalues --    0.52544   0.52876   0.52981   0.53111   0.53443
 Alpha virt. eigenvalues --    0.53793   0.54051   0.54397   0.54447   0.54659
 Alpha virt. eigenvalues --    0.54787   0.55543   0.56013   0.56056   0.56394
 Alpha virt. eigenvalues --    0.56652   0.57024   0.57157   0.57325   0.57811
 Alpha virt. eigenvalues --    0.58598   0.58780   0.59037   0.59449   0.59737
 Alpha virt. eigenvalues --    0.60151   0.60542   0.60970   0.61291   0.61719
 Alpha virt. eigenvalues --    0.61982   0.62944   0.63630   0.64039   0.64744
 Alpha virt. eigenvalues --    0.65032   0.66357   0.66590   0.66627   0.66865
 Alpha virt. eigenvalues --    0.68155   0.68282   0.68636   0.68872   0.69394
 Alpha virt. eigenvalues --    0.69649   0.70198   0.70954   0.71400   0.71771
 Alpha virt. eigenvalues --    0.72201   0.72533   0.72838   0.72925   0.73158
 Alpha virt. eigenvalues --    0.73198   0.73437   0.73509   0.73784   0.73932
 Alpha virt. eigenvalues --    0.74265   0.74345   0.75215   0.75646   0.75905
 Alpha virt. eigenvalues --    0.76236   0.77063   0.77236   0.78044   0.78544
 Alpha virt. eigenvalues --    0.79062   0.79751   0.79993   0.80363   0.80706
 Alpha virt. eigenvalues --    0.81021   0.81143   0.82055   0.82272   0.82598
 Alpha virt. eigenvalues --    0.83029   0.83481   0.84029   0.84285   0.84487
 Alpha virt. eigenvalues --    0.84708   0.85258   0.85662   0.86544   0.87362
 Alpha virt. eigenvalues --    0.88029   0.88728   0.89303   0.89849   0.90164
 Alpha virt. eigenvalues --    0.90426   0.90685   0.91154   0.91698   0.91887
 Alpha virt. eigenvalues --    0.91957   0.92395   0.92711   0.92794   0.93008
 Alpha virt. eigenvalues --    0.93146   0.93283   0.93447   0.93854   0.94106
 Alpha virt. eigenvalues --    0.94964   0.95277   0.95831   0.96583   0.96959
 Alpha virt. eigenvalues --    0.97175   0.97236   0.97774   0.98113   0.98983
 Alpha virt. eigenvalues --    0.99324   0.99554   0.99705   1.00076   1.00293
 Alpha virt. eigenvalues --    1.00427   1.00660   1.00733   1.01045   1.01151
 Alpha virt. eigenvalues --    1.01204   1.01349   1.01859   1.02284   1.02627
 Alpha virt. eigenvalues --    1.02750   1.02989   1.03402   1.03721   1.03907
 Alpha virt. eigenvalues --    1.04219   1.04298   1.04744   1.04887   1.05055
 Alpha virt. eigenvalues --    1.05243   1.05465   1.05608   1.06112   1.06648
 Alpha virt. eigenvalues --    1.07091   1.07122   1.07374   1.07495   1.07592
 Alpha virt. eigenvalues --    1.07832   1.08115   1.08315   1.08572   1.08840
 Alpha virt. eigenvalues --    1.09042   1.09264   1.09483   1.10249   1.10977
 Alpha virt. eigenvalues --    1.11262   1.11460   1.11933   1.12221   1.12399
 Alpha virt. eigenvalues --    1.12446   1.12916   1.13082   1.13277   1.13382
 Alpha virt. eigenvalues --    1.13447   1.13754   1.13912   1.14243   1.14367
 Alpha virt. eigenvalues --    1.14669   1.15087   1.15246   1.15546   1.16266
 Alpha virt. eigenvalues --    1.16758   1.17361   1.17851   1.18224   1.18534
 Alpha virt. eigenvalues --    1.18838   1.19733   1.19839   1.20085   1.20458
 Alpha virt. eigenvalues --    1.20851   1.21506   1.22731   1.22875   1.22910
 Alpha virt. eigenvalues --    1.23241   1.23449   1.23747   1.23807   1.24717
 Alpha virt. eigenvalues --    1.25278   1.25838   1.27062   1.27583   1.27958
 Alpha virt. eigenvalues --    1.28295   1.29027   1.29499   1.30103   1.30305
 Alpha virt. eigenvalues --    1.30690   1.30767   1.30931   1.31099   1.31604
 Alpha virt. eigenvalues --    1.31821   1.31917   1.32228   1.32399   1.32517
 Alpha virt. eigenvalues --    1.32662   1.32879   1.33008   1.33352   1.34324
 Alpha virt. eigenvalues --    1.34729   1.34886   1.35075   1.35485   1.35737
 Alpha virt. eigenvalues --    1.35765   1.35953   1.36328   1.36546   1.36774
 Alpha virt. eigenvalues --    1.36868   1.37418   1.37872   1.37990   1.38110
 Alpha virt. eigenvalues --    1.38277   1.38601   1.38788   1.38888   1.39159
 Alpha virt. eigenvalues --    1.39181   1.39507   1.39579   1.39650   1.39992
 Alpha virt. eigenvalues --    1.40165   1.40273   1.40645   1.40926   1.41084
 Alpha virt. eigenvalues --    1.41123   1.41160   1.41523   1.41674   1.41872
 Alpha virt. eigenvalues --    1.42180   1.42441   1.42576   1.42720   1.43049
 Alpha virt. eigenvalues --    1.43148   1.43401   1.43651   1.43772   1.44303
 Alpha virt. eigenvalues --    1.44567   1.44868   1.45051   1.45345   1.45518
 Alpha virt. eigenvalues --    1.45619   1.45945   1.46406   1.46648   1.47510
 Alpha virt. eigenvalues --    1.48017   1.48147   1.49682   1.49787   1.49911
 Alpha virt. eigenvalues --    1.50374   1.50876   1.51793   1.52301   1.52490
 Alpha virt. eigenvalues --    1.52677   1.53134   1.53525   1.53835   1.55380
 Alpha virt. eigenvalues --    1.55528   1.57450   1.58078   1.58134   1.58307
 Alpha virt. eigenvalues --    1.58555   1.58960   1.59088   1.59529   1.60149
 Alpha virt. eigenvalues --    1.60683   1.60940   1.61432   1.61612   1.61989
 Alpha virt. eigenvalues --    1.62236   1.62538   1.62893   1.63451   1.64054
 Alpha virt. eigenvalues --    1.64615   1.64804   1.65029   1.65531   1.65829
 Alpha virt. eigenvalues --    1.66081   1.66845   1.68089   1.68422   1.69797
 Alpha virt. eigenvalues --    1.70390   1.70673   1.71060   1.72639   1.73120
 Alpha virt. eigenvalues --    1.73304   1.73474   1.74194   1.74444   1.74989
 Alpha virt. eigenvalues --    1.75866   1.76358   1.77550   1.77801   1.77970
 Alpha virt. eigenvalues --    1.78411   1.78668   1.79038   1.79330   1.79675
 Alpha virt. eigenvalues --    1.79894   1.81002   1.81081   1.81486   1.81643
 Alpha virt. eigenvalues --    1.82364   1.82884   1.83764   1.83958   1.84141
 Alpha virt. eigenvalues --    1.84521   1.85027   1.85115   1.85578   1.86061
 Alpha virt. eigenvalues --    1.86265   1.86533   1.86782   1.87411   1.87778
 Alpha virt. eigenvalues --    1.88410   1.88573   1.89098   1.89158   1.89436
 Alpha virt. eigenvalues --    1.89936   1.90513   1.91413   1.92233   1.92660
 Alpha virt. eigenvalues --    1.93021   1.93234   1.93785   1.93838   1.95062
 Alpha virt. eigenvalues --    1.96233   1.96895   1.97658   1.97843   1.98498
 Alpha virt. eigenvalues --    1.98770   2.01898   2.01950   2.02099   2.03644
 Alpha virt. eigenvalues --    2.05308   2.05763   2.07215   2.08424   2.08881
 Alpha virt. eigenvalues --    2.10723   2.11007   2.11531   2.12496   2.13151
 Alpha virt. eigenvalues --    2.13972   2.14749   2.14899   2.15737   2.17673
 Alpha virt. eigenvalues --    2.18529   2.18891   2.19206   2.19897   2.20490
 Alpha virt. eigenvalues --    2.20751   2.21002   2.21740   2.24835   2.26294
 Alpha virt. eigenvalues --    2.26537   2.27005   2.27680   2.28751   2.29818
 Alpha virt. eigenvalues --    2.30052   2.30703   2.31487   2.32252   2.32802
 Alpha virt. eigenvalues --    2.33447   2.33785   2.33860   2.34480   2.34678
 Alpha virt. eigenvalues --    2.34915   2.39030   2.39771   2.42104   2.42880
 Alpha virt. eigenvalues --    2.43280   2.48160   2.49617   2.55094   2.65516
 Alpha virt. eigenvalues --    2.67067   2.67115   2.67163   2.67335   2.67992
 Alpha virt. eigenvalues --    2.68484   2.69150   2.69223   2.69299   2.69564
 Alpha virt. eigenvalues --    2.69630   2.69739   2.69819   2.69897   2.70071
 Alpha virt. eigenvalues --    2.70118   2.70172   2.70637   2.70685   2.70754
 Alpha virt. eigenvalues --    2.70816   2.70869   2.71146   2.71440   2.71613
 Alpha virt. eigenvalues --    2.71725   2.72049   2.72763   2.72829   2.72983
 Alpha virt. eigenvalues --    2.73229   2.73273   2.73505   2.73629   2.73791
 Alpha virt. eigenvalues --    2.74074   2.74253   2.74303   2.74365   2.75373
 Alpha virt. eigenvalues --    2.75428   2.75546   2.75641   2.75673   2.75687
 Alpha virt. eigenvalues --    2.75845   2.75891   2.76007   2.76095   2.76191
 Alpha virt. eigenvalues --    2.76263   2.76393   2.76507   2.76923   2.77392
 Alpha virt. eigenvalues --    2.77462   2.77709   2.78055   2.78378   2.78514
 Alpha virt. eigenvalues --    2.78717   2.79100   2.79437   2.79589   2.79642
 Alpha virt. eigenvalues --    2.79767   2.79910   2.80145   2.80381   2.81136
 Alpha virt. eigenvalues --    2.82161   2.82397   2.82527   2.82696   2.82740
 Alpha virt. eigenvalues --    2.82975   2.83066   2.83511   2.83917   2.84738
 Alpha virt. eigenvalues --    2.84825   2.85156   2.85295   2.85761   2.85861
 Alpha virt. eigenvalues --    2.85924   2.86078   2.86422   2.87247   2.87476
 Alpha virt. eigenvalues --    2.87710   2.88425   2.88592   2.88674   2.88780
 Alpha virt. eigenvalues --    2.88839   2.89380   2.89422   2.89498   2.90256
 Alpha virt. eigenvalues --    2.91070   2.91232   2.92087   2.92138   2.92248
 Alpha virt. eigenvalues --    2.92706   2.92722   2.92826   2.93161   2.93210
 Alpha virt. eigenvalues --    2.93749   2.94135   2.94518   2.94590   2.94791
 Alpha virt. eigenvalues --    2.94852   2.94874   2.95246   2.95464   2.95738
 Alpha virt. eigenvalues --    2.95963   2.96137   2.96204   2.96398   2.96488
 Alpha virt. eigenvalues --    2.96678   2.96844   2.96883   2.97174   2.97397
 Alpha virt. eigenvalues --    2.97559   2.98058   2.98274   2.98295   2.99041
 Alpha virt. eigenvalues --    2.99145   2.99481   2.99502   2.99769   2.99801
 Alpha virt. eigenvalues --    3.00009   3.00322   3.00537   3.00801   3.00889
 Alpha virt. eigenvalues --    3.01464   3.01682   3.01811   3.02262   3.02409
 Alpha virt. eigenvalues --    3.02659   3.02876   3.03345   3.04175   3.07084
 Alpha virt. eigenvalues --    3.08595   3.08682   3.08833   3.08901   3.09239
 Alpha virt. eigenvalues --    3.10027   3.10366   3.10435   3.10528   3.13854
 Alpha virt. eigenvalues --    3.14004   3.14071   3.14744   3.15129   3.15192
 Alpha virt. eigenvalues --    3.16509   3.16561   3.16882   3.22333   3.27794
 Alpha virt. eigenvalues --    3.29306   3.29514   3.30405   3.42679   3.43332
 Alpha virt. eigenvalues --    3.44181   3.44670   3.45948   3.46540   3.46671
 Alpha virt. eigenvalues --    3.47590   3.47818   3.48055   3.48992   3.49129
 Alpha virt. eigenvalues --    3.49460   3.53184   3.53916   3.54460   3.55503
 Alpha virt. eigenvalues --    3.55688   3.56434   3.56685   3.57139   3.57247
 Alpha virt. eigenvalues --    3.57387   3.57475   3.57851   3.58671   3.59613
 Alpha virt. eigenvalues --    3.59962   3.61024   3.61490   3.61799   3.62550
 Alpha virt. eigenvalues --    3.62754   3.63353   3.63748   3.64087   3.64601
 Alpha virt. eigenvalues --    3.73277   3.77549  68.66712  68.67711  68.68971
 Alpha virt. eigenvalues --   68.71239  68.75049  68.75978  68.83791  68.84881
 Alpha virt. eigenvalues --   68.85388  68.88194  68.89248  68.90474 576.25162
 Alpha virt. eigenvalues --  576.26140 576.27373 576.29590 576.33415 576.34323
 Alpha virt. eigenvalues --  576.41990 576.43065 576.43550 576.46254 576.47292
 Alpha virt. eigenvalues --  576.48505
  Beta  occ. eigenvalues -- -197.10446-129.99073-129.99066-129.99033-101.62391
  Beta  occ. eigenvalues --  -22.42903 -19.28516 -19.28498 -19.28466 -19.28392
  Beta  occ. eigenvalues --  -19.28382 -19.28369 -19.28350 -19.28349 -19.28336
  Beta  occ. eigenvalues --  -19.28255 -19.28248 -19.28148 -19.26956 -19.26911
  Beta  occ. eigenvalues --  -19.26904 -19.26898 -19.26876 -19.26875 -19.26853
  Beta  occ. eigenvalues --  -19.26842 -19.26841 -19.26829 -19.26811 -19.26809
  Beta  occ. eigenvalues --  -19.26801 -19.26794 -19.26791 -19.26786 -19.26784
  Beta  occ. eigenvalues --  -19.26774 -19.26753 -19.26722 -19.26712 -19.26700
  Beta  occ. eigenvalues --  -19.26656 -19.26634 -19.24626 -19.24554 -19.24547
  Beta  occ. eigenvalues --  -19.24530 -18.93391 -18.91208 -18.91128 -13.36481
  Beta  occ. eigenvalues --  -13.36474 -13.36429 -10.69408 -10.69404 -10.69403
  Beta  occ. eigenvalues --  -10.69401 -10.69397 -10.69396 -10.69357 -10.69353
  Beta  occ. eigenvalues --  -10.69350 -10.33098 -10.32422 -10.31725 -10.30961
  Beta  occ. eigenvalues --  -10.30951 -10.30894 -10.30415 -10.30327  -9.52844
  Beta  occ. eigenvalues --   -7.28696  -7.27246  -7.27238  -3.21063  -3.21039
  Beta  occ. eigenvalues --   -3.21033  -3.21031  -3.21000  -3.20988  -3.20978
  Beta  occ. eigenvalues --   -3.20969  -3.20965  -3.20834  -3.20817  -3.20793
  Beta  occ. eigenvalues --   -2.74501  -1.85311  -1.85276  -1.85253  -1.85219
  Beta  occ. eigenvalues --   -1.85105  -1.85059  -1.85035  -1.85020  -1.85008
  Beta  occ. eigenvalues --   -1.84999  -1.84980  -1.84912  -1.84361  -1.84250
  Beta  occ. eigenvalues --   -1.84234  -1.84230  -1.84189  -1.84180  -1.84112
  Beta  occ. eigenvalues --   -1.84099  -1.84072  -1.84066  -1.84041  -1.84030
  Beta  occ. eigenvalues --   -1.83913  -1.83886  -1.83875  -1.83868  -1.83833
  Beta  occ. eigenvalues --   -1.83795  -1.83776  -1.83774  -1.83755  -1.83656
  Beta  occ. eigenvalues --   -1.83655  -1.83641  -1.80414  -1.75745  -1.75575
  Beta  occ. eigenvalues --   -1.50186  -1.50177  -1.50133  -1.08557  -1.06922
  Beta  occ. eigenvalues --   -1.06891  -1.06856  -1.05983  -1.05970  -1.05942
  Beta  occ. eigenvalues --   -1.04552  -1.04541  -1.04532  -1.03942  -1.03922
  Beta  occ. eigenvalues --   -1.03576  -1.03304  -1.03251  -1.03242  -1.03034
  Beta  occ. eigenvalues --   -1.03003  -1.02205  -1.02179  -1.02155  -1.02063
  Beta  occ. eigenvalues --   -1.02021  -1.01982  -1.01927  -1.01894  -1.01784
  Beta  occ. eigenvalues --   -1.01743  -1.01728  -1.01620  -1.01570  -1.01536
  Beta  occ. eigenvalues --   -1.01278  -1.00766  -1.00754  -1.00713  -1.00696
  Beta  occ. eigenvalues --   -0.99805  -0.99718  -0.99684  -0.96266  -0.89893
  Beta  occ. eigenvalues --   -0.85630  -0.85620  -0.85585  -0.85474  -0.85471
  Beta  occ. eigenvalues --   -0.85469  -0.85463  -0.85429  -0.85412  -0.84386
  Beta  occ. eigenvalues --   -0.84217  -0.82677  -0.72087  -0.69602  -0.65210
  Beta  occ. eigenvalues --   -0.62280  -0.61671  -0.61626  -0.61586  -0.60724
  Beta  occ. eigenvalues --   -0.58945  -0.58931  -0.58926  -0.58783  -0.58726
  Beta  occ. eigenvalues --   -0.58703  -0.58693  -0.58641  -0.58511  -0.57284
  Beta  occ. eigenvalues --   -0.57127  -0.57081  -0.56962  -0.56853  -0.56462
  Beta  occ. eigenvalues --   -0.56393  -0.56347  -0.55783  -0.55575  -0.55306
  Beta  occ. eigenvalues --   -0.55303  -0.55285  -0.54493  -0.54178  -0.54144
  Beta  occ. eigenvalues --   -0.53965  -0.53612  -0.53570  -0.53526  -0.52750
  Beta  occ. eigenvalues --   -0.52642  -0.52585  -0.52495  -0.52454  -0.51456
  Beta  occ. eigenvalues --   -0.51435  -0.51415  -0.51300  -0.51246  -0.50853
  Beta  occ. eigenvalues --   -0.50481  -0.50454  -0.50403  -0.50314  -0.50242
  Beta  occ. eigenvalues --   -0.50185  -0.50031  -0.50023  -0.49971  -0.49708
  Beta  occ. eigenvalues --   -0.49658  -0.49633  -0.49477  -0.49443  -0.49302
  Beta  occ. eigenvalues --   -0.49221  -0.49199  -0.49075  -0.49049  -0.48949
  Beta  occ. eigenvalues --   -0.48723  -0.48571  -0.48554  -0.48477  -0.47772
  Beta  occ. eigenvalues --   -0.47657  -0.47549  -0.45911  -0.45890  -0.45800
  Beta  occ. eigenvalues --   -0.45789  -0.45679  -0.45566  -0.45195  -0.45149
  Beta  occ. eigenvalues --   -0.45116  -0.45039  -0.44829  -0.44625  -0.44470
  Beta  occ. eigenvalues --   -0.44449  -0.44400  -0.44252  -0.44210  -0.44198
  Beta  occ. eigenvalues --   -0.43359  -0.43105  -0.42496  -0.42465  -0.42395
  Beta  occ. eigenvalues --   -0.42245  -0.42112  -0.42102  -0.42101  -0.41599
  Beta  occ. eigenvalues --   -0.41594  -0.41538  -0.41346  -0.41027  -0.40937
  Beta  occ. eigenvalues --   -0.40739  -0.40704  -0.40653  -0.40389  -0.40385
  Beta  occ. eigenvalues --   -0.40328  -0.40163  -0.40151  -0.40122  -0.39808
  Beta  occ. eigenvalues --   -0.39618  -0.39333  -0.39163  -0.39094  -0.39077
  Beta  occ. eigenvalues --   -0.38884  -0.38858  -0.38806  -0.38700  -0.38657
  Beta  occ. eigenvalues --   -0.38612  -0.38306  -0.38276  -0.38241  -0.37467
  Beta  occ. eigenvalues --   -0.37179  -0.37167  -0.35542  -0.35522  -0.33786
  Beta  occ. eigenvalues --   -0.30713
  Beta virt. eigenvalues --   -0.06224  -0.06190  -0.04771  -0.04706  -0.04599
  Beta virt. eigenvalues --   -0.01471  -0.01378  -0.01327  -0.01073  -0.00904
  Beta virt. eigenvalues --   -0.00876  -0.00817  -0.00137  -0.00042  -0.00017
  Beta virt. eigenvalues --    0.00719   0.00733   0.00782   0.00905   0.01047
  Beta virt. eigenvalues --    0.01560   0.01897   0.01909   0.01931   0.02493
  Beta virt. eigenvalues --    0.02773   0.02845   0.03022   0.03530   0.03730
  Beta virt. eigenvalues --    0.03814   0.04042   0.04103   0.04341   0.04343
  Beta virt. eigenvalues --    0.04397   0.04412   0.04637   0.05040   0.05118
  Beta virt. eigenvalues --    0.05737   0.06470   0.07420   0.08509   0.08568
  Beta virt. eigenvalues --    0.08606   0.08685   0.09386   0.09531   0.09663
  Beta virt. eigenvalues --    0.09860   0.09908   0.10043   0.10119   0.10139
  Beta virt. eigenvalues --    0.10208   0.10368   0.10693   0.10877   0.10975
  Beta virt. eigenvalues --    0.11468   0.11626   0.11709   0.11988   0.12199
  Beta virt. eigenvalues --    0.12374   0.12434   0.12507   0.12550   0.13333
  Beta virt. eigenvalues --    0.13443   0.13641   0.14024   0.14283   0.14859
  Beta virt. eigenvalues --    0.15018   0.15080   0.15252   0.15389   0.15857
  Beta virt. eigenvalues --    0.16109   0.16749   0.17109   0.17765   0.17850
  Beta virt. eigenvalues --    0.18294   0.18458   0.18623   0.18797   0.18951
  Beta virt. eigenvalues --    0.19317   0.19418   0.19560   0.19578   0.19659
  Beta virt. eigenvalues --    0.19983   0.20059   0.20419   0.20716   0.20926
  Beta virt. eigenvalues --    0.21162   0.21327   0.21381   0.21558   0.21607
  Beta virt. eigenvalues --    0.21701   0.21958   0.21970   0.22159   0.22319
  Beta virt. eigenvalues --    0.22392   0.22820   0.23168   0.23266   0.23322
  Beta virt. eigenvalues --    0.23403   0.23641   0.23792   0.24051   0.24283
  Beta virt. eigenvalues --    0.24476   0.24635   0.24758   0.25029   0.25213
  Beta virt. eigenvalues --    0.25486   0.25534   0.25629   0.26265   0.26821
  Beta virt. eigenvalues --    0.26886   0.27198   0.27363   0.27653   0.27936
  Beta virt. eigenvalues --    0.28003   0.28383   0.28747   0.28785   0.29092
  Beta virt. eigenvalues --    0.29309   0.29318   0.29435   0.29587   0.29753
  Beta virt. eigenvalues --    0.30178   0.30572   0.30989   0.31270   0.31596
  Beta virt. eigenvalues --    0.31742   0.32359   0.32583   0.32754   0.33335
  Beta virt. eigenvalues --    0.33706   0.34429   0.35410   0.36924   0.37128
  Beta virt. eigenvalues --    0.38212   0.38842   0.39017   0.39345   0.39632
  Beta virt. eigenvalues --    0.40343   0.41386   0.41817   0.41970   0.42099
  Beta virt. eigenvalues --    0.42251   0.42497   0.42780   0.43356   0.44026
  Beta virt. eigenvalues --    0.44293   0.44550   0.44932   0.45232   0.45509
  Beta virt. eigenvalues --    0.45657   0.45828   0.45948   0.46464   0.46538
  Beta virt. eigenvalues --    0.46966   0.47117   0.47668   0.47870   0.48193
  Beta virt. eigenvalues --    0.48344   0.48362   0.48694   0.49029   0.49095
  Beta virt. eigenvalues --    0.49372   0.49738   0.49881   0.49955   0.50033
  Beta virt. eigenvalues --    0.50159   0.50435   0.50627   0.50686   0.50855
  Beta virt. eigenvalues --    0.51295   0.51416   0.51743   0.51842   0.52135
  Beta virt. eigenvalues --    0.52545   0.52829   0.52939   0.53108   0.53404
  Beta virt. eigenvalues --    0.53766   0.54025   0.54371   0.54444   0.54658
  Beta virt. eigenvalues --    0.54778   0.55500   0.56065   0.56088   0.56409
  Beta virt. eigenvalues --    0.56624   0.57030   0.57144   0.57267   0.57792
  Beta virt. eigenvalues --    0.58472   0.58791   0.59020   0.59443   0.59561
  Beta virt. eigenvalues --    0.60073   0.60613   0.60813   0.61231   0.61709
  Beta virt. eigenvalues --    0.61984   0.62873   0.63527   0.64212   0.64696
  Beta virt. eigenvalues --    0.65041   0.66240   0.66570   0.66619   0.66718
  Beta virt. eigenvalues --    0.67920   0.68127   0.68319   0.68822   0.68973
  Beta virt. eigenvalues --    0.69783   0.70359   0.70635   0.71359   0.71815
  Beta virt. eigenvalues --    0.72128   0.72526   0.72744   0.72886   0.73144
  Beta virt. eigenvalues --    0.73205   0.73422   0.73490   0.73694   0.73820
  Beta virt. eigenvalues --    0.74161   0.74245   0.74934   0.75568   0.75678
  Beta virt. eigenvalues --    0.76231   0.77060   0.77288   0.77919   0.78429
  Beta virt. eigenvalues --    0.79094   0.79706   0.80053   0.80623   0.80957
  Beta virt. eigenvalues --    0.81125   0.81271   0.82039   0.82299   0.82556
  Beta virt. eigenvalues --    0.83029   0.83434   0.84002   0.84291   0.84371
  Beta virt. eigenvalues --    0.84722   0.85256   0.85660   0.86553   0.87332
  Beta virt. eigenvalues --    0.87792   0.88469   0.88811   0.89569   0.89937
  Beta virt. eigenvalues --    0.89978   0.90365   0.90491   0.90769   0.91311
  Beta virt. eigenvalues --    0.91423   0.91914   0.92020   0.92223   0.92261
  Beta virt. eigenvalues --    0.92637   0.92715   0.93254   0.93455   0.93741
  Beta virt. eigenvalues --    0.94908   0.95204   0.95615   0.95846   0.96829
  Beta virt. eigenvalues --    0.97256   0.97345   0.97927   0.98216   0.98847
  Beta virt. eigenvalues --    0.99335   0.99465   0.99710   0.99800   1.00106
  Beta virt. eigenvalues --    1.00429   1.00646   1.00736   1.01054   1.01205
  Beta virt. eigenvalues --    1.01219   1.01368   1.01915   1.02252   1.02457
  Beta virt. eigenvalues --    1.02693   1.02759   1.03411   1.03723   1.03853
  Beta virt. eigenvalues --    1.04048   1.04315   1.04752   1.04901   1.05048
  Beta virt. eigenvalues --    1.05260   1.05507   1.05664   1.06128   1.06688
  Beta virt. eigenvalues --    1.07120   1.07181   1.07424   1.07558   1.07705
  Beta virt. eigenvalues --    1.07871   1.08140   1.08505   1.08836   1.08886
  Beta virt. eigenvalues --    1.09069   1.09351   1.09560   1.10260   1.10981
  Beta virt. eigenvalues --    1.11267   1.11466   1.11940   1.12226   1.12397
  Beta virt. eigenvalues --    1.12456   1.12913   1.13097   1.13279   1.13354
  Beta virt. eigenvalues --    1.13456   1.13774   1.13907   1.14282   1.14483
  Beta virt. eigenvalues --    1.14631   1.15046   1.15229   1.15536   1.16124
  Beta virt. eigenvalues --    1.16555   1.17335   1.17706   1.18004   1.18557
  Beta virt. eigenvalues --    1.18919   1.19652   1.19907   1.19975   1.20347
  Beta virt. eigenvalues --    1.20564   1.21231   1.22700   1.22862   1.22909
  Beta virt. eigenvalues --    1.23255   1.23393   1.23730   1.23800   1.24650
  Beta virt. eigenvalues --    1.25222   1.25615   1.27063   1.27570   1.27879
  Beta virt. eigenvalues --    1.28294   1.29042   1.29401   1.30109   1.30303
  Beta virt. eigenvalues --    1.30641   1.30765   1.30971   1.31047   1.31600
  Beta virt. eigenvalues --    1.31824   1.31923   1.32209   1.32373   1.32527
  Beta virt. eigenvalues --    1.32680   1.32848   1.33005   1.33343   1.34166
  Beta virt. eigenvalues --    1.34531   1.34887   1.35059   1.35500   1.35727
  Beta virt. eigenvalues --    1.35764   1.35922   1.36332   1.36540   1.36741
  Beta virt. eigenvalues --    1.36874   1.37296   1.37873   1.38010   1.38099
  Beta virt. eigenvalues --    1.38298   1.38616   1.38788   1.38901   1.39113
  Beta virt. eigenvalues --    1.39199   1.39495   1.39595   1.39692   1.39945
  Beta virt. eigenvalues --    1.40118   1.40276   1.40659   1.40903   1.41119
  Beta virt. eigenvalues --    1.41134   1.41170   1.41516   1.41678   1.41863
  Beta virt. eigenvalues --    1.42188   1.42448   1.42577   1.42724   1.43027
  Beta virt. eigenvalues --    1.43160   1.43402   1.43661   1.43795   1.44317
  Beta virt. eigenvalues --    1.44569   1.44835   1.45012   1.45359   1.45525
  Beta virt. eigenvalues --    1.45609   1.45930   1.46364   1.46711   1.47521
  Beta virt. eigenvalues --    1.47969   1.48153   1.49689   1.49795   1.49921
  Beta virt. eigenvalues --    1.50376   1.50884   1.51812   1.52305   1.52504
  Beta virt. eigenvalues --    1.52678   1.53150   1.53537   1.53854   1.55396
  Beta virt. eigenvalues --    1.55536   1.57454   1.58100   1.58156   1.58327
  Beta virt. eigenvalues --    1.58585   1.58975   1.59109   1.59566   1.60162
  Beta virt. eigenvalues --    1.60703   1.60961   1.61438   1.61620   1.61998
  Beta virt. eigenvalues --    1.62244   1.62529   1.62906   1.63450   1.64131
  Beta virt. eigenvalues --    1.64729   1.64936   1.65165   1.65635   1.65876
  Beta virt. eigenvalues --    1.66162   1.66933   1.68257   1.68485   1.69855
  Beta virt. eigenvalues --    1.70419   1.70703   1.71055   1.72465   1.73120
  Beta virt. eigenvalues --    1.73283   1.73490   1.74216   1.74466   1.74967
  Beta virt. eigenvalues --    1.75818   1.76301   1.77504   1.77801   1.77926
  Beta virt. eigenvalues --    1.78360   1.78547   1.79027   1.79327   1.79621
  Beta virt. eigenvalues --    1.79877   1.81006   1.81093   1.81490   1.81594
  Beta virt. eigenvalues --    1.82370   1.82800   1.83750   1.83993   1.84092
  Beta virt. eigenvalues --    1.84523   1.85018   1.85065   1.85582   1.86070
  Beta virt. eigenvalues --    1.86244   1.86574   1.86789   1.87418   1.87786
  Beta virt. eigenvalues --    1.88395   1.88548   1.88951   1.89111   1.89365
  Beta virt. eigenvalues --    1.89950   1.90524   1.91396   1.92146   1.92654
  Beta virt. eigenvalues --    1.93059   1.93221   1.93778   1.93848   1.95067
  Beta virt. eigenvalues --    1.96278   1.96778   1.97691   1.97878   1.98568
  Beta virt. eigenvalues --    1.98797   2.01976   2.02008   2.02216   2.03395
  Beta virt. eigenvalues --    2.05154   2.05575   2.07143   2.08340   2.08568
  Beta virt. eigenvalues --    2.10732   2.11006   2.11524   2.11900   2.13118
  Beta virt. eigenvalues --    2.13984   2.14769   2.14914   2.15783   2.17698
  Beta virt. eigenvalues --    2.18342   2.18911   2.19228   2.19664   2.20452
  Beta virt. eigenvalues --    2.20912   2.21114   2.21876   2.24777   2.26580
  Beta virt. eigenvalues --    2.26713   2.27435   2.27768   2.29470   2.30010
  Beta virt. eigenvalues --    2.30383   2.30914   2.31342   2.32730   2.33383
  Beta virt. eigenvalues --    2.33664   2.34215   2.34364   2.34858   2.35783
  Beta virt. eigenvalues --    2.36345   2.38773   2.39626   2.42003   2.42764
  Beta virt. eigenvalues --    2.43344   2.47639   2.49328   2.54461   2.65247
  Beta virt. eigenvalues --    2.66866   2.67099   2.67129   2.67231   2.67989
  Beta virt. eigenvalues --    2.68385   2.69150   2.69222   2.69291   2.69564
  Beta virt. eigenvalues --    2.69632   2.69741   2.69822   2.69898   2.70082
  Beta virt. eigenvalues --    2.70137   2.70185   2.70618   2.70709   2.70768
  Beta virt. eigenvalues --    2.70836   2.70885   2.71080   2.71395   2.71607
  Beta virt. eigenvalues --    2.71729   2.72047   2.72764   2.72834   2.72989
  Beta virt. eigenvalues --    2.73252   2.73294   2.73506   2.73629   2.73778
  Beta virt. eigenvalues --    2.73860   2.74260   2.74306   2.74357   2.75382
  Beta virt. eigenvalues --    2.75433   2.75552   2.75649   2.75679   2.75692
  Beta virt. eigenvalues --    2.75856   2.75899   2.76010   2.76104   2.76197
  Beta virt. eigenvalues --    2.76269   2.76397   2.76513   2.76923   2.77409
  Beta virt. eigenvalues --    2.77481   2.77742   2.78079   2.78402   2.78524
  Beta virt. eigenvalues --    2.78738   2.79107   2.79468   2.79609   2.79664
  Beta virt. eigenvalues --    2.79793   2.79912   2.80064   2.80336   2.81138
  Beta virt. eigenvalues --    2.82227   2.82420   2.82570   2.82707   2.82750
  Beta virt. eigenvalues --    2.82982   2.83103   2.83505   2.83908   2.84755
  Beta virt. eigenvalues --    2.84838   2.85177   2.85318   2.85673   2.85770
  Beta virt. eigenvalues --    2.85922   2.86067   2.86428   2.87273   2.87503
  Beta virt. eigenvalues --    2.87738   2.88430   2.88594   2.88678   2.88782
  Beta virt. eigenvalues --    2.88843   2.89400   2.89450   2.89506   2.90258
  Beta virt. eigenvalues --    2.91085   2.91251   2.92098   2.92145   2.92256
  Beta virt. eigenvalues --    2.92720   2.92731   2.92836   2.93192   2.93245
  Beta virt. eigenvalues --    2.93773   2.94131   2.94523   2.94581   2.94725
  Beta virt. eigenvalues --    2.94862   2.94893   2.95205   2.95450   2.95745
  Beta virt. eigenvalues --    2.95975   2.96165   2.96222   2.96403   2.96497
  Beta virt. eigenvalues --    2.96665   2.96822   2.96858   2.97183   2.97407
  Beta virt. eigenvalues --    2.97563   2.98071   2.98280   2.98313   2.99069
  Beta virt. eigenvalues --    2.99150   2.99329   2.99518   2.99717   2.99836
  Beta virt. eigenvalues --    3.00039   3.00336   3.00614   3.00852   3.00939
  Beta virt. eigenvalues --    3.01482   3.01690   3.01822   3.02280   3.02443
  Beta virt. eigenvalues --    3.02671   3.02893   3.03361   3.04184   3.07087
  Beta virt. eigenvalues --    3.08667   3.08700   3.08784   3.09003   3.09250
  Beta virt. eigenvalues --    3.10180   3.10690   3.10768   3.11394   3.13865
  Beta virt. eigenvalues --    3.14011   3.14080   3.14749   3.15031   3.15190
  Beta virt. eigenvalues --    3.16522   3.16576   3.16965   3.22269   3.28289
  Beta virt. eigenvalues --    3.30253   3.30489   3.30679   3.42683   3.43339
  Beta virt. eigenvalues --    3.44184   3.44673   3.45756   3.46540   3.46679
  Beta virt. eigenvalues --    3.47595   3.47819   3.48058   3.48995   3.49131
  Beta virt. eigenvalues --    3.49463   3.53190   3.53935   3.54478   3.55507
  Beta virt. eigenvalues --    3.55698   3.56447   3.56694   3.57152   3.57280
  Beta virt. eigenvalues --    3.57398   3.57504   3.57876   3.58682   3.59616
  Beta virt. eigenvalues --    3.59966   3.61043   3.61497   3.61806   3.62552
  Beta virt. eigenvalues --    3.62757   3.63359   3.63749   3.64090   3.64608
  Beta virt. eigenvalues --    3.73214   3.77779  68.66713  68.67713  68.68972
  Beta virt. eigenvalues --   68.71240  68.75050  68.75980  68.83793  68.84882
  Beta virt. eigenvalues --   68.85390  68.88196  68.89249  68.90476 576.25193
  Beta virt. eigenvalues --  576.26165 576.27400 576.29616 576.33433 576.34363
  Beta virt. eigenvalues --  576.42023 576.43084 576.43584 576.46289 576.47312
  Beta virt. eigenvalues --  576.48538
          Condensed to atoms (all electrons):
          Atomic-Atomic Spin Densities.
 Mulliken charges and spin densities:
               1          2
     1  Cl  -0.355983  -0.613462
     2  C   -0.038218  -0.082274
     3  C    0.014480   0.048658
     4  C   -0.035917  -0.079007
     5  C   -0.031817   0.050800
     6  C    0.006247  -0.098875
     7  C   -0.049270   0.050016
     8  H    0.046767   0.003493
     9  H    0.049141   0.003394
    10  H    0.054191  -0.001802
    11  H    0.055447   0.004343
    12  H    0.052987  -0.001745
    13  C    0.001024  -0.212642
    14  C   -0.022278  -0.084586
    15  H    0.073184   0.009145
    16  H    0.095063   0.004550
    17  H    0.093616   0.003890
    18  O   -0.671946  -0.000564
    19  O   -0.669110  -0.000492
    20  O   -0.666487  -0.001915
    21  O   -0.671316  -0.000528
    22  W    1.716774   0.000352
    23  W    1.656404   0.000522
    24  W    1.669006   0.000196
    25  W    1.677284   0.000188
    26  W    1.660199   0.002803
    27  W    1.707370   0.002530
    28  W    1.612079   0.003357
    29  W    1.669015   0.002952
    30  O   -0.350456  -0.000533
    31  O   -0.394730  -0.000571
    32  O   -0.393972  -0.000604
    33  O   -0.392719  -0.000559
    34  O   -0.672286  -0.000298
    35  O   -0.677487  -0.000038
    36  O   -0.669605  -0.000134
    37  O   -0.671498  -0.000219
    38  O   -0.395555   0.002110
    39  O   -0.396359   0.002132
    40  O   -0.338877  -0.001128
    41  O   -0.395932   0.002126
    42  O   -0.677347   0.000070
    43  O   -0.670614   0.000178
    44  O   -0.666987   0.000302
    45  O   -0.673581   0.000100
    46  O   -0.395768   0.002310
    47  O   -0.352514   0.002198
    48  O   -0.387274   0.001765
    49  O   -0.395225   0.002372
    50  W    1.656721   0.002883
    51  W    1.660419   0.002771
    52  W    1.669955   0.003878
    53  W    1.668019   0.002722
    54  O   -0.720593   0.000113
    55  O   -0.703462   0.000013
    56  O   -0.721770   0.000185
    57  O   -0.718986   0.000070
    58  O   -0.701690  -0.000018
    59  O   -0.722584   0.000166
    60  O   -0.721234   0.000215
    61  O   -0.717589   0.000214
    62  O   -0.721164  -0.000176
    63  O   -0.704599  -0.000010
    64  O   -0.720572  -0.000193
    65  O   -0.723301  -0.000206
    66  O   -0.881772   0.005361
    67  O   -0.882351   0.007573
    68  O   -0.879946   0.007310
    69  O   -0.887894   0.006833
    70  K    0.850264   0.000204
    71  K    0.849783   0.000227
    72  K    0.845508   0.000254
    73  V    1.199682   0.934740
 Sum of Mulliken charges =  -1.00000  -0.00000
 Mulliken charges and spin densities with hydrogens summed into heavy atoms:
               1          2
     1  Cl  -0.355983  -0.613462
     2  C    0.008549  -0.078781
     3  C    0.014480   0.048658
     4  C    0.013224  -0.075613
     5  C    0.022374   0.048998
     6  C    0.061694  -0.094532
     7  C    0.003717   0.048271
    13  C    0.074208  -0.203497
    14  C    0.166402  -0.076147
    18  O   -0.671946  -0.000564
    19  O   -0.669110  -0.000492
    20  O   -0.666487  -0.001915
    21  O   -0.671316  -0.000528
    22  W    1.716774   0.000352
    23  W    1.656404   0.000522
    24  W    1.669006   0.000196
    25  W    1.677284   0.000188
    26  W    1.660199   0.002803
    27  W    1.707370   0.002530
    28  W    1.612079   0.003357
    29  W    1.669015   0.002952
    30  O   -0.350456  -0.000533
    31  O   -0.394730  -0.000571
    32  O   -0.393972  -0.000604
    33  O   -0.392719  -0.000559
    34  O   -0.672286  -0.000298
    35  O   -0.677487  -0.000038
    36  O   -0.669605  -0.000134
    37  O   -0.671498  -0.000219
    38  O   -0.395555   0.002110
    39  O   -0.396359   0.002132
    40  O   -0.338877  -0.001128
    41  O   -0.395932   0.002126
    42  O   -0.677347   0.000070
    43  O   -0.670614   0.000178
    44  O   -0.666987   0.000302
    45  O   -0.673581   0.000100
    46  O   -0.395768   0.002310
    47  O   -0.352514   0.002198
    48  O   -0.387274   0.001765
    49  O   -0.395225   0.002372
    50  W    1.656721   0.002883
    51  W    1.660419   0.002771
    52  W    1.669955   0.003878
    53  W    1.668019   0.002722
    54  O   -0.720593   0.000113
    55  O   -0.703462   0.000013
    56  O   -0.721770   0.000185
    57  O   -0.718986   0.000070
    58  O   -0.701690  -0.000018
    59  O   -0.722584   0.000166
    60  O   -0.721234   0.000215
    61  O   -0.717589   0.000214
    62  O   -0.721164  -0.000176
    63  O   -0.704599  -0.000010
    64  O   -0.720572  -0.000193
    65  O   -0.723301  -0.000206
    66  O   -0.881772   0.005361
    67  O   -0.882351   0.007573
    68  O   -0.879946   0.007310
    69  O   -0.887894   0.006833
    70  K    0.850264   0.000204
    71  K    0.849783   0.000227
    72  K    0.845508   0.000254
    73  V    1.199682   0.934740
 Electronic spatial extent (au):  <R**2>=         316836.8680
 Charge=             -1.0000 electrons
 Dipole moment (field-independent basis, Debye):
    X=             29.4209    Y=            -13.6608    Z=            -30.8243  Tot=             44.7476
 Quadrupole moment (field-independent basis, Debye-Ang):
   XX=           -782.3723   YY=           -700.0793   ZZ=           -784.6343
   XY=            131.7276   XZ=            188.9732   YZ=            -93.0482
 Traceless Quadrupole moment (field-independent basis, Debye-Ang):
   XX=            -26.6770   YY=             55.6160   ZZ=            -28.9390
   XY=            131.7276   XZ=            188.9732   YZ=            -93.0482
 Octapole moment (field-independent basis, Debye-Ang**2):
  XXX=          10485.4410  YYY=            920.8807  ZZZ=         -17476.3921  XYY=           4087.6530
  XXY=           -693.1301  XXZ=          -6270.7179  XZZ=           4210.2844  YZZ=           -128.3574
  YYZ=          -6975.7406  XYZ=           1442.8666
 Hexadecapole moment (field-independent basis, Debye-Ang**3):
 XXXX=        -128668.9885 YYYY=         -38916.4351 ZZZZ=        -326698.0100 XXXY=           8819.2625
 XXXZ=          89456.7196 YYYX=           2481.1042 YYYZ=           7983.8221 ZZZX=          92060.3666
 ZZZY=           7852.8195 XXYY=         -35838.0313 XXZZ=         -72325.7165 YYZZ=         -77359.5607
 XXYZ=         -11221.1362 YYXZ=          40195.4283 ZZXY=          14791.5458
 N-N= 2.100978595854D+04 E-N=-5.912928555138D+04  KE= 6.765700563826D+03
                          Isotropic Fermi Contact Couplings
        Atom                 a.u.       MegaHertz       Gauss      10(-4) cm-1
     1  Cl(35)            -0.09818     -21.52339      -7.68008      -7.17943
     2  C(13)             -0.01279      -7.19038      -2.56571      -2.39845
     3  C(13)              0.01605       9.02068       3.21880       3.00897
     4  C(13)             -0.01236      -6.94995      -2.47991      -2.31825
     5  C(13)              0.01142       6.41877       2.29037       2.14107
     6  C(13)             -0.01597      -8.97829      -3.20368      -2.99484
     7  C(13)              0.01127       6.33363       2.26000       2.11267
     8  H(1)               0.00112       2.51151       0.89617       0.83775
     9  H(1)               0.00110       2.45787       0.87703       0.81986
    10  H(1)              -0.00053      -1.18373      -0.42238      -0.39485
    11  H(1)               0.00132       2.93951       1.04889       0.98051
    12  H(1)              -0.00051      -1.14563      -0.40879      -0.38214
    13  C(13)             -0.02897     -16.28199      -5.80982      -5.43109
    14  C(13)             -0.02659     -14.94647      -5.33327      -4.98561
    15  H(1)               0.00291       6.49329       2.31697       2.16593
    16  H(1)               0.00167       3.74061       1.33474       1.24773
    17  H(1)               0.00137       3.06973       1.09536       1.02395
    18  O(17)             -0.00045       0.13661       0.04875       0.04557
    19  O(17)             -0.00039       0.11969       0.04271       0.03992
    20  O(17)             -0.00161       0.48822       0.17421       0.16285
    21  O(17)             -0.00043       0.13014       0.04644       0.04341
    22  W(183)             0.00000       0.00000       0.00000       0.00000
    23  W(183)             0.00000       0.00000       0.00000       0.00000
    24  W(183)             0.00000       0.00000       0.00000       0.00000
    25  W(183)             0.00000       0.00000       0.00000       0.00000
    26  W(183)             0.00000       0.00000       0.00000       0.00000
    27  W(183)             0.00000       0.00000       0.00000       0.00000
    28  W(183)             0.00000       0.00000       0.00000       0.00000
    29  W(183)             0.00000       0.00000       0.00000       0.00000
    30  O(17)             -0.00020       0.06102       0.02177       0.02035
    31  O(17)             -0.00024       0.07332       0.02616       0.02446
    32  O(17)             -0.00026       0.07767       0.02771       0.02591
    33  O(17)             -0.00023       0.06968       0.02487       0.02324
    34  O(17)             -0.00005       0.01489       0.00531       0.00497
    35  O(17)              0.00015      -0.04461      -0.01592      -0.01488
    36  O(17)              0.00014      -0.04111      -0.01467      -0.01371
    37  O(17)              0.00005      -0.01414      -0.00504      -0.00472
    38  O(17)              0.00196      -0.59522      -0.21239      -0.19854
    39  O(17)              0.00193      -0.58448      -0.20856      -0.19496
    40  O(17)             -0.01244       3.77043       1.34538       1.25768
    41  O(17)              0.00193      -0.58430      -0.20849      -0.19490
    42  O(17)              0.00026      -0.07882      -0.02813      -0.02629
    43  O(17)              0.00034      -0.10260      -0.03661      -0.03423
    44  O(17)              0.00046      -0.14064      -0.05019      -0.04691
    45  O(17)              0.00028      -0.08418      -0.03004      -0.02808
    46  O(17)              0.00223      -0.67470      -0.24075      -0.22505
    47  O(17)              0.00199      -0.60175      -0.21472      -0.20072
    48  O(17)              0.00067      -0.20321      -0.07251      -0.06778
    49  O(17)              0.00224      -0.68023      -0.24272      -0.22690
    50  W(183)             0.00000       0.00000       0.00000       0.00000
    51  W(183)             0.00000       0.00000       0.00000       0.00000
    52  W(183)             0.00000       0.00000       0.00000       0.00000
    53  W(183)             0.00000       0.00000       0.00000       0.00000
    54  O(17)              0.00018      -0.05438      -0.01941      -0.01814
    55  O(17)              0.00005      -0.01383      -0.00493      -0.00461
    56  O(17)              0.00029      -0.08694      -0.03102      -0.02900
    57  O(17)              0.00007      -0.02118      -0.00756      -0.00706
    58  O(17)              0.00015      -0.04419      -0.01577      -0.01474
    59  O(17)              0.00029      -0.08847      -0.03157      -0.02951
    60  O(17)              0.00035      -0.10542      -0.03762      -0.03516
    61  O(17)              0.00037      -0.11089      -0.03957      -0.03699
    62  O(17)             -0.00026       0.07927       0.02828       0.02644
    63  O(17)             -0.00017       0.05238       0.01869       0.01747
    64  O(17)             -0.00028       0.08582       0.03062       0.02863
    65  O(17)             -0.00031       0.09335       0.03331       0.03114
    66  O(17)             -0.00823       2.49299       0.88956       0.83157
    67  O(17)             -0.00702       2.12705       0.75898       0.70951
    68  O(17)             -0.00721       2.18606       0.78004       0.72919
    69  O(17)             -0.00757       2.29318       0.81826       0.76492
    70  K(39)             -0.00002      -0.00201      -0.00072      -0.00067
    71  K(39)             -0.00002      -0.00193      -0.00069      -0.00064
    72  K(39)             -0.00002      -0.00216      -0.00077      -0.00072
    73  V(51)              0.07034      41.42619      14.78189      13.81829
 --------------------------------------------------------
       Center         ----  Spin Dipole Couplings  ----
                      3XX-RR        3YY-RR        3ZZ-RR
 --------------------------------------------------------
     1   Atom        0.408175     -1.741170      1.332995
     2   Atom       -0.017895     -0.012058      0.029953
     3   Atom        0.006805      0.002246     -0.009051
     4   Atom       -0.016629     -0.014691      0.031320
     5   Atom        0.010865      0.005863     -0.016729
     6   Atom       -0.019985     -0.015356      0.035341
     7   Atom        0.009755      0.005154     -0.014909
     8   Atom       -0.001464     -0.001268      0.002732
     9   Atom        0.000114      0.000215     -0.000329
    10   Atom        0.001518      0.000431     -0.001949
    11   Atom        0.003711      0.000179     -0.003890
    12   Atom        0.000582     -0.000549     -0.000033
    13   Atom       -0.062050     -0.033468      0.095518
    14   Atom       -0.023551     -0.043696      0.067247
    15   Atom       -0.002353      0.002183      0.000170
    16   Atom        0.007299      0.003109     -0.010407
    17   Atom       -0.011461      0.004887      0.006574
    18   Atom        0.001362     -0.001316     -0.000046
    19   Atom        0.001928     -0.001843     -0.000085
    20   Atom       -0.002121     -0.000330      0.002451
    21   Atom       -0.000613      0.000650     -0.000037
    22   Atom       -0.001999      0.000603      0.001396
    23   Atom       -0.001836      0.000685      0.001151
    24   Atom       -0.002408      0.001059      0.001349
    25   Atom       -0.002098      0.000634      0.001464
    26   Atom        0.000359     -0.002276      0.001917
    27   Atom        0.000520     -0.002514      0.001994
    28   Atom        0.000928     -0.003123      0.002195
    29   Atom        0.000680     -0.002753      0.002072
    30   Atom       -0.000146      0.000262     -0.000116
    31   Atom        0.000023      0.000046     -0.000069
    32   Atom       -0.000520      0.000627     -0.000107
    33   Atom       -0.000171      0.000245     -0.000074
    34   Atom       -0.000035     -0.001985      0.002021
    35   Atom       -0.000364     -0.002642      0.003006
    36   Atom       -0.002202     -0.000498      0.002700
    37   Atom       -0.001893     -0.000671      0.002564
    38   Atom        0.006172     -0.003039     -0.003133
    39   Atom        0.006210     -0.003108     -0.003102
    40   Atom       -0.011114      0.007623      0.003491
    41   Atom       -0.004492      0.007883     -0.003391
    42   Atom        0.002618     -0.001000     -0.001618
    43   Atom        0.002962     -0.001070     -0.001892
    44   Atom       -0.004516      0.005833     -0.001317
    45   Atom       -0.003352      0.004926     -0.001574
    46   Atom       -0.000613      0.000517      0.000096
    47   Atom        0.001865     -0.002812      0.000947
    48   Atom        0.005069     -0.007621      0.002552
    49   Atom        0.005142     -0.005037     -0.000105
    50   Atom        0.006100     -0.002767     -0.003334
    51   Atom        0.006459     -0.003168     -0.003292
    52   Atom       -0.002127      0.004736     -0.002609
    53   Atom       -0.002060      0.005468     -0.003408
    54   Atom       -0.003148     -0.001715      0.004863
    55   Atom       -0.002850     -0.001921      0.004770
    56   Atom       -0.001164     -0.004504      0.005668
    57   Atom       -0.001150     -0.003776      0.004926
    58   Atom       -0.003989      0.006406     -0.002417
    59   Atom       -0.003933      0.006692     -0.002759
    60   Atom        0.002661      0.000018     -0.002679
    61   Atom        0.002930     -0.000346     -0.002584
    62   Atom        0.000839      0.000963     -0.001802
    63   Atom        0.001216      0.000279     -0.001495
    64   Atom        0.005337     -0.003810     -0.001526
    65   Atom        0.004993     -0.003140     -0.001853
    66   Atom       -0.030086      0.001125      0.028961
    67   Atom       -0.035062     -0.001550      0.036612
    68   Atom       -0.062867      0.022129      0.040738
    69   Atom       -0.058165      0.027183      0.030982
    70   Atom       -0.000581      0.000559      0.000021
    71   Atom        0.000438     -0.000532      0.000094
    72   Atom        0.000762     -0.000959      0.000197
    73   Atom       -1.017798      0.256775      0.761023
 --------------------------------------------------------
                        XY            XZ            YZ
 --------------------------------------------------------
     1   Atom        2.230915      0.818404     -1.302256
     2   Atom        0.054692      0.022247     -0.020198
     3   Atom       -0.015914     -0.004901      0.008884
     4   Atom        0.052401      0.020885     -0.020178
     5   Atom       -0.027352     -0.012054      0.012070
     6   Atom        0.066488      0.028749     -0.024403
     7   Atom       -0.026833     -0.010426      0.012898
     8   Atom       -0.002101     -0.001914      0.000428
     9   Atom       -0.002031     -0.003505     -0.002634
    10   Atom       -0.000480     -0.001162      0.000886
    11   Atom        0.001731      0.002365      0.005376
    12   Atom       -0.001190      0.000227      0.002202
    13   Atom        0.160922      0.073706     -0.065081
    14   Atom        0.111587      0.052925     -0.054103
    15   Atom       -0.004425     -0.011011     -0.012902
    16   Atom        0.001091      0.010266      0.006079
    17   Atom       -0.001666     -0.010018     -0.004507
    18   Atom        0.000458     -0.001709      0.000230
    19   Atom        0.000350      0.002084     -0.000558
    20   Atom        0.003784      0.001387     -0.001209
    21   Atom       -0.001175      0.001370     -0.001352
    22   Atom        0.002221     -0.001948     -0.004101
    23   Atom        0.002194      0.002217      0.003921
    24   Atom        0.002334      0.001813      0.004208
    25   Atom        0.001997     -0.002004     -0.004127
    26   Atom       -0.002026     -0.004585      0.002407
    27   Atom       -0.001838      0.004711     -0.002736
    28   Atom       -0.001453     -0.004687      0.002618
    29   Atom       -0.001664      0.004781     -0.002210
    30   Atom        0.000423     -0.000174     -0.000584
    31   Atom        0.000450      0.000653      0.000309
    32   Atom        0.000463     -0.000153      0.000822
    33   Atom        0.000305     -0.000114     -0.000641
    34   Atom        0.000630     -0.003256     -0.000886
    35   Atom        0.000842      0.003975      0.001046
    36   Atom       -0.000355     -0.001806      0.003888
    37   Atom       -0.000635      0.001502     -0.003199
    38   Atom        0.004708      0.003686      0.001625
    39   Atom        0.004945     -0.003618     -0.001876
    40   Atom        0.012784      0.006508     -0.008893
    41   Atom       -0.002460     -0.000554      0.003742
    42   Atom        0.003934     -0.002546     -0.001897
    43   Atom        0.004251      0.002823      0.001875
    44   Atom        0.000388     -0.000057      0.003993
    45   Atom       -0.000437      0.000066     -0.003536
    46   Atom       -0.004851     -0.004814      0.005139
[...]
 Variable       Old X    -DE/DX   Delta X   Delta X   Delta X     New X
                                 (Linear)    (Quad)   (Total)
    X1      -18.86139   0.00751   0.00000   0.00740   0.00942 -18.85197
    Y1       14.91302  -0.01167   0.00000  -0.01135  -0.01286  14.90016
    Z1       19.77749  -0.00378   0.00000  -0.00391  -0.00583  19.77166
    X2      -15.69834   0.00153   0.00000   0.00155   0.00307 -15.69528
    Y2        8.01087   0.00086   0.00000   0.01072   0.00929   8.02017
    Z2       23.11949   0.00203   0.00000   0.00068  -0.00060  23.11889
    X3      -17.13092   0.00098   0.00000  -0.02179  -0.02023 -17.15114
    Y3        7.39873   0.00259   0.00000   0.02255   0.02104   7.41977
    Z3       20.96343  -0.00370   0.00000   0.00992   0.00862  20.97205
    X4      -18.90515  -0.00267   0.00000  -0.00837  -0.00692 -18.91207
    Y4        5.43057  -0.00211   0.00000   0.00228   0.00088   5.43144
    Z4       21.16119  -0.00132   0.00000  -0.00817  -0.00939  21.15180
    X5      -19.25228  -0.00093   0.00000   0.00094   0.00223 -19.25005
    Y5        4.13136  -0.00035   0.00000  -0.00188  -0.00309   4.12827
    Z5       23.41937  -0.00131   0.00000  -0.01218  -0.01332  23.40605
    X6      -17.81902   0.00040   0.00000   0.00489   0.00613 -17.81290
    Y6        4.76318   0.00022   0.00000   0.00405   0.00292   4.76610
    Z6       25.54091  -0.00171   0.00000  -0.01505  -0.01617  25.52474
    X7      -16.03939   0.00146   0.00000   0.00891   0.01026 -16.02913
    Y7        6.70534   0.00179   0.00000   0.00358   0.00234   6.70768
    Z7       25.37696  -0.00072   0.00000  -0.00757  -0.00877  25.36819
    X8      -14.31292   0.00021   0.00000   0.00542   0.00702 -14.30590
    Y8        9.53887  -0.00040   0.00000   0.00547   0.00395   9.54283
    Z8       23.04716  -0.00016   0.00000  -0.00287  -0.00421  23.04295
    X9      -20.03468   0.00042   0.00000  -0.00248  -0.00099 -20.03567
    Y9        4.93140  -0.00027   0.00000  -0.00099  -0.00245   4.92895
    Z9       19.50340   0.00021   0.00000  -0.00899  -0.01021  19.49318
   X10      -20.64351   0.00049   0.00000   0.00597   0.00718 -20.63633
   Y10        2.60854   0.00036   0.00000  -0.00399  -0.00512   2.60342
   Z10       23.52278  -0.00009   0.00000  -0.00776  -0.00883  23.51395
   X11      -18.06436  -0.00034   0.00000  -0.00032   0.00079 -18.06357
   Y11        3.72790   0.00047   0.00000   0.00852   0.00754   3.73544
   Z11       27.30912  -0.00006   0.00000  -0.01239  -0.01344  27.29568
   X12      -14.91218  -0.00006   0.00000   0.00964   0.01095 -14.90123
   Y12        7.21426  -0.00017   0.00000  -0.00340  -0.00458   7.20968
   Z12       27.03158  -0.00057   0.00000  -0.00771  -0.00890  27.02268
   X13      -16.88027  -0.01754   0.00000  -0.06591  -0.06417 -16.94444
   Y13        8.74151  -0.01494   0.00000   0.05779   0.05609   8.79760
   Z13       18.55627   0.01166   0.00000   0.04301   0.04162  18.59789
   X14      -15.32982   0.00776   0.00000  -0.06425  -0.06238 -15.39220
   Y14       10.69661   0.02510   0.00000   0.10326   0.10144  10.79805
   Z14       18.08511  -0.00070   0.00000   0.03798   0.03650  18.12162
   X15      -18.11285   0.00035   0.00000  -0.03100  -0.02924 -18.14209
   Y15        8.06717   0.00018   0.00000   0.02962   0.02787   8.09504
   Z15       17.03510   0.00038   0.00000   0.02774   0.02635  17.06145
   X16      -15.24124  -0.00021   0.00000  -0.03549  -0.03350 -15.27475
   Y16       11.55253  -0.00098   0.00000   0.04741   0.04544  11.59797
   Z16       16.21044  -0.00034   0.00000   0.01461   0.01307  16.22351
   X17      -13.96316  -0.00017   0.00000  -0.03283  -0.03098 -13.99414
   Y17       11.37920   0.00018   0.00000   0.07212   0.07032  11.44952
   Z17       19.47462  -0.00007   0.00000   0.01962   0.01814  19.49277
   X18       -1.91049   0.00512   0.00000   0.02582   0.02707  -1.88341
   Y18       -3.33289  -0.00056   0.00000  -0.00397  -0.00683  -3.33973
   Z18       14.09855  -0.00164   0.00000  -0.01352  -0.01339  14.08517
   X19      -15.89393  -0.00489   0.00000  -0.01878  -0.01748 -15.91141
   Y19       -2.50263   0.00099   0.00000  -0.00323  -0.00533  -2.50796
   Z19       14.10872  -0.00188   0.00000  -0.01511  -0.01561  14.09311
   X20      -13.33908  -0.00341   0.00000  -0.00910  -0.00775 -13.34682
   Y20        2.53683   0.00476   0.00000   0.01853   0.01673   2.55356
   Z20       19.81827   0.00079   0.00000   0.00963   0.00885  19.82713
   X21       -4.40756   0.00352   0.00000   0.01275   0.01350  -4.39406
   Y21       -8.21956  -0.00358   0.00000  -0.02239  -0.02468  -8.24424
   Z21       19.95611   0.00173   0.00000   0.01373   0.01413  19.97024
   X22       -6.47262  -0.00227   0.00000   0.01428   0.01586  -6.45675
   Y22        1.40400  -0.01652   0.00000  -0.02530  -0.02805   1.37595
   Z22       12.27598   0.01517   0.00000   0.01108   0.01067  12.28665
   X23      -11.36085   0.00387   0.00000  -0.00942  -0.00831 -11.36916
   Y23       -7.23188   0.01537   0.00000   0.01120   0.00873  -7.22315
   Z23       12.44364   0.01553   0.00000   0.00875   0.00879  12.45243
   X24       -6.86678  -0.00993   0.00000  -0.01685  -0.01562  -6.88240
   Y24        1.73331  -0.01356   0.00000  -0.00323  -0.00526   1.72805
   Z24       21.55820  -0.01565   0.00000  -0.01172  -0.01218  21.54602
   X25      -10.91990   0.01084   0.00000   0.02172   0.02245 -10.89746
   Y25       -7.31081   0.01153   0.00000  -0.00135  -0.00315  -7.31396
   Z25       21.67853  -0.01603   0.00000  -0.01073  -0.01066  21.66787
   X26       -4.66876  -0.01301   0.00000   0.00458   0.00584  -4.66292
   Y26       -4.81171   0.01153   0.00000   0.01045   0.00759  -4.80412
   Z26       12.05727   0.01699   0.00000   0.01055   0.01068  12.06795
   X27      -13.12740   0.01276   0.00000   0.00521   0.00667 -13.12073
   Y27       -1.01076  -0.01242   0.00000  -0.02313  -0.02554  -1.03630
   Z27       11.99880   0.01597   0.00000   0.01199   0.01149  12.01029
   X28      -12.90309   0.01850   0.00000   0.01620   0.01730 -12.88579
   Y28       -0.47492  -0.00512   0.00000   0.00900   0.00732  -0.46759
   Z28       21.91038  -0.01706   0.00000  -0.01311  -0.01364  21.89674
   X29       -4.86158  -0.01708   0.00000  -0.01173  -0.01089  -4.87247
   Y29       -5.09140   0.00296   0.00000  -0.01482  -0.01693  -5.10833
   Z29       21.97614  -0.01678   0.00000  -0.01089  -0.01074  21.96540
   X30       -6.04652   0.00138   0.00000  -0.00325  -0.00144  -6.04796
   Y30        3.67745   0.00438   0.00000  -0.01221  -0.01515   3.66230
   Z30       10.08082  -0.00512   0.00000   0.00222   0.00166  10.08247
   X31      -11.60941  -0.00075   0.00000   0.00685   0.00791 -11.60150
   Y31       -9.60494  -0.00480   0.00000   0.00098  -0.00163  -9.60657
   Z31       10.29668  -0.00507   0.00000  -0.00051  -0.00030  10.29638
   X32       -5.12295   0.00355   0.00000   0.00115   0.00239  -5.12056
   Y32        3.34737   0.00354   0.00000  -0.01115  -0.01311   3.33426
   Z32       23.71609   0.00542   0.00000  -0.00066  -0.00117  23.71492
   X33      -12.64874  -0.00331   0.00000   0.00385   0.00440 -12.64433
   Y33       -8.85192  -0.00335   0.00000   0.00707   0.00553  -8.84639
   Z33       23.90113   0.00525   0.00000  -0.00038  -0.00027  23.90086
   X34       -5.09868   0.00202   0.00000   0.01923   0.02072  -5.07796
   Y34       -1.63856   0.00129   0.00000  -0.00057  -0.00353  -1.64209
   Z34       10.55412  -0.00448   0.00000  -0.01405  -0.01418  10.53994
   X35      -12.69330  -0.00226   0.00000  -0.01333  -0.01198 -12.70528
   Y35       -4.28948  -0.00027   0.00000  -0.00910  -0.01163  -4.30111
   Z35       10.63279  -0.00463   0.00000  -0.01548  -0.01571  10.61708
   X36      -10.05966  -0.00094   0.00000  -0.00368  -0.00256 -10.06222
   Y36        1.06652   0.00249   0.00000   0.01651   0.01479   1.08131
   Z36       23.37755   0.00438   0.00000   0.00991   0.00938  23.38693
   X37       -7.68590   0.00054   0.00000   0.00621   0.00691  -7.67899
   Y37       -6.63220  -0.00221   0.00000  -0.01866  -0.02051  -6.65271
   Z37       23.45957   0.00454   0.00000   0.01268   0.01283  23.47240
   X38        0.55762   0.00740   0.00000  -0.00037   0.00093   0.55854
   Y38       -0.00696   0.00287   0.00000   0.00066  -0.00208  -0.00904
   Z38       17.52567   0.00201   0.00000   0.00292   0.00290  17.52857
   X39      -18.36436  -0.00721   0.00000   0.00614   0.00712 -18.35724
   Y39       -5.69657  -0.00280   0.00000  -0.00721  -0.00891  -5.70548
   Z39       17.63446   0.00202   0.00000   0.00273   0.00237  17.63683
   X40      -12.08192  -0.00461   0.00000  -0.00970  -0.00800 -12.08992
   Y40        6.45532   0.01106   0.00000  -0.00102  -0.00315   6.45216
   Z40       16.30908  -0.00061   0.00000   0.00783   0.00681  16.31589
   X41       -5.60204   0.00181   0.00000  -0.00732  -0.00665  -5.60869
   Y41      -12.18766  -0.00750   0.00000  -0.00536  -0.00784 -12.19550
   Z41       16.52949  -0.00171   0.00000  -0.00148  -0.00083  16.52865
   X42       -3.42198   0.00313   0.00000   0.02207   0.02359  -3.39838
   Y42        1.48463   0.00358   0.00000   0.00133  -0.00145   1.48317
   Z42       14.14437  -0.00229   0.00000  -0.01402  -0.01432  14.13005
   X43      -14.38608  -0.00375   0.00000  -0.01844  -0.01741 -14.40349
   Y43       -7.33006  -0.00336   0.00000  -0.00982  -0.01199  -7.34205
   Z43       14.28927  -0.00171   0.00000  -0.01310  -0.01317  14.27609
   X44       -8.56913  -0.00009   0.00000  -0.00348  -0.00204  -8.57117
   Y44        4.19551   0.00549   0.00000   0.01917   0.01709   4.21260
   Z44       19.70092   0.00100   0.00000   0.00705   0.00634  19.70725
   X45       -9.19697  -0.00086   0.00000   0.00678   0.00745  -9.18952
   Y45       -9.85519  -0.00467   0.00000  -0.02125  -0.02327  -9.87847
   Z45       19.88544   0.00199   0.00000   0.01232   0.01265  19.89808
   X46       -3.10025   0.00440   0.00000   0.00266   0.00391  -3.09635
   Y46       -6.56263  -0.00466   0.00000  -0.01156  -0.01468  -6.57731
   Z46        9.87009  -0.00501   0.00000   0.00596   0.00629   9.87638
   X47      -14.79024  -0.00434   0.00000   0.00849   0.01014 -14.78011
   Y47        0.50439   0.00310   0.00000  -0.00097  -0.00345   0.50094
   Z47        9.73637  -0.00460   0.00000   0.00567   0.00499   9.74136
   X48      -15.18954  -0.00655   0.00000   0.00146   0.00247 -15.18707
   Y48       -0.32902   0.00123   0.00000  -0.00134  -0.00272  -0.33175
   Z48       24.15320   0.00560   0.00000  -0.00582  -0.00646  24.14674
   X49       -2.53193   0.00597   0.00000   0.00350   0.00424  -2.52769
   Y49       -5.30140  -0.00114   0.00000  -0.00269  -0.00476  -5.30616
   Z49       24.17590   0.00496   0.00000  -0.00562  -0.00537  24.17053
   X50       -2.39309  -0.02239   0.00000  -0.00647  -0.00519  -2.39828
   Y50       -0.97527  -0.00805   0.00000  -0.01145  -0.01409  -0.98937
   Z50       16.71225  -0.00476   0.00000  -0.01723  -0.01730  16.69496
   X51      -15.41780   0.02270   0.00000   0.01221   0.01328 -15.40453
   Y51       -4.74252   0.00626   0.00000   0.00276   0.00084  -4.74168
   Z51       16.78615  -0.00523   0.00000  -0.01864  -0.01895  16.76720
   X52      -11.20859   0.00936   0.00000   0.00463   0.00613 -11.20246
   Y52        3.49996  -0.02636   0.00000  -0.01670  -0.01882   3.48114
   Z52       17.09240   0.00595   0.00000   0.01748   0.01672  17.10911
   X53       -6.55707  -0.00723   0.00000   0.00014   0.00095  -6.55612
   Y53       -9.22545   0.02221   0.00000   0.00715   0.00478  -9.22067
   Z53       17.32121   0.00440   0.00000   0.01691   0.01730  17.33851
   X54       -8.00848   0.00082   0.00000  -0.00018   0.00105  -8.00744
   Y54       -5.84471  -0.00197   0.00000   0.00988   0.00715  -5.83755
   Z54       11.47307  -0.00320   0.00000   0.01019   0.01026  11.48333
   X55       -9.78499  -0.00076   0.00000   0.00827   0.00981  -9.77518
   Y55       -0.05474   0.00197   0.00000  -0.02306  -0.02570  -0.08044
   Z55       11.36268  -0.00303   0.00000   0.01063   0.01019  11.37288
   X56      -11.69517  -0.00231   0.00000   0.01647   0.01736 -11.67780
   Y56       -3.78075   0.00039   0.00000   0.00625   0.00456  -3.77619
   Z56       22.53300   0.00314   0.00000  -0.01210  -0.01233  22.52067
   X57       -6.02213   0.00191   0.00000  -0.01275  -0.01175  -6.03388
   Y57       -1.79523   0.00087   0.00000  -0.00929  -0.01130  -1.80653
   Z57       22.54783   0.00318   0.00000  -0.01138  -0.01153  22.53630
   X58       -8.29991  -0.00053   0.00000   0.00761   0.00918  -8.29073
   Y58        3.01577   0.00350   0.00000  -0.01801  -0.02047   2.99530
   Z58       14.82899  -0.00106   0.00000   0.01157   0.01097  14.83996
   X59       -9.45932  -0.00066   0.00000  -0.00547  -0.00455  -9.46388
   Y59       -8.83437  -0.00316   0.00000   0.01003   0.00765  -8.82672
   Z59       14.98099  -0.00208   0.00000   0.01012   0.01036  14.99135
   X60       -4.42481   0.00204   0.00000  -0.01290  -0.01159  -4.43640
   Y60        1.13663   0.00249   0.00000  -0.00718  -0.00953   1.12710
   Z60       19.05084   0.00217   0.00000  -0.01164  -0.01194  19.03890
   X61      -13.35689  -0.00240   0.00000   0.01740   0.01826 -13.33863
   Y61       -6.82217  -0.00206   0.00000   0.00147  -0.00038  -6.82255
   Z61       19.16328   0.00193   0.00000  -0.01169  -0.01176  19.15152
   X62       -4.87651   0.00212   0.00000   0.00227   0.00328  -4.87323
   Y62       -7.31582  -0.00300   0.00000   0.00529   0.00264  -7.31318
   Z62       14.85086  -0.00113   0.00000   0.01287   0.01317  14.86403
   X63      -12.93487  -0.00161   0.00000   0.00485   0.00634 -12.92853
   Y63        1.48940   0.00388   0.00000  -0.01346  -0.01567   1.47373
   Z63       14.74547  -0.00034   0.00000   0.01395   0.01327  14.75874
   X64      -14.82703  -0.00346   0.00000   0.01218   0.01329 -14.81374
   Y64       -2.21866   0.00055   0.00000   0.00520   0.00343  -2.21524
   Z64       19.20335   0.00140   0.00000  -0.01469  -0.01517  19.18818
   X65       -2.97397   0.00365   0.00000  -0.00649  -0.00545  -2.97942
   Y65       -3.46575   0.00014   0.00000  -0.01094  -0.01336  -3.47911
   Z65       19.18681   0.00104   0.00000  -0.01290  -0.01280  19.17400
   X66       -6.39961   0.04222   0.00000   0.07592   0.07720  -6.32242
   Y66       -2.13379   0.00825   0.00000   0.00533   0.00279  -2.13100
   Z66       15.14817  -0.02757   0.00000  -0.04382  -0.04396  15.10421
   X67      -11.40090  -0.04295   0.00000  -0.06798  -0.06679 -11.46769
   Y67       -3.68672  -0.00954   0.00000  -0.01837  -0.02063  -3.70734
   Z67       15.20202  -0.02736   0.00000  -0.04482  -0.04505  15.15697
   X68       -9.70859  -0.01769   0.00000  -0.02781  -0.02658  -9.73516
   Y68       -0.37493   0.04090   0.00000   0.06246   0.06038  -0.31455
   Z68       18.80589   0.02749   0.00000   0.04236   0.04195  18.84784
   X69       -8.03517   0.01774   0.00000   0.03435   0.03530  -7.99987
   Y69       -5.33276  -0.03891   0.00000  -0.06609  -0.06826  -5.40102
   Z69       18.85873   0.02781   0.00000   0.04266   0.04269  18.90142
   X70       -6.11086  -0.00035   0.00000  -0.00258  -0.00164  -6.11250
   Y70      -11.56273   0.00138   0.00000   0.00836   0.00547 -11.55727
   Z70       10.70750   0.00102   0.00000   0.01202   0.01259  10.72009
   X71       -0.28536  -0.00120   0.00000  -0.01154  -0.01047  -0.29583
   Y71        0.07417  -0.00044   0.00000  -0.00911  -0.01137   0.06279
   Z71       23.33669  -0.00103   0.00000  -0.01165  -0.01171  23.32498
   X72      -17.51463   0.00137   0.00000   0.01679   0.01755 -17.49708
   Y72       -5.53471   0.00061   0.00000   0.00434   0.00303  -5.53168
   Z72       23.45122  -0.00093   0.00000  -0.01187  -0.01220  23.43902
   X73       -8.89031   0.00087   0.00000   0.00449   0.00565  -8.88466
   Y73       -2.87477  -0.00042   0.00000  -0.00405  -0.00631  -2.88108
   Z73       16.99842  -0.00065   0.00000  -0.00201  -0.00220  16.99622
         Item               Value     Threshold  Converged?
 Maximum Force            0.042952     0.000450     NO 
 RMS     Force            0.009692     0.000300     NO 
 Maximum Displacement     0.101437     0.001800     NO 
 RMS     Displacement     0.020235     0.001200     NO 
 Predicted change in Energy=-1.440770D-02
 GradGradGradGradGradGradGradGradGradGradGradGradGradGradGradGradGradGrad

 Unable to Open any file for archive entry.
 1\1\GINC-X11P1N2\Force\UwB97XD\def2SVP\C8H8Cl1K3O40V1W12(1-)\MAYUMIAO\
 01-Jun-2024\0\\# def2svp wb97xd scrf=(smd,solvent=acetonitrile) g09def
 ault scf=(xqc,maxcycle=64) force guess=read nosymm\\Title Card\\-1,1\C
 l,-9.98101669,7.89163277,10.46579703\C,-8.30720553,4.23917179,12.23430
 755\C,-9.06529029,3.91524087,11.09336826\C,-10.00417307,2.87373158,11.
 19802068\C,-10.18786935,2.18621977,12.39299643\C,-9.42942155,2.5205651
 7,13.51566634\C,-8.4876787,3.54831333,13.42890707\H,-7.57407237,5.0477
 5285,12.19603316\H,-10.60189683,2.60958511,10.3207533\H,-10.92407361,1
 .38037979,12.44771958\H,-9.55924699,1.97272029,14.45136642\H,-7.891185
 47,3.81762021,14.30449381\C,-8.9326566,4.62580671,9.81955567\C,-8.1121
 9104,5.66040404,9.57023035\H,-9.58490804,4.26896336,9.01458887\H,-8.06
 531941,6.11333475,8.57819553\H,-7.38898441,6.02161147,10.30552718\O,-1
 .01098557,-1.76369053,7.46063288\O,-8.41070602,-1.32433469,7.46601135\
 O,-7.05873491,1.34243298,10.48737885\O,-2.33238148,-4.34960451,10.5603
 2006\W,-3.42516073,0.74296459,6.49616642\W,-6.01190143,-3.82694464,6.5
 8489249\W,-3.63374199,0.91722912,11.40810644\W,-5.7785641,-3.86871269,
 11.47178637\W,-2.47059934,-2.54624668,6.38043045\W,-6.94672277,-0.5348
 7083,6.3494919\W,-6.82802148,-0.25131494,11.59447284\W,-2.57263843,-2.
 69425315,11.62927155\O,-3.19967867,1.94602465,5.33453916\O,-6.14343369
 ,-5.08271404,5.44876988\O,-2.71094626,1.77135339,12.55001349\O,-6.6934
 2259,-4.68423388,12.64793533\O,-2.69810667,-0.86708817,5.58500089\O,-6
 .71700506,-2.26989306,5.62663182\O,-5.32334485,0.56437787,12.37086553\
 O,-4.06720147,-3.50961083,12.41427018\O,0.2950782,-0.00368323,9.274185
 2\O,-9.71800115,-3.01449696,9.3317564\O,-6.39347881,3.41600666,8.63039
 284\O,-2.96447166,-6.44943384,8.74702831\O,-1.81083216,0.78563036,7.48
 487721\O,-7.61278542,-3.87890014,7.56155449\O,-4.53458741,2.22016887,1
 0.42527616\O,-4.86682473,-5.21514375,10.52292109\O,-1.64058297,-3.4727
 9408,5.22302698\O,-7.82666051,0.26691258,5.15226714\O,-8.03796047,-0.1
 7411185,12.78132124\O,-1.33984,-2.80538164,12.79333525\W,-1.26637026,-
 0.51609205,8.8437435\W,-8.15874899,-2.50963245,8.88284604\W,-5.9313304
 9,1.85209908,9.0449062\W,-3.46984998,-4.88189659,9.16599097\O,-4.23790
 635,-3.09288608,6.07128676\O,-5.17799239,-0.02896874,6.01287189\O,-6.1
 8881548,-2.00068417,11.92394809\O,-3.18677389,-0.94999392,11.9317983\O
 ,-4.39212305,1.59587718,7.84716426\O,-5.00565912,-4.6749478,7.92760011
 \O,-2.34150857,0.60147962,10.08127235\O,-7.06816325,-3.61013732,10.140
 77007\O,-2.58053672,-3.87136501,7.85873425\O,-6.84483955,0.78815595,7.
 8029662\O,-7.84612457,-1.17406612,10.1619764\O,-1.57375673,-1.83399488
 ,10.15322056\O,-3.38652918,-1.12915224,8.01606776\O,-6.03309722,-1.950
 92711,8.04456311\O,-5.13756399,-0.19840555,9.95164778\O,-4.25202687,-2
 .82197517,9.97961047\K,-3.23372803,-6.11873554,5.66616287\K,-0.1510073
 7,0.03924676,12.34924438\K,-9.26834216,-2.92884169,12.40985342\V,-4.70
 454922,-1.52126195,8.99517486\\Version=ES64L-G16RevC.01\HF=-7327.70018
 02\S2=1.013969\S2-1=0.\S2A=0.112365\RMSD=2.208e-09\RMSF=9.692e-03\Dipo
 le=1.7859209,-7.1558912,5.5679424\Quadrupole=-19.8337167,41.3491565,-2
 1.5154398,97.9362437,140.4969494,-69.1790284\PG=C01 [X(C8H8Cl1K3O40V1W
 12)]\\@
 The archive entry for this job was punched.


 THE CAUTIOUS SELDOM ERR...CONFUCIUS                   
 Job cpu time:       0 days 22 hours 17 minutes 59.5 seconds.
 Elapsed time:       0 days  0 hours 25 minutes 27.1 seconds.
 File lengths (MBytes):  RWF=   1860 Int=      0 D2E=      0 Chk=    306 Scr=      1
 Normal termination of Gaussian 16 at Sat Jun  1 21:26:12 2024.
