 Entering Gaussian System, Link 0=g16
 Input=JOBS/18_A.gjf
 Output=JOBS/18_A.log
 Initial command:
 /data/app/gaussian/C01-avx2//g16/l1.exe "/tmp/Gau-610747.inp" -scrdir="/tmp/"
 Entering Link 1 = /data/app/gaussian/C01-avx2//g16/l1.exe PID=    610748.
  
 Copyright (c) 1988-2019, Gaussian, Inc.  All Rights Reserved.
  
 This is part of the Gaussian(R) 16 program.  It is based on
 the Gaussian(R) 09 system (copyright 2009, Gaussian, Inc.),
 the Gaussian(R) 03 system (copyright 2003, Gaussian, Inc.),
 the Gaussian(R) 98 system (copyright 1998, Gaussian, Inc.),
 the Gaussian(R) 94 system (copyright 1995, Gaussian, Inc.),
 the Gaussian 92(TM) system (copyright 1992, Gaussian, Inc.),
 the Gaussian 90(TM) system (copyright 1990, Gaussian, Inc.),
 the Gaussian 88(TM) system (copyright 1988, Gaussian, Inc.),
 the Gaussian 86(TM) system (copyright 1986, Carnegie Mellon
 University), and the Gaussian 82(TM) system (copyright 1983,
 Carnegie Mellon University). Gaussian is a federally registered
 trademark of Gaussian, Inc.
  
 This software contains proprietary and confidential information,
 including trade secrets, belonging to Gaussian, Inc.
  
 This software is provided under written license and may be
 used, copied, transmitted, or stored only in accord with that
 written license.
  
 The following legend is applicable only to US Government
 contracts under FAR:
  
                    RESTRICTED RIGHTS LEGEND
  
 Use, reproduction and disclosure by the US Government is
 subject to restrictions as set forth in subparagraphs (a)
 and (c) of the Commercial Computer Software - Restricted
 Rights clause in FAR 52.227-19.
  
 Gaussian, Inc.
 340 Quinnipiac St., Bldg. 40, Wallingford CT 06492
  
  
 ---------------------------------------------------------------
 Warning -- This program may not be used in any manner that
 competes with the business of Gaussian, Inc. or will provide
 assistance to any competitor of Gaussian, Inc.  The licensee
 of this program is prohibited from giving any competitor of
 Gaussian, Inc. access to this program.  By using this program,
 the user acknowledges that Gaussian, Inc. is engaged in the
 business of creating and licensing software in the field of
 computational chemistry and represents and warrants to the
 licensee that it is not a competitor of Gaussian, Inc. and that
 it will not use this program in any manner prohibited above.
 ---------------------------------------------------------------
  

 Cite this work as:
 Gaussian 16, Revision C.01,
 M. J. Frisch, G. W. Trucks, H. B. Schlegel, G. E. Scuseria, 
 M. A. Robb, J. R. Cheeseman, G. Scalmani, V. Barone, 
 G. A. Petersson, H. Nakatsuji, X. Li, M. Caricato, A. V. Marenich, 
 J. Bloino, B. G. Janesko, R. Gomperts, B. Mennucci, H. P. Hratchian, 
 J. V. Ortiz, A. F. Izmaylov, J. L. Sonnenberg, D. Williams-Young, 
 F. Ding, F. Lipparini, F. Egidi, J. Goings, B. Peng, A. Petrone, 
 T. Henderson, D. Ranasinghe, V. G. Zakrzewski, J. Gao, N. Rega, 
 G. Zheng, W. Liang, M. Hada, M. Ehara, K. Toyota, R. Fukuda, 
 J. Hasegawa, M. Ishida, T. Nakajima, Y. Honda, O. Kitao, H. Nakai, 
 T. Vreven, K. Throssell, J. A. Montgomery, Jr., J. E. Peralta, 
 F. Ogliaro, M. J. Bearpark, J. J. Heyd, E. N. Brothers, K. N. Kudin, 
 V. N. Staroverov, T. A. Keith, R. Kobayashi, J. Normand, 
 K. Raghavachari, A. P. Rendell, J. C. Burant, S. S. Iyengar, 
 J. Tomasi, M. Cossi, J. M. Millam, M. Klene, C. Adamo, R. Cammi, 
 J. W. Ochterski, R. L. Martin, K. Morokuma, O. Farkas, 
 J. B. Foresman, and D. J. Fox, Gaussian, Inc., Wallingford CT, 2019.
 
 ******************************************
 Gaussian 16:  ES64L-G16RevC.01  3-Jul-2019
                 1-Jun-2024 
 ******************************************
 %chk=a.chk
 %nprocshared=56
 Will use up to   56 processors via shared memory.
 %mem=96gb
 ----------------------------------------------------------------------
 # def2svp wb97xd scrf=(smd,solvent=acetonitrile) g09default scf=(xqc,m
 axcycle=64) force guess=read nosymm
 ----------------------------------------------------------------------
 1/10=7,30=1,38=1,158=3,167=1/1,3;
 2/12=2,15=1,17=6,18=5,40=1/2;
 3/5=43,7=101,11=2,25=1,27=10,30=1,70=32201,71=1,72=2,74=-58,75=-4,116=-2,158=3/1,2,3;
 4/5=1,60=-1/1;
 5/5=2,7=64,8=3,13=1,38=6,53=2,87=10/2,8;
 6/7=2,8=2,9=2,10=2,28=1,87=10/1;
 7/29=1,30=1,87=10/1,2,3,16;
 1/10=7,30=1,158=3,167=1/3;
 99//99;
 Using 2006 physical constants.
 ----------
 Title Card
 ----------
 Symbolic Z-matrix:
 Charge = -1 Multiplicity = 1
 17                   -9.98233   7.90413   10.46931 
 6                    -8.30758   4.23876   12.23395 
 6                    -9.06653   3.91556   11.09382 
 6                    -10.00465   2.87286   11.19753 
 6                    -10.18768   2.1851    12.39323 
 6                    -9.429     2.5203    13.51532 
 6                    -8.48727   3.54789   13.42835 
 1                    -7.5734    5.04675   12.19502 
 1                    -10.60187   2.60767   10.32081 
 1                    -10.92458   1.38058   12.44897 
 1                    -9.56      1.97396   14.45165 
 1                    -7.89168   3.81799   14.30429 
 6                    -8.93535   4.62651   9.82057 
 6                    -8.11512   5.66251   9.57088 
 1                    -9.58406   4.26653   9.01462 
 1                    -8.06702   6.11278   8.57809 
 1                    -7.39125   6.02364   10.30501 
 8                    -1.01063  -1.76304   7.45979 
 8                    -8.41112  -1.32503   7.4653 
 8                    -7.05762   1.34313   10.48772 
 8                    -2.33248  -4.35056   10.56077 
 74                   -3.42425   0.74269   6.49518 
 74                   -6.01205  -3.82804   6.58417 
 74                   -3.63306   0.91754   11.40875 
 74                   -5.77922  -3.86903   11.47231 
 74                   -2.47057  -2.54669   6.38028 
 74                   -6.94632  -0.5351    6.34898 
 74                   -6.82754  -0.25106   11.5941 
 74                   -2.57262  -2.69435   11.62958 
 8                    -3.19821   1.94486   5.33243 
 8                    -6.14454  -5.08226   5.44659 
 8                    -2.71176   1.77185   12.55254 
 8                    -6.69214  -4.68514   12.64966 
 8                    -2.69749  -0.86735   5.58476 
 8                    -6.71724  -2.27028   5.62674 
 8                    -5.32319   0.56487   12.37049 
 8                    -4.06692  -3.51029   12.41392 
 8                     0.29539  -0.00276   9.2731 
 8                    -9.71811  -3.01539   9.33024 
 8                    -6.39192   3.41684   8.63155 
 8                    -2.96507  -6.45025   8.74823 
 8                    -1.81015   0.78476   7.48392 
 8                    -7.61293  -3.87851   7.56081 
 8                    -4.53429   2.22008   10.42588 
 8                    -4.86622  -5.21485   10.52346 
 8                    -1.63873  -3.47274   5.22371 
 8                    -7.82806   0.26605   5.15371 
 8                    -8.03862  -0.17197   12.7802 
 8                    -1.3393   -2.80786   12.79267 
 74                   -1.26608  -0.51633   8.84349 
 74                   -8.15923  -2.5096    8.8824 
 74                   -5.93028   1.85164   9.04498 
 74                   -3.46956  -4.88238   9.1664 
 8                    -4.23801  -3.09244   6.07109 
 8                    -5.17742  -0.02942   6.01208 
 8                    -6.18827  -2.00059   11.92387 
 8                    -3.18689  -0.95026   11.9324 
 8                    -4.39077   1.59437   7.84752 
 8                    -5.00622  -4.67502   7.92724 
 8                    -2.34175   0.60169   10.08149 
 8                    -7.06772  -3.61073   10.14076 
 8                    -2.58076  -3.87144   7.85903 
 8                    -6.84384   0.78763   7.80322 
 8                    -7.84559  -1.17417   10.16139 
 8                    -1.57421  -1.83407   10.15281 
 8                    -3.38599  -1.12962   8.0158 
 8                    -6.03345  -1.9505    8.04383 
 8                    -5.13786  -0.19821   9.95142 
 8                    -4.25152  -2.82239   9.97952 
 19                   -3.23322  -6.1205    5.6649 
 19                   -0.14921   0.04022   12.35052 
 19                   -9.27016  -2.92858   12.41167 
 23                   -4.70443  -1.5213    8.99504 
 

 GradGradGradGradGradGradGradGradGradGradGradGradGradGradGradGradGradGrad
 Berny optimization.
 Initialization pass.
 Trust Radius=3.00D-01 FncErr=1.00D-07 GrdErr=1.00D-07 EigMax=2.50D+02 EigMin=1.00D-04
 Number of steps in this run=      2 maximum allowed number of steps=      2.
 GradGradGradGradGradGradGradGradGradGradGradGradGradGradGradGradGradGrad

 Symmetry turned off by external request.
 Stoichiometry    C8H8ClK3O40VW12(1-)
 Framework group  C1[X(C8H8ClK3O40VW12)]
 Deg. of freedom   213
 Full point group                 C1      NOp   1
                          Input orientation:                          
 ---------------------------------------------------------------------
 Center     Atomic      Atomic             Coordinates (Angstroms)
 Number     Number       Type             X           Y           Z
 ---------------------------------------------------------------------
      1         17           0       -9.982332    7.904126   10.469311
      2          6           0       -8.307584    4.238759   12.233947
      3          6           0       -9.066528    3.915561   11.093824
      4          6           0      -10.004650    2.872864   11.197532
      5          6           0      -10.187676    2.185099   12.393231
      6          6           0       -9.428995    2.520296   13.515316
      7          6           0       -8.487273    3.547890   13.428353
      8          1           0       -7.573401    5.046748   12.195024
      9          1           0      -10.601874    2.607668   10.320812
     10          1           0      -10.924579    1.380581   12.448967
     11          1           0       -9.560001    1.973955   14.451653
     12          1           0       -7.891678    3.817994   14.304286
     13          6           0       -8.935345    4.626509    9.820571
     14          6           0       -8.115121    5.662512    9.570881
     15          1           0       -9.584063    4.266527    9.014623
     16          1           0       -8.067016    6.112784    8.578090
     17          1           0       -7.391254    6.023635   10.305015
     18          8           0       -1.010630   -1.763042    7.459795
     19          8           0       -8.411118   -1.325034    7.465297
     20          8           0       -7.057619    1.343132   10.487717
     21          8           0       -2.332484   -4.350559   10.560771
     22         74           0       -3.424253    0.742688    6.495184
     23         74           0       -6.012051   -3.828044    6.584170
     24         74           0       -3.633059    0.917542   11.408750
     25         74           0       -5.779223   -3.869027   11.472306
     26         74           0       -2.470566   -2.546686    6.380282
     27         74           0       -6.946316   -0.535096    6.348978
     28         74           0       -6.827545   -0.251060   11.594102
     29         74           0       -2.572617   -2.694346   11.629582
     30          8           0       -3.198214    1.944856    5.332434
     31          8           0       -6.144544   -5.082262    5.446587
     32          8           0       -2.711763    1.771851   12.552544
     33          8           0       -6.692137   -4.685137   12.649665
     34          8           0       -2.697488   -0.867346    5.584763
     35          8           0       -6.717238   -2.270284    5.626740
     36          8           0       -5.323192    0.564867   12.370492
     37          8           0       -4.066918   -3.510295   12.413916
     38          8           0        0.295389   -0.002759    9.273101
     39          8           0       -9.718110   -3.015388    9.330245
     40          8           0       -6.391915    3.416837    8.631553
     41          8           0       -2.965065   -6.450250    8.748227
     42          8           0       -1.810149    0.784756    7.483916
     43          8           0       -7.612928   -3.878510    7.560814
     44          8           0       -4.534293    2.220082   10.425880
     45          8           0       -4.866222   -5.214845   10.523464
     46          8           0       -1.638733   -3.472744    5.223707
     47          8           0       -7.828058    0.266048    5.153712
     48          8           0       -8.038615   -0.171972   12.780204
     49          8           0       -1.339303   -2.807860   12.792666
     50         74           0       -1.266078   -0.516334    8.843485
     51         74           0       -8.159227   -2.509600    8.882396
     52         74           0       -5.930279    1.851636    9.044982
     53         74           0       -3.469559   -4.882385    9.166400
     54          8           0       -4.238006   -3.092444    6.071092
     55          8           0       -5.177420   -0.029417    6.012081
     56          8           0       -6.188269   -2.000585   11.923865
     57          8           0       -3.186894   -0.950262   11.932396
     58          8           0       -4.390768    1.594370    7.847522
     59          8           0       -5.006217   -4.675020    7.927240
     60          8           0       -2.341753    0.601688   10.081486
     61          8           0       -7.067719   -3.610727   10.140765
     62          8           0       -2.580759   -3.871440    7.859031
     63          8           0       -6.843843    0.787626    7.803223
     64          8           0       -7.845587   -1.174173   10.161394
     65          8           0       -1.574209   -1.834072   10.152810
     66          8           0       -3.385990   -1.129625    8.015801
     67          8           0       -6.033450   -1.950499    8.043835
     68          8           0       -5.137862   -0.198212    9.951417
     69          8           0       -4.251522   -2.822389    9.979519
     70         19           0       -3.233222   -6.120500    5.664902
     71         19           0       -0.149207    0.040219   12.350521
     72         19           0       -9.270158   -2.928584   12.411672
     73         23           0       -4.704433   -1.521303    8.995045
 ---------------------------------------------------------------------
 Rotational constants (GHZ):           0.0171879           0.0133105           0.0131051
 Standard basis: def2SVP (5D, 7F)
  1217 basis functions,  2313 primitive gaussians,  1337 cartesian basis functions
   321 alpha electrons      321 beta electrons
       nuclear repulsion energy     21007.0567492534 Hartrees.
 NAtoms=   73 NActive=   73 NUniq=   73 SFac= 1.00D+00 NAtFMM=   60 NAOKFM=T Big=T
 Integral buffers will be    131072 words long.
 Raffenetti 2 integral format.
 Two-electron integral symmetry is turned off.
 Nuclear repulsion after empirical dispersion term =    21006.7788159776 Hartrees.
 Force PCM accuracy= 1.00D-10.
 ------------------------------------------------------------------------------
 Polarizable Continuum Model (PCM)
 =================================
 Model                : PCM (using non-symmetric T matrix).
 Atomic radii         : SMD-Coulomb.
 Polarization charges : Total charges.
 Charge compensation  : None.
 Solution method      : On-the-fly selection.
 Cavity type          : VdW (van der Waals Surface) (Alpha=1.000).
 Cavity algorithm     : GePol (No added spheres)
                        Default sphere list used, NSphG=   73.
                        Lebedev-Laikov grids with approx.  5.0 points / Ang**2.
                        Smoothing algorithm: York/Karplus (Gamma=1.0000).
                        Polarization charges: spherical gaussians, with
                                              point-specific exponents (IZeta= 3).
                        Self-potential: point-specific (ISelfS= 7).
                        Self-field    : sphere-specific E.n sum rule (ISelfD= 2).
 1st derivatives      : Analytical E(r).r(x)/FMM algorithm (CHGder, D1EAlg=3).
                        Cavity 1st derivative terms included.
 Solvent              : Acetonitrile, Eps=  35.688000 Eps(inf)=   1.806874
 ------------------------------------------------------------------------------
 ------------------------------------------------------------------------------
 Atomic radii for non-electrostatic terms: SMD-CDS.
 ------------------------------------------------------------------------------
 Nuclear repulsion after PCM non-electrostatic terms =    21006.7729926006 Hartrees.
 One-electron integrals computed using PRISM.
   1 Symmetry operations used in ECPInt.
 ECPInt:  NShTT=  127765 NPrTT=  468030 LenC2=   96828 LenP2D=  221597.
 LDataN:  DoStor=T MaxTD1= 8 Len=  415
 NBasis=  1217 RedAO= T EigKep=  1.36D-04  NBF=  1217
 NBsUse=  1217 1.00D-06 EigRej= -1.00D+00 NBFU=  1217
 Defaulting to unpruned grid for atomic number  74.
 Defaulting to unpruned grid for atomic number  74.
 Defaulting to unpruned grid for atomic number  74.
 Defaulting to unpruned grid for atomic number  74.
 Defaulting to unpruned grid for atomic number  74.
 Defaulting to unpruned grid for atomic number  74.
 Defaulting to unpruned grid for atomic number  74.
 Defaulting to unpruned grid for atomic number  74.
 Initial guess from the checkpoint file:  "a.chk"
 B after Tr=     0.000766   -0.001239    0.000022
         Rot=    1.000000    0.000008    0.000007    0.000046 Ang=   0.01 deg.
 Requested convergence on RMS density matrix=1.00D-08 within  64 cycles.
 Requested convergence on MAX density matrix=1.00D-06.
 Requested convergence on             energy=1.00D-06.
 No special actions if energy rises.
 Defaulting to unpruned grid for atomic number  74.
 Defaulting to unpruned grid for atomic number  74.
 Defaulting to unpruned grid for atomic number  74.
 Defaulting to unpruned grid for atomic number  74.
 Defaulting to unpruned grid for atomic number  74.
 Defaulting to unpruned grid for atomic number  74.
 Defaulting to unpruned grid for atomic number  74.
 Defaulting to unpruned grid for atomic number  74.
 Defaulting to unpruned grid for atomic number  74.
 Defaulting to unpruned grid for atomic number  74.
 Defaulting to unpruned grid for atomic number  74.
 Defaulting to unpruned grid for atomic number  74.
 Defaulting to unpruned grid for atomic number  74.
 Defaulting to unpruned grid for atomic number  74.
 Defaulting to unpruned grid for atomic number  74.
 Defaulting to unpruned grid for atomic number  74.
 Defaulting to unpruned grid for atomic number  74.
 Defaulting to unpruned grid for atomic number  74.
 Defaulting to unpruned grid for atomic number  74.
 Defaulting to unpruned grid for atomic number  74.
 Defaulting to unpruned grid for atomic number  74.
 Defaulting to unpruned grid for atomic number  74.
 Defaulting to unpruned grid for atomic number  74.
 Defaulting to unpruned grid for atomic number  74.
 Defaulting to unpruned grid for atomic number  74.
 Defaulting to unpruned grid for atomic number  74.
 Defaulting to unpruned grid for atomic number  74.
 Defaulting to unpruned grid for atomic number  74.
 Defaulting to unpruned grid for atomic number  74.
 Defaulting to unpruned grid for atomic number  74.
 Defaulting to unpruned grid for atomic number  74.
 Defaulting to unpruned grid for atomic number  74.
 Defaulting to unpruned grid for atomic number  74.
 Defaulting to unpruned grid for atomic number  74.
 Defaulting to unpruned grid for atomic number  74.
 Defaulting to unpruned grid for atomic number  74.
 Defaulting to unpruned grid for atomic number  74.
 Defaulting to unpruned grid for atomic number  74.
 Defaulting to unpruned grid for atomic number  74.
 Defaulting to unpruned grid for atomic number  74.
 Defaulting to unpruned grid for atomic number  74.
 Defaulting to unpruned grid for atomic number  74.
 Defaulting to unpruned grid for atomic number  74.
 Defaulting to unpruned grid for atomic number  74.
 Defaulting to unpruned grid for atomic number  74.
 Defaulting to unpruned grid for atomic number  74.
 Defaulting to unpruned grid for atomic number  74.
 Defaulting to unpruned grid for atomic number  74.
 Defaulting to unpruned grid for atomic number  74.
 Defaulting to unpruned grid for atomic number  74.
 Defaulting to unpruned grid for atomic number  74.
 Defaulting to unpruned grid for atomic number  74.
 Defaulting to unpruned grid for atomic number  74.
 Defaulting to unpruned grid for atomic number  74.
 Defaulting to unpruned grid for atomic number  74.
 Defaulting to unpruned grid for atomic number  74.
 Inv3:  Mode=1 IEnd=    86253132.
 Iteration    1 A*A^-1 deviation from unit magnitude is 3.33D-15 for   3423.
 Iteration    1 A*A^-1 deviation from orthogonality  is 3.98D-15 for    938    364.
 Iteration    1 A^-1*A deviation from unit magnitude is 3.66D-15 for   1884.
 Iteration    1 A^-1*A deviation from orthogonality  is 1.25D-11 for   4643   3634.
 Error on total polarization charges =  0.01599
 SCF Done:  E(RwB97XD) =  -7327.70016885     A.U. after   11 cycles
            NFock= 11  Conv=0.53D-08     -V/T= 2.0831
 SMD-CDS (non-electrostatic) energy       (kcal/mol) =      -3.65
 (included in total energy above)
 QCSCF skips out because SCF is already converged.

 **********************************************************************

            Population analysis using the SCF Density.

 **********************************************************************

 Alpha  occ. eigenvalues -- -197.29056-130.00102-130.00071-129.99989-101.47598
 Alpha  occ. eigenvalues --  -22.62216 -19.33471 -19.33459 -19.33456 -19.33439
 Alpha  occ. eigenvalues --  -19.30704 -19.30676 -19.30673 -19.30663 -19.30661
 Alpha  occ. eigenvalues --  -19.30647 -19.30623 -19.30596 -19.30497 -19.30316
 Alpha  occ. eigenvalues --  -19.30308 -19.30037 -19.29321 -19.29317 -19.29287
 Alpha  occ. eigenvalues --  -19.29283 -19.29273 -19.29272 -19.29258 -19.29210
 Alpha  occ. eigenvalues --  -19.29178 -19.29149 -19.29147 -19.29135 -19.29110
 Alpha  occ. eigenvalues --  -19.29104 -19.29090 -19.29081 -19.29070 -19.29060
 Alpha  occ. eigenvalues --  -19.29035 -19.28997 -19.28964 -19.28945 -19.28926
 Alpha  occ. eigenvalues --  -19.28702 -19.11168 -19.11160 -19.11151 -13.37503
 Alpha  occ. eigenvalues --  -13.37472 -13.37380 -10.70433 -10.70426 -10.70425
 Alpha  occ. eigenvalues --  -10.70402 -10.70395 -10.70394 -10.70310 -10.70303
 Alpha  occ. eigenvalues --  -10.70301 -10.29770 -10.29304 -10.29244 -10.29038
 Alpha  occ. eigenvalues --  -10.28941 -10.28922 -10.28046 -10.27438  -9.38057
 Alpha  occ. eigenvalues --   -7.12879  -7.12839  -7.12836  -3.23281  -3.23266
 Alpha  occ. eigenvalues --   -3.23263  -3.23253  -3.23250  -3.23240  -3.23182
 Alpha  occ. eigenvalues --   -3.23182  -3.23134  -3.22904  -3.22896  -3.22627
 Alpha  occ. eigenvalues --   -2.91551  -1.93960  -1.93928  -1.93914  -1.87693
 Alpha  occ. eigenvalues --   -1.87630  -1.87612  -1.87545  -1.87464  -1.87448
 Alpha  occ. eigenvalues --   -1.87437  -1.87407  -1.87352  -1.87221  -1.87193
 Alpha  occ. eigenvalues --   -1.86973  -1.86591  -1.86472  -1.86465  -1.86439
 Alpha  occ. eigenvalues --   -1.86416  -1.86373  -1.86302  -1.86282  -1.86263
 Alpha  occ. eigenvalues --   -1.86248  -1.86220  -1.86186  -1.86114  -1.86086
 Alpha  occ. eigenvalues --   -1.86081  -1.86051  -1.86010  -1.85955  -1.85936
 Alpha  occ. eigenvalues --   -1.85875  -1.85837  -1.85746  -1.85607  -1.85527
 Alpha  occ. eigenvalues --   -1.51191  -1.51161  -1.51069  -1.12912  -1.11138
 Alpha  occ. eigenvalues --   -1.11038  -1.11035  -1.08888  -1.08484  -1.08430
 Alpha  occ. eigenvalues --   -1.08260  -1.07482  -1.07423  -1.07397  -1.06854
 Alpha  occ. eigenvalues --   -1.06832  -1.06786  -1.06256  -1.06211  -1.05299
 Alpha  occ. eigenvalues --   -1.05290  -1.04927  -1.04919  -1.04881  -1.04182
 Alpha  occ. eigenvalues --   -1.04177  -1.04146  -1.04006  -1.03993  -1.03979
 Alpha  occ. eigenvalues --   -1.03922  -1.03865  -1.03848  -1.03736  -1.03688
 Alpha  occ. eigenvalues --   -1.03601  -1.03526  -1.03266  -1.03242  -1.03098
 Alpha  occ. eigenvalues --   -1.03083  -1.03018  -1.02870  -0.94339  -0.86658
 Alpha  occ. eigenvalues --   -0.86630  -0.86544  -0.86478  -0.86470  -0.86464
 Alpha  occ. eigenvalues --   -0.86437  -0.86433  -0.86351  -0.86335  -0.82774
 Alpha  occ. eigenvalues --   -0.79735  -0.70765  -0.69732  -0.67973  -0.64532
 Alpha  occ. eigenvalues --   -0.63906  -0.63846  -0.63820  -0.63187  -0.63164
 Alpha  occ. eigenvalues --   -0.63053  -0.62987  -0.62579  -0.62508  -0.61837
 Alpha  occ. eigenvalues --   -0.61527  -0.61511  -0.61414  -0.61182  -0.61170
 Alpha  occ. eigenvalues --   -0.61120  -0.60354  -0.59405  -0.59376  -0.59374
 Alpha  occ. eigenvalues --   -0.59314  -0.59295  -0.58644  -0.57943  -0.57907
 Alpha  occ. eigenvalues --   -0.57841  -0.56972  -0.56940  -0.56897  -0.56233
 Alpha  occ. eigenvalues --   -0.56195  -0.56058  -0.55679  -0.54835  -0.54781
 Alpha  occ. eigenvalues --   -0.54736  -0.54533  -0.54194  -0.54078  -0.54033
 Alpha  occ. eigenvalues --   -0.53988  -0.53906  -0.53232  -0.53191  -0.53057
 Alpha  occ. eigenvalues --   -0.52987  -0.52866  -0.52689  -0.52660  -0.52617
 Alpha  occ. eigenvalues --   -0.52569  -0.52475  -0.52413  -0.52410  -0.51558
 Alpha  occ. eigenvalues --   -0.51533  -0.51338  -0.51304  -0.51284  -0.51224
 Alpha  occ. eigenvalues --   -0.51156  -0.51111  -0.50990  -0.50772  -0.50594
 Alpha  occ. eigenvalues --   -0.50573  -0.50554  -0.49892  -0.49873  -0.49260
 Alpha  occ. eigenvalues --   -0.49238  -0.49208  -0.49189  -0.49137  -0.49058
 Alpha  occ. eigenvalues --   -0.48864  -0.48043  -0.47998  -0.47877  -0.47615
 Alpha  occ. eigenvalues --   -0.47337  -0.47248  -0.47191  -0.46970  -0.46914
 Alpha  occ. eigenvalues --   -0.46830  -0.46586  -0.46553  -0.46413  -0.46146
 Alpha  occ. eigenvalues --   -0.46091  -0.46034  -0.45571  -0.45061  -0.44885
 Alpha  occ. eigenvalues --   -0.44848  -0.44138  -0.44106  -0.43962  -0.43509
 Alpha  occ. eigenvalues --   -0.43277  -0.43218  -0.43092  -0.43076  -0.43030
 Alpha  occ. eigenvalues --   -0.42711  -0.42693  -0.42649  -0.42569  -0.42556
 Alpha  occ. eigenvalues --   -0.42482  -0.42443  -0.42420  -0.42272  -0.42261
 Alpha  occ. eigenvalues --   -0.42224  -0.42007  -0.41883  -0.41822  -0.41809
 Alpha  occ. eigenvalues --   -0.41188  -0.41169  -0.41125  -0.41029  -0.40535
 Alpha  occ. eigenvalues --   -0.40515  -0.40497  -0.40353  -0.39406  -0.39375
 Alpha  occ. eigenvalues --   -0.36794  -0.32505  -0.28800  -0.24520  -0.24483
 Alpha  occ. eigenvalues --   -0.23047
 Alpha virt. eigenvalues --   -0.09149  -0.08948  -0.08326  -0.08279  -0.06895
 Alpha virt. eigenvalues --   -0.06846  -0.06758  -0.04186  -0.03946  -0.03903
 Alpha virt. eigenvalues --   -0.03628  -0.03446  -0.03367  -0.03160  -0.03028
 Alpha virt. eigenvalues --   -0.02973  -0.02928  -0.02157  -0.02120  -0.02090
 Alpha virt. eigenvalues --   -0.01434  -0.01404  -0.01334  -0.01245  -0.01162
 Alpha virt. eigenvalues --   -0.00011   0.00015   0.00082   0.01450   0.01496
 Alpha virt. eigenvalues --    0.01922   0.01960   0.02055   0.02186   0.02222
 Alpha virt. eigenvalues --    0.02237   0.02268   0.02370   0.02795   0.02866
 Alpha virt. eigenvalues --    0.02952   0.03016   0.03074   0.04334   0.04571
 Alpha virt. eigenvalues --    0.06816   0.07294   0.07467   0.07541   0.07749
 Alpha virt. eigenvalues --    0.08042   0.08490   0.08545   0.08795   0.09155
 Alpha virt. eigenvalues --    0.09325   0.09386   0.09643   0.09881   0.10230
 Alpha virt. eigenvalues --    0.10267   0.10327   0.10389   0.10435   0.10637
 Alpha virt. eigenvalues --    0.10909   0.11068   0.11094   0.11651   0.11723
 Alpha virt. eigenvalues --    0.12332   0.13127   0.13265   0.13371   0.13582
 Alpha virt. eigenvalues --    0.13751   0.14431   0.14580   0.14676   0.15032
 Alpha virt. eigenvalues --    0.15540   0.16144   0.16376   0.16563   0.16750
 Alpha virt. eigenvalues --    0.16757   0.16919   0.17106   0.17270   0.17686
 Alpha virt. eigenvalues --    0.17897   0.18147   0.18201   0.18372   0.18587
 Alpha virt. eigenvalues --    0.18762   0.18976   0.19249   0.19348   0.19497
 Alpha virt. eigenvalues --    0.19603   0.20172   0.20312   0.20408   0.20646
 Alpha virt. eigenvalues --    0.20716   0.20888   0.20931   0.21308   0.21388
 Alpha virt. eigenvalues --    0.21467   0.21609   0.21697   0.21877   0.22198
 Alpha virt. eigenvalues --    0.22501   0.22756   0.22978   0.23221   0.23354
 Alpha virt. eigenvalues --    0.23551   0.23903   0.24071   0.24258   0.24588
 Alpha virt. eigenvalues --    0.24780   0.25203   0.25570   0.25625   0.25917
 Alpha virt. eigenvalues --    0.26085   0.26258   0.26478   0.26581   0.26767
 Alpha virt. eigenvalues --    0.27087   0.27256   0.27438   0.27482   0.27716
 Alpha virt. eigenvalues --    0.28062   0.28304   0.28346   0.28640   0.28723
 Alpha virt. eigenvalues --    0.29312   0.29654   0.29925   0.30224   0.30515
 Alpha virt. eigenvalues --    0.30669   0.31041   0.31210   0.31767   0.31822
 Alpha virt. eigenvalues --    0.32263   0.34878   0.35260   0.35839   0.36335
 Alpha virt. eigenvalues --    0.36675   0.36942   0.37244   0.38122   0.38440
 Alpha virt. eigenvalues --    0.38674   0.39198   0.39531   0.39732   0.40284
 Alpha virt. eigenvalues --    0.40735   0.40907   0.41045   0.41157   0.41759
 Alpha virt. eigenvalues --    0.42135   0.42372   0.42654   0.43302   0.43549
 Alpha virt. eigenvalues --    0.43758   0.44505   0.44702   0.44838   0.45183
 Alpha virt. eigenvalues --    0.45701   0.46238   0.46517   0.46735   0.47153
 Alpha virt. eigenvalues --    0.47399   0.47667   0.47954   0.48084   0.48174
 Alpha virt. eigenvalues --    0.48356   0.48404   0.48620   0.48861   0.48973
 Alpha virt. eigenvalues --    0.49130   0.49347   0.49520   0.49854   0.49985
 Alpha virt. eigenvalues --    0.50204   0.50462   0.50656   0.50924   0.51227
 Alpha virt. eigenvalues --    0.51710   0.51863   0.51910   0.52350   0.52606
 Alpha virt. eigenvalues --    0.52656   0.52994   0.53081   0.53230   0.53285
 Alpha virt. eigenvalues --    0.53724   0.54066   0.54274   0.54398   0.54680
 Alpha virt. eigenvalues --    0.54990   0.55434   0.55711   0.56470   0.56545
 Alpha virt. eigenvalues --    0.56843   0.57391   0.57758   0.58158   0.58384
 Alpha virt. eigenvalues --    0.58645   0.59162   0.59514   0.60358   0.60889
 Alpha virt. eigenvalues --    0.61485   0.62612   0.62753   0.62808   0.63428
 Alpha virt. eigenvalues --    0.64290   0.65418   0.65703   0.65786   0.65908
 Alpha virt. eigenvalues --    0.66244   0.66898   0.67322   0.67373   0.67640
 Alpha virt. eigenvalues --    0.67963   0.68486   0.70095   0.70608   0.71240
 Alpha virt. eigenvalues --    0.71493   0.72034   0.72160   0.72247   0.72321
 Alpha virt. eigenvalues --    0.72518   0.72702   0.73193   0.73568   0.73996
 Alpha virt. eigenvalues --    0.74625   0.74951   0.75744   0.75812   0.75962
 Alpha virt. eigenvalues --    0.76318   0.76754   0.76970   0.77036   0.77410
 Alpha virt. eigenvalues --    0.77696   0.78532   0.79261   0.79526   0.79634
 Alpha virt. eigenvalues --    0.79816   0.80345   0.80686   0.81111   0.81533
 Alpha virt. eigenvalues --    0.81584   0.81741   0.82109   0.82765   0.83195
 Alpha virt. eigenvalues --    0.84212   0.84360   0.84962   0.85432   0.86097
 Alpha virt. eigenvalues --    0.87185   0.87523   0.88064   0.88164   0.88872
 Alpha virt. eigenvalues --    0.89156   0.89201   0.89543   0.89601   0.90496
 Alpha virt. eigenvalues --    0.90738   0.90848   0.91370   0.91590   0.91733
 Alpha virt. eigenvalues --    0.92672   0.93038   0.93816   0.93992   0.94122
 Alpha virt. eigenvalues --    0.94476   0.94874   0.95990   0.96093   0.96993
 Alpha virt. eigenvalues --    0.97013   0.97290   0.97452   0.97886   0.98007
 Alpha virt. eigenvalues --    0.98276   0.98414   0.98625   0.98714   0.98898
 Alpha virt. eigenvalues --    0.99214   0.99780   1.00198   1.00377   1.00482
 Alpha virt. eigenvalues --    1.00871   1.01423   1.01575   1.01666   1.02131
 Alpha virt. eigenvalues --    1.02187   1.02438   1.02579   1.02700   1.02865
 Alpha virt. eigenvalues --    1.02922   1.03705   1.03998   1.04093   1.04149
 Alpha virt. eigenvalues --    1.04332   1.04464   1.04563   1.04610   1.04872
 Alpha virt. eigenvalues --    1.05063   1.05244   1.05261   1.05594   1.05882
 Alpha virt. eigenvalues --    1.06041   1.06412   1.06826   1.07133   1.07313
 Alpha virt. eigenvalues --    1.07516   1.07978   1.08802   1.09091   1.09381
 Alpha virt. eigenvalues --    1.09416   1.09777   1.10084   1.10198   1.10239
 Alpha virt. eigenvalues --    1.10799   1.10874   1.11067   1.11238   1.11520
 Alpha virt. eigenvalues --    1.11662   1.11776   1.11953   1.12249   1.12665
 Alpha virt. eigenvalues --    1.12902   1.13563   1.13821   1.14491   1.15228
 Alpha virt. eigenvalues --    1.15312   1.15979   1.16332   1.16680   1.17074
 Alpha virt. eigenvalues --    1.17575   1.17726   1.17921   1.18716   1.19004
 Alpha virt. eigenvalues --    1.19931   1.20776   1.21046   1.21276   1.21327
 Alpha virt. eigenvalues --    1.21389   1.22023   1.22121   1.22930   1.23750
 Alpha virt. eigenvalues --    1.25020   1.25843   1.26384   1.26696   1.26798
 Alpha virt. eigenvalues --    1.27128   1.28009   1.28162   1.28600   1.28663
 Alpha virt. eigenvalues --    1.28833   1.29005   1.29203   1.29300   1.29729
 Alpha virt. eigenvalues --    1.30071   1.30174   1.30322   1.30756   1.30937
 Alpha virt. eigenvalues --    1.31029   1.31967   1.32206   1.32882   1.33105
 Alpha virt. eigenvalues --    1.33258   1.33508   1.33678   1.33778   1.34004
 Alpha virt. eigenvalues --    1.34189   1.34301   1.34523   1.34679   1.34853
 Alpha virt. eigenvalues --    1.34969   1.35188   1.35497   1.35766   1.35996
 Alpha virt. eigenvalues --    1.36119   1.36470   1.36711   1.36752   1.36977
 Alpha virt. eigenvalues --    1.37121   1.37323   1.37636   1.37676   1.37932
 Alpha virt. eigenvalues --    1.37996   1.38483   1.38704   1.38960   1.39169
 Alpha virt. eigenvalues --    1.39404   1.39540   1.39669   1.39872   1.40100
 Alpha virt. eigenvalues --    1.40402   1.40528   1.40758   1.40806   1.41035
 Alpha virt. eigenvalues --    1.41181   1.41321   1.41577   1.42076   1.42323
 Alpha virt. eigenvalues --    1.42556   1.43159   1.43208   1.43348   1.43434
 Alpha virt. eigenvalues --    1.43958   1.44216   1.44552   1.45335   1.45584
 Alpha virt. eigenvalues --    1.46340   1.46872   1.47631   1.47877   1.47917
 Alpha virt. eigenvalues --    1.48435   1.48824   1.49265   1.49755   1.50380
 Alpha virt. eigenvalues --    1.50579   1.51087   1.51593   1.51947   1.53393
 Alpha virt. eigenvalues --    1.53593   1.55423   1.55802   1.55894   1.55955
 Alpha virt. eigenvalues --    1.56198   1.56420   1.56739   1.56792   1.57205
 Alpha virt. eigenvalues --    1.57307   1.58162   1.58456   1.59218   1.59275
 Alpha virt. eigenvalues --    1.59777   1.60159   1.60526   1.60634   1.60649
 Alpha virt. eigenvalues --    1.60852   1.61285   1.62338   1.62341   1.62715
 Alpha virt. eigenvalues --    1.64203   1.64466   1.65094   1.65798   1.67180
 Alpha virt. eigenvalues --    1.67808   1.68084   1.69731   1.70559   1.70916
 Alpha virt. eigenvalues --    1.71492   1.71688   1.72540   1.73195   1.74339
 Alpha virt. eigenvalues --    1.75160   1.75247   1.75400   1.75817   1.76645
 Alpha virt. eigenvalues --    1.76714   1.77055   1.77344   1.77698   1.78568
 Alpha virt. eigenvalues --    1.78735   1.79148   1.79291   1.80421   1.80521
 Alpha virt. eigenvalues --    1.81269   1.81519   1.81822   1.82303   1.82762
 Alpha virt. eigenvalues --    1.83057   1.83313   1.83866   1.84362   1.84497
 Alpha virt. eigenvalues --    1.85270   1.85417   1.85784   1.86133   1.86403
 Alpha virt. eigenvalues --    1.86618   1.87259   1.87724   1.88342   1.88684
 Alpha virt. eigenvalues --    1.89324   1.90116   1.90214   1.90530   1.90605
 Alpha virt. eigenvalues --    1.90880   1.91167   1.91516   1.92417   1.93892
 Alpha virt. eigenvalues --    1.94850   1.95254   1.95410   1.95737   1.96134
 Alpha virt. eigenvalues --    1.98586   1.99315   1.99436   1.99532   2.05165
 Alpha virt. eigenvalues --    2.06892   2.07438   2.08202   2.08369   2.08719
 Alpha virt. eigenvalues --    2.08999   2.09403   2.09710   2.10466   2.11064
 Alpha virt. eigenvalues --    2.11519   2.11942   2.12992   2.14965   2.15456
 Alpha virt. eigenvalues --    2.15957   2.16796   2.17278   2.17708   2.17820
 Alpha virt. eigenvalues --    2.20201   2.20683   2.20803   2.21004   2.21396
 Alpha virt. eigenvalues --    2.21663   2.22290   2.24158   2.25325   2.25885
 Alpha virt. eigenvalues --    2.26435   2.26544   2.27302   2.28288   2.28564
 Alpha virt. eigenvalues --    2.29336   2.29645   2.30011   2.33504   2.35870
 Alpha virt. eigenvalues --    2.36566   2.39385   2.40994   2.41119   2.43966
 Alpha virt. eigenvalues --    2.44176   2.50651   2.51983   2.57711   2.64858
 Alpha virt. eigenvalues --    2.64928   2.65086   2.65788   2.66134   2.66559
 Alpha virt. eigenvalues --    2.66838   2.66888   2.66960   2.67070   2.67101
 Alpha virt. eigenvalues --    2.67180   2.67294   2.67390   2.67405   2.67557
 Alpha virt. eigenvalues --    2.67726   2.67810   2.67919   2.67957   2.68038
 Alpha virt. eigenvalues --    2.68937   2.69109   2.69266   2.69416   2.69947
 Alpha virt. eigenvalues --    2.70165   2.70231   2.70408   2.70580   2.70778
 Alpha virt. eigenvalues --    2.70814   2.71403   2.71472   2.71549   2.71631
 Alpha virt. eigenvalues --    2.71712   2.72030   2.72581   2.72826   2.72979
 Alpha virt. eigenvalues --    2.73075   2.73162   2.73232   2.73360   2.73373
 Alpha virt. eigenvalues --    2.73549   2.73731   2.73883   2.73918   2.74017
 Alpha virt. eigenvalues --    2.74138   2.74248   2.74399   2.74606   2.74764
 Alpha virt. eigenvalues --    2.74838   2.75027   2.75320   2.75849   2.76051
 Alpha virt. eigenvalues --    2.76160   2.76347   2.76517   2.76811   2.76945
 Alpha virt. eigenvalues --    2.77086   2.77176   2.77234   2.78368   2.78477
 Alpha virt. eigenvalues --    2.78666   2.78895   2.79999   2.80182   2.80319
 Alpha virt. eigenvalues --    2.81136   2.81713   2.81726   2.82018   2.82226
 Alpha virt. eigenvalues --    2.82311   2.82805   2.83126   2.83326   2.83768
 Alpha virt. eigenvalues --    2.83812   2.83953   2.84042   2.84341   2.85081
 Alpha virt. eigenvalues --    2.85617   2.86135   2.86230   2.86381   2.86570
 Alpha virt. eigenvalues --    2.86640   2.86804   2.86970   2.88015   2.88476
 Alpha virt. eigenvalues --    2.88771   2.89058   2.89597   2.89702   2.89784
 Alpha virt. eigenvalues --    2.89931   2.90032   2.90127   2.90408   2.90456
 Alpha virt. eigenvalues --    2.90629   2.91781   2.91888   2.91988   2.92034
 Alpha virt. eigenvalues --    2.92340   2.92546   2.92780   2.93048   2.93186
 Alpha virt. eigenvalues --    2.93323   2.93623   2.93795   2.94045   2.94197
 Alpha virt. eigenvalues --    2.94278   2.95043   2.95299   2.95499   2.95788
 Alpha virt. eigenvalues --    2.95958   2.95995   2.96529   2.96707   2.96783
 Alpha virt. eigenvalues --    2.96859   2.97048   2.97135   2.97249   2.97558
 Alpha virt. eigenvalues --    2.97648   2.97856   2.97991   2.98374   2.99197
 Alpha virt. eigenvalues --    2.99442   2.99506   2.99743   2.99873   3.00166
 Alpha virt. eigenvalues --    3.00367   3.00598   3.01413   3.01695   3.01939
 Alpha virt. eigenvalues --    3.03019   3.03532   3.03621   3.03988   3.04898
 Alpha virt. eigenvalues --    3.06251   3.06515   3.06989   3.11083   3.11335
 Alpha virt. eigenvalues --    3.11490   3.11581   3.12152   3.12522   3.13676
 Alpha virt. eigenvalues --    3.13780   3.13935   3.16980   3.20010   3.21637
 Alpha virt. eigenvalues --    3.21799   3.23900   3.32643   3.40467   3.41165
 Alpha virt. eigenvalues --    3.42007   3.42423   3.44317   3.44445   3.45328
 Alpha virt. eigenvalues --    3.45577   3.45787   3.46760   3.46883   3.47244
 Alpha virt. eigenvalues --    3.48763   3.50907   3.51532   3.52079   3.53247
 Alpha virt. eigenvalues --    3.53358   3.54111   3.54388   3.54739   3.54842
 Alpha virt. eigenvalues --    3.55035   3.55131   3.55555   3.56291   3.57385
 Alpha virt. eigenvalues --    3.57680   3.58077   3.59238   3.59468   3.60371
 Alpha virt. eigenvalues --    3.60475   3.61082   3.61479   3.61801   3.62359
 Alpha virt. eigenvalues --    3.69887   3.74921  68.64567  68.65621  68.66902
 Alpha virt. eigenvalues --   68.69245  68.72951  68.73865  68.81684  68.82787
 Alpha virt. eigenvalues --   68.83267  68.86075  68.87186  68.88440 576.22996
 Alpha virt. eigenvalues --  576.24025 576.25280 576.27572 576.31292 576.32196
 Alpha virt. eigenvalues --  576.39864 576.40945 576.41410 576.44114 576.45205
 Alpha virt. eigenvalues --  576.46452
          Condensed to atoms (all electrons):
 Mulliken charges:
               1
     1  Cl  -0.928063
     2  C   -0.080818
     3  C    0.040835
     4  C   -0.077452
     5  C   -0.033550
     6  C   -0.031918
     7  C   -0.050650
     8  H    0.027804
     9  H    0.029123
    10  H    0.040162
    11  H    0.036744
    12  H    0.039282
    13  C   -0.087162
    14  C    0.021860
    15  H    0.017518
    16  H    0.038047
    17  H    0.037121
    18  O   -0.663227
    19  O   -0.660204
    20  O   -0.655418
    21  O   -0.662294
    22  W    1.733117
    23  W    1.670112
    24  W    1.680662
    25  W    1.690605
    26  W    1.674037
    27  W    1.725205
    28  W    1.620548
    29  W    1.683145
    30  O   -0.321114
    31  O   -0.366352
    32  O   -0.366132
    33  O   -0.364192
    34  O   -0.663925
    35  O   -0.670257
    36  O   -0.660700
    37  O   -0.662579
    38  O   -0.365859
    39  O   -0.366061
    40  O   -0.292192
    41  O   -0.365828
    42  O   -0.669820
    43  O   -0.662104
    44  O   -0.658338
    45  O   -0.665371
    46  O   -0.365897
    47  O   -0.320653
    48  O   -0.354821
    49  O   -0.365071
    50  W    1.670919
    51  W    1.674317
    52  W    1.674056
    53  W    1.682550
    54  O   -0.722523
    55  O   -0.705177
    56  O   -0.725242
    57  O   -0.720819
    58  O   -0.704399
    59  O   -0.725190
    60  O   -0.723610
    61  O   -0.719721
    62  O   -0.722815
    63  O   -0.706441
    64  O   -0.721426
    65  O   -0.725292
    66  O   -0.799719
    67  O   -0.799448
    68  O   -0.797215
    69  O   -0.808608
    70  K    0.864240
    71  K    0.863620
    72  K    0.859875
    73  V    1.190163
 Sum of Mulliken charges =  -1.00000
 Mulliken charges with hydrogens summed into heavy atoms:
               1
     1  Cl  -0.928063
     2  C   -0.053014
     3  C    0.040835
     4  C   -0.048329
     5  C    0.006612
     6  C    0.004827
     7  C   -0.011368
    13  C   -0.069645
    14  C    0.097028
    18  O   -0.663227
    19  O   -0.660204
    20  O   -0.655418
    21  O   -0.662294
    22  W    1.733117
    23  W    1.670112
    24  W    1.680662
    25  W    1.690605
    26  W    1.674037
    27  W    1.725205
    28  W    1.620548
    29  W    1.683145
    30  O   -0.321114
    31  O   -0.366352
    32  O   -0.366132
    33  O   -0.364192
    34  O   -0.663925
    35  O   -0.670257
    36  O   -0.660700
    37  O   -0.662579
    38  O   -0.365859
    39  O   -0.366061
    40  O   -0.292192
    41  O   -0.365828
    42  O   -0.669820
    43  O   -0.662104
    44  O   -0.658338
    45  O   -0.665371
    46  O   -0.365897
    47  O   -0.320653
    48  O   -0.354821
    49  O   -0.365071
    50  W    1.670919
    51  W    1.674317
    52  W    1.674056
    53  W    1.682550
    54  O   -0.722523
    55  O   -0.705177
    56  O   -0.725242
    57  O   -0.720819
    58  O   -0.704399
    59  O   -0.725190
    60  O   -0.723610
    61  O   -0.719721
    62  O   -0.722815
    63  O   -0.706441
    64  O   -0.721426
    65  O   -0.725292
    66  O   -0.799719
    67  O   -0.799448
    68  O   -0.797215
    69  O   -0.808608
    70  K    0.864240
    71  K    0.863620
    72  K    0.859875
    73  V    1.190163
 Electronic spatial extent (au):  <R**2>=         317299.0473
 Charge=             -1.0000 electrons
 Dipole moment (field-independent basis, Debye):
    X=             51.9522    Y=            -50.4509    Z=            -38.5338  Tot=             82.0315
 Quadrupole moment (field-independent basis, Debye-Ang):
   XX=          -1074.8671   YY=           -867.1554   ZZ=           -911.1106
   XY=            451.7146   XZ=            465.4957   YZ=           -468.1871
 Traceless Quadrupole moment (field-independent basis, Debye-Ang):
   XX=           -123.8227   YY=             83.8890   ZZ=             39.9338
   XY=            451.7146   XZ=            465.4957   YZ=           -468.1871
 Octapole moment (field-independent basis, Debye-Ang**2):
  XXX=          13724.5197  YYY=           -856.7050  ZZZ=         -19094.2468  XYY=           5947.4294
  XXY=          -3704.1011  XXZ=          -9614.6309  XZZ=           7406.6843  YZZ=          -4056.8091
  YYZ=          -8792.2133  XYZ=           4755.5617
 Hexadecapole moment (field-independent basis, Debye-Ang**3):
 XXXX=        -162845.4131 YYYY=         -50441.8228 ZZZZ=        -345731.3496 XXXY=          38036.5724
 XXXZ=         125589.7775 YYYX=          19076.3285 YYYZ=         -10337.9628 ZZZX=         128305.4607
 ZZZY=         -34175.9954 XXYY=         -55026.6409 XXZZ=        -109763.9119 YYZZ=         -96845.5471
 XXYZ=         -42594.7566 YYXZ=          59985.9396 ZZXY=          49735.4481
 N-N= 2.100677299260D+04 E-N=-5.909854835451D+04  KE= 6.765198166422D+03
   1 Symmetry operations used in ECPInt.
 ECPInt:  NShTT=  127765 NPrTT=  468030 LenC2=   96828 LenP2D=  221597.
 LDataN:  DoStor=T MaxTD1= 9 Len=  602
 D1PCM: PCM CHGder 1st derivatives, ID1Alg=3 FixD1E=F DoIter=F DoCFld=F I1PDM=0.
 Calling FoFJK, ICntrl=      2127 FMM=T ISym2X=0 I1Cent= 0 IOpClX= 0 NMat=1 NMatS=1 NMatT=0.
 Defaulting to unpruned grid for atomic number  74.
 Defaulting to unpruned grid for atomic number  74.
 Defaulting to unpruned grid for atomic number  74.
 Defaulting to unpruned grid for atomic number  74.
 Defaulting to unpruned grid for atomic number  74.
 Defaulting to unpruned grid for atomic number  74.
 Defaulting to unpruned grid for atomic number  74.
 Defaulting to unpruned grid for atomic number  74.
 Defaulting to unpruned grid for atomic number  74.
 Defaulting to unpruned grid for atomic number  74.
 Defaulting to unpruned grid for atomic number  74.
 Defaulting to unpruned grid for atomic number  74.
 Defaulting to unpruned grid for atomic number  74.
 Defaulting to unpruned grid for atomic number  74.
 Defaulting to unpruned grid for atomic number  74.
 Defaulting to unpruned grid for atomic number  74.
 Defaulting to unpruned grid for atomic number  74.
 Defaulting to unpruned grid for atomic number  74.
 Defaulting to unpruned grid for atomic number  74.
 Defaulting to unpruned grid for atomic number  74.
 Defaulting to unpruned grid for atomic number  74.
 Defaulting to unpruned grid for atomic number  74.
 Defaulting to unpruned grid for atomic number  74.
 Defaulting to unpruned grid for atomic number  74.
 Defaulting to unpruned grid for atomic number  74.
 Defaulting to unpruned grid for atomic number  74.
 Defaulting to unpruned grid for atomic number  74.
 Defaulting to unpruned grid for atomic number  74.
 Defaulting to unpruned grid for atomic number  74.
 Defaulting to unpruned grid for atomic number  74.
 Defaulting to unpruned grid for atomic number  74.
 Defaulting to unpruned grid for atomic number  74.
 Defaulting to unpruned grid for atomic number  74.
 Defaulting to unpruned grid for atomic number  74.
 Defaulting to unpruned grid for atomic number  74.
 Defaulting to unpruned grid for atomic number  74.
 Defaulting to unpruned grid for atomic number  74.
 Defaulting to unpruned grid for atomic number  74.
 Defaulting to unpruned grid for atomic number  74.
 Defaulting to unpruned grid for atomic number  74.
 Defaulting to unpruned grid for atomic number  74.
 Defaulting to unpruned grid for atomic number  74.
 Defaulting to unpruned grid for atomic number  74.
 Defaulting to unpruned grid for atomic number  74.
 Defaulting to unpruned grid for atomic number  74.
 Defaulting to unpruned grid for atomic number  74.
 Defaulting to unpruned grid for atomic number  74.
 Defaulting to unpruned grid for atomic number  74.
 Defaulting to unpruned grid for atomic number  74.
 Defaulting to unpruned grid for atomic number  74.
 Defaulting to unpruned grid for atomic number  74.
 Defaulting to unpruned grid for atomic number  74.
 Defaulting to unpruned grid for atomic number  74.
 Defaulting to unpruned grid for atomic number  74.
 Defaulting to unpruned grid for atomic number  74.
 Defaulting to unpruned grid for atomic number  74.
 -------------------------------------------------------------------
 Center     Atomic                   Forces (Hartrees/Bohr)
 Number     Number              X              Y              Z
 -------------------------------------------------------------------
      1       17          -0.002448069    0.007253258    0.002289087
      2        6          -0.001398068   -0.000085852   -0.001332205
      3        6          -0.001260249   -0.001348971    0.002529129
      4        6           0.001078036    0.001420832    0.001060077
      5        6           0.000732271    0.000303028    0.000899440
      6        6          -0.000042908   -0.000268061    0.000645748
      7        6          -0.000877232   -0.001063282    0.000493334
      8        1          -0.000039102   -0.000137430   -0.000509929
      9        1          -0.000013933   -0.000202578   -0.000334460
     10        1          -0.000058106   -0.000448900    0.000160200
     11        1          -0.000287712    0.000153396    0.000292704
     12        1           0.000219239   -0.000186566    0.000030794
     13        6           0.009345864    0.008027236   -0.006530096
     14        6          -0.003987051   -0.014507072    0.000289562
     15        1          -0.001082081    0.000528653    0.000287818
     16        1          -0.001322469    0.001158806    0.000530548
     17        1          -0.002116803    0.002452021    0.000386238
     18        8          -0.002966821    0.000585607    0.000626616
     19        8           0.003020059   -0.000986306    0.000677337
     20        8           0.002612743   -0.002703325   -0.000215685
     21        8          -0.002362167    0.001862162   -0.000765231
     22       74           0.001172952    0.008834928   -0.008469839
     23       74          -0.001941326   -0.008733618   -0.008831836
     24       74           0.005724799    0.007432803    0.008755317
     25       74          -0.006032110   -0.006104086    0.008793733
     26       74           0.007278935   -0.006632578   -0.009140746
     27       74          -0.006925046    0.006877565   -0.008475289
     28       74          -0.010238788    0.002828326    0.009021884
     29       74           0.009460857   -0.001619672    0.008987024
     30        8          -0.000245547   -0.002920558    0.002487098
     31        8           0.000165203    0.002794550    0.002420154
     32        8          -0.002245324   -0.002113928   -0.002576314
     33        8           0.002256279    0.001823986   -0.002667487
     34        8          -0.000655096   -0.000855239    0.003347008
     35        8           0.001143392    0.000127478    0.003465708
     36        8           0.000622015   -0.001146889   -0.003409328
     37        8          -0.000155287    0.000851567   -0.003398770
     38        8          -0.003737290   -0.001283592   -0.001052874
     39        8           0.003502744    0.001111856   -0.001089058
     40        8           0.002095631   -0.005969462    0.001574684
     41        8          -0.001291893    0.003757618    0.001183741
     42        8          -0.001723409   -0.003006371    0.001014198
     43        8           0.002155688    0.002657707    0.000770391
     44        8          -0.000445729   -0.003448822   -0.000392024
     45        8           0.001096257    0.003350062   -0.001049305
     46        8          -0.002007111    0.002086507    0.002977138
     47        8           0.002033097   -0.001896135    0.002731826
     48        8           0.003470230   -0.000150261   -0.003474921
     49        8          -0.003074113   -0.000071875   -0.002942532
     50       74           0.012355848    0.004278101    0.002433238
     51       74          -0.012360038   -0.003463265    0.002585510
     52       74          -0.004909398    0.014541047   -0.003130973
     53       74           0.004115621   -0.012398926   -0.002315621
     54        8          -0.000680288    0.001468670    0.002042425
     55        8           0.001007207   -0.001851653    0.001867313
     56        8           0.002010849   -0.000020217   -0.002246665
     57        8          -0.001607234   -0.000618443   -0.002007634
     58        8           0.000491737   -0.002583727    0.001275273
     59        8           0.000318116    0.002275710    0.001620038
     60        8          -0.001416236   -0.001846803   -0.001705840
     61        8           0.001634882    0.001468558   -0.001691768
     62        8          -0.000894311    0.001937353    0.000857329
     63        8           0.000867013   -0.002548908    0.000412878
     64        8           0.002125739    0.000043184   -0.001172085
     65        8          -0.002197925   -0.000632580   -0.000937813
     66        8          -0.023350068   -0.004287281    0.014801587
     67        8           0.023970176    0.004934444    0.014596817
     68        8           0.010523399   -0.022417188   -0.014939270
     69        8          -0.010195024    0.021371738   -0.015087631
     70       19           0.000269773   -0.000684138   -0.000488472
     71       19           0.000758768    0.000334791    0.000464960
     72       19          -0.000650056    0.000103868    0.000550201
     73       23          -0.000394002    0.000207140    0.000145596
 -------------------------------------------------------------------
 Cartesian Forces:  Max     0.023970176 RMS     0.005369801

 GradGradGradGradGradGradGradGradGradGradGradGradGradGradGradGradGradGrad
 Berny optimization.
 Search for a local minimum.
 Step number   1 out of a maximum of    2
 All quantities printed in internal units (Hartrees-Bohrs-Radians)
 Second derivative matrix not updated -- first step.
 ITU=  0
     Eigenvalues ---   -0.00000   0.00000   0.00000   0.00010   0.00091
     Eigenvalues ---    0.00092   0.00257   0.00568   0.00617   0.01645
     Eigenvalues ---    0.01980   0.02890   0.02947   0.03209   0.03406
     Eigenvalues ---    0.03455   0.03709   0.03720   0.04151   0.04501
     Eigenvalues ---    0.04594   0.04594   0.04605   0.04829   0.04846
     Eigenvalues ---    0.05001   0.05347   0.05564   0.05585   0.06354
     Eigenvalues ---    0.06406   0.06531   0.06783   0.06862   0.07047
     Eigenvalues ---    0.07310   0.07371   0.07619   0.08339   0.08406
     Eigenvalues ---    0.08726   0.08752   0.08901   0.08941   0.09750
     Eigenvalues ---    0.09919   0.10106   0.10368   0.10420   0.10490
     Eigenvalues ---    0.10855   0.10896   0.11545   0.11618   0.11990
     Eigenvalues ---    0.12024   0.12086   0.12478   0.12549   0.12702
     Eigenvalues ---    0.12733   0.12771   0.12860   0.13023   0.13110
     Eigenvalues ---    0.13777   0.13908   0.14302   0.14550   0.14764
     Eigenvalues ---    0.16763   0.16801   0.16984   0.17163   0.17572
     Eigenvalues ---    0.17670   0.18602   0.19756   0.19903   0.20221
     Eigenvalues ---    0.20827   0.21032   0.21848   0.21915   0.22062
     Eigenvalues ---    0.22479   0.23071   0.23363   0.23850   0.23878
     Eigenvalues ---    0.24592   0.24707   0.24900   0.25682   0.26014
     Eigenvalues ---    0.26166   0.26400   0.27522   0.27637   0.27851
     Eigenvalues ---    0.28322   0.28365   0.28846   0.29594   0.29987
     Eigenvalues ---    0.30627   0.30659   0.30739   0.30765   0.30809
     Eigenvalues ---    0.30918   0.31180   0.31341   0.31511   0.32316
     Eigenvalues ---    0.32557   0.32654   0.32700   0.32927   0.33476
     Eigenvalues ---    0.33578   0.35233   0.35546   0.35865   0.36847
     Eigenvalues ---    0.37424   0.37621   0.37640   0.38193   0.38484
     Eigenvalues ---    0.38840   0.39228   0.40199   0.40285   0.41410
     Eigenvalues ---    0.42251   0.42361   0.43628   0.43985   0.44934
     Eigenvalues ---    0.45379   0.45607   0.45844   0.47609   0.48152
     Eigenvalues ---    0.48455   0.48825   0.49009   0.49631   0.49703
     Eigenvalues ---    0.49890   0.50608   0.51405   0.51644   0.52319
     Eigenvalues ---    0.53186   0.53684   0.55969   0.58995   0.64393
     Eigenvalues ---    0.67497   0.76934   0.81821   0.83007   0.96832
     Eigenvalues ---    0.97264   0.98979   0.99879   1.02125   1.04437
     Eigenvalues ---    1.07727   1.11821   1.12271   1.12578   1.16320
     Eigenvalues ---    1.19618   1.20093   1.20564   1.22393   1.22920
     Eigenvalues ---    1.23169   1.26170   1.26824   1.27003   1.27244
     Eigenvalues ---    1.27867   1.29410   1.29808   1.45099   1.45871
     Eigenvalues ---    1.45875   1.48371   1.51697   1.52001   1.52123
     Eigenvalues ---    1.52707   1.55657   1.55699   1.56726   1.58420
     Eigenvalues ---    1.58599   1.59602   1.61603   1.65242   1.71741
     Eigenvalues ---    1.80617   1.84892   1.87293   1.90519   1.90766
     Eigenvalues ---    1.97535   2.00921   3.42380
 Eigenvalue     1 is  -1.11D-16 should be greater than     0.000000 Eigenvector:
                          Y10       Y11       Y5        Y6        Y9
   1                    0.17515   0.17515   0.17515   0.17515   0.17515
                          Y4        Y7        Y12       Y3        Y2
   1                    0.17515   0.17515   0.17515   0.17515   0.17515
 Eigenvalue     2 is   2.71D-07 Eigenvector:
                          Y16       X16       X11       Y11       Y14
   1                    0.33951  -0.26330   0.26157  -0.25147   0.24912
                          Y15       Y17       Y13       X14       X6
   1                    0.23609   0.21311   0.19164  -0.18599   0.18250
 Eigenvalue     3 is   2.82D-06 Eigenvector:
                          X9        X10       Y12       Y9        X12
   1                    0.32854   0.29039   0.27835  -0.26112  -0.25461
                          Y8        Y10       X8        X15       Y17
   1                    0.24848  -0.23126  -0.21858   0.21579   0.20943
 Quadratic step=1.467D+01 exceeds max=3.000D-01 adjusted using Lamda=-6.799D-03.
 Angle between NR and scaled steps=  41.50 degrees.
 Angle between quadratic step and forces=  68.69 degrees.
 Linear search not attempted -- first point.
 B after Tr=     0.004357    0.003267    0.002092
         Rot=    1.000000   -0.000169    0.000077    0.000266 Ang=  -0.04 deg.
 Variable       Old X    -DE/DX   Delta X   Delta X   Delta X     New X
                                 (Linear)    (Quad)   (Total)
    X1      -18.86387  -0.00245   0.00000  -0.00240   0.00688 -18.85700
    Y1       14.93663   0.00725   0.00000   0.00735   0.01398  14.95061
    Z1       19.78413   0.00229   0.00000   0.00246   0.00670  19.79083
    X2      -15.69906  -0.00140   0.00000  -0.01298  -0.00792 -15.70698
    Y2        8.01009  -0.00009   0.00000  -0.01816  -0.01433   7.99576
    Z2       23.11881  -0.00133   0.00000  -0.00931  -0.00693  23.11188
    X3      -17.13325  -0.00126   0.00000   0.00053   0.00559 -17.12766
    Y3        7.39934  -0.00135   0.00000  -0.04457  -0.03925   7.36008
    Z3       20.96429   0.00253   0.00000  -0.00804  -0.00609  20.95820
    X4      -18.90605   0.00108   0.00000  -0.00524  -0.00126 -18.90731
    Y4        5.42893   0.00142   0.00000  -0.03123  -0.02504   5.40388
    Z4       21.16027   0.00106   0.00000   0.02098   0.02199  21.18226
    X5      -19.25192   0.00073   0.00000  -0.01050  -0.00755 -19.25946
    Y5        4.12924   0.00030   0.00000  -0.00751  -0.00191   4.12733
    Z5       23.41981   0.00090   0.00000   0.03539   0.03592  23.45573
    X6      -17.81822  -0.00004   0.00000  -0.01570  -0.01273 -17.83095
    Y6        4.76267  -0.00027   0.00000   0.00965   0.01378   4.77645
    Z6       25.54025   0.00065   0.00000   0.03205   0.03302  25.57327
    X7      -16.03862  -0.00088   0.00000  -0.01479  -0.01075 -16.04937
    Y7        6.70454  -0.00106   0.00000   0.00499   0.00824   6.71278
    Z7       25.37591   0.00049   0.00000   0.00767   0.00956  25.38547
    X8      -14.31165  -0.00004   0.00000  -0.00817  -0.00228 -14.31393
    Y8        9.53697  -0.00014   0.00000  -0.02323  -0.02011   9.51686
    Z8       23.04526  -0.00051   0.00000  -0.02849  -0.02538  23.01987
    X9      -20.03464  -0.00001   0.00000  -0.00070   0.00326 -20.03138
    Y9        4.92778  -0.00020   0.00000  -0.04891  -0.04157   4.88621
    Z9       19.50351  -0.00033   0.00000   0.02204   0.02271  19.52621
   X10      -20.64446  -0.00006   0.00000  -0.00942  -0.00729 -20.65175
   Y10        2.60892  -0.00045   0.00000  -0.00881  -0.00251   2.60641
   Z10       23.52514   0.00016   0.00000   0.04529   0.04509  23.57023
   X11      -18.06578  -0.00029   0.00000  -0.01995  -0.01779 -18.08358
   Y11        3.73024   0.00015   0.00000   0.02823   0.03189   3.76213
   Z11       27.30967   0.00029   0.00000   0.04247   0.04306  27.35273
   X12      -14.91311   0.00022   0.00000  -0.00821  -0.00415 -14.91726
   Y12        7.21496  -0.00019   0.00000   0.01632   0.01841   7.23337
   Z12       27.03118   0.00003   0.00000   0.00018   0.00242  27.03360
   X13      -16.88536   0.00935   0.00000   0.03046   0.03658 -16.84877
   Y13        8.74284   0.00803   0.00000  -0.09366  -0.08767   8.65517
   Z13       18.55819  -0.00653   0.00000  -0.04283  -0.04040  18.51779
   X14      -15.33536  -0.00399   0.00000  -0.00556   0.00168 -15.33368
   Y14       10.70060  -0.01451   0.00000  -0.09412  -0.08877  10.61183
   Z14       18.08634   0.00029   0.00000  -0.04954  -0.04622  18.04012
   X15      -18.11125  -0.00108   0.00000   0.02347   0.02946 -18.08180
   Y15        8.06257   0.00053   0.00000  -0.10246  -0.09531   7.96726
   Z15       17.03517   0.00029   0.00000  -0.03295  -0.03094  17.00423
   X16      -15.24445  -0.00132   0.00000  -0.03191  -0.02393 -15.26838
   Y16       11.55149   0.00116   0.00000  -0.07882  -0.07288  11.47861
   Z16       16.21024   0.00053   0.00000  -0.04350  -0.03988  16.17036
   X17      -13.96745  -0.00212   0.00000  -0.07712  -0.06969 -14.03713
   Y17       11.38302   0.00245   0.00000   0.00212   0.00630  11.38932
   Z17       19.47366   0.00039   0.00000  -0.02562  -0.02184  19.45182
   X18       -1.90981  -0.00297   0.00000  -0.01404  -0.01363  -1.92344
   Y18       -3.33167   0.00059   0.00000  -0.00325  -0.00372  -3.33538
   Z18       14.09697   0.00063   0.00000   0.00792   0.00859  14.10555
   X19      -15.89471   0.00302   0.00000   0.01506   0.01592 -15.87879
   Y19       -2.50395  -0.00099   0.00000   0.01278   0.01974  -2.48422
   Z19       14.10737   0.00068   0.00000   0.00811   0.00693  14.11429
   X20      -13.33697   0.00261   0.00000   0.01851   0.02118 -13.31579
   Y20        2.53815  -0.00270   0.00000  -0.00320   0.00046   2.53862
   Z20       19.81891  -0.00022   0.00000  -0.00416  -0.00325  19.81566
   X21       -4.40776  -0.00236   0.00000  -0.01419  -0.01727  -4.42502
   Y21       -8.22136   0.00186   0.00000   0.01035   0.00924  -8.21212
   Z21       19.95697  -0.00077   0.00000  -0.00998  -0.01134  19.94563
   X22       -6.47090   0.00117   0.00000  -0.00028   0.00295  -6.46795
   Y22        1.40348   0.00883   0.00000   0.01108   0.01365   1.41712
   Z22       12.27412  -0.00847   0.00000  -0.00623  -0.00465  12.26947
   X23      -11.36113  -0.00194   0.00000   0.00324   0.00184 -11.35929
   Y23       -7.23395  -0.00873   0.00000   0.00162   0.00673  -7.22722
   Z23       12.44228  -0.00883   0.00000  -0.00554  -0.00763  12.43464
   X24       -6.86549   0.00572   0.00000   0.01865   0.02062  -6.84486
   Y24        1.73390   0.00743   0.00000  -0.00080  -0.00117   1.73273
   Z24       21.55941   0.00876   0.00000   0.00712   0.00875  21.56816
   X25      -10.92115  -0.00603   0.00000  -0.01481  -0.01766 -10.93881
   Y25       -7.31140  -0.00610   0.00000   0.01025   0.01203  -7.29938
   Z25       21.67952   0.00879   0.00000   0.00349   0.00144  21.68095
   X26       -4.66869   0.00728   0.00000  -0.00185  -0.00191  -4.67061
   Y26       -4.81254  -0.00663   0.00000  -0.00984  -0.00816  -4.82070
   Z26       12.05699  -0.00914   0.00000  -0.00417  -0.00442  12.05256
   X27      -13.12664  -0.00693   0.00000   0.00146   0.00345 -13.12318
   Y27       -1.01119   0.00688   0.00000   0.02283   0.02904  -0.98215
   Z27       11.99783  -0.00848   0.00000  -0.00381  -0.00407  11.99376
   X28      -12.90219  -0.01024   0.00000  -0.00324  -0.00249 -12.90468
   Y28       -0.47444   0.00283   0.00000   0.00372   0.00646  -0.46798
   Z28       21.90968   0.00902   0.00000   0.00418   0.00414  21.91381
   X29       -4.86154   0.00946   0.00000   0.00710   0.00537  -4.85617
   Y29       -5.09158  -0.00162   0.00000   0.00506   0.00350  -5.08808
   Z29       21.97673   0.00899   0.00000   0.00265   0.00228  21.97900
   X30       -6.04375  -0.00025   0.00000   0.01824   0.02300  -6.02074
   Y30        3.67525  -0.00292   0.00000  -0.00132   0.00175   3.67700
   Z30       10.07684   0.00249   0.00000  -0.00527  -0.00286  10.07398
   X31      -11.61150   0.00017   0.00000  -0.01168  -0.01401 -11.62551
   Y31       -9.60408   0.00279   0.00000   0.00911   0.01510  -9.58899
   Z31       10.29256   0.00242   0.00000  -0.00234  -0.00527  10.28729
   X32       -5.12449  -0.00225   0.00000   0.00693   0.00943  -5.11506
   Y32        3.34831  -0.00211   0.00000   0.00067  -0.00135   3.34696
   Z32       23.72087  -0.00258   0.00000   0.00473   0.00716  23.72803
   X33      -12.64631   0.00226   0.00000  -0.00321  -0.00723 -12.65353
   Y33       -8.85363   0.00182   0.00000   0.00737   0.00930  -8.84432
   Z33       23.90440  -0.00267   0.00000   0.00048  -0.00236  23.90205
   X34       -5.09751  -0.00066   0.00000  -0.00499  -0.00313  -5.10064
   Y34       -1.63905  -0.00086   0.00000  -0.00399  -0.00157  -1.64062
   Z34       10.55367   0.00335   0.00000   0.01286   0.01361  10.56729
   X35      -12.69374   0.00114   0.00000   0.00853   0.00898 -12.68477
   Y35       -4.29022   0.00013   0.00000   0.01533   0.02175  -4.26846
   Z35       10.63300   0.00347   0.00000   0.01371   0.01241  10.64541
   X36      -10.05938   0.00062   0.00000   0.01025   0.01159 -10.04779
   Y36        1.06744  -0.00115   0.00000  -0.00661  -0.00588   1.06156
   Z36       23.37684  -0.00341   0.00000  -0.01071  -0.00980  23.36704
   X37       -7.68536  -0.00016   0.00000  -0.00487  -0.00763  -7.69299
   Y37       -6.63350   0.00085   0.00000   0.01201   0.01146  -6.62204
   Z37       23.45890  -0.00340   0.00000  -0.01401  -0.01533  23.44357
   X38        0.55820  -0.00374   0.00000   0.00695   0.00860   0.56681
   Y38       -0.00521  -0.00128   0.00000  -0.00836  -0.01131  -0.01653
   Z38       17.52362  -0.00105   0.00000  -0.00316  -0.00099  17.52263
   X39      -18.36457   0.00350   0.00000  -0.00589  -0.00726 -18.37183
   Y39       -5.69826   0.00111   0.00000   0.01913   0.02622  -5.67203
   Z39       17.63161  -0.00109   0.00000  -0.00350  -0.00615  17.62546
   X40      -12.07897   0.00210   0.00000   0.01731   0.02260 -12.05637
   Y40        6.45689  -0.00597   0.00000   0.01018   0.01436   6.47125
   Z40       16.31127   0.00157   0.00000   0.01426   0.01669  16.32796
   X41       -5.60316  -0.00129   0.00000  -0.00845  -0.01312  -5.61628
   Y41      -12.18921   0.00376   0.00000   0.00100   0.00167 -12.18753
   Z41       16.53175   0.00118   0.00000   0.00285  -0.00004  16.53171
   X42       -3.42069  -0.00172   0.00000  -0.00588  -0.00291  -3.42360
   Y42        1.48297  -0.00301   0.00000  -0.01015  -0.00984   1.47313
   Z42       14.14255   0.00101   0.00000   0.00709   0.00915  14.15170
   X43      -14.38635   0.00216   0.00000   0.00896   0.00724 -14.37911
   Y43       -7.32932   0.00266   0.00000   0.02015   0.02625  -7.30308
   Z43       14.28787   0.00077   0.00000   0.00649   0.00391  14.29177
   X44       -8.56857  -0.00045   0.00000   0.01306   0.01662  -8.55195
   Y44        4.19535  -0.00345   0.00000  -0.01247  -0.01130   4.18405
   Z44       19.70206  -0.00039   0.00000  -0.00076   0.00143  19.70349
   X45       -9.19583   0.00110   0.00000  -0.00976  -0.01369  -9.20951
   Y45       -9.85463   0.00335   0.00000   0.02173   0.02319  -9.83144
   Z45       19.88647  -0.00105   0.00000  -0.00941  -0.01205  19.87441
   X46       -3.09676  -0.00201   0.00000  -0.00031  -0.00096  -3.09772
   Y46       -6.56254   0.00209   0.00000  -0.00030   0.00129  -6.56125
   Z46        9.87137   0.00298   0.00000   0.00025  -0.00035   9.87102
   X47      -14.79289   0.00203   0.00000  -0.00474  -0.00161 -14.79449
   Y47        0.50276  -0.00190   0.00000   0.01042   0.01827   0.52103
   Z47        9.73910   0.00273   0.00000   0.00248   0.00248   9.74158
   X48      -15.19078   0.00347   0.00000   0.00353   0.00401 -15.18677
   Y48       -0.32498  -0.00015   0.00000   0.01681   0.02001  -0.30497
   Z48       24.15109  -0.00347   0.00000  -0.00169  -0.00204  24.14905
   X49       -2.53092  -0.00307   0.00000  -0.00000  -0.00219  -2.53310
   Y49       -5.30609  -0.00007   0.00000  -0.01017  -0.01372  -5.31980
   Z49       24.17463  -0.00294   0.00000  -0.00200  -0.00209  24.17254
   X50       -2.39254   0.01236   0.00000   0.00835   0.00962  -2.38292
   Y50       -0.97573   0.00428   0.00000   0.00063  -0.00048  -0.97621
   Z50       16.71177   0.00243   0.00000   0.00932   0.01072  16.72248
   X51      -15.41870  -0.01236   0.00000  -0.00676  -0.00750 -15.42621
   Y51       -4.74246  -0.00346   0.00000   0.01096   0.01677  -4.72569
   Z51       16.78530   0.00259   0.00000   0.00951   0.00764  16.79294
   X52      -11.20660  -0.00491   0.00000   0.00948   0.01309 -11.19351
   Y52        3.49908   0.01454   0.00000   0.01511   0.01857   3.51766
   Z52       17.09254  -0.00313   0.00000  -0.00565  -0.00409  17.08845
   X53       -6.55652   0.00412   0.00000  -0.00695  -0.01016  -6.56668
   Y53       -9.22637  -0.01240   0.00000  -0.00292  -0.00200  -9.22837
   Z53       17.32199  -0.00232   0.00000  -0.01065  -0.01269  17.30930
   X54       -8.00867  -0.00068   0.00000  -0.00051  -0.00103  -8.00970
   Y54       -5.84387   0.00147   0.00000  -0.00312   0.00054  -5.84333
   Z54       11.47270   0.00204   0.00000  -0.00567  -0.00678  11.46592
   X55       -9.78391   0.00101   0.00000   0.00181   0.00440  -9.77950
   Y55       -0.05559  -0.00185   0.00000   0.01496   0.01960  -0.03599
   Z55       11.36119   0.00187   0.00000  -0.00533  -0.00475  11.35643
   X56      -11.69413   0.00201   0.00000  -0.00643  -0.00754 -11.70167
   Y56       -3.78056  -0.00002   0.00000   0.00561   0.00750  -3.77306
   Z56       22.53284  -0.00225   0.00000   0.00377   0.00279  22.53563
   X57       -6.02236  -0.00161   0.00000   0.01127   0.01121  -6.01115
   Y57       -1.79573  -0.00062   0.00000   0.00236   0.00121  -1.79452
   Z57       22.54896  -0.00201   0.00000   0.00553   0.00609  22.55505
   X58       -8.29735   0.00049   0.00000   0.00651   0.01020  -8.28715
   Y58        3.01292  -0.00258   0.00000   0.01106   0.01373   3.02665
   Z58       14.82967   0.00128   0.00000  -0.00454  -0.00270  14.82696
   X59       -9.46038   0.00032   0.00000  -0.00227  -0.00492  -9.46530
   Y59       -8.83451   0.00228   0.00000  -0.00030   0.00295  -8.83155
   Z59       14.98031   0.00162   0.00000  -0.00609  -0.00844  14.97188
   X60       -4.42527  -0.00142   0.00000   0.01495   0.01699  -4.40828
   Y60        1.13702  -0.00185   0.00000  -0.00067  -0.00148   1.13554
   Z60       19.05125  -0.00171   0.00000   0.00628   0.00808  19.05932
   X61      -13.35605   0.00163   0.00000  -0.01222  -0.01443 -13.37048
   Y61       -6.82328   0.00147   0.00000   0.01126   0.01517  -6.80811
   Z61       19.16327  -0.00169   0.00000   0.00445   0.00219  19.16546
   X62       -4.87693  -0.00089   0.00000  -0.00347  -0.00529  -4.88221
   Y62       -7.31596   0.00194   0.00000  -0.00535  -0.00450  -7.32046
   Z62       14.85142   0.00086   0.00000  -0.00673  -0.00786  14.84356
   X63      -12.93299   0.00087   0.00000   0.00512   0.00801 -12.92498
   Y63        1.48840  -0.00255   0.00000   0.01723   0.02240   1.51080
   Z63       14.74595   0.00041   0.00000  -0.00484  -0.00423  14.74173
   X64      -14.82601   0.00213   0.00000  -0.00455  -0.00431 -14.83032
   Y64       -2.21886   0.00004   0.00000   0.01012   0.01480  -2.20406
   Z64       19.20225  -0.00117   0.00000   0.00567   0.00474  19.20699
   X65       -2.97482  -0.00220   0.00000   0.00662   0.00619  -2.96864
   Y65       -3.46589  -0.00063   0.00000  -0.00037  -0.00200  -3.46789
   Z65       19.18603  -0.00094   0.00000   0.00498   0.00544  19.19147
   X66       -6.39859  -0.02335   0.00000  -0.04068  -0.03979  -6.43838
   Y66       -2.13468  -0.00429   0.00000  -0.00352  -0.00194  -2.13662
   Z66       15.14767   0.01480   0.00000   0.02393   0.02431  15.17198
   X67      -11.40157   0.02397   0.00000   0.04185   0.04192 -11.35965
   Y67       -3.68591   0.00493   0.00000   0.01776   0.02193  -3.66398
   Z67       15.20064   0.01460   0.00000   0.02444   0.02355  15.22420
   X68       -9.70915   0.01052   0.00000   0.02497   0.02623  -9.68292
   Y68       -0.37457  -0.02242   0.00000  -0.03209  -0.03000  -0.40457
   Z68       18.80545  -0.01494   0.00000  -0.02535  -0.02488  18.78057
   X69       -8.03421  -0.01020   0.00000  -0.02135  -0.02270  -8.05691
   Y69       -5.33354   0.02137   0.00000   0.04147   0.04267  -5.29087
   Z69       18.85856  -0.01509   0.00000  -0.02641  -0.02734  18.83122
   X70       -6.10990   0.00027   0.00000  -0.00457  -0.00802  -6.11792
   Y70      -11.56607  -0.00068   0.00000  -0.00455  -0.00164 -11.56771
   Z70       10.70511  -0.00049   0.00000  -0.00668  -0.00944  10.69568
   X71       -0.28196   0.00076   0.00000   0.01336   0.01418  -0.26778
   Y71        0.07600   0.00033   0.00000  -0.00240  -0.00687   0.06914
   Z71       23.33910   0.00046   0.00000   0.00616   0.00824  23.34734
   X72      -17.51806  -0.00065   0.00000  -0.00986  -0.01205 -17.53011
   Y72       -5.53422   0.00010   0.00000   0.01336   0.01804  -5.51619
   Z72       23.45466   0.00055   0.00000   0.00571   0.00325  23.45791
   X73       -8.89009  -0.00039   0.00000   0.00063   0.00085  -8.88924
   Y73       -2.87485   0.00021   0.00000   0.00606   0.00832  -2.86652
   Z73       16.99817   0.00015   0.00000  -0.00065  -0.00089  16.99728
         Item               Value     Threshold  Converged?
 Maximum Force            0.023970     0.000450     NO 
 RMS     Force            0.005370     0.000300     NO 
 Maximum Displacement     0.095309     0.001800     NO 
 RMS     Displacement     0.020041     0.001200     NO 
 Predicted change in Energy=-4.528098D-03
 GradGradGradGradGradGradGradGradGradGradGradGradGradGradGradGradGradGrad

 Unable to Open any file for archive entry.
 1\1\GINC-X11P1N2\Force\RwB97XD\def2SVP\C8H8Cl1K3O40V1W12(1-)\MAYUMIAO\
 01-Jun-2024\0\\# def2svp wb97xd scrf=(smd,solvent=acetonitrile) g09def
 ault scf=(xqc,maxcycle=64) force guess=read nosymm\\Title Card\\-1,1\C
 l,-9.98233167,7.90412551,10.46931092\C,-8.30758439,4.23875903,12.23394
 68\C,-9.06652751,3.9155607,11.09382384\C,-10.00465042,2.87286358,11.19
 753184\C,-10.18767645,2.18509896,12.39323118\C,-9.42899513,2.52029558,
 13.51531609\C,-8.48727256,3.54789033,13.42835306\H,-7.57340086,5.04674
 805,12.19502431\H,-10.60187398,2.60766787,10.32081163\H,-10.92457914,1
 .38058087,12.44896679\H,-9.56000131,1.97395544,14.45165269\H,-7.891677
 95,3.81799447,14.30428581\C,-8.9353453,4.62650946,9.82057057\C,-8.1151
 2067,5.66251245,9.57088078\H,-9.58406276,4.2665273,9.01462335\H,-8.067
 01595,6.11278431,8.57809039\H,-7.39125415,6.02363523,10.30501497\O,-1.
 01062996,-1.76304176,7.45979454\O,-8.41111815,-1.32503393,7.46529731\O
 ,-7.05761884,1.34313174,10.4877168\O,-2.33248372,-4.35055896,10.560771
 44\W,-3.42425306,0.74268802,6.49518412\W,-6.01205082,-3.82804407,6.584
 16984\W,-3.63305893,0.91754236,11.40874968\W,-5.77922318,-3.869027,11.
 47230624\W,-2.47056645,-2.54668557,6.38028229\W,-6.9463163,-0.53509647
 ,6.34897751\W,-6.82754459,-0.2510603,11.59410209\W,-2.57261674,-2.6943
 4554,11.6295823\O,-3.19821364,1.94485619,5.33243381\O,-6.14454362,-5.0
 8226182,5.44658697\O,-2.71176257,1.7718506,12.55254356\O,-6.69213715,-
 4.68513668,12.64966474\O,-2.69748835,-0.86734591,5.58476345\O,-6.71723
 838,-2.2702841,5.62674046\O,-5.32319211,0.56486723,12.37049217\O,-4.06
 691797,-3.5102947,12.41391586\O,0.29538919,-0.00275887,9.27310116\O,-9
 .71810996,-3.01538835,9.33024499\O,-6.39191507,3.41683733,8.63155291\O
 ,-2.96506513,-6.45024958,8.74822698\O,-1.81014925,0.78475572,7.4839160
 1\O,-7.61292841,-3.87851015,7.56081448\O,-4.5342932,2.22008162,10.4258
 799\O,-4.8662218,-5.2148453,10.52346426\O,-1.63873309,-3.47274438,5.22
 370654\O,-7.82805788,0.26604846,5.15371173\O,-8.03861506,-0.17197165,1
 2.78020443\O,-1.33930288,-2.80786041,12.79266572\W,-1.2660775,-0.51633
 44,8.84348533\W,-8.15922711,-2.50960018,8.88239594\W,-5.93027879,1.851
 636,9.04498218\W,-3.46955865,-4.8823848,9.16640021\O,-4.23800612,-3.09
 244377,6.07109194\O,-5.17741984,-0.02941664,6.01208134\O,-6.18826899,-
 2.00058512,11.92386525\O,-3.18689428,-0.95026189,11.93239558\O,-4.3907
 6775,1.59437011,7.84752166\O,-5.00621721,-4.67501976,7.92724007\O,-2.3
 4175349,0.60168761,10.08148582\O,-7.06771851,-3.61072668,10.14076496\O
 ,-2.58075937,-3.87143994,7.85903124\O,-6.84384328,0.78762581,7.8032226
 6\O,-7.84558717,-1.17417268,10.16139412\O,-1.57420911,-1.83407208,10.1
 5280952\O,-3.38599,-1.1296245,8.01580118\O,-6.03344995,-1.95049933,8.0
 4383465\O,-5.13786206,-0.19821241,9.95141676\O,-4.25152172,-2.82238882
 ,9.9795193\K,-3.23322206,-6.12050041,5.66490175\K,-0.14920662,0.040218
 96,12.35052068\K,-9.27015795,-2.92858444,12.41167204\V,-4.70443321,-1.
 52130253,8.99504455\\Version=ES64L-G16RevC.01\HF=-7327.7001689\RMSD=5.
 343e-09\RMSF=5.370e-03\Dipole=10.6505512,-21.6298973,2.5349208\Quadrup
 ole=-92.0591769,62.3693973,29.6897797,335.838785,346.0846391,-348.0856
 327\PG=C01 [X(C8H8Cl1K3O40V1W12)]\\@
 The archive entry for this job was punched.


 A MAN THINKING OR WORKING IS ALWAYS ALONE, 
 LET HIM BE WHERE HE WILL.

                                    -- THOREAU
 Job cpu time:       0 days  9 hours  8 minutes 32.0 seconds.
 Elapsed time:       0 days  0 hours 10 minutes 23.3 seconds.
 File lengths (MBytes):  RWF=   1250 Int=      0 D2E=      0 Chk=    249 Scr=      1
 Normal termination of Gaussian 16 at Sat Jun  1 22:11:43 2024.
