 Entering Gaussian System, Link 0=g16
 Input=JOBS/19_B.gjf
 Output=JOBS/19_B.log
 Initial command:
 /data/app/gaussian/C01-avx2//g16/l1.exe "/tmp/Gau-611721.inp" -scrdir="/tmp/"
 Entering Link 1 = /data/app/gaussian/C01-avx2//g16/l1.exe PID=    611722.
  
 Copyright (c) 1988-2019, Gaussian, Inc.  All Rights Reserved.
  
 This is part of the Gaussian(R) 16 program.  It is based on
 the Gaussian(R) 09 system (copyright 2009, Gaussian, Inc.),
 the Gaussian(R) 03 system (copyright 2003, Gaussian, Inc.),
 the Gaussian(R) 98 system (copyright 1998, Gaussian, Inc.),
 the Gaussian(R) 94 system (copyright 1995, Gaussian, Inc.),
 the Gaussian 92(TM) system (copyright 1992, Gaussian, Inc.),
 the Gaussian 90(TM) system (copyright 1990, Gaussian, Inc.),
 the Gaussian 88(TM) system (copyright 1988, Gaussian, Inc.),
 the Gaussian 86(TM) system (copyright 1986, Carnegie Mellon
 University), and the Gaussian 82(TM) system (copyright 1983,
 Carnegie Mellon University). Gaussian is a federally registered
 trademark of Gaussian, Inc.
  
 This software contains proprietary and confidential information,
 including trade secrets, belonging to Gaussian, Inc.
  
 This software is provided under written license and may be
 used, copied, transmitted, or stored only in accord with that
 written license.
  
 The following legend is applicable only to US Government
 contracts under FAR:
  
                    RESTRICTED RIGHTS LEGEND
  
 Use, reproduction and disclosure by the US Government is
 subject to restrictions as set forth in subparagraphs (a)
 and (c) of the Commercial Computer Software - Restricted
 Rights clause in FAR 52.227-19.
  
 Gaussian, Inc.
 340 Quinnipiac St., Bldg. 40, Wallingford CT 06492
  
  
 ---------------------------------------------------------------
 Warning -- This program may not be used in any manner that
 competes with the business of Gaussian, Inc. or will provide
 assistance to any competitor of Gaussian, Inc.  The licensee
 of this program is prohibited from giving any competitor of
 Gaussian, Inc. access to this program.  By using this program,
 the user acknowledges that Gaussian, Inc. is engaged in the
 business of creating and licensing software in the field of
 computational chemistry and represents and warrants to the
 licensee that it is not a competitor of Gaussian, Inc. and that
 it will not use this program in any manner prohibited above.
 ---------------------------------------------------------------
  

 Cite this work as:
 Gaussian 16, Revision C.01,
 M. J. Frisch, G. W. Trucks, H. B. Schlegel, G. E. Scuseria, 
 M. A. Robb, J. R. Cheeseman, G. Scalmani, V. Barone, 
 G. A. Petersson, H. Nakatsuji, X. Li, M. Caricato, A. V. Marenich, 
 J. Bloino, B. G. Janesko, R. Gomperts, B. Mennucci, H. P. Hratchian, 
 J. V. Ortiz, A. F. Izmaylov, J. L. Sonnenberg, D. Williams-Young, 
 F. Ding, F. Lipparini, F. Egidi, J. Goings, B. Peng, A. Petrone, 
 T. Henderson, D. Ranasinghe, V. G. Zakrzewski, J. Gao, N. Rega, 
 G. Zheng, W. Liang, M. Hada, M. Ehara, K. Toyota, R. Fukuda, 
 J. Hasegawa, M. Ishida, T. Nakajima, Y. Honda, O. Kitao, H. Nakai, 
 T. Vreven, K. Throssell, J. A. Montgomery, Jr., J. E. Peralta, 
 F. Ogliaro, M. J. Bearpark, J. J. Heyd, E. N. Brothers, K. N. Kudin, 
 V. N. Staroverov, T. A. Keith, R. Kobayashi, J. Normand, 
 K. Raghavachari, A. P. Rendell, J. C. Burant, S. S. Iyengar, 
 J. Tomasi, M. Cossi, J. M. Millam, M. Klene, C. Adamo, R. Cammi, 
 J. W. Ochterski, R. L. Martin, K. Morokuma, O. Farkas, 
 J. B. Foresman, and D. J. Fox, Gaussian, Inc., Wallingford CT, 2019.
 
 ******************************************
 Gaussian 16:  ES64L-G16RevC.01  3-Jul-2019
                 1-Jun-2024 
 ******************************************
 %chk=b.chk
 %nprocshared=56
 Will use up to   56 processors via shared memory.
 %mem=96gb
 ----------------------------------------------------------------------
 # def2svp wb97xd scrf=(smd,solvent=acetonitrile) g09default scf=(xqc,m
 axcycle=64) force guess=read nosymm
 ----------------------------------------------------------------------
 1/10=7,30=1,38=1,158=3,167=1/1,3;
 2/12=2,15=1,17=6,18=5,40=1/2;
 3/5=43,7=101,11=2,25=1,27=10,30=1,70=32201,71=1,72=2,74=-58,75=-4,116=-2,158=3/1,2,3;
 4/5=1,60=-1/1;
 5/5=2,7=64,8=3,13=1,38=6,53=2,87=10/2,8;
 6/7=2,8=2,9=2,10=2,28=1,87=10/1;
 7/29=1,30=1,87=10/1,2,3,16;
 1/10=7,30=1,158=3,167=1/3;
 99//99;
 Using 2006 physical constants.
 ----------
 Title Card
 ----------
 Symbolic Z-matrix:
 Charge = -1 Multiplicity = 1
 17                   -9.98292   7.9153    10.47243 
 6                    -8.30791   4.23872   12.23347 
 6                    -9.068     3.91553   11.09438 
 6                    -10.00498   2.87218   11.19781 
 6                    -10.18727   2.18463   12.39324 
 6                    -9.42873   2.52004   13.51487 
 6                    -8.48702   3.54747   13.42813 
 1                    -7.57293   5.04571   12.19398 
 1                    -10.6019   2.60592   10.32062 
 1                    -10.92506   1.38043   12.45006 
 1                    -9.56077   1.97506   14.45208 
 1                    -7.89198   3.81819   14.30398 
 6                    -8.93723   4.62739   9.8211 
 6                    -8.11777   5.66353   9.5715 
 1                    -9.58376   4.26471   9.01477 
 1                    -8.06905   6.11266   8.57792 
 1                    -7.39402   6.02631   10.30483 
 8                    -1.01035  -1.7625    7.45912 
 8                    -8.41136  -1.32571   7.46468 
 8                    -7.05651   1.34364   10.48799 
 8                    -2.33265  -4.35135   10.56112 
 74                   -3.42358   0.7422    6.49432 
 74                   -6.0121   -3.82878   6.58357 
 74                   -3.63237   0.91787   11.40953 
 74                   -5.77956  -3.86915   11.47263 
 74                   -2.47053  -2.54704   6.38043 
 74                   -6.94563  -0.53565   6.34926 
 74                   -6.82727  -0.25082   11.59367 
 74                   -2.57279  -2.69456   11.6295 
 8                    -3.19684   1.94363   5.3307 
 8                    -6.1455   -5.08181   5.44474 
 8                    -2.71271   1.77197   12.55445 
 8                    -6.69092  -4.6858    12.65106 
 8                    -2.69682  -0.86766   5.58479 
 8                    -6.71745  -2.27056   5.62701 
 8                    -5.32304   0.56527   12.36994 
 8                    -4.06661  -3.51092   12.41341 
 8                     0.29574  -0.00194   9.27226 
 8                    -9.71865  -3.01633   9.32912 
 8                    -6.39057   3.41712   8.63299 
 8                    -2.96564  -6.45108   8.74929 
 8                    -1.80956   0.7838    7.48307 
 8                    -7.61303  -3.87805   7.56017 
 8                    -4.53409   2.21988   10.42645 
 8                    -4.86563  -5.21442   10.52391 
 8                    -1.63712  -3.4729    5.22435 
 8                    -7.82953   0.26551   5.1546 
 8                    -8.039    -0.1701    12.77898 
 8                    -1.33875  -2.81011   12.7921 
 74                   -1.26605  -0.51659   8.8431 
 74                   -8.15895  -2.50949   8.88168 
 74                   -5.92931   1.85158   9.04499 
 74                   -3.46945  -4.88263   9.1669 
 8                    -4.23811  -3.0921    6.07092 
 8                    -5.17681  -0.02994   6.0114 
 8                    -6.18766  -2.00046   11.92372 
 8                    -3.18704  -0.95047   11.93288 
 8                    -4.38959   1.59302   7.84794 
 8                    -5.00663  -4.67504   7.92703 
 8                    -2.34189   0.60172   10.08153 
 8                    -7.06744  -3.61111   10.14061 
 8                    -2.58081  -3.87147   7.85927 
 8                    -6.84305   0.7871    7.80346 
 8                    -7.84515  -1.17418   10.16082 
 8                    -1.57455  -1.83431   10.15238 
 8                    -3.38546  -1.1299    8.01536 
 8                    -6.03362  -1.9503    8.0431 
 8                    -5.13782  -0.19789   9.95145 
 8                    -4.25124  -2.82279   9.97958 
 19                   -3.23275  -6.122     5.66383 
 19                   -0.1476    0.04109   12.35158 
 19                   -9.27169  -2.9282    12.41324 
 23                   -4.70437  -1.52148   8.99476 
 

 GradGradGradGradGradGradGradGradGradGradGradGradGradGradGradGradGradGrad
 Berny optimization.
 Initialization pass.
 Trust Radius=3.00D-01 FncErr=1.00D-07 GrdErr=1.00D-07 EigMax=2.50D+02 EigMin=1.00D-04
 Number of steps in this run=      2 maximum allowed number of steps=      2.
 GradGradGradGradGradGradGradGradGradGradGradGradGradGradGradGradGradGrad

 Symmetry turned off by external request.
 Stoichiometry    C8H8ClK3O40VW12(1-)
 Framework group  C1[X(C8H8ClK3O40VW12)]
 Deg. of freedom   213
 Full point group                 C1      NOp   1
                          Input orientation:                          
 ---------------------------------------------------------------------
 Center     Atomic      Atomic             Coordinates (Angstroms)
 Number     Number       Type             X           Y           Z
 ---------------------------------------------------------------------
      1         17           0       -9.982923    7.915299   10.472426
      2          6           0       -8.307912    4.238722   12.233468
      3          6           0       -9.067998    3.915526   11.094377
      4          6           0      -10.004982    2.872181   11.197810
      5          6           0      -10.187266    2.184630   12.393239
      6          6           0       -9.428729    2.520043   13.514872
      7          6           0       -8.487017    3.547470   13.428128
      8          1           0       -7.572931    5.045710   12.193977
      9          1           0      -10.601905    2.605919   10.320619
     10          1           0      -10.925057    1.380428   12.450058
     11          1           0       -9.560766    1.975062   14.452081
     12          1           0       -7.891979    3.818191   14.303981
     13          6           0       -8.937228    4.627391    9.821103
     14          6           0       -8.117773    5.663533    9.571498
     15          1           0       -9.583760    4.264713    9.014775
     16          1           0       -8.069051    6.112658    8.577923
     17          1           0       -7.394019    6.026305   10.304834
     18          8           0       -1.010353   -1.762501    7.459121
     19          8           0       -8.411361   -1.325711    7.464676
     20          8           0       -7.056515    1.343640   10.487994
     21          8           0       -2.332650   -4.351349   10.561122
     22         74           0       -3.423579    0.742204    6.494318
     23         74           0       -6.012104   -3.828784    6.583568
     24         74           0       -3.632368    0.917874   11.409532
     25         74           0       -5.779564   -3.869153   11.472626
     26         74           0       -2.470530   -2.547044    6.380433
     27         74           0       -6.945629   -0.535651    6.349258
     28         74           0       -6.827270   -0.250815   11.593667
     29         74           0       -2.572786   -2.694559   11.629502
     30          8           0       -3.196845    1.943633    5.330700
     31          8           0       -6.145504   -5.081805    5.444744
     32          8           0       -2.712710    1.771966   12.554451
     33          8           0       -6.690924   -4.685802   12.651059
     34          8           0       -2.696823   -0.867661    5.584786
     35          8           0       -6.717454   -2.270560    5.627006
     36          8           0       -5.323041    0.565273   12.369938
     37          8           0       -4.066606   -3.510918   12.413407
     38          8           0        0.295740   -0.001935    9.272263
     39          8           0       -9.718646   -3.016333    9.329125
     40          8           0       -6.390570    3.417118    8.632985
     41          8           0       -2.965638   -6.451082    8.749285
     42          8           0       -1.809561    0.783803    7.483073
     43          8           0       -7.613029   -3.878051    7.560166
     44          8           0       -4.534086    2.219883   10.426452
     45          8           0       -4.865631   -5.214423   10.523907
     46          8           0       -1.637124   -3.472900    5.224349
     47          8           0       -7.829530    0.265510    5.154602
     48          8           0       -8.039001   -0.170102   12.778982
     49          8           0       -1.338745   -2.810115   12.792100
     50         74           0       -1.266049   -0.516594    8.843098
     51         74           0       -8.158953   -2.509488    8.881675
     52         74           0       -5.929311    1.851585    9.044993
     53         74           0       -3.469451   -4.882629    9.166896
     54          8           0       -4.238108   -3.092097    6.070917
     55          8           0       -5.176812   -0.029938    6.011397
     56          8           0       -6.187663   -2.000458   11.923721
     57          8           0       -3.187040   -0.950475   11.932881
     58          8           0       -4.389588    1.593017    7.847943
     59          8           0       -5.006626   -4.675044    7.927029
     60          8           0       -2.341895    0.601719   10.081530
     61          8           0       -7.067436   -3.611111   10.140607
     62          8           0       -2.580807   -3.871468    7.859269
     63          8           0       -6.843050    0.787101    7.803457
     64          8           0       -7.845154   -1.174177   10.160822
     65          8           0       -1.574551   -1.834315   10.152385
     66          8           0       -3.385463   -1.129899    8.015360
     67          8           0       -6.033620   -1.950300    8.043100
     68          8           0       -5.137819   -0.197888    9.951447
     69          8           0       -4.251235   -2.822789    9.979578
     70         19           0       -3.232750   -6.121998    5.663827
     71         19           0       -0.147605    0.041091   12.351579
     72         19           0       -9.271686   -2.928204   12.413241
     73         23           0       -4.704373   -1.521482    8.994758
 ---------------------------------------------------------------------
 Rotational constants (GHZ):           0.0171852           0.0133065           0.0131009
 Standard basis: def2SVP (5D, 7F)
  1217 basis functions,  2313 primitive gaussians,  1337 cartesian basis functions
   321 alpha electrons      321 beta electrons
       nuclear repulsion energy     21004.8768645738 Hartrees.
 NAtoms=   73 NActive=   73 NUniq=   73 SFac= 1.00D+00 NAtFMM=   60 NAOKFM=T Big=T
 Integral buffers will be    131072 words long.
 Raffenetti 2 integral format.
 Two-electron integral symmetry is turned off.
 Nuclear repulsion after empirical dispersion term =    21004.5989593709 Hartrees.
 Force PCM accuracy= 1.00D-10.
 ------------------------------------------------------------------------------
 Polarizable Continuum Model (PCM)
 =================================
 Model                : PCM (using non-symmetric T matrix).
 Atomic radii         : SMD-Coulomb.
 Polarization charges : Total charges.
 Charge compensation  : None.
 Solution method      : On-the-fly selection.
 Cavity type          : VdW (van der Waals Surface) (Alpha=1.000).
 Cavity algorithm     : GePol (No added spheres)
                        Default sphere list used, NSphG=   73.
                        Lebedev-Laikov grids with approx.  5.0 points / Ang**2.
                        Smoothing algorithm: York/Karplus (Gamma=1.0000).
                        Polarization charges: spherical gaussians, with
                                              point-specific exponents (IZeta= 3).
                        Self-potential: point-specific (ISelfS= 7).
                        Self-field    : sphere-specific E.n sum rule (ISelfD= 2).
 1st derivatives      : Analytical E(r).r(x)/FMM algorithm (CHGder, D1EAlg=3).
                        Cavity 1st derivative terms included.
 Solvent              : Acetonitrile, Eps=  35.688000 Eps(inf)=   1.806874
 ------------------------------------------------------------------------------
 ------------------------------------------------------------------------------
 Atomic radii for non-electrostatic terms: SMD-CDS.
 ------------------------------------------------------------------------------
 Nuclear repulsion after PCM non-electrostatic terms =    21004.5931336805 Hartrees.
 One-electron integrals computed using PRISM.
   1 Symmetry operations used in ECPInt.
 ECPInt:  NShTT=  127765 NPrTT=  468030 LenC2=   96815 LenP2D=  221566.
 LDataN:  DoStor=T MaxTD1= 8 Len=  415
 NBasis=  1217 RedAO= T EigKep=  1.36D-04  NBF=  1217
 NBsUse=  1217 1.00D-06 EigRej= -1.00D+00 NBFU=  1217
 Defaulting to unpruned grid for atomic number  74.
 Defaulting to unpruned grid for atomic number  74.
 Defaulting to unpruned grid for atomic number  74.
 Defaulting to unpruned grid for atomic number  74.
 Defaulting to unpruned grid for atomic number  74.
 Defaulting to unpruned grid for atomic number  74.
 Defaulting to unpruned grid for atomic number  74.
 Defaulting to unpruned grid for atomic number  74.
 Initial guess from the checkpoint file:  "b.chk"
 B after Tr=     0.000812   -0.001153    0.000055
         Rot=    1.000000    0.000008    0.000007    0.000044 Ang=   0.01 deg.
 Initial guess <Sx>= 0.0000 <Sy>= 0.0000 <Sz>= 0.0000 <S**2>= 1.0140 S= 0.6243
 Requested convergence on RMS density matrix=1.00D-08 within  64 cycles.
 Requested convergence on MAX density matrix=1.00D-06.
 Requested convergence on             energy=1.00D-06.
 No special actions if energy rises.
 Defaulting to unpruned grid for atomic number  74.
 Defaulting to unpruned grid for atomic number  74.
 Defaulting to unpruned grid for atomic number  74.
 Defaulting to unpruned grid for atomic number  74.
 Defaulting to unpruned grid for atomic number  74.
 Defaulting to unpruned grid for atomic number  74.
 Defaulting to unpruned grid for atomic number  74.
 Defaulting to unpruned grid for atomic number  74.
 Defaulting to unpruned grid for atomic number  74.
 Defaulting to unpruned grid for atomic number  74.
 Defaulting to unpruned grid for atomic number  74.
 Defaulting to unpruned grid for atomic number  74.
 Defaulting to unpruned grid for atomic number  74.
 Defaulting to unpruned grid for atomic number  74.
 Defaulting to unpruned grid for atomic number  74.
 Defaulting to unpruned grid for atomic number  74.
 Defaulting to unpruned grid for atomic number  74.
 Defaulting to unpruned grid for atomic number  74.
 Defaulting to unpruned grid for atomic number  74.
 Defaulting to unpruned grid for atomic number  74.
 Defaulting to unpruned grid for atomic number  74.
 Defaulting to unpruned grid for atomic number  74.
 Defaulting to unpruned grid for atomic number  74.
 Defaulting to unpruned grid for atomic number  74.
 Defaulting to unpruned grid for atomic number  74.
 Defaulting to unpruned grid for atomic number  74.
 Defaulting to unpruned grid for atomic number  74.
 Defaulting to unpruned grid for atomic number  74.
 Defaulting to unpruned grid for atomic number  74.
 Defaulting to unpruned grid for atomic number  74.
 Defaulting to unpruned grid for atomic number  74.
 Defaulting to unpruned grid for atomic number  74.
 Defaulting to unpruned grid for atomic number  74.
 Defaulting to unpruned grid for atomic number  74.
 Defaulting to unpruned grid for atomic number  74.
 Defaulting to unpruned grid for atomic number  74.
 Defaulting to unpruned grid for atomic number  74.
 Defaulting to unpruned grid for atomic number  74.
 Defaulting to unpruned grid for atomic number  74.
 Defaulting to unpruned grid for atomic number  74.
 Defaulting to unpruned grid for atomic number  74.
 Defaulting to unpruned grid for atomic number  74.
 Defaulting to unpruned grid for atomic number  74.
 Defaulting to unpruned grid for atomic number  74.
 Defaulting to unpruned grid for atomic number  74.
 Defaulting to unpruned grid for atomic number  74.
 Defaulting to unpruned grid for atomic number  74.
 Defaulting to unpruned grid for atomic number  74.
 Defaulting to unpruned grid for atomic number  74.
 Defaulting to unpruned grid for atomic number  74.
 Defaulting to unpruned grid for atomic number  74.
 Defaulting to unpruned grid for atomic number  74.
 Defaulting to unpruned grid for atomic number  74.
 Defaulting to unpruned grid for atomic number  74.
 Defaulting to unpruned grid for atomic number  74.
 Defaulting to unpruned grid for atomic number  74.
 Inv3:  Mode=1 IEnd=    86510700.
 Iteration    1 A*A^-1 deviation from unit magnitude is 3.77D-15 for   4120.
 Iteration    1 A*A^-1 deviation from orthogonality  is 4.00D-15 for   5086   2645.
 Iteration    1 A^-1*A deviation from unit magnitude is 3.77D-15 for   4840.
 Iteration    1 A^-1*A deviation from orthogonality  is 8.49D-12 for   4648   3638.
 Restarting incremental Fock formation.
 Error on total polarization charges =  0.01560
 SCF Done:  E(UwB97XD) =  -7327.70003347     A.U. after   39 cycles
            NFock= 39  Conv=0.35D-09     -V/T= 2.0831
 <Sx>= 0.0000 <Sy>= 0.0000 <Sz>= 0.0000 <S**2>= 1.0139 S= 0.6242
 <L.S>=  0.00000000000    
 SMD-CDS (non-electrostatic) energy       (kcal/mol) =      -3.66
 (included in total energy above)
 Annihilation of the first spin contaminant:
 S**2 before annihilation     1.0139,   after     0.1116
 QCSCF skips out because SCF is already converged.

 **********************************************************************

            Population analysis using the SCF Density.

 **********************************************************************

 Alpha  occ. eigenvalues -- -197.10516-129.99101-129.99094-129.99062-101.62051
 Alpha  occ. eigenvalues --  -22.44208 -19.28512 -19.28499 -19.28459 -19.28387
 Alpha  occ. eigenvalues --  -19.28375 -19.28367 -19.28352 -19.28340 -19.28336
 Alpha  occ. eigenvalues --  -19.28246 -19.28215 -19.28145 -19.26954 -19.26908
 Alpha  occ. eigenvalues --  -19.26906 -19.26899 -19.26878 -19.26875 -19.26848
 Alpha  occ. eigenvalues --  -19.26839 -19.26833 -19.26827 -19.26809 -19.26807
 Alpha  occ. eigenvalues --  -19.26795 -19.26790 -19.26787 -19.26783 -19.26783
 Alpha  occ. eigenvalues --  -19.26771 -19.26746 -19.26717 -19.26711 -19.26692
 Alpha  occ. eigenvalues --  -19.26656 -19.26626 -19.24639 -19.24570 -19.24566
 Alpha  occ. eigenvalues --  -19.24548 -18.93781 -18.92692 -18.92657 -13.36510
 Alpha  occ. eigenvalues --  -13.36502 -13.36459 -10.69436 -10.69432 -10.69432
 Alpha  occ. eigenvalues --  -10.69429 -10.69425 -10.69424 -10.69387 -10.69383
 Alpha  occ. eigenvalues --  -10.69380 -10.32840 -10.32220 -10.31760 -10.30864
 Alpha  occ. eigenvalues --  -10.30831 -10.30808 -10.30455 -10.30370  -9.52458
 Alpha  occ. eigenvalues --   -7.27338  -7.27001  -7.26994  -3.21059  -3.21036
 Alpha  occ. eigenvalues --   -3.21034  -3.21026  -3.21005  -3.20988  -3.20979
 Alpha  occ. eigenvalues --   -3.20976  -3.20965  -3.20831  -3.20813  -3.20791
 Alpha  occ. eigenvalues --   -2.78575  -1.85306  -1.85272  -1.85251  -1.85218
 Alpha  occ. eigenvalues --   -1.85102  -1.85055  -1.85031  -1.85015  -1.85005
 Alpha  occ. eigenvalues --   -1.84999  -1.84975  -1.84912  -1.84360  -1.84247
 Alpha  occ. eigenvalues --   -1.84232  -1.84229  -1.84189  -1.84179  -1.84111
 Alpha  occ. eigenvalues --   -1.84096  -1.84072  -1.84064  -1.84040  -1.84028
 Alpha  occ. eigenvalues --   -1.83911  -1.83885  -1.83871  -1.83866  -1.83830
 Alpha  occ. eigenvalues --   -1.83794  -1.83775  -1.83772  -1.83753  -1.83653
 Alpha  occ. eigenvalues --   -1.83652  -1.83638  -1.81760  -1.81417  -1.81402
 Alpha  occ. eigenvalues --   -1.50212  -1.50204  -1.50161  -1.08567  -1.06937
 Alpha  occ. eigenvalues --   -1.06906  -1.06876  -1.05975  -1.05964  -1.05934
 Alpha  occ. eigenvalues --   -1.04544  -1.04534  -1.04525  -1.03935  -1.03914
 Alpha  occ. eigenvalues --   -1.03625  -1.03322  -1.03273  -1.03264  -1.03028
 Alpha  occ. eigenvalues --   -1.03005  -1.02218  -1.02198  -1.02167  -1.02062
 Alpha  occ. eigenvalues --   -1.02018  -1.01985  -1.01919  -1.01891  -1.01781
 Alpha  occ. eigenvalues --   -1.01737  -1.01723  -1.01609  -1.01562  -1.01541
 Alpha  occ. eigenvalues --   -1.01278  -1.00788  -1.00757  -1.00707  -1.00694
 Alpha  occ. eigenvalues --   -0.99930  -0.99860  -0.99796  -0.96068  -0.89208
 Alpha  occ. eigenvalues --   -0.85655  -0.85645  -0.85611  -0.85501  -0.85497
 Alpha  occ. eigenvalues --   -0.85494  -0.85488  -0.85456  -0.85438  -0.84152
 Alpha  occ. eigenvalues --   -0.82287  -0.80902  -0.71822  -0.69499  -0.64970
 Alpha  occ. eigenvalues --   -0.62273  -0.61662  -0.61616  -0.61577  -0.60534
 Alpha  occ. eigenvalues --   -0.58937  -0.58929  -0.58921  -0.58850  -0.58786
 Alpha  occ. eigenvalues --   -0.58717  -0.58709  -0.58660  -0.58501  -0.57303
 Alpha  occ. eigenvalues --   -0.57270  -0.57240  -0.56957  -0.56697  -0.56445
 Alpha  occ. eigenvalues --   -0.56407  -0.56367  -0.55962  -0.55812  -0.55319
 Alpha  occ. eigenvalues --   -0.55315  -0.55280  -0.54320  -0.54166  -0.54136
 Alpha  occ. eigenvalues --   -0.53959  -0.53631  -0.53589  -0.53563  -0.52698
 Alpha  occ. eigenvalues --   -0.52605  -0.52583  -0.52497  -0.52449  -0.51463
 Alpha  occ. eigenvalues --   -0.51453  -0.51430  -0.51359  -0.51305  -0.50678
 Alpha  occ. eigenvalues --   -0.50560  -0.50508  -0.50454  -0.50352  -0.50264
 Alpha  occ. eigenvalues --   -0.50223  -0.50056  -0.50022  -0.49999  -0.49754
 Alpha  occ. eigenvalues --   -0.49667  -0.49646  -0.49471  -0.49439  -0.49283
 Alpha  occ. eigenvalues --   -0.49233  -0.49179  -0.49093  -0.49048  -0.48960
 Alpha  occ. eigenvalues --   -0.48716  -0.48558  -0.48537  -0.48471  -0.47685
 Alpha  occ. eigenvalues --   -0.47669  -0.47110  -0.46456  -0.46022  -0.46006
 Alpha  occ. eigenvalues --   -0.45853  -0.45742  -0.45679  -0.45590  -0.45186
 Alpha  occ. eigenvalues --   -0.45121  -0.45113  -0.44824  -0.44620  -0.44475
 Alpha  occ. eigenvalues --   -0.44452  -0.44433  -0.44242  -0.44234  -0.44214
 Alpha  occ. eigenvalues --   -0.43366  -0.42991  -0.42531  -0.42486  -0.42426
 Alpha  occ. eigenvalues --   -0.42281  -0.42145  -0.42128  -0.42052  -0.41614
 Alpha  occ. eigenvalues --   -0.41589  -0.41541  -0.41017  -0.40977  -0.40785
 Alpha  occ. eigenvalues --   -0.40744  -0.40727  -0.40398  -0.40389  -0.40343
 Alpha  occ. eigenvalues --   -0.40206  -0.40168  -0.40156  -0.40131  -0.39854
 Alpha  occ. eigenvalues --   -0.39326  -0.39246  -0.39219  -0.39131  -0.38998
 Alpha  occ. eigenvalues --   -0.38914  -0.38883  -0.38808  -0.38695  -0.38662
 Alpha  occ. eigenvalues --   -0.38301  -0.38276  -0.38240  -0.37826  -0.37176
 Alpha  occ. eigenvalues --   -0.37171  -0.34643  -0.34622  -0.33542  -0.29987
 Alpha  occ. eigenvalues --   -0.25519
 Alpha virt. eigenvalues --   -0.11899  -0.06222  -0.06181  -0.04770  -0.04699
 Alpha virt. eigenvalues --   -0.04594  -0.01481  -0.01389  -0.01333  -0.01071
 Alpha virt. eigenvalues --   -0.00902  -0.00868  -0.00812  -0.00134  -0.00052
 Alpha virt. eigenvalues --   -0.00018   0.00712   0.00730   0.00774   0.00940
 Alpha virt. eigenvalues --    0.01049   0.01386   0.01825   0.01878   0.01925
 Alpha virt. eigenvalues --    0.02479   0.02741   0.02791   0.02847   0.03542
 Alpha virt. eigenvalues --    0.03615   0.03745   0.03893   0.03964   0.04332
 Alpha virt. eigenvalues --    0.04353   0.04374   0.04403   0.04633   0.05034
 Alpha virt. eigenvalues --    0.05113   0.06084   0.06459   0.08080   0.08292
 Alpha virt. eigenvalues --    0.08472   0.08594   0.08843   0.08883   0.09372
 Alpha virt. eigenvalues --    0.09758   0.09850   0.09875   0.09911   0.10007
 Alpha virt. eigenvalues --    0.10062   0.10172   0.10361   0.10872   0.10961
 Alpha virt. eigenvalues --    0.11538   0.11629   0.11942   0.12182   0.12239
 Alpha virt. eigenvalues --    0.12400   0.12438   0.12494   0.12857   0.13311
 Alpha virt. eigenvalues --    0.13428   0.13629   0.14042   0.14288   0.14779
 Alpha virt. eigenvalues --    0.14955   0.14970   0.15220   0.15385   0.15850
 Alpha virt. eigenvalues --    0.16119   0.16781   0.17082   0.17761   0.17852
 Alpha virt. eigenvalues --    0.18301   0.18448   0.18570   0.18790   0.18934
 Alpha virt. eigenvalues --    0.19263   0.19366   0.19506   0.19557   0.19623
 Alpha virt. eigenvalues --    0.19689   0.19885   0.20082   0.20701   0.20918
 Alpha virt. eigenvalues --    0.21155   0.21322   0.21379   0.21545   0.21585
 Alpha virt. eigenvalues --    0.21688   0.21931   0.21958   0.22149   0.22283
 Alpha virt. eigenvalues --    0.22402   0.22810   0.23173   0.23244   0.23310
 Alpha virt. eigenvalues --    0.23397   0.23616   0.23822   0.24070   0.24316
 Alpha virt. eigenvalues --    0.24466   0.24659   0.24737   0.25058   0.25199
 Alpha virt. eigenvalues --    0.25482   0.25513   0.25652   0.26358   0.26819
 Alpha virt. eigenvalues --    0.26880   0.27192   0.27372   0.27679   0.27930
 Alpha virt. eigenvalues --    0.27997   0.28423   0.28751   0.28788   0.29113
 Alpha virt. eigenvalues --    0.29284   0.29325   0.29448   0.29580   0.29747
 Alpha virt. eigenvalues --    0.30148   0.30543   0.30976   0.31248   0.31574
 Alpha virt. eigenvalues --    0.31719   0.32332   0.32564   0.32733   0.33300
 Alpha virt. eigenvalues --    0.33741   0.34440   0.35618   0.36930   0.37161
 Alpha virt. eigenvalues --    0.38241   0.38732   0.39011   0.39320   0.39649
 Alpha virt. eigenvalues --    0.40426   0.41403   0.41784   0.41920   0.42025
 Alpha virt. eigenvalues --    0.42251   0.42504   0.42669   0.43349   0.43936
 Alpha virt. eigenvalues --    0.44273   0.44460   0.44899   0.45298   0.45506
 Alpha virt. eigenvalues --    0.45603   0.45766   0.45984   0.46473   0.46683
 Alpha virt. eigenvalues --    0.46971   0.47153   0.47730   0.47882   0.48214
 Alpha virt. eigenvalues --    0.48362   0.48468   0.48702   0.49040   0.49114
 Alpha virt. eigenvalues --    0.49376   0.49797   0.49956   0.49960   0.50029
 Alpha virt. eigenvalues --    0.50163   0.50443   0.50634   0.50709   0.50904
 Alpha virt. eigenvalues --    0.51305   0.51416   0.51763   0.51866   0.52159
 Alpha virt. eigenvalues --    0.52563   0.52871   0.52986   0.53128   0.53445
 Alpha virt. eigenvalues --    0.53801   0.54052   0.54390   0.54443   0.54655
 Alpha virt. eigenvalues --    0.54783   0.55530   0.56010   0.56066   0.56418
 Alpha virt. eigenvalues --    0.56659   0.57055   0.57173   0.57329   0.57816
 Alpha virt. eigenvalues --    0.58581   0.58770   0.59029   0.59443   0.59719
 Alpha virt. eigenvalues --    0.60136   0.60530   0.60964   0.61274   0.61712
 Alpha virt. eigenvalues --    0.61979   0.62973   0.63625   0.64015   0.64741
 Alpha virt. eigenvalues --    0.65030   0.66336   0.66568   0.66606   0.66835
 Alpha virt. eigenvalues --    0.68134   0.68255   0.68616   0.68845   0.69364
 Alpha virt. eigenvalues --    0.69618   0.70182   0.70933   0.71383   0.71759
 Alpha virt. eigenvalues --    0.72184   0.72494   0.72819   0.72919   0.73127
 Alpha virt. eigenvalues --    0.73157   0.73398   0.73475   0.73773   0.73916
 Alpha virt. eigenvalues --    0.74255   0.74347   0.75223   0.75652   0.75925
 Alpha virt. eigenvalues --    0.76243   0.77085   0.77218   0.78059   0.78560
 Alpha virt. eigenvalues --    0.79065   0.79736   0.79985   0.80353   0.80691
 Alpha virt. eigenvalues --    0.81018   0.81142   0.82057   0.82260   0.82597
 Alpha virt. eigenvalues --    0.83026   0.83481   0.84020   0.84279   0.84505
 Alpha virt. eigenvalues --    0.84699   0.85254   0.85660   0.86541   0.87359
 Alpha virt. eigenvalues --    0.88049   0.88727   0.89301   0.89859   0.90174
 Alpha virt. eigenvalues --    0.90420   0.90688   0.91152   0.91712   0.91883
 Alpha virt. eigenvalues --    0.91954   0.92396   0.92677   0.92761   0.92953
 Alpha virt. eigenvalues --    0.93133   0.93251   0.93427   0.93822   0.94053
 Alpha virt. eigenvalues --    0.94973   0.95277   0.95848   0.96560   0.96930
 Alpha virt. eigenvalues --    0.97184   0.97231   0.97784   0.98075   0.98957
 Alpha virt. eigenvalues --    0.99327   0.99567   0.99704   1.00072   1.00246
 Alpha virt. eigenvalues --    1.00429   1.00647   1.00738   1.01047   1.01144
 Alpha virt. eigenvalues --    1.01204   1.01341   1.01864   1.02281   1.02589
 Alpha virt. eigenvalues --    1.02726   1.02877   1.03410   1.03738   1.03910
 Alpha virt. eigenvalues --    1.04160   1.04291   1.04756   1.04899   1.05045
 Alpha virt. eigenvalues --    1.05240   1.05465   1.05617   1.06102   1.06654
 Alpha virt. eigenvalues --    1.07094   1.07123   1.07371   1.07502   1.07599
 Alpha virt. eigenvalues --    1.07844   1.08108   1.08319   1.08584   1.08841
 Alpha virt. eigenvalues --    1.09049   1.09278   1.09506   1.10261   1.10987
 Alpha virt. eigenvalues --    1.11257   1.11472   1.11923   1.12224   1.12407
 Alpha virt. eigenvalues --    1.12452   1.12927   1.13093   1.13286   1.13377
 Alpha virt. eigenvalues --    1.13455   1.13759   1.13919   1.14253   1.14356
 Alpha virt. eigenvalues --    1.14630   1.15063   1.15243   1.15530   1.16248
 Alpha virt. eigenvalues --    1.16704   1.17320   1.17831   1.18206   1.18509
 Alpha virt. eigenvalues --    1.18842   1.19714   1.19823   1.20081   1.20439
 Alpha virt. eigenvalues --    1.20785   1.21383   1.22725   1.22886   1.22920
 Alpha virt. eigenvalues --    1.23235   1.23416   1.23736   1.23805   1.24706
 Alpha virt. eigenvalues --    1.25257   1.25898   1.27074   1.27567   1.27959
 Alpha virt. eigenvalues --    1.28284   1.29020   1.29474   1.30089   1.30296
 Alpha virt. eigenvalues --    1.30674   1.30737   1.30894   1.31090   1.31595
 Alpha virt. eigenvalues --    1.31817   1.31933   1.32221   1.32418   1.32522
 Alpha virt. eigenvalues --    1.32646   1.32868   1.32975   1.33364   1.34311
 Alpha virt. eigenvalues --    1.34624   1.34897   1.35069   1.35487   1.35728
 Alpha virt. eigenvalues --    1.35768   1.35903   1.36308   1.36527   1.36749
 Alpha virt. eigenvalues --    1.36863   1.37389   1.37839   1.38004   1.38076
 Alpha virt. eigenvalues --    1.38260   1.38571   1.38769   1.38871   1.39134
 Alpha virt. eigenvalues --    1.39156   1.39515   1.39557   1.39647   1.39995
 Alpha virt. eigenvalues --    1.40220   1.40268   1.40622   1.40940   1.41084
 Alpha virt. eigenvalues --    1.41127   1.41152   1.41514   1.41676   1.41888
 Alpha virt. eigenvalues --    1.42189   1.42440   1.42594   1.42727   1.43044
 Alpha virt. eigenvalues --    1.43152   1.43410   1.43646   1.43791   1.44296
 Alpha virt. eigenvalues --    1.44553   1.44854   1.45071   1.45336   1.45509
 Alpha virt. eigenvalues --    1.45627   1.45953   1.46411   1.46646   1.47511
 Alpha virt. eigenvalues --    1.48023   1.48177   1.49694   1.49777   1.49909
 Alpha virt. eigenvalues --    1.50368   1.50862   1.51801   1.52321   1.52496
 Alpha virt. eigenvalues --    1.52679   1.53113   1.53500   1.53831   1.55347
 Alpha virt. eigenvalues --    1.55511   1.57459   1.58059   1.58125   1.58289
 Alpha virt. eigenvalues --    1.58535   1.58955   1.59070   1.59516   1.60148
 Alpha virt. eigenvalues --    1.60699   1.60937   1.61428   1.61611   1.61989
 Alpha virt. eigenvalues --    1.62225   1.62530   1.62897   1.63460   1.64056
 Alpha virt. eigenvalues --    1.64611   1.64807   1.65017   1.65536   1.65818
 Alpha virt. eigenvalues --    1.66079   1.66845   1.68098   1.68408   1.69805
 Alpha virt. eigenvalues --    1.70397   1.70674   1.71093   1.72647   1.73138
 Alpha virt. eigenvalues --    1.73309   1.73489   1.74226   1.74447   1.75004
 Alpha virt. eigenvalues --    1.75873   1.76370   1.77537   1.77798   1.77952
 Alpha virt. eigenvalues --    1.78377   1.78639   1.79037   1.79294   1.79683
 Alpha virt. eigenvalues --    1.79883   1.81002   1.81106   1.81533   1.81653
 Alpha virt. eigenvalues --    1.82376   1.82928   1.83760   1.83960   1.84142
 Alpha virt. eigenvalues --    1.84505   1.85019   1.85077   1.85570   1.86081
 Alpha virt. eigenvalues --    1.86274   1.86536   1.86787   1.87422   1.87767
 Alpha virt. eigenvalues --    1.88406   1.88577   1.89077   1.89180   1.89422
 Alpha virt. eigenvalues --    1.89920   1.90528   1.91400   1.92250   1.92655
 Alpha virt. eigenvalues --    1.93041   1.93188   1.93797   1.93855   1.95058
 Alpha virt. eigenvalues --    1.96232   1.96893   1.97648   1.97850   1.98493
 Alpha virt. eigenvalues --    1.98696   2.01878   2.01914   2.02099   2.03561
 Alpha virt. eigenvalues --    2.05348   2.05764   2.07197   2.08435   2.08868
 Alpha virt. eigenvalues --    2.10745   2.11018   2.11548   2.12522   2.13124
 Alpha virt. eigenvalues --    2.13912   2.14678   2.14850   2.15685   2.17594
 Alpha virt. eigenvalues --    2.18538   2.18903   2.19187   2.19887   2.20473
 Alpha virt. eigenvalues --    2.20749   2.20970   2.21731   2.24851   2.26297
 Alpha virt. eigenvalues --    2.26548   2.27024   2.27681   2.28702   2.29751
 Alpha virt. eigenvalues --    2.30002   2.30681   2.31442   2.32279   2.32836
 Alpha virt. eigenvalues --    2.33444   2.33780   2.33887   2.34482   2.34693
 Alpha virt. eigenvalues --    2.34905   2.39063   2.39725   2.42087   2.42892
 Alpha virt. eigenvalues --    2.43289   2.48188   2.49650   2.55108   2.65509
 Alpha virt. eigenvalues --    2.67079   2.67136   2.67176   2.67374   2.68034
 Alpha virt. eigenvalues --    2.68519   2.69158   2.69229   2.69307   2.69571
 Alpha virt. eigenvalues --    2.69632   2.69739   2.69822   2.69903   2.70073
 Alpha virt. eigenvalues --    2.70118   2.70168   2.70638   2.70686   2.70757
 Alpha virt. eigenvalues --    2.70823   2.70876   2.71145   2.71442   2.71612
 Alpha virt. eigenvalues --    2.71736   2.72056   2.72764   2.72834   2.72985
 Alpha virt. eigenvalues --    2.73241   2.73277   2.73513   2.73637   2.73801
 Alpha virt. eigenvalues --    2.74103   2.74251   2.74300   2.74375   2.75373
 Alpha virt. eigenvalues --    2.75444   2.75550   2.75639   2.75678   2.75685
 Alpha virt. eigenvalues --    2.75855   2.75898   2.76016   2.76097   2.76192
 Alpha virt. eigenvalues --    2.76265   2.76395   2.76519   2.76935   2.77402
 Alpha virt. eigenvalues --    2.77476   2.77706   2.78050   2.78380   2.78503
 Alpha virt. eigenvalues --    2.78693   2.79077   2.79407   2.79570   2.79644
 Alpha virt. eigenvalues --    2.79741   2.79912   2.80147   2.80388   2.81137
 Alpha virt. eigenvalues --    2.82154   2.82411   2.82538   2.82687   2.82719
 Alpha virt. eigenvalues --    2.82963   2.83068   2.83523   2.83923   2.84751
 Alpha virt. eigenvalues --    2.84829   2.85172   2.85314   2.85767   2.85910
 Alpha virt. eigenvalues --    2.85956   2.86115   2.86442   2.87248   2.87476
 Alpha virt. eigenvalues --    2.87732   2.88447   2.88622   2.88691   2.88823
 Alpha virt. eigenvalues --    2.88867   2.89383   2.89430   2.89497   2.90180
 Alpha virt. eigenvalues --    2.91051   2.91212   2.92079   2.92142   2.92238
 Alpha virt. eigenvalues --    2.92708   2.92716   2.92805   2.93136   2.93187
 Alpha virt. eigenvalues --    2.93718   2.94110   2.94495   2.94578   2.94796
 Alpha virt. eigenvalues --    2.94860   2.94872   2.95248   2.95423   2.95726
 Alpha virt. eigenvalues --    2.95925   2.96127   2.96169   2.96386   2.96476
 Alpha virt. eigenvalues --    2.96651   2.96821   2.96865   2.97173   2.97394
 Alpha virt. eigenvalues --    2.97557   2.98040   2.98283   2.98295   2.98995
 Alpha virt. eigenvalues --    2.99128   2.99469   2.99489   2.99765   2.99779
 Alpha virt. eigenvalues --    2.99990   3.00313   3.00502   3.00752   3.00853
 Alpha virt. eigenvalues --    3.01419   3.01655   3.01836   3.02287   3.02428
 Alpha virt. eigenvalues --    3.02692   3.02881   3.03368   3.04186   3.07077
 Alpha virt. eigenvalues --    3.08537   3.08656   3.08810   3.08908   3.09235
 Alpha virt. eigenvalues --    3.09963   3.10300   3.10355   3.10476   3.13863
 Alpha virt. eigenvalues --    3.14019   3.14078   3.14781   3.15144   3.15206
 Alpha virt. eigenvalues --    3.16507   3.16565   3.16862   3.22353   3.27826
 Alpha virt. eigenvalues --    3.29369   3.29597   3.30414   3.42660   3.43334
 Alpha virt. eigenvalues --    3.44145   3.44622   3.45972   3.46558   3.46656
 Alpha virt. eigenvalues --    3.47560   3.47805   3.48025   3.48944   3.49115
 Alpha virt. eigenvalues --    3.49471   3.53100   3.53881   3.54398   3.55457
 Alpha virt. eigenvalues --    3.55615   3.56422   3.56630   3.57097   3.57229
 Alpha virt. eigenvalues --    3.57379   3.57470   3.57853   3.58583   3.59528
 Alpha virt. eigenvalues --    3.59865   3.60906   3.61402   3.61695   3.62497
 Alpha virt. eigenvalues --    3.62651   3.63282   3.63663   3.64013   3.64518
 Alpha virt. eigenvalues --    3.73343   3.77492  68.66704  68.67706  68.68969
 Alpha virt. eigenvalues --   68.71212  68.75016  68.75945  68.83776  68.84841
 Alpha virt. eigenvalues --   68.85349  68.88128  68.89175  68.90414 576.25154
 Alpha virt. eigenvalues --  576.26134 576.27372 576.29565 576.33383 576.34290
 Alpha virt. eigenvalues --  576.41975 576.43025 576.43511 576.46189 576.47221
 Alpha virt. eigenvalues --  576.48447
  Beta  occ. eigenvalues -- -197.10499-129.99101-129.99094-129.99062-101.62459
  Beta  occ. eigenvalues --  -22.42947 -19.28514 -19.28500 -19.28461 -19.28383
  Beta  occ. eigenvalues --  -19.28369 -19.28360 -19.28346 -19.28334 -19.28329
  Beta  occ. eigenvalues --  -19.28247 -19.28226 -19.28139 -19.26954 -19.26908
  Beta  occ. eigenvalues --  -19.26906 -19.26898 -19.26878 -19.26875 -19.26846
  Beta  occ. eigenvalues --  -19.26838 -19.26833 -19.26827 -19.26809 -19.26807
  Beta  occ. eigenvalues --  -19.26795 -19.26792 -19.26788 -19.26784 -19.26784
  Beta  occ. eigenvalues --  -19.26773 -19.26747 -19.26716 -19.26711 -19.26697
  Beta  occ. eigenvalues --  -19.26655 -19.26626 -19.24616 -19.24551 -19.24541
  Beta  occ. eigenvalues --  -19.24522 -18.93437 -18.91247 -18.91180 -13.36510
  Beta  occ. eigenvalues --  -13.36502 -13.36459 -10.69436 -10.69432 -10.69432
  Beta  occ. eigenvalues --  -10.69429 -10.69425 -10.69424 -10.69387 -10.69383
  Beta  occ. eigenvalues --  -10.69380 -10.33080 -10.32392 -10.31716 -10.30951
  Beta  occ. eigenvalues --  -10.30936 -10.30893 -10.30406 -10.30319  -9.52913
  Beta  occ. eigenvalues --   -7.28770  -7.27312  -7.27305  -3.21059  -3.21033
  Beta  occ. eigenvalues --   -3.21029  -3.21026  -3.20999  -3.20982  -3.20973
  Beta  occ. eigenvalues --   -3.20970  -3.20959  -3.20831  -3.20809  -3.20786
  Beta  occ. eigenvalues --   -2.74519  -1.85301  -1.85266  -1.85247  -1.85210
  Beta  occ. eigenvalues --   -1.85097  -1.85051  -1.85024  -1.85008  -1.84998
  Beta  occ. eigenvalues --   -1.84989  -1.84971  -1.84904  -1.84357  -1.84245
  Beta  occ. eigenvalues --   -1.84230  -1.84226  -1.84186  -1.84176  -1.84108
  Beta  occ. eigenvalues --   -1.84094  -1.84069  -1.84061  -1.84038  -1.84025
  Beta  occ. eigenvalues --   -1.83909  -1.83882  -1.83869  -1.83863  -1.83828
  Beta  occ. eigenvalues --   -1.83791  -1.83772  -1.83769  -1.83750  -1.83651
  Beta  occ. eigenvalues --   -1.83650  -1.83635  -1.80426  -1.75740  -1.75600
  Beta  occ. eigenvalues --   -1.50212  -1.50204  -1.50161  -1.08550  -1.06918
  Beta  occ. eigenvalues --   -1.06886  -1.06850  -1.05974  -1.05962  -1.05933
  Beta  occ. eigenvalues --   -1.04545  -1.04532  -1.04526  -1.03934  -1.03917
  Beta  occ. eigenvalues --   -1.03559  -1.03292  -1.03240  -1.03231  -1.03027
  Beta  occ. eigenvalues --   -1.02997  -1.02202  -1.02174  -1.02152  -1.02053
  Beta  occ. eigenvalues --   -1.02012  -1.01972  -1.01915  -1.01881  -1.01777
  Beta  occ. eigenvalues --   -1.01734  -1.01719  -1.01609  -1.01559  -1.01526
  Beta  occ. eigenvalues --   -1.01278  -1.00761  -1.00744  -1.00706  -1.00690
  Beta  occ. eigenvalues --   -0.99792  -0.99710  -0.99674  -0.96268  -0.89868
  Beta  occ. eigenvalues --   -0.85655  -0.85645  -0.85611  -0.85501  -0.85497
  Beta  occ. eigenvalues --   -0.85494  -0.85488  -0.85456  -0.85438  -0.84432
  Beta  occ. eigenvalues --   -0.84226  -0.82670  -0.72080  -0.69609  -0.65206
  Beta  occ. eigenvalues --   -0.62273  -0.61662  -0.61616  -0.61577  -0.60717
  Beta  occ. eigenvalues --   -0.58937  -0.58927  -0.58919  -0.58772  -0.58724
  Beta  occ. eigenvalues --   -0.58699  -0.58689  -0.58634  -0.58502  -0.57278
  Beta  occ. eigenvalues --   -0.57118  -0.57073  -0.56947  -0.56838  -0.56447
  Beta  occ. eigenvalues --   -0.56377  -0.56332  -0.55769  -0.55557  -0.55299
  Beta  occ. eigenvalues --   -0.55297  -0.55280  -0.54486  -0.54161  -0.54127
  Beta  occ. eigenvalues --   -0.53949  -0.53604  -0.53566  -0.53522  -0.52746
  Beta  occ. eigenvalues --   -0.52629  -0.52570  -0.52481  -0.52442  -0.51454
  Beta  occ. eigenvalues --   -0.51427  -0.51408  -0.51303  -0.51244  -0.50847
  Beta  occ. eigenvalues --   -0.50472  -0.50444  -0.50394  -0.50305  -0.50226
  Beta  occ. eigenvalues --   -0.50171  -0.50025  -0.50020  -0.49970  -0.49701
  Beta  occ. eigenvalues --   -0.49642  -0.49625  -0.49463  -0.49429  -0.49285
  Beta  occ. eigenvalues --   -0.49210  -0.49181  -0.49062  -0.49032  -0.48937
  Beta  occ. eigenvalues --   -0.48709  -0.48559  -0.48542  -0.48463  -0.47768
  Beta  occ. eigenvalues --   -0.47646  -0.47542  -0.45899  -0.45877  -0.45792
  Beta  occ. eigenvalues --   -0.45780  -0.45662  -0.45548  -0.45187  -0.45145
  Beta  occ. eigenvalues --   -0.45117  -0.45024  -0.44825  -0.44620  -0.44458
  Beta  occ. eigenvalues --   -0.44433  -0.44390  -0.44242  -0.44196  -0.44182
  Beta  occ. eigenvalues --   -0.43359  -0.43081  -0.42486  -0.42456  -0.42384
  Beta  occ. eigenvalues --   -0.42234  -0.42119  -0.42100  -0.42091  -0.41591
  Beta  occ. eigenvalues --   -0.41584  -0.41530  -0.41326  -0.41021  -0.40928
  Beta  occ. eigenvalues --   -0.40735  -0.40700  -0.40645  -0.40381  -0.40376
  Beta  occ. eigenvalues --   -0.40314  -0.40159  -0.40144  -0.40118  -0.39796
  Beta  occ. eigenvalues --   -0.39614  -0.39325  -0.39152  -0.39089  -0.39069
  Beta  occ. eigenvalues --   -0.38879  -0.38854  -0.38801  -0.38691  -0.38647
  Beta  occ. eigenvalues --   -0.38608  -0.38298  -0.38268  -0.38235  -0.37528
  Beta  occ. eigenvalues --   -0.37177  -0.37166  -0.35592  -0.35573  -0.33780
  Beta  occ. eigenvalues --   -0.30724
  Beta virt. eigenvalues --   -0.06221  -0.06181  -0.04769  -0.04698  -0.04593
  Beta virt. eigenvalues --   -0.01478  -0.01384  -0.01329  -0.01066  -0.00896
  Beta virt. eigenvalues --   -0.00864  -0.00809  -0.00132  -0.00042  -0.00011
  Beta virt. eigenvalues --    0.00720   0.00738   0.00784   0.00908   0.01054
  Beta virt. eigenvalues --    0.01565   0.01896   0.01907   0.01935   0.02490
  Beta virt. eigenvalues --    0.02771   0.02841   0.03004   0.03531   0.03737
  Beta virt. eigenvalues --    0.03816   0.04046   0.04104   0.04343   0.04357
  Beta virt. eigenvalues --    0.04393   0.04415   0.04641   0.05039   0.05124
  Beta virt. eigenvalues --    0.05736   0.06479   0.07398   0.08506   0.08558
  Beta virt. eigenvalues --    0.08595   0.08675   0.09382   0.09527   0.09657
  Beta virt. eigenvalues --    0.09856   0.09906   0.10040   0.10103   0.10135
  Beta virt. eigenvalues --    0.10191   0.10359   0.10675   0.10884   0.10969
  Beta virt. eigenvalues --    0.11468   0.11621   0.11709   0.11985   0.12196
  Beta virt. eigenvalues --    0.12365   0.12432   0.12506   0.12556   0.13328
  Beta virt. eigenvalues --    0.13439   0.13632   0.14022   0.14279   0.14845
  Beta virt. eigenvalues --    0.15007   0.15059   0.15244   0.15382   0.15854
  Beta virt. eigenvalues --    0.16098   0.16742   0.17094   0.17756   0.17837
  Beta virt. eigenvalues --    0.18294   0.18449   0.18616   0.18791   0.18946
  Beta virt. eigenvalues --    0.19307   0.19411   0.19551   0.19574   0.19660
  Beta virt. eigenvalues --    0.19953   0.20063   0.20414   0.20713   0.20921
  Beta virt. eigenvalues --    0.21154   0.21323   0.21373   0.21551   0.21596
  Beta virt. eigenvalues --    0.21696   0.21952   0.21965   0.22156   0.22309
  Beta virt. eigenvalues --    0.22387   0.22812   0.23163   0.23251   0.23306
  Beta virt. eigenvalues --    0.23385   0.23627   0.23790   0.24041   0.24271
  Beta virt. eigenvalues --    0.24452   0.24610   0.24738   0.25017   0.25196
  Beta virt. eigenvalues --    0.25470   0.25514   0.25614   0.26269   0.26821
  Beta virt. eigenvalues --    0.26877   0.27185   0.27360   0.27648   0.27928
  Beta virt. eigenvalues --    0.27991   0.28378   0.28752   0.28788   0.29087
  Beta virt. eigenvalues --    0.29315   0.29325   0.29438   0.29585   0.29748
  Beta virt. eigenvalues --    0.30154   0.30543   0.30970   0.31254   0.31573
  Beta virt. eigenvalues --    0.31723   0.32338   0.32569   0.32737   0.33325
  Beta virt. eigenvalues --    0.33712   0.34432   0.35414   0.36922   0.37138
  Beta virt. eigenvalues --    0.38221   0.38849   0.39022   0.39351   0.39642
  Beta virt. eigenvalues --    0.40354   0.41392   0.41830   0.41985   0.42110
  Beta virt. eigenvalues --    0.42258   0.42502   0.42794   0.43358   0.44019
  Beta virt. eigenvalues --    0.44286   0.44537   0.44925   0.45215   0.45508
  Beta virt. eigenvalues --    0.45663   0.45832   0.45939   0.46462   0.46549
  Beta virt. eigenvalues --    0.46970   0.47116   0.47682   0.47874   0.48187
  Beta virt. eigenvalues --    0.48334   0.48357   0.48689   0.49030   0.49107
  Beta virt. eigenvalues --    0.49366   0.49726   0.49884   0.49958   0.50030
  Beta virt. eigenvalues --    0.50161   0.50447   0.50626   0.50710   0.50858
  Beta virt. eigenvalues --    0.51302   0.51410   0.51736   0.51854   0.52152
  Beta virt. eigenvalues --    0.52563   0.52826   0.52943   0.53128   0.53405
  Beta virt. eigenvalues --    0.53775   0.54025   0.54365   0.54440   0.54653
  Beta virt. eigenvalues --    0.54775   0.55488   0.56076   0.56086   0.56430
  Beta virt. eigenvalues --    0.56630   0.57059   0.57156   0.57278   0.57798
  Beta virt. eigenvalues --    0.58451   0.58781   0.59013   0.59431   0.59544
  Beta virt. eigenvalues --    0.60065   0.60600   0.60815   0.61217   0.61702
  Beta virt. eigenvalues --    0.61981   0.62903   0.63523   0.64187   0.64694
  Beta virt. eigenvalues --    0.65040   0.66218   0.66544   0.66597   0.66690
  Beta virt. eigenvalues --    0.67867   0.68108   0.68297   0.68808   0.68944
  Beta virt. eigenvalues --    0.69770   0.70343   0.70631   0.71335   0.71804
  Beta virt. eigenvalues --    0.72118   0.72488   0.72719   0.72887   0.73114
  Beta virt. eigenvalues --    0.73167   0.73389   0.73452   0.73687   0.73803
  Beta virt. eigenvalues --    0.74160   0.74234   0.74948   0.75574   0.75700
  Beta virt. eigenvalues --    0.76238   0.77085   0.77266   0.77936   0.78446
  Beta virt. eigenvalues --    0.79094   0.79705   0.80037   0.80605   0.80953
  Beta virt. eigenvalues --    0.81124   0.81264   0.82041   0.82287   0.82554
  Beta virt. eigenvalues --    0.83026   0.83437   0.83993   0.84287   0.84386
  Beta virt. eigenvalues --    0.84713   0.85252   0.85658   0.86549   0.87330
  Beta virt. eigenvalues --    0.87816   0.88458   0.88799   0.89538   0.89888
  Beta virt. eigenvalues --    0.89961   0.90347   0.90474   0.90748   0.91294
  Beta virt. eigenvalues --    0.91414   0.91918   0.92010   0.92183   0.92201
  Beta virt. eigenvalues --    0.92618   0.92696   0.93244   0.93431   0.93729
  Beta virt. eigenvalues --    0.94893   0.95213   0.95565   0.95866   0.96828
  Beta virt. eigenvalues --    0.97258   0.97341   0.97940   0.98211   0.98835
  Beta virt. eigenvalues --    0.99336   0.99427   0.99704   0.99791   1.00113
  Beta virt. eigenvalues --    1.00432   1.00637   1.00742   1.01056   1.01196
  Beta virt. eigenvalues --    1.01225   1.01360   1.01922   1.02174   1.02386
  Beta virt. eigenvalues --    1.02651   1.02734   1.03420   1.03738   1.03841
  Beta virt. eigenvalues --    1.04041   1.04308   1.04766   1.04915   1.05045
  Beta virt. eigenvalues --    1.05258   1.05507   1.05673   1.06118   1.06695
  Beta virt. eigenvalues --    1.07125   1.07180   1.07421   1.07570   1.07712
  Beta virt. eigenvalues --    1.07887   1.08133   1.08512   1.08838   1.08884
  Beta virt. eigenvalues --    1.09074   1.09371   1.09576   1.10272   1.10991
  Beta virt. eigenvalues --    1.11263   1.11478   1.11931   1.12227   1.12404
  Beta virt. eigenvalues --    1.12461   1.12923   1.13109   1.13285   1.13340
  Beta virt. eigenvalues --    1.13464   1.13779   1.13909   1.14283   1.14437
  Beta virt. eigenvalues --    1.14615   1.15018   1.15227   1.15520   1.16068
  Beta virt. eigenvalues --    1.16499   1.17288   1.17654   1.18005   1.18534
  Beta virt. eigenvalues --    1.18920   1.19590   1.19881   1.19946   1.20302
  Beta virt. eigenvalues --    1.20553   1.21196   1.22700   1.22874   1.22920
  Beta virt. eigenvalues --    1.23255   1.23365   1.23728   1.23802   1.24649
  Beta virt. eigenvalues --    1.25218   1.25670   1.27075   1.27556   1.27876
  Beta virt. eigenvalues --    1.28281   1.29036   1.29376   1.30097   1.30293
  Beta virt. eigenvalues --    1.30614   1.30737   1.30935   1.31038   1.31587
  Beta virt. eigenvalues --    1.31820   1.31945   1.32214   1.32403   1.32517
  Beta virt. eigenvalues --    1.32656   1.32845   1.32972   1.33343   1.34149
  Beta virt. eigenvalues --    1.34447   1.34886   1.35054   1.35502   1.35719
  Beta virt. eigenvalues --    1.35765   1.35878   1.36312   1.36520   1.36718
  Beta virt. eigenvalues --    1.36869   1.37277   1.37839   1.38020   1.38060
  Beta virt. eigenvalues --    1.38284   1.38587   1.38778   1.38883   1.39093
  Beta virt. eigenvalues --    1.39175   1.39499   1.39579   1.39689   1.39958
  Beta virt. eigenvalues --    1.40161   1.40272   1.40638   1.40914   1.41121
  Beta virt. eigenvalues --    1.41133   1.41163   1.41509   1.41680   1.41875
  Beta virt. eigenvalues --    1.42197   1.42446   1.42595   1.42731   1.43023
  Beta virt. eigenvalues --    1.43164   1.43413   1.43656   1.43814   1.44312
  Beta virt. eigenvalues --    1.44554   1.44824   1.45035   1.45350   1.45517
  Beta virt. eigenvalues --    1.45619   1.45939   1.46368   1.46710   1.47520
  Beta virt. eigenvalues --    1.47974   1.48183   1.49701   1.49785   1.49918
  Beta virt. eigenvalues --    1.50370   1.50870   1.51819   1.52325   1.52511
  Beta virt. eigenvalues --    1.52681   1.53131   1.53512   1.53850   1.55363
  Beta virt. eigenvalues --    1.55518   1.57463   1.58084   1.58145   1.58308
  Beta virt. eigenvalues --    1.58566   1.58970   1.59091   1.59552   1.60161
  Beta virt. eigenvalues --    1.60719   1.60958   1.61435   1.61618   1.61999
  Beta virt. eigenvalues --    1.62234   1.62522   1.62910   1.63460   1.64136
  Beta virt. eigenvalues --    1.64729   1.64936   1.65152   1.65638   1.65865
  Beta virt. eigenvalues --    1.66161   1.66930   1.68265   1.68471   1.69863
  Beta virt. eigenvalues --    1.70428   1.70704   1.71088   1.72476   1.73139
  Beta virt. eigenvalues --    1.73290   1.73504   1.74246   1.74472   1.74982
  Beta virt. eigenvalues --    1.75826   1.76314   1.77493   1.77798   1.77908
  Beta virt. eigenvalues --    1.78326   1.78518   1.79027   1.79290   1.79628
  Beta virt. eigenvalues --    1.79867   1.81007   1.81117   1.81538   1.81604
  Beta virt. eigenvalues --    1.82383   1.82844   1.83747   1.83995   1.84094
  Beta virt. eigenvalues --    1.84504   1.85008   1.85033   1.85574   1.86089
  Beta virt. eigenvalues --    1.86255   1.86574   1.86794   1.87430   1.87774
  Beta virt. eigenvalues --    1.88397   1.88549   1.88931   1.89137   1.89345
  Beta virt. eigenvalues --    1.89933   1.90540   1.91384   1.92167   1.92652
  Beta virt. eigenvalues --    1.93072   1.93179   1.93805   1.93850   1.95063
  Beta virt. eigenvalues --    1.96277   1.96776   1.97679   1.97888   1.98565
  Beta virt. eigenvalues --    1.98723   2.01952   2.01977   2.02218   2.03314
  Beta virt. eigenvalues --    2.05198   2.05575   2.07125   2.08342   2.08566
  Beta virt. eigenvalues --    2.10753   2.11020   2.11546   2.11936   2.13084
  Beta virt. eigenvalues --    2.13924   2.14697   2.14866   2.15730   2.17621
  Beta virt. eigenvalues --    2.18354   2.18920   2.19213   2.19656   2.20435
  Beta virt. eigenvalues --    2.20902   2.21083   2.21873   2.24794   2.26581
  Beta virt. eigenvalues --    2.26721   2.27443   2.27766   2.29427   2.29958
  Beta virt. eigenvalues --    2.30339   2.30889   2.31304   2.32758   2.33433
  Beta virt. eigenvalues --    2.33686   2.34164   2.34394   2.34876   2.35784
  Beta virt. eigenvalues --    2.36332   2.38810   2.39580   2.41985   2.42777
  Beta virt. eigenvalues --    2.43352   2.47680   2.49364   2.54481   2.65240
  Beta virt. eigenvalues --    2.66899   2.67117   2.67148   2.67256   2.68031
  Beta virt. eigenvalues --    2.68417   2.69158   2.69228   2.69299   2.69571
  Beta virt. eigenvalues --    2.69633   2.69741   2.69826   2.69905   2.70084
  Beta virt. eigenvalues --    2.70136   2.70181   2.70621   2.70709   2.70771
  Beta virt. eigenvalues --    2.70843   2.70891   2.71079   2.71398   2.71606
  Beta virt. eigenvalues --    2.71739   2.72055   2.72766   2.72839   2.72991
  Beta virt. eigenvalues --    2.73263   2.73299   2.73514   2.73637   2.73788
  Beta virt. eigenvalues --    2.73894   2.74258   2.74304   2.74363   2.75383
  Beta virt. eigenvalues --    2.75450   2.75555   2.75646   2.75684   2.75690
  Beta virt. eigenvalues --    2.75867   2.75906   2.76019   2.76106   2.76198
  Beta virt. eigenvalues --    2.76271   2.76400   2.76524   2.76936   2.77419
  Beta virt. eigenvalues --    2.77495   2.77740   2.78074   2.78405   2.78513
  Beta virt. eigenvalues --    2.78715   2.79086   2.79438   2.79590   2.79668
  Beta virt. eigenvalues --    2.79766   2.79916   2.80071   2.80334   2.81139
  Beta virt. eigenvalues --    2.82219   2.82435   2.82580   2.82696   2.82730
  Beta virt. eigenvalues --    2.82972   2.83103   2.83518   2.83914   2.84767
  Beta virt. eigenvalues --    2.84843   2.85194   2.85337   2.85755   2.85780
  Beta virt. eigenvalues --    2.85929   2.86096   2.86447   2.87275   2.87504
  Beta virt. eigenvalues --    2.87760   2.88452   2.88624   2.88695   2.88825
  Beta virt. eigenvalues --    2.88871   2.89402   2.89457   2.89505   2.90182
  Beta virt. eigenvalues --    2.91066   2.91232   2.92090   2.92149   2.92246
  Beta virt. eigenvalues --    2.92723   2.92724   2.92816   2.93167   2.93223
  Beta virt. eigenvalues --    2.93742   2.94108   2.94502   2.94573   2.94725
  Beta virt. eigenvalues --    2.94872   2.94890   2.95213   2.95399   2.95734
  Beta virt. eigenvalues --    2.95938   2.96154   2.96185   2.96390   2.96484
  Beta virt. eigenvalues --    2.96643   2.96799   2.96835   2.97182   2.97404
  Beta virt. eigenvalues --    2.97561   2.98054   2.98291   2.98313   2.99025
  Beta virt. eigenvalues --    2.99133   2.99343   2.99503   2.99692   2.99814
  Beta virt. eigenvalues --    3.00022   3.00325   3.00578   3.00803   3.00903
  Beta virt. eigenvalues --    3.01440   3.01664   3.01845   3.02307   3.02461
  Beta virt. eigenvalues --    3.02704   3.02898   3.03384   3.04195   3.07081
  Beta virt. eigenvalues --    3.08647   3.08698   3.08769   3.08942   3.09246
  Beta virt. eigenvalues --    3.10123   3.10617   3.10692   3.11325   3.13874
  Beta virt. eigenvalues --    3.14027   3.14087   3.14786   3.15062   3.15190
  Beta virt. eigenvalues --    3.16521   3.16577   3.16944   3.22291   3.28318
  Beta virt. eigenvalues --    3.30264   3.30549   3.30760   3.42664   3.43341
  Beta virt. eigenvalues --    3.44148   3.44626   3.45782   3.46557   3.46664
  Beta virt. eigenvalues --    3.47565   3.47806   3.48028   3.48947   3.49117
  Beta virt. eigenvalues --    3.49473   3.53106   3.53901   3.54416   3.55461
  Beta virt. eigenvalues --    3.55625   3.56436   3.56639   3.57111   3.57259
  Beta virt. eigenvalues --    3.57392   3.57499   3.57879   3.58595   3.59531
  Beta virt. eigenvalues --    3.59869   3.60924   3.61408   3.61702   3.62500
  Beta virt. eigenvalues --    3.62654   3.63288   3.63665   3.64017   3.64524
  Beta virt. eigenvalues --    3.73281   3.77722  68.66706  68.67708  68.68970
  Beta virt. eigenvalues --   68.71214  68.75017  68.75947  68.83778  68.84842
  Beta virt. eigenvalues --   68.85351  68.88130  68.89176  68.90416 576.25185
  Beta virt. eigenvalues --  576.26160 576.27398 576.29591 576.33401 576.34331
  Beta virt. eigenvalues --  576.42008 576.43045 576.43545 576.46224 576.47241
  Beta virt. eigenvalues --  576.48480
          Condensed to atoms (all electrons):
          Atomic-Atomic Spin Densities.
 Mulliken charges and spin densities:
               1          2
     1  Cl  -0.353548  -0.616765
     2  C   -0.038302  -0.081655
     3  C    0.014745   0.047612
     4  C   -0.036034  -0.078394
     5  C   -0.031572   0.050382
     6  C    0.006408  -0.098355
     7  C   -0.049200   0.049684
     8  H    0.046864   0.003469
     9  H    0.049244   0.003368
    10  H    0.054038  -0.001784
    11  H    0.055260   0.004323
    12  H    0.052797  -0.001731
    13  C    0.000869  -0.209897
    14  C   -0.023952  -0.083916
    15  H    0.072953   0.009027
    16  H    0.094853   0.004571
    17  H    0.093264   0.003869
    18  O   -0.671747  -0.000565
    19  O   -0.668695  -0.000493
    20  O   -0.666301  -0.001903
    21  O   -0.670998  -0.000526
    22  W    1.716462   0.000353
    23  W    1.655392   0.000518
    24  W    1.667843   0.000192
    25  W    1.676234   0.000187
    26  W    1.660101   0.002803
    27  W    1.707495   0.002532
    28  W    1.612304   0.003349
    29  W    1.668650   0.002949
    30  O   -0.350756  -0.000530
    31  O   -0.394448  -0.000564
    32  O   -0.393998  -0.000599
    33  O   -0.392647  -0.000553
    34  O   -0.672139  -0.000303
    35  O   -0.677340  -0.000052
    36  O   -0.669456  -0.000145
    37  O   -0.671288  -0.000228
    38  O   -0.395934   0.002107
    39  O   -0.396647   0.002128
    40  O   -0.339379  -0.001076
    41  O   -0.395844   0.002114
    42  O   -0.677176   0.000073
    43  O   -0.670534   0.000178
    44  O   -0.666826   0.000298
    45  O   -0.673575   0.000097
    46  O   -0.395922   0.002323
    47  O   -0.352578   0.002208
    48  O   -0.387408   0.001783
    49  O   -0.395138   0.002379
    50  W    1.656647   0.002871
    51  W    1.660025   0.002760
    52  W    1.670416   0.003866
    53  W    1.667883   0.002702
    54  O   -0.720339   0.000105
    55  O   -0.703519   0.000008
    56  O   -0.721804   0.000176
    57  O   -0.718842   0.000063
    58  O   -0.701915  -0.000016
    59  O   -0.722336   0.000160
    60  O   -0.721054   0.000209
    61  O   -0.717259   0.000207
    62  O   -0.721259  -0.000175
    63  O   -0.704761  -0.000011
    64  O   -0.720573  -0.000193
    65  O   -0.723219  -0.000206
    66  O   -0.881867   0.005298
    67  O   -0.882383   0.007452
    68  O   -0.880031   0.007190
    69  O   -0.887670   0.006710
    70  K    0.850960   0.000201
    71  K    0.850523   0.000223
    72  K    0.846371   0.000249
    73  V    1.199609   0.935309
 Sum of Mulliken charges =  -1.00000   0.00000
 Mulliken charges and spin densities with hydrogens summed into heavy atoms:
               1          2
     1  Cl  -0.353548  -0.616765
     2  C    0.008562  -0.078186
     3  C    0.014745   0.047612
     4  C    0.013209  -0.075026
     5  C    0.022466   0.048598
     6  C    0.061668  -0.094032
     7  C    0.003598   0.047952
    13  C    0.073823  -0.200871
    14  C    0.164166  -0.075476
    18  O   -0.671747  -0.000565
    19  O   -0.668695  -0.000493
    20  O   -0.666301  -0.001903
    21  O   -0.670998  -0.000526
    22  W    1.716462   0.000353
    23  W    1.655392   0.000518
    24  W    1.667843   0.000192
    25  W    1.676234   0.000187
    26  W    1.660101   0.002803
    27  W    1.707495   0.002532
    28  W    1.612304   0.003349
    29  W    1.668650   0.002949
    30  O   -0.350756  -0.000530
    31  O   -0.394448  -0.000564
    32  O   -0.393998  -0.000599
    33  O   -0.392647  -0.000553
    34  O   -0.672139  -0.000303
    35  O   -0.677340  -0.000052
    36  O   -0.669456  -0.000145
    37  O   -0.671288  -0.000228
    38  O   -0.395934   0.002107
    39  O   -0.396647   0.002128
    40  O   -0.339379  -0.001076
    41  O   -0.395844   0.002114
    42  O   -0.677176   0.000073
    43  O   -0.670534   0.000178
    44  O   -0.666826   0.000298
    45  O   -0.673575   0.000097
    46  O   -0.395922   0.002323
    47  O   -0.352578   0.002208
    48  O   -0.387408   0.001783
    49  O   -0.395138   0.002379
    50  W    1.656647   0.002871
    51  W    1.660025   0.002760
    52  W    1.670416   0.003866
    53  W    1.667883   0.002702
    54  O   -0.720339   0.000105
    55  O   -0.703519   0.000008
    56  O   -0.721804   0.000176
    57  O   -0.718842   0.000063
    58  O   -0.701915  -0.000016
    59  O   -0.722336   0.000160
    60  O   -0.721054   0.000209
    61  O   -0.717259   0.000207
    62  O   -0.721259  -0.000175
    63  O   -0.704761  -0.000011
    64  O   -0.720573  -0.000193
    65  O   -0.723219  -0.000206
    66  O   -0.881867   0.005298
    67  O   -0.882383   0.007452
    68  O   -0.880031   0.007190
    69  O   -0.887670   0.006710
    70  K    0.850960   0.000201
    71  K    0.850523   0.000223
    72  K    0.846371   0.000249
    73  V    1.199609   0.935309
 Electronic spatial extent (au):  <R**2>=         316883.3365
 Charge=             -1.0000 electrons
 Dipole moment (field-independent basis, Debye):
    X=             29.4110    Y=            -13.7104    Z=            -30.7963  Tot=             44.7370
 Quadrupole moment (field-independent basis, Debye-Ang):
   XX=           -781.9921   YY=           -700.2141   ZZ=           -783.9287
   XY=            132.0490   XZ=            188.6548   YZ=            -93.3807
 Traceless Quadrupole moment (field-independent basis, Debye-Ang):
   XX=            -26.6138   YY=             55.1642   ZZ=            -28.5504
   XY=            132.0490   XZ=            188.6548   YZ=            -93.3807
 Octapole moment (field-independent basis, Debye-Ang**2):
  XXX=          10479.3652  YYY=            914.9178  ZZZ=         -17463.4736  XYY=           4089.4766
  XXY=           -695.0452  XXZ=          -6263.0379  XZZ=           4203.9863  YZZ=           -131.2729
  YYZ=          -6979.5741  XYZ=           1446.7046
 Hexadecapole moment (field-independent basis, Debye-Ang**3):
 XXXX=        -128599.0134 YYYY=         -38982.5146 ZZZZ=        -326500.2058 XXXY=           8837.4635
 XXXZ=          89353.6781 YYYX=           2529.8435 YYYZ=           7930.7770 ZZZX=          91956.8831
 ZZZY=           7815.3509 XXYY=         -35864.4084 XXZZ=         -72206.1902 YYZZ=         -77423.5808
 XXYZ=         -11254.4416 YYXZ=          40222.6920 ZZXY=          14842.4725
 N-N= 2.100459313368D+04 E-N=-5.911890829778D+04  KE= 6.765674217188D+03
                          Isotropic Fermi Contact Couplings
        Atom                 a.u.       MegaHertz       Gauss      10(-4) cm-1
     1  Cl(35)            -0.09749     -21.37316      -7.62647      -7.12932
     2  C(13)             -0.01268      -7.12668      -2.54298      -2.37721
     3  C(13)              0.01577       8.86557       3.16346       2.95724
     4  C(13)             -0.01225      -6.88605      -2.45712      -2.29694
     5  C(13)              0.01134       6.37304       2.27406       2.12582
     6  C(13)             -0.01586      -8.91432      -3.18085      -2.97350
     7  C(13)              0.01119       6.28896       2.24406       2.09777
     8  H(1)               0.00112       2.49489       0.89024       0.83221
     9  H(1)               0.00109       2.43980       0.87058       0.81383
    10  H(1)              -0.00052      -1.17194      -0.41818      -0.39092
    11  H(1)               0.00131       2.92477       1.04363       0.97560
    12  H(1)              -0.00051      -1.13631      -0.40546      -0.37903
    13  C(13)             -0.02852     -16.02842      -5.71934      -5.34651
    14  C(13)             -0.02635     -14.81257      -5.28549      -4.94094
    15  H(1)               0.00287       6.40467       2.28534       2.13637
    16  H(1)               0.00168       3.75902       1.34131       1.25388
    17  H(1)               0.00136       3.03541       1.08311       1.01251
    18  O(17)             -0.00045       0.13645       0.04869       0.04551
    19  O(17)             -0.00039       0.11959       0.04267       0.03989
    20  O(17)             -0.00162       0.49079       0.17513       0.16371
    21  O(17)             -0.00043       0.12947       0.04620       0.04319
    22  W(183)             0.00000       0.00000       0.00000       0.00000
    23  W(183)             0.00000       0.00000       0.00000       0.00000
    24  W(183)             0.00000       0.00000       0.00000       0.00000
    25  W(183)             0.00000       0.00000       0.00000       0.00000
    26  W(183)             0.00000       0.00000       0.00000       0.00000
    27  W(183)             0.00000       0.00000       0.00000       0.00000
    28  W(183)             0.00000       0.00000       0.00000       0.00000
    29  W(183)             0.00000       0.00000       0.00000       0.00000
    30  O(17)             -0.00020       0.06052       0.02160       0.02019
    31  O(17)             -0.00024       0.07204       0.02571       0.02403
    32  O(17)             -0.00025       0.07655       0.02732       0.02554
    33  O(17)             -0.00023       0.06858       0.02447       0.02288
    34  O(17)             -0.00006       0.01676       0.00598       0.00559
    35  O(17)              0.00013      -0.04068      -0.01452      -0.01357
    36  O(17)              0.00012      -0.03776      -0.01347      -0.01260
    37  O(17)              0.00004      -0.01161      -0.00414      -0.00387
    38  O(17)              0.00195      -0.59228      -0.21134      -0.19756
    39  O(17)              0.00192      -0.58089      -0.20728      -0.19376
    40  O(17)             -0.01198       3.62981       1.29521       1.21077
    41  O(17)              0.00191      -0.57983      -0.20690      -0.19341
    42  O(17)              0.00026      -0.07910      -0.02823      -0.02639
    43  O(17)              0.00034      -0.10230      -0.03650      -0.03412
    44  O(17)              0.00046      -0.13961      -0.04981      -0.04657
    45  O(17)              0.00028      -0.08384      -0.02992      -0.02797
    46  O(17)              0.00223      -0.67568      -0.24110      -0.22538
    47  O(17)              0.00199      -0.60368      -0.21541      -0.20137
    48  O(17)              0.00062      -0.18799      -0.06708      -0.06271
    49  O(17)              0.00224      -0.67986      -0.24259      -0.22678
    50  W(183)             0.00000       0.00000       0.00000       0.00000
    51  W(183)             0.00000       0.00000       0.00000       0.00000
    52  W(183)             0.00000       0.00000       0.00000       0.00000
    53  W(183)             0.00000       0.00000       0.00000       0.00000
    54  O(17)              0.00017      -0.05075      -0.01811      -0.01693
    55  O(17)              0.00004      -0.01190      -0.00425      -0.00397
    56  O(17)              0.00027      -0.08209      -0.02929      -0.02738
    57  O(17)              0.00006      -0.01736      -0.00619      -0.00579
    58  O(17)              0.00014      -0.04187      -0.01494      -0.01396
    59  O(17)              0.00028      -0.08581      -0.03062      -0.02862
    60  O(17)              0.00034      -0.10217      -0.03646      -0.03408
    61  O(17)              0.00035      -0.10671      -0.03808      -0.03559
    62  O(17)             -0.00026       0.07933       0.02831       0.02646
    63  O(17)             -0.00017       0.05278       0.01883       0.01760
    64  O(17)             -0.00028       0.08574       0.03059       0.02860
    65  O(17)             -0.00031       0.09331       0.03330       0.03112
    66  O(17)             -0.00822       2.49207       0.88923       0.83127
    67  O(17)             -0.00703       2.12964       0.75991       0.71037
    68  O(17)             -0.00722       2.18967       0.78133       0.73040
    69  O(17)             -0.00757       2.29455       0.81875       0.76538
    70  K(39)             -0.00002      -0.00200      -0.00072      -0.00067
    71  K(39)             -0.00002      -0.00192      -0.00069      -0.00064
    72  K(39)             -0.00002      -0.00214      -0.00077      -0.00072
    73  V(51)              0.07034      41.42423      14.78120      13.81764
 --------------------------------------------------------
       Center         ----  Spin Dipole Couplings  ----
                      3XX-RR        3YY-RR        3ZZ-RR
 --------------------------------------------------------
     1   Atom        0.430438     -1.768924      1.338486
     2   Atom       -0.017417     -0.012133      0.029550
     3   Atom        0.006514      0.002031     -0.008545
     4   Atom       -0.016640     -0.014501      0.031141
     5   Atom        0.010706      0.005870     -0.016575
     6   Atom       -0.019851     -0.015483      0.035334
     7   Atom        0.009737      0.005097     -0.014834
     8   Atom       -0.001464     -0.001275      0.002738
     9   Atom        0.000130      0.000201     -0.000331
    10   Atom        0.001511      0.000413     -0.001924
    11   Atom        0.003690      0.000200     -0.003889
    12   Atom        0.000571     -0.000547     -0.000024
    13   Atom       -0.063395     -0.031131      0.094527
    14   Atom       -0.022517     -0.044270      0.066787
    15   Atom       -0.002225      0.002079      0.000146
    16   Atom        0.007259      0.003050     -0.010309
    17   Atom       -0.011391      0.004807      0.006583
    18   Atom        0.001355     -0.001313     -0.000041
    19   Atom        0.001916     -0.001835     -0.000081
    20   Atom       -0.002101     -0.000349      0.002450
    21   Atom       -0.000613      0.000646     -0.000033
    22   Atom       -0.001995      0.000597      0.001398
    23   Atom       -0.001834      0.000686      0.001148
    24   Atom       -0.002403      0.001054      0.001348
    25   Atom       -0.002096      0.000632      0.001464
    26   Atom        0.000357     -0.002275      0.001918
    27   Atom        0.000517     -0.002515      0.001998
    28   Atom        0.000923     -0.003118      0.002196
    29   Atom        0.000676     -0.002751      0.002075
    30   Atom       -0.000147      0.000265     -0.000117
    31   Atom        0.000013      0.000056     -0.000069
    32   Atom       -0.000514      0.000623     -0.000109
    33   Atom       -0.000167      0.000242     -0.000075
    34   Atom       -0.000027     -0.001972      0.001999
    35   Atom       -0.000342     -0.002606      0.002948
    36   Atom       -0.002177     -0.000478      0.002655
    37   Atom       -0.001873     -0.000652      0.002524
    38   Atom        0.006146     -0.002995     -0.003151
    39   Atom        0.006187     -0.003067     -0.003120
    40   Atom       -0.011002      0.007721      0.003281
    41   Atom       -0.004488      0.007868     -0.003380
    42   Atom        0.002623     -0.001003     -0.001621
    43   Atom        0.002951     -0.001065     -0.001886
    44   Atom       -0.004502      0.005812     -0.001310
    45   Atom       -0.003345      0.004907     -0.001561
    46   Atom       -0.000526      0.000474      0.000052
    47   Atom        0.001987     -0.002854      0.000867
    48   Atom        0.005145     -0.007662      0.002518
    49   Atom        0.005195     -0.005030     -0.000165
    50   Atom        0.006102     -0.002768     -0.003334
    51   Atom        0.006456     -0.003165     -0.003291
    52   Atom       -0.002134      0.004755     -0.002621
    53   Atom       -0.002058      0.005463     -0.003405
    54   Atom       -0.003133     -0.001718      0.004851
    55   Atom       -0.002835     -0.001920      0.004755
    56   Atom       -0.001166     -0.004485      0.005651
    57   Atom       -0.001152     -0.003754      0.004905
    58   Atom       -0.003990      0.006407     -0.002417
    59   Atom       -0.003923      0.006668     -0.002746
    60   Atom        0.002640      0.000026     -0.002665
    61   Atom        0.002906     -0.000333     -0.002573
    62   Atom        0.000840      0.000962     -0.001802
    63   Atom        0.001216      0.000282     -0.001498
    64   Atom        0.005338     -0.003809     -0.001529
    65   Atom        0.004994     -0.003145     -0.001849
    66   Atom       -0.030280      0.001728      0.028551
    67   Atom       -0.035130     -0.001095      0.036224
    68   Atom       -0.062310      0.022131      0.040180
    69   Atom       -0.057675      0.027164      0.030511
    70   Atom       -0.000579      0.000559      0.000020
    71   Atom        0.000438     -0.000530      0.000093
    72   Atom        0.000759     -0.000956      0.000196
    73   Atom       -1.015607      0.260970      0.754638
 --------------------------------------------------------
                        XY            XZ            YZ
 --------------------------------------------------------
     1   Atom        2.231081      0.816774     -1.312790
     2   Atom        0.054236      0.022312     -0.020374
     3   Atom       -0.015239     -0.004824      0.008718
     4   Atom        0.052029      0.020705     -0.019979
     5   Atom       -0.027116     -0.011941      0.011971
     6   Atom        0.066236      0.028372     -0.024102
     7   Atom       -0.026659     -0.010322      0.012758
     8   Atom       -0.002091     -0.001890      0.000427
     9   Atom       -0.002025     -0.003485     -0.002642
    10   Atom       -0.000483     -0.001166      0.000871
    11   Atom        0.001716      0.002363      0.005334
    12   Atom       -0.001182      0.000216      0.002196
    13   Atom        0.158510      0.072595     -0.063246
    14   Atom        0.110754      0.052153     -0.053734
    15   Atom       -0.004411     -0.010778     -0.012814
    16   Atom        0.001139      0.010153      0.005951
    17   Atom       -0.001601     -0.009917     -0.004441
    18   Atom        0.000457     -0.001716      0.000231
    19   Atom        0.000353      0.002087     -0.000553
    20   Atom        0.003751      0.001342     -0.001179
    21   Atom       -0.001173      0.001376     -0.001362
    22   Atom        0.002217     -0.001950     -0.004096
    23   Atom        0.002191      0.002213      0.003917
    24   Atom        0.002327      0.001813      0.004199
    25   Atom        0.001995     -0.002004     -0.004123
    26   Atom       -0.002029     -0.004587      0.002411
    27   Atom       -0.001839      0.004715     -0.002736
    28   Atom       -0.001457     -0.004687      0.002618
    29   Atom       -0.001664      0.004780     -0.002211
    30   Atom        0.000421     -0.000178     -0.000581
    31   Atom        0.000450      0.000651      0.000305
    32   Atom        0.000468     -0.000151      0.000817
    33   Atom        0.000307     -0.000116     -0.000631
    34   Atom        0.000629     -0.003244     -0.000883
    35   Atom        0.000841      0.003943      0.001043
    36   Atom       -0.000351     -0.001786      0.003857
    37   Atom       -0.000630      0.001488     -0.003181
    38   Atom        0.004748      0.003646      0.001632
    39   Atom        0.004970     -0.003572     -0.001874
    40   Atom        0.012476      0.006366     -0.008667
    41   Atom       -0.002412     -0.000534      0.003720
    42   Atom        0.003940     -0.002556     -0.001901
    43   Atom        0.004247      0.002827      0.001880
    44   Atom        0.000380     -0.000053      0.003987
    45   Atom       -0.000440      0.000066     -0.003540
    46   Atom       -0.004903     -0.004855      0.005115
[...]
 Variable       Old X    -DE/DX   Delta X   Delta X   Delta X     New X
                                 (Linear)    (Quad)   (Total)
    X1      -18.86499   0.00743   0.00000   0.00732   0.00947 -18.85552
    Y1       14.95775  -0.01167   0.00000  -0.01138  -0.01296  14.94479
    Z1       19.79002  -0.00378   0.00000  -0.00391  -0.00600  19.78402
    X2      -15.69968   0.00177   0.00000   0.00150   0.00311 -15.69656
    Y2        8.01002   0.00083   0.00000   0.01119   0.00971   8.01973
    Z2       23.11790   0.00256   0.00000   0.00134  -0.00004  23.11786
    X3      -17.13603   0.00093   0.00000  -0.02031  -0.01865 -17.15468
    Y3        7.39927   0.00257   0.00000   0.02225   0.02067   7.41994
    Z3       20.96533  -0.00437   0.00000   0.00873   0.00734  20.97268
    X4      -18.90668  -0.00265   0.00000  -0.00848  -0.00693 -18.91361
    Y4        5.42764  -0.00228   0.00000   0.00339   0.00193   5.42957
    Z4       21.16079  -0.00087   0.00000  -0.00767  -0.00897  21.15183
    X5      -19.25114  -0.00127   0.00000  -0.00027   0.00111 -19.25004
    Y5        4.12835  -0.00019   0.00000  -0.00054  -0.00180   4.12655
    Z5       23.41983  -0.00177   0.00000  -0.01211  -0.01332  23.40651
    X6      -17.81772   0.00029   0.00000   0.00343   0.00475 -17.81296
    Y6        4.76219   0.00026   0.00000   0.00513   0.00397   4.76616
    Z6       25.53941  -0.00097   0.00000  -0.01360  -0.01480  25.52461
    X7      -16.03814   0.00137   0.00000   0.00813   0.00957 -16.02856
    Y7        6.70375   0.00203   0.00000   0.00450   0.00322   6.70697
    Z7       25.37548  -0.00094   0.00000  -0.00692  -0.00821  25.36728
    X8      -14.31077   0.00002   0.00000   0.00385   0.00555 -14.30521
    Y8        9.53501  -0.00035   0.00000   0.00699   0.00542   9.54043
    Z8       23.04328  -0.00016   0.00000  -0.00193  -0.00338  23.03989
    X9      -20.03470   0.00039   0.00000  -0.00310  -0.00152 -20.03621
    Y9        4.92447  -0.00009   0.00000   0.00159   0.00005   4.92453
    Z9       19.50314   0.00022   0.00000  -0.00856  -0.00987  19.49328
   X10      -20.64537   0.00060   0.00000   0.00698   0.00826 -20.63710
   Y10        2.60863   0.00022   0.00000  -0.00490  -0.00607   2.60256
   Z10       23.52720  -0.00018   0.00000  -0.00946  -0.01059  23.51661
   X11      -18.06723  -0.00023   0.00000   0.00051   0.00170 -18.06553
   Y11        3.73233   0.00038   0.00000   0.00716   0.00615   3.73848
   Z11       27.31048  -0.00018   0.00000  -0.01242  -0.01354  27.29693
   X12      -14.91368   0.00013   0.00000   0.01125   0.01266 -14.90102
   Y12        7.21534  -0.00024   0.00000  -0.00426  -0.00547   7.20987
   Z12       27.03061  -0.00049   0.00000  -0.00767  -0.00895  27.02166
   X13      -16.88891  -0.01621   0.00000  -0.06340  -0.06156 -16.95047
   Y13        8.74450  -0.01454   0.00000   0.05708   0.05529   8.79979
   Z13       18.55920   0.01156   0.00000   0.04155   0.04005  18.59925
   X14      -15.34037   0.00719   0.00000  -0.06483  -0.06285 -15.40321
   Y14       10.70253   0.02406   0.00000   0.10320   0.10128  10.80381
   Z14       18.08751  -0.00099   0.00000   0.03740   0.03580  18.12331
   X15      -18.11068  -0.00005   0.00000  -0.03343  -0.03156 -18.14224
   Y15        8.05914   0.00039   0.00000   0.03374   0.03189   8.09103
   Z15       17.03546   0.00017   0.00000   0.02731   0.02582  17.06128
   X16      -15.24830  -0.00035   0.00000  -0.03903  -0.03692 -15.28522
   Y16       11.55125  -0.00082   0.00000   0.05115   0.04907  11.60032
   Z16       16.20993  -0.00039   0.00000   0.01554   0.01388  16.22380
   X17      -13.97267  -0.00018   0.00000  -0.03614  -0.03417 -14.00684
   Y17       11.38807   0.00031   0.00000   0.07429   0.07241  11.46047
   Z17       19.47331   0.00033   0.00000   0.02198   0.02039  19.49370
   X18       -1.90929   0.00516   0.00000   0.02580   0.02712  -1.88217
   Y18       -3.33064  -0.00083   0.00000  -0.00564  -0.00868  -3.33933
   Z18       14.09570  -0.00140   0.00000  -0.01210  -0.01197  14.08373
   X19      -15.89517  -0.00486   0.00000  -0.01834  -0.01697 -15.91214
   Y19       -2.50523   0.00119   0.00000  -0.00213  -0.00435  -2.50958
   Z19       14.10619  -0.00170   0.00000  -0.01384  -0.01436  14.09184
   X20      -13.33488  -0.00366   0.00000  -0.01020  -0.00876 -13.34364
   Y20        2.53911   0.00462   0.00000   0.01722   0.01532   2.55443
   Z20       19.81944   0.00062   0.00000   0.00868   0.00785  19.82729
   X21       -4.40807   0.00366   0.00000   0.01336   0.01416  -4.39391
   Y21       -8.22286  -0.00347   0.00000  -0.02164  -0.02405  -8.24691
   Z21       19.95763   0.00152   0.00000   0.01266   0.01309  19.97072
   X22       -6.46963  -0.00240   0.00000   0.01355   0.01523  -6.45440
   Y22        1.40256  -0.01657   0.00000  -0.02537  -0.02829   1.37427
   Z22       12.27248   0.01514   0.00000   0.01195   0.01150  12.28398
   X23      -11.36123   0.00391   0.00000  -0.00882  -0.00765 -11.36888
   Y23       -7.23535   0.01601   0.00000   0.01162   0.00900  -7.22636
   Z23       12.44114   0.01588   0.00000   0.00973   0.00979  12.45093
   X24       -6.86418  -0.01015   0.00000  -0.01680  -0.01549  -6.87967
   Y24        1.73453  -0.01365   0.00000  -0.00402  -0.00615   1.72838
   Z24       21.56089  -0.01568   0.00000  -0.01266  -0.01315  21.54774
   X25      -10.92179   0.01111   0.00000   0.02188   0.02267 -10.89913
   Y25       -7.31164   0.01159   0.00000  -0.00094  -0.00282  -7.31446
   Z25       21.68012  -0.01614   0.00000  -0.01157  -0.01148  21.66864
   X26       -4.66863  -0.01277   0.00000   0.00442   0.00575  -4.66288
   Y26       -4.81321   0.01137   0.00000   0.00998   0.00694  -4.80628
   Z26       12.05727   0.01691   0.00000   0.01091   0.01105  12.06832
   X27      -13.12534   0.01276   0.00000   0.00549   0.00703 -13.11830
   Y27       -1.01223  -0.01249   0.00000  -0.02287  -0.02543  -1.03767
   Z27       11.99836   0.01628   0.00000   0.01237   0.01185  12.01021
   X28      -12.90167   0.01819   0.00000   0.01637   0.01754 -12.88413
   Y28       -0.47397  -0.00502   0.00000   0.00814   0.00639  -0.46759
   Z28       21.90886  -0.01691   0.00000  -0.01298  -0.01354  21.89532
   X29       -4.86186  -0.01697   0.00000  -0.01164  -0.01074  -4.87260
   Y29       -5.09198   0.00280   0.00000  -0.01454  -0.01675  -5.10873
   Z29       21.97657  -0.01682   0.00000  -0.01132  -0.01116  21.96541
   X30       -6.04116   0.00122   0.00000  -0.00467  -0.00277  -6.04393
   Y30        3.67293   0.00429   0.00000  -0.01151  -0.01464   3.65829
   Z30       10.07356  -0.00471   0.00000   0.00461   0.00399  10.07755
   X31      -11.61332  -0.00061   0.00000   0.00815   0.00927 -11.60405
   Y31       -9.60322  -0.00500   0.00000   0.00049  -0.00230  -9.60552
   Z31       10.28907  -0.00494   0.00000   0.00107   0.00132  10.29040
   X32       -5.12628   0.00359   0.00000   0.00213   0.00345  -5.12283
   Y32        3.34853   0.00333   0.00000  -0.01201  -0.01406   3.33447
   Z32       23.72447   0.00498   0.00000  -0.00308  -0.00363  23.72084
   X33      -12.64401  -0.00339   0.00000   0.00304   0.00365 -12.64037
   Y33       -8.85488  -0.00310   0.00000   0.00771   0.00611  -8.84877
   Z33       23.90704   0.00490   0.00000  -0.00244  -0.00229  23.90474
   X34       -5.09626   0.00196   0.00000   0.01872   0.02029  -5.07597
   Y34       -1.63964   0.00122   0.00000  -0.00095  -0.00409  -1.64374
   Z34       10.55372  -0.00462   0.00000  -0.01389  -0.01403  10.53969
   X35      -12.69415  -0.00218   0.00000  -0.01250  -0.01109 -12.70524
   Y35       -4.29074  -0.00021   0.00000  -0.00871  -0.01141  -4.30215
   Z35       10.63350  -0.00488   0.00000  -0.01566  -0.01590  10.61760
   X36      -10.05909  -0.00095   0.00000  -0.00338  -0.00218 -10.06127
   Y36        1.06821   0.00232   0.00000   0.01518   0.01339   1.08160
   Z36       23.37580   0.00461   0.00000   0.01041   0.00984  23.38564
   X37       -7.68477   0.00052   0.00000   0.00614   0.00689  -7.67789
   Y37       -6.63467  -0.00205   0.00000  -0.01778  -0.01970  -6.65438
   Z37       23.45794   0.00476   0.00000   0.01285   0.01302  23.47096
   X38        0.55887   0.00674   0.00000  -0.00145  -0.00007   0.55880
   Y38       -0.00366   0.00253   0.00000  -0.00068  -0.00358  -0.00724
   Z38       17.52204   0.00201   0.00000   0.00368   0.00364  17.52568
   X39      -18.36558  -0.00658   0.00000   0.00751   0.00855 -18.35703
   Y39       -5.70004  -0.00249   0.00000  -0.00615  -0.00794  -5.70798
   Z39       17.62949   0.00204   0.00000   0.00365   0.00330  17.63279
   X40      -12.07643  -0.00442   0.00000  -0.01017  -0.00837 -12.08480
   Y40        6.45742   0.01035   0.00000  -0.00271  -0.00497   6.45245
   Z40       16.31398  -0.00066   0.00000   0.00653   0.00543  16.31940
   X41       -5.60424   0.00185   0.00000  -0.00704  -0.00633  -5.61058
   Y41      -12.19078  -0.00740   0.00000  -0.00477  -0.00739 -12.19817
   Z41       16.53375  -0.00180   0.00000  -0.00214  -0.00143  16.53233
   X42       -3.41958   0.00309   0.00000   0.02136   0.02297  -3.39661
   Y42        1.48117   0.00389   0.00000   0.00233  -0.00062   1.48056
   Z42       14.14096  -0.00217   0.00000  -0.01267  -0.01300  14.12796
   X43      -14.38654  -0.00368   0.00000  -0.01777  -0.01669 -14.40323
   Y43       -7.32846  -0.00368   0.00000  -0.01068  -0.01298  -7.34143
   Z43       14.28664  -0.00167   0.00000  -0.01211  -0.01216  14.27448
   X44       -8.56818   0.00018   0.00000  -0.00275  -0.00122  -8.56940
   Y44        4.19497   0.00556   0.00000   0.01889   0.01670   4.21168
   Z44       19.70314   0.00100   0.00000   0.00620   0.00543  19.70857
   X45       -9.19471  -0.00113   0.00000   0.00579   0.00650  -9.18821
   Y45       -9.85383  -0.00490   0.00000  -0.02163  -0.02376  -9.87759
   Z45       19.88730   0.00189   0.00000   0.01120   0.01158  19.89888
   X46       -3.09372   0.00397   0.00000   0.00106   0.00238  -3.09134
   Y46       -6.56283  -0.00454   0.00000  -0.01211  -0.01543  -6.57826
   Z46        9.87259  -0.00479   0.00000   0.00632   0.00668   9.87927
   X47      -14.79567  -0.00418   0.00000   0.01057   0.01230 -14.78337
   Y47        0.50174   0.00322   0.00000  -0.00042  -0.00307   0.49867
   Z47        9.74079  -0.00481   0.00000   0.00458   0.00386   9.74465
   X48      -15.19151  -0.00615   0.00000   0.00201   0.00309 -15.18842
   Y48       -0.32145   0.00091   0.00000  -0.00355  -0.00498  -0.32643
   Z48       24.14878   0.00539   0.00000  -0.00624  -0.00691  24.14187
   X49       -2.52986   0.00575   0.00000   0.00301   0.00381  -2.52605
   Y49       -5.31035  -0.00087   0.00000  -0.00110  -0.00326  -5.31361
   Z49       24.17357   0.00486   0.00000  -0.00587  -0.00560  24.16797
   X50       -2.39249  -0.02190   0.00000  -0.00650  -0.00514  -2.39763
   Y50       -0.97622  -0.00775   0.00000  -0.01185  -0.01464  -0.99086
   Z50       16.71103  -0.00460   0.00000  -0.01678  -0.01686  16.69417
   X51      -15.41819   0.02228   0.00000   0.01264   0.01377 -15.40441
   Y51       -4.74225   0.00594   0.00000   0.00276   0.00072  -4.74152
   Z51       16.78393  -0.00508   0.00000  -0.01803  -0.01834  16.76560
   X52      -11.20477   0.00926   0.00000   0.00426   0.00585 -11.19892
   Y52        3.49899  -0.02577   0.00000  -0.01692  -0.01917   3.47982
   Z52       17.09256   0.00583   0.00000   0.01703   0.01621  17.10877
   X53       -6.55631  -0.00745   0.00000   0.00009   0.00094  -6.55537
   Y53       -9.22683   0.02236   0.00000   0.00746   0.00496  -9.22187
   Z53       17.32292   0.00446   0.00000   0.01659   0.01702  17.33995
   X54       -8.00886   0.00090   0.00000   0.00016   0.00145  -8.00742
   Y54       -5.84322  -0.00224   0.00000   0.00915   0.00625  -5.83697
   Z54       11.47237  -0.00331   0.00000   0.01033   0.01042  11.48279
   X55       -9.78276  -0.00090   0.00000   0.00785   0.00947  -9.77328
   Y55       -0.05658   0.00213   0.00000  -0.02241  -0.02522  -0.08179
   Z55       11.35989  -0.00306   0.00000   0.01108   0.01062  11.37051
   X56      -11.69299  -0.00247   0.00000   0.01635   0.01731 -11.67568
   Y56       -3.78032   0.00033   0.00000   0.00580   0.00403  -3.77629
   Z56       22.53257   0.00326   0.00000  -0.01199  -0.01223  22.52034
   X57       -6.02263   0.00215   0.00000  -0.01201  -0.01095  -6.03358
   Y57       -1.79614   0.00094   0.00000  -0.00921  -0.01131  -1.80745
   Z57       22.54988   0.00321   0.00000  -0.01192  -0.01208  22.53779
   X58       -8.29512  -0.00062   0.00000   0.00654   0.00821  -8.28691
   Y58        3.01037   0.00377   0.00000  -0.01691  -0.01951   2.99085
   Z58       14.83046  -0.00132   0.00000   0.01075   0.01009  14.84055
   X59       -9.46115  -0.00053   0.00000  -0.00484  -0.00387  -9.46502
   Y59       -8.83455  -0.00334   0.00000   0.00984   0.00731  -8.82724
   Z59       14.97991  -0.00219   0.00000   0.01013   0.01041  14.99032
   X60       -4.42554   0.00224   0.00000  -0.01237  -0.01099  -4.43652
   Y60        1.13708   0.00250   0.00000  -0.00772  -0.01020   1.12688
   Z60       19.05133   0.00225   0.00000  -0.01176  -0.01210  19.03923
   X61      -13.35552  -0.00260   0.00000   0.01712   0.01803 -13.33749
   Y61       -6.82401  -0.00202   0.00000   0.00181  -0.00014  -6.82415
   Z61       19.16297   0.00205   0.00000  -0.01156  -0.01161  19.15136
   X62       -4.87702   0.00216   0.00000   0.00239   0.00345  -4.87357
   Y62       -7.31601  -0.00308   0.00000   0.00495   0.00215  -7.31387
   Z62       14.85187  -0.00124   0.00000   0.01258   0.01292  14.86478
   X63      -12.93149  -0.00170   0.00000   0.00428   0.00586 -12.92563
   Y63        1.48741   0.00396   0.00000  -0.01310  -0.01544   1.47196
   Z63       14.74640  -0.00044   0.00000   0.01358   0.01285  14.75925
   X64      -14.82519  -0.00355   0.00000   0.01228   0.01346 -14.81173
   Y64       -2.21887   0.00052   0.00000   0.00484   0.00297  -2.21590
   Z64       19.20117   0.00147   0.00000  -0.01417  -0.01466  19.18651
   X65       -2.97547   0.00377   0.00000  -0.00607  -0.00496  -2.98043
   Y65       -3.46635   0.00014   0.00000  -0.01121  -0.01376  -3.48012
   Z65       19.18523   0.00109   0.00000  -0.01278  -0.01268  19.17255
   X66       -6.39760   0.04167   0.00000   0.07524   0.07660  -6.32100
   Y66       -2.13520   0.00808   0.00000   0.00487   0.00218  -2.13302
   Z66       15.14683  -0.02719   0.00000  -0.04305  -0.04320  15.10363
   X67      -11.40189  -0.04225   0.00000  -0.06697  -0.06570 -11.46759
   Y67       -3.68553  -0.00936   0.00000  -0.01825  -0.02064  -3.70617
   Z67       15.19926  -0.02679   0.00000  -0.04372  -0.04395  15.15530
   X68       -9.70907  -0.01738   0.00000  -0.02754  -0.02623  -9.73530
   Y68       -0.37396   0.04020   0.00000   0.06122   0.05903  -0.31492
   Z68       18.80551   0.02712   0.00000   0.04185   0.04141  18.84692
   X69       -8.03367   0.01749   0.00000   0.03420   0.03521  -7.99846
   Y69       -5.33430  -0.03816   0.00000  -0.06527  -0.06755  -5.40185
   Z69       18.85867   0.02733   0.00000   0.04195   0.04200  18.90067
   X70       -6.10901  -0.00034   0.00000  -0.00257  -0.00158  -6.11060
   Y70      -11.56890   0.00144   0.00000   0.00879   0.00572 -11.56318
   Z70       10.70308   0.00103   0.00000   0.01252   0.01316  10.71624
   X71       -0.27893  -0.00122   0.00000  -0.01193  -0.01078  -0.28971
   Y71        0.07765  -0.00048   0.00000  -0.00951  -0.01187   0.06578
   Z71       23.34110  -0.00110   0.00000  -0.01260  -0.01268  23.32842
   X72      -17.52095   0.00142   0.00000   0.01763   0.01844 -17.50251
   Y72       -5.53350   0.00065   0.00000   0.00432   0.00297  -5.53053
   Z72       23.45763  -0.00103   0.00000  -0.01266  -0.01299  23.44464
   X73       -8.88998   0.00078   0.00000   0.00456   0.00580  -8.88418
   Y73       -2.87518  -0.00055   0.00000  -0.00435  -0.00674  -2.88192
   Z73       16.99763  -0.00057   0.00000  -0.00179  -0.00198  16.99565
         Item               Value     Threshold  Converged?
 Maximum Force            0.042251     0.000450     NO 
 RMS     Force            0.009563     0.000300     NO 
 Maximum Displacement     0.101281     0.001800     NO 
 RMS     Displacement     0.020221     0.001200     NO 
 Predicted change in Energy=-1.398249D-02
 GradGradGradGradGradGradGradGradGradGradGradGradGradGradGradGradGradGrad

 Unable to Open any file for archive entry.
 1\1\GINC-X11P1N2\Force\UwB97XD\def2SVP\C8H8Cl1K3O40V1W12(1-)\MAYUMIAO\
 01-Jun-2024\0\\# def2svp wb97xd scrf=(smd,solvent=acetonitrile) g09def
 ault scf=(xqc,maxcycle=64) force guess=read nosymm\\Title Card\\-1,1\C
 l,-9.98292302,7.91529854,10.47242609\C,-8.30791176,4.23872216,12.23346
 773\C,-9.06799811,3.91552562,11.09437716\C,-10.00498198,2.87218092,11.
 19781\C,-10.1872655,2.18463041,12.39323949\C,-9.428729,2.52004271,13.5
 1487181\C,-8.48701728,3.54746969,13.42812795\H,-7.57293083,5.04570961,
 12.19397718\H,-10.60190491,2.60591919,10.32061901\H,-10.92505675,1.380
 4284,12.45005838\H,-9.56076644,1.97506155,14.4520812\H,-7.89197927,3.8
 1819141,14.30398095\C,-8.93722815,4.62739112,9.82110307\C,-8.11777292,
 5.663533,9.57149814\H,-9.58375994,4.26471337,9.01477479\H,-8.06905084,
 6.1126581,8.57792329\H,-7.39401927,6.02630534,10.3048337\O,-1.01035257
 ,-1.76250092,7.45912076\O,-8.41136065,-1.32571119,7.46467564\O,-7.0565
 1463,1.34364047,10.48799431\O,-2.33264972,-4.35134949,10.56112238\W,-3
 .42357865,0.74220446,6.49431807\W,-6.0121036,-3.8287838,6.58356764\W,-
 3.63236796,0.91787369,11.40953214\W,-5.77956414,-3.86915297,11.4726265
 \W,-2.47052996,-2.54704365,6.38043279\W,-6.94562947,-0.53565098,6.3492
 5824\W,-6.82726982,-0.25081538,11.59366674\W,-2.57278601,-2.69455932,1
 1.62950249\O,-3.19684496,1.94363347,5.33070023\O,-6.14550406,-5.081805
 17,5.4447438\O,-2.71271009,1.77196632,12.55445098\O,-6.69092381,-4.685
 80178,12.65105943\O,-2.69682291,-0.86766071,5.58478636\O,-6.71745443,-
 2.27056029,5.62700571\O,-5.32304127,0.5652733,12.36993846\O,-4.0666063
 5,-3.51091812,12.41340742\O,0.29573951,-0.00193547,9.27226335\O,-9.718
 64647,-3.01633329,9.32912493\O,-6.39057012,3.41711829,8.63298518\O,-2.
 96563796,-6.45108207,8.74928506\O,-1.80956141,0.78380283,7.48307293\O,
 -7.61302941,-3.87805148,7.56016559\O,-4.53408595,2.21988299,10.4264519
 3\O,-4.86563055,-5.21442289,10.52390697\O,-1.6371238,-3.4729,5.2243494
 \O,-7.8295305,0.26551041,5.1546018\O,-8.03900096,-0.17010215,12.778982
 02\O,-1.33874518,-2.81011468,12.79209999\W,-1.26604924,-0.51659358,8.8
 4309761\W,-8.15895327,-2.50948814,8.88167516\W,-5.92931062,1.85158465,
 9.04499286\W,-3.46945075,-4.88262936,9.16689647\O,-4.23810848,-3.09209
 687,6.07091699\O,-5.17681172,-0.02993837,6.01139682\O,-6.18766336,-2.0
 0045815,11.92372076\O,-3.18703998,-0.95047486,11.93288058\O,-4.3895882
 5,1.5930173,7.84794283\O,-5.00662612,-4.67504382,7.92702868\O,-2.34189
 453,0.6017186,10.08153011\O,-7.06743636,-3.61111128,10.14060693\O,-2.5
 8080702,-3.87146775,7.85926934\O,-6.84304957,0.78710127,7.80345685\O,-
 7.8451537,-1.174177,10.16082237\O,-1.57455083,-1.83431473,10.1523847\O
 ,-3.38546264,-1.12989905,8.01535966\O,-6.03362048,-1.95030014,8.043099
 83\O,-5.13781894,-0.19788849,9.95144745\O,-4.25123527,-2.82278878,9.97
 957788\K,-3.23274993,-6.12199792,5.66382715\K,-0.14760457,0.04109131,1
 2.35157877\K,-9.2716859,-2.92820379,12.41324146\V,-4.70437266,-1.52148
 16,8.99475761\\Version=ES64L-G16RevC.01\HF=-7327.7000335\S2=1.01388\S2
 -1=0.\S2A=0.111643\RMSD=3.498e-10\RMSF=9.563e-03\Dipole=1.7823956,-7.1
 74828,5.5791642\Quadrupole=-19.7867155,41.0132484,-21.2265328,98.17522
 15,140.2602479,-69.4262365\PG=C01 [X(C8H8Cl1K3O40V1W12)]\\@
 The archive entry for this job was punched.


 A people that values its privileges above its principles soon loses both.
 -- Dwight D. Eisenhower
 Job cpu time:       0 days 23 hours 49 minutes 19.2 seconds.
 Elapsed time:       0 days  0 hours 27 minutes 12.9 seconds.
 File lengths (MBytes):  RWF=   1862 Int=      0 D2E=      0 Chk=    306 Scr=      1
 Normal termination of Gaussian 16 at Sat Jun  1 22:39:57 2024.
