 Entering Gaussian System, Link 0=g16
 Input=JOBS/20_B.gjf
 Output=JOBS/20_B.log
 Initial command:
 /data/app/gaussian/C01-avx2//g16/l1.exe "/tmp/Gau-613721.inp" -scrdir="/tmp/"
 Entering Link 1 = /data/app/gaussian/C01-avx2//g16/l1.exe PID=    613722.
  
 Copyright (c) 1988-2019, Gaussian, Inc.  All Rights Reserved.
  
 This is part of the Gaussian(R) 16 program.  It is based on
 the Gaussian(R) 09 system (copyright 2009, Gaussian, Inc.),
 the Gaussian(R) 03 system (copyright 2003, Gaussian, Inc.),
 the Gaussian(R) 98 system (copyright 1998, Gaussian, Inc.),
 the Gaussian(R) 94 system (copyright 1995, Gaussian, Inc.),
 the Gaussian 92(TM) system (copyright 1992, Gaussian, Inc.),
 the Gaussian 90(TM) system (copyright 1990, Gaussian, Inc.),
 the Gaussian 88(TM) system (copyright 1988, Gaussian, Inc.),
 the Gaussian 86(TM) system (copyright 1986, Carnegie Mellon
 University), and the Gaussian 82(TM) system (copyright 1983,
 Carnegie Mellon University). Gaussian is a federally registered
 trademark of Gaussian, Inc.
  
 This software contains proprietary and confidential information,
 including trade secrets, belonging to Gaussian, Inc.
  
 This software is provided under written license and may be
 used, copied, transmitted, or stored only in accord with that
 written license.
  
 The following legend is applicable only to US Government
 contracts under FAR:
  
                    RESTRICTED RIGHTS LEGEND
  
 Use, reproduction and disclosure by the US Government is
 subject to restrictions as set forth in subparagraphs (a)
 and (c) of the Commercial Computer Software - Restricted
 Rights clause in FAR 52.227-19.
  
 Gaussian, Inc.
 340 Quinnipiac St., Bldg. 40, Wallingford CT 06492
  
  
 ---------------------------------------------------------------
 Warning -- This program may not be used in any manner that
 competes with the business of Gaussian, Inc. or will provide
 assistance to any competitor of Gaussian, Inc.  The licensee
 of this program is prohibited from giving any competitor of
 Gaussian, Inc. access to this program.  By using this program,
 the user acknowledges that Gaussian, Inc. is engaged in the
 business of creating and licensing software in the field of
 computational chemistry and represents and warrants to the
 licensee that it is not a competitor of Gaussian, Inc. and that
 it will not use this program in any manner prohibited above.
 ---------------------------------------------------------------
  

 Cite this work as:
 Gaussian 16, Revision C.01,
 M. J. Frisch, G. W. Trucks, H. B. Schlegel, G. E. Scuseria, 
 M. A. Robb, J. R. Cheeseman, G. Scalmani, V. Barone, 
 G. A. Petersson, H. Nakatsuji, X. Li, M. Caricato, A. V. Marenich, 
 J. Bloino, B. G. Janesko, R. Gomperts, B. Mennucci, H. P. Hratchian, 
 J. V. Ortiz, A. F. Izmaylov, J. L. Sonnenberg, D. Williams-Young, 
 F. Ding, F. Lipparini, F. Egidi, J. Goings, B. Peng, A. Petrone, 
 T. Henderson, D. Ranasinghe, V. G. Zakrzewski, J. Gao, N. Rega, 
 G. Zheng, W. Liang, M. Hada, M. Ehara, K. Toyota, R. Fukuda, 
 J. Hasegawa, M. Ishida, T. Nakajima, Y. Honda, O. Kitao, H. Nakai, 
 T. Vreven, K. Throssell, J. A. Montgomery, Jr., J. E. Peralta, 
 F. Ogliaro, M. J. Bearpark, J. J. Heyd, E. N. Brothers, K. N. Kudin, 
 V. N. Staroverov, T. A. Keith, R. Kobayashi, J. Normand, 
 K. Raghavachari, A. P. Rendell, J. C. Burant, S. S. Iyengar, 
 J. Tomasi, M. Cossi, J. M. Millam, M. Klene, C. Adamo, R. Cammi, 
 J. W. Ochterski, R. L. Martin, K. Morokuma, O. Farkas, 
 J. B. Foresman, and D. J. Fox, Gaussian, Inc., Wallingford CT, 2019.
 
 ******************************************
 Gaussian 16:  ES64L-G16RevC.01  3-Jul-2019
                 1-Jun-2024 
 ******************************************
 %chk=b.chk
 %nprocshared=56
 Will use up to   56 processors via shared memory.
 %mem=96gb
 ----------------------------------------------------------------------
 # def2svp wb97xd scrf=(smd,solvent=acetonitrile) g09default scf=(xqc,m
 axcycle=64) force guess=read nosymm
 ----------------------------------------------------------------------
 1/10=7,30=1,38=1,158=3,167=1/1,3;
 2/12=2,15=1,17=6,18=5,40=1/2;
 3/5=43,7=101,11=2,25=1,27=10,30=1,70=32201,71=1,72=2,74=-58,75=-4,116=-2,158=3/1,2,3;
 4/5=1,60=-1/1;
 5/5=2,7=64,8=3,13=1,38=6,53=2,87=10/2,8;
 6/7=2,8=2,9=2,10=2,28=1,87=10/1;
 7/29=1,30=1,87=10/1,2,3,16;
 1/10=7,30=1,158=3,167=1/3;
 99//99;
 Using 2006 physical constants.
 ----------
 Title Card
 ----------
 Symbolic Z-matrix:
 Charge = -1 Multiplicity = 1
 17                   -9.98298   7.92582   10.47535 
 6                    -8.30831   4.23854   12.23345 
 6                    -9.06934   3.91578   11.09453 
 6                    -10.0056   2.87147   11.19787 
 6                    -10.18731   2.1839    12.39322 
 6                    -9.42841   2.51981   13.51498 
 6                    -8.48681   3.54732   13.42759 
 1                    -7.57251   5.04475   12.19284 
 1                    -10.60178   2.60433   10.32059 
 1                    -10.92525   1.38033   12.45104 
 1                    -9.56154   1.97619   14.45239 
 1                    -7.8921    3.81828   14.30371 
 6                    -8.93899   4.62783   9.82192 
 6                    -8.12017   5.66458   9.57165 
 1                    -9.58386   4.26325   9.01489 
 1                    -8.07136   6.11267   8.57794 
 1                    -7.39715   6.02943   10.30494 
 8                    -1.01004  -1.76211   7.45851 
 8                    -8.41154  -1.3263    7.46406 
 8                    -7.0555    1.34411   10.4882 
 8                    -2.33277  -4.35211   10.5614 
 74                   -3.42303   0.74149   6.49365 
 74                   -6.01203  -3.82906   6.58328 
 74                   -3.63207   0.91778   11.40987 
 74                   -5.77974  -3.86907   11.47277 
 74                   -2.47037  -2.54752   6.38063 
 74                   -6.94519  -0.53596   6.34941 
 74                   -6.82691  -0.25058   11.59302 
 74                   -2.5728   -2.69476   11.62938 
 8                    -3.19551   1.94239   5.32913 
 8                    -6.14639  -5.08152   5.44293 
 8                    -2.71344   1.77212   12.55637 
 8                    -6.68973  -4.6863    12.65224 
 8                    -2.69611  -0.868     5.58485 
 8                    -6.71765  -2.27083   5.62726 
 8                    -5.3229    0.56565   12.3694 
 8                    -4.06631  -3.51154   12.41292 
 8                     0.29569  -0.00131   9.27146 
 8                    -9.71847  -3.01702   9.32796 
 8                    -6.38947   3.41749   8.6345 
 8                    -2.96624  -6.45184   8.7503 
 8                    -1.809     0.7829    7.48225 
 8                    -7.61309  -3.87767   7.5595 
 8                    -4.53386   2.21974   10.42703 
 8                    -4.8651   -5.21406   10.52429 
 8                    -1.63577  -3.47308   5.22515 
 8                    -7.83065   0.2648    5.15572 
 8                    -8.03932  -0.16838   12.77776 
 8                    -1.3384   -2.81224   12.79136 
 74                   -1.26575  -0.51668   8.84285 
 74                   -8.15932  -2.50973   8.88123 
 74                   -5.92816   1.85123   9.04518 
 74                   -3.46945  -4.88278   9.16737 
 8                    -4.23821  -3.09184   6.07073 
 8                    -5.17619  -0.03051   6.01077 
 8                    -6.18704  -2.00033   11.92356 
 8                    -3.18714  -0.95068   11.93332 
 8                    -4.3885    1.59178   7.84833 
 8                    -5.00697  -4.67506   7.92685 
 8                    -2.34198   0.60168   10.08154 
 8                    -7.06717  -3.6114    10.14042 
 8                    -2.58077  -3.8715    7.85951 
 8                    -6.84235   0.7866    7.8037 
 8                    -7.84474  -1.1741    10.16023 
 8                    -1.57485  -1.83468   10.15193 
 8                    -3.38494  -1.13014   8.01485 
 8                    -6.03381  -1.9502    8.04234 
 8                    -5.13758  -0.19767   9.95147 
 8                    -4.25103  -2.82315   9.97966 
 19                   -3.23228  -6.12335   5.66285 
 19                   -0.14609   0.0419    12.3525 
 19                   -9.27306  -2.92772   12.41466 
 23                   -4.70424  -1.52156   8.99457 
 

 GradGradGradGradGradGradGradGradGradGradGradGradGradGradGradGradGradGrad
 Berny optimization.
 Initialization pass.
 Trust Radius=3.00D-01 FncErr=1.00D-07 GrdErr=1.00D-07 EigMax=2.50D+02 EigMin=1.00D-04
 Number of steps in this run=      2 maximum allowed number of steps=      2.
 GradGradGradGradGradGradGradGradGradGradGradGradGradGradGradGradGradGrad

 Symmetry turned off by external request.
 Stoichiometry    C8H8ClK3O40VW12(1-)
 Framework group  C1[X(C8H8ClK3O40VW12)]
 Deg. of freedom   213
 Full point group                 C1      NOp   1
                          Input orientation:                          
 ---------------------------------------------------------------------
 Center     Atomic      Atomic             Coordinates (Angstroms)
 Number     Number       Type             X           Y           Z
 ---------------------------------------------------------------------
      1         17           0       -9.982977    7.925817   10.475346
      2          6           0       -8.308310    4.238538   12.233453
      3          6           0       -9.069344    3.915785   11.094529
      4          6           0      -10.005597    2.871473   11.197869
      5          6           0      -10.187310    2.183904   12.393221
      6          6           0       -9.428407    2.519807   13.514976
      7          6           0       -8.486806    3.547317   13.427591
      8          1           0       -7.572507    5.044746   12.192842
      9          1           0      -10.601782    2.604330   10.320588
     10          1           0      -10.925249    1.380328   12.451041
     11          1           0       -9.561539    1.976188   14.452390
     12          1           0       -7.892100    3.818282   14.303715
     13          6           0       -8.938987    4.627830    9.821925
     14          6           0       -8.120174    5.664583    9.571650
     15          1           0       -9.583855    4.263251    9.014894
     16          1           0       -8.071361    6.112667    8.577938
     17          1           0       -7.397147    6.029434   10.304938
     18          8           0       -1.010036   -1.762114    7.458514
     19          8           0       -8.411544   -1.326295    7.464064
     20          8           0       -7.055498    1.344109   10.488197
     21          8           0       -2.332773   -4.352111   10.561397
     22         74           0       -3.423027    0.741486    6.493645
     23         74           0       -6.012028   -3.829060    6.583283
     24         74           0       -3.632068    0.917776   11.409874
     25         74           0       -5.779737   -3.869071   11.472770
     26         74           0       -2.470365   -2.547523    6.380628
     27         74           0       -6.945193   -0.535955    6.349414
     28         74           0       -6.826913   -0.250575   11.593021
     29         74           0       -2.572799   -2.694763   11.629380
     30          8           0       -3.195514    1.942388    5.329134
     31          8           0       -6.146389   -5.081518    5.442935
     32          8           0       -2.713436    1.772122   12.556365
     33          8           0       -6.689734   -4.686303   12.652239
     34          8           0       -2.696110   -0.868004    5.584848
     35          8           0       -6.717649   -2.270828    5.627263
     36          8           0       -5.322895    0.565649   12.369398
     37          8           0       -4.066312   -3.511542   12.412917
     38          8           0        0.295695   -0.001308    9.271457
     39          8           0       -9.718475   -3.017017    9.327957
     40          8           0       -6.389467    3.417490    8.634496
     41          8           0       -2.966244   -6.451842    8.750303
     42          8           0       -1.809005    0.782900    7.482251
     43          8           0       -7.613092   -3.877669    7.559496
     44          8           0       -4.533864    2.219742   10.427026
     45          8           0       -4.865095   -5.214060   10.524293
     46          8           0       -1.635767   -3.473079    5.225151
     47          8           0       -7.830650    0.264795    5.155719
     48          8           0       -8.039322   -0.168381   12.777762
     49          8           0       -1.338395   -2.812236   12.791364
     50         74           0       -1.265747   -0.516679    8.842846
     51         74           0       -8.159320   -2.509732    8.881226
     52         74           0       -5.928161    1.851232    9.045177
     53         74           0       -3.469454   -4.882781    9.167368
     54          8           0       -4.238213   -3.091842    6.070730
     55          8           0       -5.176191   -0.030512    6.010773
     56          8           0       -6.187041   -2.000333   11.923557
     57          8           0       -3.187143   -0.950678   11.933321
     58          8           0       -4.388495    1.591779    7.848335
     59          8           0       -5.006967   -4.675055    7.926846
     60          8           0       -2.341984    0.601679   10.081545
     61          8           0       -7.067175   -3.611399   10.140420
     62          8           0       -2.580770   -3.871505    7.859509
     63          8           0       -6.842349    0.786598    7.803697
     64          8           0       -7.844742   -1.174101   10.160231
     65          8           0       -1.574847   -1.834679   10.151929
     66          8           0       -3.384938   -1.130138    8.014850
     67          8           0       -6.033806   -1.950200    8.042339
     68          8           0       -5.137581   -0.197672    9.951475
     69          8           0       -4.251026   -2.823146    9.979659
     70         19           0       -3.232280   -6.123347    5.662851
     71         19           0       -0.146092    0.041903   12.352500
     72         19           0       -9.273057   -2.927720   12.414656
     73         23           0       -4.704245   -1.521561    8.994575
 ---------------------------------------------------------------------
 Rotational constants (GHZ):           0.0171832           0.0133035           0.0130972
 Standard basis: def2SVP (5D, 7F)
  1217 basis functions,  2313 primitive gaussians,  1337 cartesian basis functions
   321 alpha electrons      321 beta electrons
       nuclear repulsion energy     21003.0853088523 Hartrees.
 NAtoms=   73 NActive=   73 NUniq=   73 SFac= 1.00D+00 NAtFMM=   60 NAOKFM=T Big=T
 Integral buffers will be    131072 words long.
 Raffenetti 2 integral format.
 Two-electron integral symmetry is turned off.
 Nuclear repulsion after empirical dispersion term =    21002.8074296922 Hartrees.
 Force PCM accuracy= 1.00D-10.
 ------------------------------------------------------------------------------
 Polarizable Continuum Model (PCM)
 =================================
 Model                : PCM (using non-symmetric T matrix).
 Atomic radii         : SMD-Coulomb.
 Polarization charges : Total charges.
 Charge compensation  : None.
 Solution method      : On-the-fly selection.
 Cavity type          : VdW (van der Waals Surface) (Alpha=1.000).
 Cavity algorithm     : GePol (No added spheres)
                        Default sphere list used, NSphG=   73.
                        Lebedev-Laikov grids with approx.  5.0 points / Ang**2.
                        Smoothing algorithm: York/Karplus (Gamma=1.0000).
                        Polarization charges: spherical gaussians, with
                                              point-specific exponents (IZeta= 3).
                        Self-potential: point-specific (ISelfS= 7).
                        Self-field    : sphere-specific E.n sum rule (ISelfD= 2).
 1st derivatives      : Analytical E(r).r(x)/FMM algorithm (CHGder, D1EAlg=3).
                        Cavity 1st derivative terms included.
 Solvent              : Acetonitrile, Eps=  35.688000 Eps(inf)=   1.806874
 ------------------------------------------------------------------------------
 ------------------------------------------------------------------------------
 Atomic radii for non-electrostatic terms: SMD-CDS.
 ------------------------------------------------------------------------------
 Nuclear repulsion after PCM non-electrostatic terms =    21002.8016033564 Hartrees.
 One-electron integrals computed using PRISM.
   1 Symmetry operations used in ECPInt.
 ECPInt:  NShTT=  127765 NPrTT=  468030 LenC2=   96811 LenP2D=  221548.
 LDataN:  DoStor=T MaxTD1= 8 Len=  415
 NBasis=  1217 RedAO= T EigKep=  1.36D-04  NBF=  1217
 NBsUse=  1217 1.00D-06 EigRej= -1.00D+00 NBFU=  1217
 Defaulting to unpruned grid for atomic number  74.
 Defaulting to unpruned grid for atomic number  74.
 Defaulting to unpruned grid for atomic number  74.
 Defaulting to unpruned grid for atomic number  74.
 Defaulting to unpruned grid for atomic number  74.
 Defaulting to unpruned grid for atomic number  74.
 Defaulting to unpruned grid for atomic number  74.
 Defaulting to unpruned grid for atomic number  74.
 Initial guess from the checkpoint file:  "b.chk"
 B after Tr=     0.000737   -0.001185    0.000031
         Rot=    1.000000    0.000007    0.000005    0.000044 Ang=   0.01 deg.
 Initial guess <Sx>= 0.0000 <Sy>= 0.0000 <Sz>= 0.0000 <S**2>= 1.0139 S= 0.6242
 Requested convergence on RMS density matrix=1.00D-08 within  64 cycles.
 Requested convergence on MAX density matrix=1.00D-06.
 Requested convergence on             energy=1.00D-06.
 No special actions if energy rises.
 Defaulting to unpruned grid for atomic number  74.
 Defaulting to unpruned grid for atomic number  74.
 Defaulting to unpruned grid for atomic number  74.
 Defaulting to unpruned grid for atomic number  74.
 Defaulting to unpruned grid for atomic number  74.
 Defaulting to unpruned grid for atomic number  74.
 Defaulting to unpruned grid for atomic number  74.
 Defaulting to unpruned grid for atomic number  74.
 Defaulting to unpruned grid for atomic number  74.
 Defaulting to unpruned grid for atomic number  74.
 Defaulting to unpruned grid for atomic number  74.
 Defaulting to unpruned grid for atomic number  74.
 Defaulting to unpruned grid for atomic number  74.
 Defaulting to unpruned grid for atomic number  74.
 Defaulting to unpruned grid for atomic number  74.
 Defaulting to unpruned grid for atomic number  74.
 Defaulting to unpruned grid for atomic number  74.
 Defaulting to unpruned grid for atomic number  74.
 Defaulting to unpruned grid for atomic number  74.
 Defaulting to unpruned grid for atomic number  74.
 Defaulting to unpruned grid for atomic number  74.
 Defaulting to unpruned grid for atomic number  74.
 Defaulting to unpruned grid for atomic number  74.
 Defaulting to unpruned grid for atomic number  74.
 Defaulting to unpruned grid for atomic number  74.
 Defaulting to unpruned grid for atomic number  74.
 Defaulting to unpruned grid for atomic number  74.
 Defaulting to unpruned grid for atomic number  74.
 Defaulting to unpruned grid for atomic number  74.
 Defaulting to unpruned grid for atomic number  74.
 Defaulting to unpruned grid for atomic number  74.
 Defaulting to unpruned grid for atomic number  74.
 Defaulting to unpruned grid for atomic number  74.
 Defaulting to unpruned grid for atomic number  74.
 Defaulting to unpruned grid for atomic number  74.
 Defaulting to unpruned grid for atomic number  74.
 Defaulting to unpruned grid for atomic number  74.
 Defaulting to unpruned grid for atomic number  74.
 Defaulting to unpruned grid for atomic number  74.
 Defaulting to unpruned grid for atomic number  74.
 Defaulting to unpruned grid for atomic number  74.
 Defaulting to unpruned grid for atomic number  74.
 Defaulting to unpruned grid for atomic number  74.
 Defaulting to unpruned grid for atomic number  74.
 Defaulting to unpruned grid for atomic number  74.
 Defaulting to unpruned grid for atomic number  74.
 Defaulting to unpruned grid for atomic number  74.
 Defaulting to unpruned grid for atomic number  74.
 Defaulting to unpruned grid for atomic number  74.
 Defaulting to unpruned grid for atomic number  74.
 Defaulting to unpruned grid for atomic number  74.
 Defaulting to unpruned grid for atomic number  74.
 Defaulting to unpruned grid for atomic number  74.
 Defaulting to unpruned grid for atomic number  74.
 Defaulting to unpruned grid for atomic number  74.
 Defaulting to unpruned grid for atomic number  74.
 Inv3:  Mode=1 IEnd=    86639628.
 Iteration    1 A*A^-1 deviation from unit magnitude is 3.77D-15 for   4115.
 Iteration    1 A*A^-1 deviation from orthogonality  is 3.21D-15 for   3457   3186.
 Iteration    1 A^-1*A deviation from unit magnitude is 3.55D-15 for    169.
 Iteration    1 A^-1*A deviation from orthogonality  is 1.57D-08 for    928    923.
 Iteration    2 A*A^-1 deviation from unit magnitude is 4.66D-15 for    414.
 Iteration    2 A*A^-1 deviation from orthogonality  is 6.09D-15 for    884     25.
 Iteration    2 A^-1*A deviation from unit magnitude is 1.33D-15 for   2875.
 Iteration    2 A^-1*A deviation from orthogonality  is 6.16D-16 for   2502   2388.
 Restarting incremental Fock formation.
 Error on total polarization charges =  0.01560
 SCF Done:  E(UwB97XD) =  -7327.70003276     A.U. after   35 cycles
            NFock= 35  Conv=0.96D-09     -V/T= 2.0831
 <Sx>= 0.0000 <Sy>= 0.0000 <Sz>= 0.0000 <S**2>= 1.0139 S= 0.6242
 <L.S>=  0.00000000000    
 SMD-CDS (non-electrostatic) energy       (kcal/mol) =      -3.66
 (included in total energy above)
 Annihilation of the first spin contaminant:
 S**2 before annihilation     1.0139,   after     0.1117
 QCSCF skips out because SCF is already converged.

 **********************************************************************

            Population analysis using the SCF Density.

 **********************************************************************

 Alpha  occ. eigenvalues -- -197.10554-129.99114-129.99102-129.99077-101.62068
 Alpha  occ. eigenvalues --  -22.44243 -19.28503 -19.28484 -19.28455 -19.28385
 Alpha  occ. eigenvalues --  -19.28380 -19.28366 -19.28351 -19.28347 -19.28334
 Alpha  occ. eigenvalues --  -19.28238 -19.28208 -19.28142 -19.26953 -19.26909
 Alpha  occ. eigenvalues --  -19.26908 -19.26900 -19.26878 -19.26877 -19.26850
 Alpha  occ. eigenvalues --  -19.26838 -19.26831 -19.26827 -19.26809 -19.26805
 Alpha  occ. eigenvalues --  -19.26793 -19.26788 -19.26785 -19.26782 -19.26781
 Alpha  occ. eigenvalues --  -19.26774 -19.26746 -19.26718 -19.26712 -19.26696
 Alpha  occ. eigenvalues --  -19.26654 -19.26622 -19.24647 -19.24579 -19.24575
 Alpha  occ. eigenvalues --  -19.24551 -18.93816 -18.92724 -18.92694 -13.36522
 Alpha  occ. eigenvalues --  -13.36510 -13.36474 -10.69449 -10.69445 -10.69445
 Alpha  occ. eigenvalues --  -10.69437 -10.69433 -10.69433 -10.69402 -10.69398
 Alpha  occ. eigenvalues --  -10.69395 -10.32833 -10.32211 -10.31762 -10.30864
 Alpha  occ. eigenvalues --  -10.30835 -10.30811 -10.30452 -10.30371  -9.52475
 Alpha  occ. eigenvalues --   -7.27356  -7.27018  -7.27011  -3.21059  -3.21037
 Alpha  occ. eigenvalues --   -3.21029  -3.21026  -3.21005  -3.20987  -3.20979
 Alpha  occ. eigenvalues --   -3.20975  -3.20965  -3.20829  -3.20813  -3.20788
 Alpha  occ. eigenvalues --   -2.78597  -1.85301  -1.85269  -1.85243  -1.85218
 Alpha  occ. eigenvalues --   -1.85098  -1.85053  -1.85032  -1.85013  -1.85002
 Alpha  occ. eigenvalues --   -1.84997  -1.84970  -1.84910  -1.84359  -1.84247
 Alpha  occ. eigenvalues --   -1.84232  -1.84228  -1.84189  -1.84179  -1.84110
 Alpha  occ. eigenvalues --   -1.84096  -1.84071  -1.84063  -1.84040  -1.84028
 Alpha  occ. eigenvalues --   -1.83911  -1.83884  -1.83871  -1.83865  -1.83829
 Alpha  occ. eigenvalues --   -1.83793  -1.83774  -1.83771  -1.83752  -1.83653
 Alpha  occ. eigenvalues --   -1.83651  -1.83636  -1.81778  -1.81435  -1.81422
 Alpha  occ. eigenvalues --   -1.50224  -1.50211  -1.50176  -1.08568  -1.06940
 Alpha  occ. eigenvalues --   -1.06907  -1.06878  -1.05975  -1.05965  -1.05932
 Alpha  occ. eigenvalues --   -1.04543  -1.04534  -1.04525  -1.03936  -1.03915
 Alpha  occ. eigenvalues --   -1.03626  -1.03320  -1.03274  -1.03262  -1.03026
 Alpha  occ. eigenvalues --   -1.03004  -1.02214  -1.02200  -1.02170  -1.02058
 Alpha  occ. eigenvalues --   -1.02013  -1.01985  -1.01913  -1.01888  -1.01777
 Alpha  occ. eigenvalues --   -1.01735  -1.01722  -1.01605  -1.01556  -1.01540
 Alpha  occ. eigenvalues --   -1.01280  -1.00785  -1.00756  -1.00706  -1.00693
 Alpha  occ. eigenvalues --   -0.99932  -0.99863  -0.99797  -0.96068  -0.89205
 Alpha  occ. eigenvalues --   -0.85667  -0.85652  -0.85624  -0.85512  -0.85508
 Alpha  occ. eigenvalues --   -0.85502  -0.85495  -0.85470  -0.85452  -0.84160
 Alpha  occ. eigenvalues --   -0.82278  -0.80914  -0.71829  -0.69499  -0.64971
 Alpha  occ. eigenvalues --   -0.62273  -0.61661  -0.61616  -0.61576  -0.60533
 Alpha  occ. eigenvalues --   -0.58937  -0.58931  -0.58920  -0.58851  -0.58785
 Alpha  occ. eigenvalues --   -0.58718  -0.58711  -0.58662  -0.58502  -0.57306
 Alpha  occ. eigenvalues --   -0.57271  -0.57241  -0.56958  -0.56697  -0.56444
 Alpha  occ. eigenvalues --   -0.56404  -0.56364  -0.55960  -0.55811  -0.55320
 Alpha  occ. eigenvalues --   -0.55317  -0.55281  -0.54323  -0.54161  -0.54133
 Alpha  occ. eigenvalues --   -0.53955  -0.53632  -0.53590  -0.53564  -0.52693
 Alpha  occ. eigenvalues --   -0.52600  -0.52579  -0.52491  -0.52445  -0.51463
 Alpha  occ. eigenvalues --   -0.51453  -0.51431  -0.51359  -0.51305  -0.50678
 Alpha  occ. eigenvalues --   -0.50557  -0.50504  -0.50452  -0.50349  -0.50260
 Alpha  occ. eigenvalues --   -0.50227  -0.50059  -0.50017  -0.49999  -0.49749
 Alpha  occ. eigenvalues --   -0.49663  -0.49641  -0.49466  -0.49436  -0.49277
 Alpha  occ. eigenvalues --   -0.49232  -0.49174  -0.49087  -0.49043  -0.48957
 Alpha  occ. eigenvalues --   -0.48710  -0.48550  -0.48529  -0.48471  -0.47683
 Alpha  occ. eigenvalues --   -0.47667  -0.47110  -0.46453  -0.46018  -0.46002
 Alpha  occ. eigenvalues --   -0.45846  -0.45738  -0.45675  -0.45586  -0.45185
 Alpha  occ. eigenvalues --   -0.45124  -0.45116  -0.44824  -0.44618  -0.44472
 Alpha  occ. eigenvalues --   -0.44448  -0.44432  -0.44241  -0.44229  -0.44210
 Alpha  occ. eigenvalues --   -0.43371  -0.43005  -0.42532  -0.42486  -0.42423
 Alpha  occ. eigenvalues --   -0.42280  -0.42143  -0.42127  -0.42043  -0.41614
 Alpha  occ. eigenvalues --   -0.41588  -0.41542  -0.41015  -0.40976  -0.40783
 Alpha  occ. eigenvalues --   -0.40742  -0.40727  -0.40395  -0.40387  -0.40339
 Alpha  occ. eigenvalues --   -0.40203  -0.40168  -0.40155  -0.40129  -0.39853
 Alpha  occ. eigenvalues --   -0.39325  -0.39246  -0.39219  -0.39130  -0.39000
 Alpha  occ. eigenvalues --   -0.38915  -0.38884  -0.38810  -0.38696  -0.38663
 Alpha  occ. eigenvalues --   -0.38300  -0.38275  -0.38239  -0.37823  -0.37177
 Alpha  occ. eigenvalues --   -0.37172  -0.34655  -0.34634  -0.33549  -0.29959
 Alpha  occ. eigenvalues --   -0.25546
 Alpha virt. eigenvalues --   -0.11936  -0.06223  -0.06179  -0.04771  -0.04697
 Alpha virt. eigenvalues --   -0.04594  -0.01484  -0.01391  -0.01335  -0.01069
 Alpha virt. eigenvalues --   -0.00899  -0.00867  -0.00813  -0.00133  -0.00052
 Alpha virt. eigenvalues --   -0.00019   0.00710   0.00728   0.00775   0.00941
 Alpha virt. eigenvalues --    0.01048   0.01362   0.01824   0.01877   0.01924
 Alpha virt. eigenvalues --    0.02478   0.02735   0.02785   0.02843   0.03543
 Alpha virt. eigenvalues --    0.03613   0.03746   0.03892   0.03962   0.04332
 Alpha virt. eigenvalues --    0.04355   0.04374   0.04402   0.04634   0.05034
 Alpha virt. eigenvalues --    0.05115   0.06091   0.06461   0.08064   0.08277
 Alpha virt. eigenvalues --    0.08470   0.08589   0.08835   0.08877   0.09364
 Alpha virt. eigenvalues --    0.09753   0.09849   0.09874   0.09910   0.10007
 Alpha virt. eigenvalues --    0.10056   0.10170   0.10359   0.10875   0.10958
 Alpha virt. eigenvalues --    0.11537   0.11625   0.11942   0.12183   0.12241
 Alpha virt. eigenvalues --    0.12401   0.12438   0.12498   0.12856   0.13309
 Alpha virt. eigenvalues --    0.13428   0.13626   0.14041   0.14286   0.14773
 Alpha virt. eigenvalues --    0.14948   0.14962   0.15218   0.15382   0.15849
 Alpha virt. eigenvalues --    0.16114   0.16777   0.17076   0.17757   0.17846
 Alpha virt. eigenvalues --    0.18301   0.18443   0.18567   0.18788   0.18931
 Alpha virt. eigenvalues --    0.19261   0.19367   0.19506   0.19553   0.19623
 Alpha virt. eigenvalues --    0.19689   0.19874   0.20082   0.20701   0.20917
 Alpha virt. eigenvalues --    0.21154   0.21322   0.21377   0.21544   0.21584
 Alpha virt. eigenvalues --    0.21688   0.21929   0.21958   0.22150   0.22278
 Alpha virt. eigenvalues --    0.22400   0.22808   0.23171   0.23241   0.23306
 Alpha virt. eigenvalues --    0.23391   0.23609   0.23823   0.24064   0.24310
 Alpha virt. eigenvalues --    0.24454   0.24650   0.24729   0.25053   0.25193
 Alpha virt. eigenvalues --    0.25475   0.25506   0.25645   0.26357   0.26818
 Alpha virt. eigenvalues --    0.26877   0.27187   0.27372   0.27678   0.27928
 Alpha virt. eigenvalues --    0.27993   0.28424   0.28753   0.28789   0.29110
 Alpha virt. eigenvalues --    0.29286   0.29330   0.29450   0.29580   0.29745
 Alpha virt. eigenvalues --    0.30137   0.30531   0.30967   0.31242   0.31566
 Alpha virt. eigenvalues --    0.31710   0.32322   0.32557   0.32726   0.33294
 Alpha virt. eigenvalues --    0.33737   0.34439   0.35615   0.36930   0.37162
 Alpha virt. eigenvalues --    0.38245   0.38731   0.39015   0.39324   0.39655
 Alpha virt. eigenvalues --    0.40429   0.41404   0.41788   0.41924   0.42029
 Alpha virt. eigenvalues --    0.42254   0.42507   0.42673   0.43350   0.43931
 Alpha virt. eigenvalues --    0.44269   0.44454   0.44896   0.45296   0.45508
 Alpha virt. eigenvalues --    0.45605   0.45766   0.45980   0.46475   0.46686
 Alpha virt. eigenvalues --    0.46972   0.47154   0.47739   0.47884   0.48214
 Alpha virt. eigenvalues --    0.48361   0.48462   0.48701   0.49042   0.49119
 Alpha virt. eigenvalues --    0.49374   0.49794   0.49956   0.49959   0.50030
 Alpha virt. eigenvalues --    0.50164   0.50448   0.50633   0.50719   0.50904
 Alpha virt. eigenvalues --    0.51307   0.51412   0.51757   0.51873   0.52165
 Alpha virt. eigenvalues --    0.52570   0.52869   0.52984   0.53134   0.53446
 Alpha virt. eigenvalues --    0.53802   0.54051   0.54387   0.54440   0.54653
 Alpha virt. eigenvalues --    0.54780   0.55524   0.56006   0.56069   0.56429
 Alpha virt. eigenvalues --    0.56661   0.57068   0.57180   0.57329   0.57819
 Alpha virt. eigenvalues --    0.58572   0.58768   0.59025   0.59442   0.59711
 Alpha virt. eigenvalues --    0.60127   0.60525   0.60960   0.61267   0.61711
 Alpha virt. eigenvalues --    0.61977   0.62970   0.63622   0.64000   0.64738
 Alpha virt. eigenvalues --    0.65030   0.66326   0.66557   0.66596   0.66820
 Alpha virt. eigenvalues --    0.68125   0.68243   0.68605   0.68834   0.69351
 Alpha virt. eigenvalues --    0.69603   0.70172   0.70921   0.71374   0.71753
 Alpha virt. eigenvalues --    0.72175   0.72477   0.72811   0.72916   0.73114
 Alpha virt. eigenvalues --    0.73139   0.73382   0.73463   0.73769   0.73909
 Alpha virt. eigenvalues --    0.74252   0.74343   0.75226   0.75650   0.75934
 Alpha virt. eigenvalues --    0.76243   0.77089   0.77211   0.78063   0.78562
 Alpha virt. eigenvalues --    0.79064   0.79725   0.79984   0.80345   0.80681
 Alpha virt. eigenvalues --    0.81013   0.81139   0.82057   0.82251   0.82594
 Alpha virt. eigenvalues --    0.83026   0.83483   0.84016   0.84273   0.84507
 Alpha virt. eigenvalues --    0.84692   0.85251   0.85657   0.86538   0.87357
 Alpha virt. eigenvalues --    0.88061   0.88726   0.89296   0.89858   0.90175
 Alpha virt. eigenvalues --    0.90418   0.90685   0.91151   0.91720   0.91882
 Alpha virt. eigenvalues --    0.91949   0.92400   0.92672   0.92752   0.92934
 Alpha virt. eigenvalues --    0.93129   0.93239   0.93420   0.93810   0.94034
 Alpha virt. eigenvalues --    0.94978   0.95276   0.95853   0.96550   0.96919
 Alpha virt. eigenvalues --    0.97186   0.97227   0.97783   0.98060   0.98946
 Alpha virt. eigenvalues --    0.99326   0.99567   0.99702   1.00067   1.00239
 Alpha virt. eigenvalues --    1.00428   1.00641   1.00740   1.01046   1.01139
 Alpha virt. eigenvalues --    1.01201   1.01337   1.01863   1.02278   1.02575
 Alpha virt. eigenvalues --    1.02719   1.02829   1.03412   1.03744   1.03910
 Alpha virt. eigenvalues --    1.04138   1.04289   1.04761   1.04903   1.05043
 Alpha virt. eigenvalues --    1.05237   1.05464   1.05618   1.06098   1.06653
 Alpha virt. eigenvalues --    1.07092   1.07119   1.07369   1.07505   1.07598
 Alpha virt. eigenvalues --    1.07846   1.08103   1.08322   1.08588   1.08843
 Alpha virt. eigenvalues --    1.09050   1.09282   1.09515   1.10263   1.10990
 Alpha virt. eigenvalues --    1.11253   1.11474   1.11923   1.12224   1.12409
 Alpha virt. eigenvalues --    1.12456   1.12930   1.13099   1.13292   1.13375
 Alpha virt. eigenvalues --    1.13460   1.13759   1.13923   1.14254   1.14350
 Alpha virt. eigenvalues --    1.14620   1.15055   1.15243   1.15522   1.16241
 Alpha virt. eigenvalues --    1.16684   1.17320   1.17829   1.18200   1.18504
 Alpha virt. eigenvalues --    1.18844   1.19709   1.19820   1.20078   1.20430
 Alpha virt. eigenvalues --    1.20759   1.21343   1.22724   1.22894   1.22927
 Alpha virt. eigenvalues --    1.23236   1.23402   1.23734   1.23805   1.24702
 Alpha virt. eigenvalues --    1.25245   1.25913   1.27085   1.27564   1.27959
 Alpha virt. eigenvalues --    1.28283   1.29019   1.29471   1.30085   1.30297
 Alpha virt. eigenvalues --    1.30672   1.30730   1.30886   1.31090   1.31598
 Alpha virt. eigenvalues --    1.31818   1.31945   1.32221   1.32424   1.32524
 Alpha virt. eigenvalues --    1.32641   1.32859   1.32964   1.33365   1.34275
 Alpha virt. eigenvalues --    1.34619   1.34901   1.35069   1.35488   1.35722
 Alpha virt. eigenvalues --    1.35769   1.35889   1.36305   1.36521   1.36738
 Alpha virt. eigenvalues --    1.36863   1.37371   1.37827   1.38008   1.38062
 Alpha virt. eigenvalues --    1.38257   1.38565   1.38763   1.38862   1.39125
 Alpha virt. eigenvalues --    1.39147   1.39513   1.39545   1.39648   1.40000
 Alpha virt. eigenvalues --    1.40234   1.40268   1.40615   1.40946   1.41087
 Alpha virt. eigenvalues --    1.41131   1.41153   1.41512   1.41681   1.41893
 Alpha virt. eigenvalues --    1.42192   1.42441   1.42603   1.42730   1.43045
 Alpha virt. eigenvalues --    1.43156   1.43415   1.43645   1.43797   1.44293
 Alpha virt. eigenvalues --    1.44552   1.44851   1.45077   1.45338   1.45507
 Alpha virt. eigenvalues --    1.45631   1.45961   1.46417   1.46648   1.47513
 Alpha virt. eigenvalues --    1.48025   1.48192   1.49701   1.49774   1.49910
 Alpha virt. eigenvalues --    1.50366   1.50859   1.51806   1.52327   1.52500
 Alpha virt. eigenvalues --    1.52679   1.53108   1.53488   1.53830   1.55335
 Alpha virt. eigenvalues --    1.55503   1.57463   1.58051   1.58120   1.58280
 Alpha virt. eigenvalues --    1.58529   1.58953   1.59063   1.59508   1.60148
 Alpha virt. eigenvalues --    1.60703   1.60937   1.61427   1.61610   1.61991
 Alpha virt. eigenvalues --    1.62219   1.62526   1.62898   1.63461   1.64053
 Alpha virt. eigenvalues --    1.64607   1.64809   1.65006   1.65535   1.65809
 Alpha virt. eigenvalues --    1.66074   1.66847   1.68093   1.68401   1.69806
 Alpha virt. eigenvalues --    1.70393   1.70677   1.71106   1.72667   1.73148
 Alpha virt. eigenvalues --    1.73314   1.73499   1.74238   1.74448   1.75011
 Alpha virt. eigenvalues --    1.75861   1.76374   1.77527   1.77801   1.77947
 Alpha virt. eigenvalues --    1.78364   1.78630   1.79034   1.79286   1.79687
 Alpha virt. eigenvalues --    1.79880   1.81000   1.81119   1.81553   1.81658
 Alpha virt. eigenvalues --    1.82382   1.82944   1.83758   1.83961   1.84139
 Alpha virt. eigenvalues --    1.84500   1.85018   1.85061   1.85573   1.86091
 Alpha virt. eigenvalues --    1.86276   1.86534   1.86795   1.87424   1.87760
 Alpha virt. eigenvalues --    1.88407   1.88576   1.89070   1.89181   1.89410
 Alpha virt. eigenvalues --    1.89910   1.90530   1.91395   1.92245   1.92655
 Alpha virt. eigenvalues --    1.93052   1.93176   1.93804   1.93863   1.95054
 Alpha virt. eigenvalues --    1.96228   1.96888   1.97647   1.97857   1.98492
 Alpha virt. eigenvalues --    1.98675   2.01872   2.01903   2.02102   2.03531
 Alpha virt. eigenvalues --    2.05353   2.05765   2.07195   2.08461   2.08850
 Alpha virt. eigenvalues --    2.10758   2.11028   2.11559   2.12530   2.13113
 Alpha virt. eigenvalues --    2.13895   2.14652   2.14836   2.15676   2.17572
 Alpha virt. eigenvalues --    2.18539   2.18908   2.19174   2.19879   2.20465
 Alpha virt. eigenvalues --    2.20748   2.20950   2.21724   2.24857   2.26297
 Alpha virt. eigenvalues --    2.26547   2.27028   2.27671   2.28690   2.29730
 Alpha virt. eigenvalues --    2.29979   2.30682   2.31432   2.32293   2.32848
 Alpha virt. eigenvalues --    2.33435   2.33774   2.33881   2.34475   2.34658
 Alpha virt. eigenvalues --    2.34898   2.39061   2.39748   2.42082   2.42910
 Alpha virt. eigenvalues --    2.43306   2.48198   2.49656   2.55106   2.65503
 Alpha virt. eigenvalues --    2.67081   2.67141   2.67178   2.67380   2.68046
 Alpha virt. eigenvalues --    2.68537   2.69162   2.69231   2.69309   2.69572
 Alpha virt. eigenvalues --    2.69632   2.69738   2.69823   2.69905   2.70075
 Alpha virt. eigenvalues --    2.70116   2.70166   2.70638   2.70685   2.70759
 Alpha virt. eigenvalues --    2.70827   2.70878   2.71148   2.71447   2.71616
 Alpha virt. eigenvalues --    2.71736   2.72059   2.72767   2.72837   2.72985
 Alpha virt. eigenvalues --    2.73243   2.73280   2.73517   2.73641   2.73803
 Alpha virt. eigenvalues --    2.74097   2.74249   2.74301   2.74377   2.75374
 Alpha virt. eigenvalues --    2.75451   2.75553   2.75637   2.75681   2.75687
 Alpha virt. eigenvalues --    2.75861   2.75901   2.76022   2.76099   2.76194
 Alpha virt. eigenvalues --    2.76267   2.76396   2.76523   2.76944   2.77408
 Alpha virt. eigenvalues --    2.77482   2.77705   2.78051   2.78382   2.78499
 Alpha virt. eigenvalues --    2.78684   2.79068   2.79394   2.79561   2.79644
 Alpha virt. eigenvalues --    2.79731   2.79912   2.80144   2.80389   2.81138
 Alpha virt. eigenvalues --    2.82156   2.82415   2.82539   2.82686   2.82714
 Alpha virt. eigenvalues --    2.82961   2.83068   2.83540   2.83946   2.84756
 Alpha virt. eigenvalues --    2.84832   2.85180   2.85322   2.85770   2.85916
 Alpha virt. eigenvalues --    2.85962   2.86126   2.86449   2.87248   2.87475
 Alpha virt. eigenvalues --    2.87736   2.88456   2.88634   2.88699   2.88840
 Alpha virt. eigenvalues --    2.88877   2.89382   2.89432   2.89496   2.90158
 Alpha virt. eigenvalues --    2.91042   2.91203   2.92076   2.92142   2.92234
 Alpha virt. eigenvalues --    2.92709   2.92715   2.92799   2.93126   2.93178
 Alpha virt. eigenvalues --    2.93705   2.94100   2.94486   2.94570   2.94791
 Alpha virt. eigenvalues --    2.94860   2.94871   2.95243   2.95406   2.95721
 Alpha virt. eigenvalues --    2.95908   2.96119   2.96156   2.96383   2.96469
 Alpha virt. eigenvalues --    2.96648   2.96810   2.96889   2.97171   2.97395
 Alpha virt. eigenvalues --    2.97552   2.98033   2.98286   2.98294   2.98981
 Alpha virt. eigenvalues --    2.99120   2.99454   2.99490   2.99753   2.99772
 Alpha virt. eigenvalues --    2.99984   3.00308   3.00486   3.00729   3.00831
 Alpha virt. eigenvalues --    3.01397   3.01645   3.01846   3.02297   3.02427
 Alpha virt. eigenvalues --    3.02703   3.02880   3.03371   3.04183   3.07081
 Alpha virt. eigenvalues --    3.08506   3.08651   3.08805   3.08911   3.09236
 Alpha virt. eigenvalues --    3.09919   3.10258   3.10305   3.10432   3.13870
 Alpha virt. eigenvalues --    3.14031   3.14085   3.14795   3.15131   3.15191
 Alpha virt. eigenvalues --    3.16510   3.16570   3.16852   3.22399   3.27850
 Alpha virt. eigenvalues --    3.29384   3.29625   3.30450   3.42677   3.43356
 Alpha virt. eigenvalues --    3.44153   3.44623   3.45974   3.46581   3.46677
 Alpha virt. eigenvalues --    3.47565   3.47808   3.48043   3.48956   3.49131
 Alpha virt. eigenvalues --    3.49492   3.53079   3.53883   3.54393   3.55451
 Alpha virt. eigenvalues --    3.55604   3.56437   3.56621   3.57106   3.57237
 Alpha virt. eigenvalues --    3.57399   3.57475   3.57867   3.58571   3.59509
 Alpha virt. eigenvalues --    3.59840   3.60886   3.61377   3.61666   3.62483
 Alpha virt. eigenvalues --    3.62634   3.63263   3.63644   3.63991   3.64499
 Alpha virt. eigenvalues --    3.73352   3.77466  68.66701  68.67704  68.68967
 Alpha virt. eigenvalues --   68.71191  68.75002  68.75937  68.83778  68.84828
 Alpha virt. eigenvalues --   68.85340  68.88103  68.89146  68.90392 576.25152
 Alpha virt. eigenvalues --  576.26132 576.27370 576.29543 576.33369 576.34282
 Alpha virt. eigenvalues --  576.41977 576.43012 576.43502 576.46165 576.47192
 Alpha virt. eigenvalues --  576.48426
  Beta  occ. eigenvalues -- -197.10537-129.99114-129.99102-129.99077-101.62476
  Beta  occ. eigenvalues --  -22.42981 -19.28504 -19.28485 -19.28456 -19.28381
  Beta  occ. eigenvalues --  -19.28374 -19.28360 -19.28345 -19.28342 -19.28328
  Beta  occ. eigenvalues --  -19.28239 -19.28219 -19.28135 -19.26954 -19.26909
  Beta  occ. eigenvalues --  -19.26908 -19.26900 -19.26877 -19.26876 -19.26849
  Beta  occ. eigenvalues --  -19.26837 -19.26831 -19.26827 -19.26809 -19.26805
  Beta  occ. eigenvalues --  -19.26794 -19.26790 -19.26785 -19.26783 -19.26783
  Beta  occ. eigenvalues --  -19.26776 -19.26746 -19.26718 -19.26712 -19.26702
  Beta  occ. eigenvalues --  -19.26654 -19.26621 -19.24624 -19.24555 -19.24554
  Beta  occ. eigenvalues --  -19.24526 -18.93472 -18.91277 -18.91219 -13.36522
  Beta  occ. eigenvalues --  -13.36510 -13.36474 -10.69449 -10.69445 -10.69445
  Beta  occ. eigenvalues --  -10.69437 -10.69433 -10.69433 -10.69402 -10.69398
  Beta  occ. eigenvalues --  -10.69395 -10.33071 -10.32382 -10.31719 -10.30951
  Beta  occ. eigenvalues --  -10.30940 -10.30896 -10.30403 -10.30320  -9.52931
  Beta  occ. eigenvalues --   -7.28789  -7.27329  -7.27322  -3.21059  -3.21030
  Beta  occ. eigenvalues --   -3.21029  -3.21025  -3.20999  -3.20981  -3.20973
  Beta  occ. eigenvalues --   -3.20969  -3.20959  -3.20829  -3.20809  -3.20783
  Beta  occ. eigenvalues --   -2.74540  -1.85296  -1.85263  -1.85239  -1.85209
  Beta  occ. eigenvalues --   -1.85093  -1.85048  -1.85025  -1.85006  -1.84995
  Beta  occ. eigenvalues --   -1.84988  -1.84966  -1.84902  -1.84357  -1.84245
  Beta  occ. eigenvalues --   -1.84229  -1.84225  -1.84185  -1.84176  -1.84107
  Beta  occ. eigenvalues --   -1.84094  -1.84068  -1.84060  -1.84037  -1.84024
  Beta  occ. eigenvalues --   -1.83909  -1.83881  -1.83868  -1.83862  -1.83826
  Beta  occ. eigenvalues --   -1.83790  -1.83771  -1.83768  -1.83749  -1.83651
  Beta  occ. eigenvalues --   -1.83648  -1.83633  -1.80444  -1.75746  -1.75627
  Beta  occ. eigenvalues --   -1.50224  -1.50211  -1.50176  -1.08552  -1.06922
  Beta  occ. eigenvalues --   -1.06886  -1.06852  -1.05973  -1.05963  -1.05931
  Beta  occ. eigenvalues --   -1.04544  -1.04533  -1.04527  -1.03935  -1.03917
  Beta  occ. eigenvalues --   -1.03560  -1.03289  -1.03240  -1.03230  -1.03025
  Beta  occ. eigenvalues --   -1.02996  -1.02196  -1.02175  -1.02154  -1.02049
  Beta  occ. eigenvalues --   -1.02008  -1.01971  -1.01909  -1.01878  -1.01773
  Beta  occ. eigenvalues --   -1.01732  -1.01718  -1.01605  -1.01553  -1.01525
  Beta  occ. eigenvalues --   -1.01280  -1.00760  -1.00743  -1.00705  -1.00690
  Beta  occ. eigenvalues --   -0.99796  -0.99713  -0.99676  -0.96268  -0.89861
  Beta  occ. eigenvalues --   -0.85667  -0.85652  -0.85624  -0.85512  -0.85508
  Beta  occ. eigenvalues --   -0.85502  -0.85495  -0.85470  -0.85452  -0.84445
  Beta  occ. eigenvalues --   -0.84235  -0.82664  -0.72086  -0.69609  -0.65205
  Beta  occ. eigenvalues --   -0.62273  -0.61661  -0.61616  -0.61576  -0.60716
  Beta  occ. eigenvalues --   -0.58936  -0.58928  -0.58918  -0.58771  -0.58725
  Beta  occ. eigenvalues --   -0.58701  -0.58691  -0.58634  -0.58502  -0.57282
  Beta  occ. eigenvalues --   -0.57119  -0.57074  -0.56947  -0.56839  -0.56445
  Beta  occ. eigenvalues --   -0.56374  -0.56329  -0.55768  -0.55554  -0.55299
  Beta  occ. eigenvalues --   -0.55299  -0.55281  -0.54489  -0.54157  -0.54124
  Beta  occ. eigenvalues --   -0.53944  -0.53606  -0.53567  -0.53522  -0.52741
  Beta  occ. eigenvalues --   -0.52624  -0.52566  -0.52476  -0.52436  -0.51455
  Beta  occ. eigenvalues --   -0.51427  -0.51409  -0.51302  -0.51246  -0.50845
  Beta  occ. eigenvalues --   -0.50470  -0.50441  -0.50394  -0.50305  -0.50221
  Beta  occ. eigenvalues --   -0.50167  -0.50027  -0.50017  -0.49970  -0.49696
  Beta  occ. eigenvalues --   -0.49639  -0.49620  -0.49458  -0.49426  -0.49279
  Beta  occ. eigenvalues --   -0.49208  -0.49176  -0.49059  -0.49027  -0.48934
  Beta  occ. eigenvalues --   -0.48703  -0.48555  -0.48530  -0.48463  -0.47768
  Beta  occ. eigenvalues --   -0.47642  -0.47540  -0.45894  -0.45874  -0.45788
  Beta  occ. eigenvalues --   -0.45775  -0.45657  -0.45544  -0.45185  -0.45146
  Beta  occ. eigenvalues --   -0.45120  -0.45022  -0.44824  -0.44618  -0.44454
  Beta  occ. eigenvalues --   -0.44428  -0.44389  -0.44240  -0.44193  -0.44178
  Beta  occ. eigenvalues --   -0.43364  -0.43094  -0.42484  -0.42455  -0.42383
  Beta  occ. eigenvalues --   -0.42231  -0.42111  -0.42098  -0.42089  -0.41592
  Beta  occ. eigenvalues --   -0.41582  -0.41529  -0.41316  -0.41018  -0.40928
  Beta  occ. eigenvalues --   -0.40733  -0.40700  -0.40642  -0.40378  -0.40374
  Beta  occ. eigenvalues --   -0.40311  -0.40158  -0.40144  -0.40116  -0.39795
  Beta  occ. eigenvalues --   -0.39613  -0.39324  -0.39151  -0.39089  -0.39069
  Beta  occ. eigenvalues --   -0.38880  -0.38855  -0.38802  -0.38694  -0.38648
  Beta  occ. eigenvalues --   -0.38610  -0.38298  -0.38267  -0.38234  -0.37551
  Beta  occ. eigenvalues --   -0.37179  -0.37167  -0.35605  -0.35586  -0.33788
  Beta  occ. eigenvalues --   -0.30722
  Beta virt. eigenvalues --   -0.06221  -0.06179  -0.04770  -0.04696  -0.04593
  Beta virt. eigenvalues --   -0.01481  -0.01387  -0.01330  -0.01064  -0.00893
  Beta virt. eigenvalues --   -0.00864  -0.00810  -0.00132  -0.00041  -0.00012
  Beta virt. eigenvalues --    0.00717   0.00736   0.00784   0.00909   0.01053
  Beta virt. eigenvalues --    0.01557   0.01895   0.01907   0.01934   0.02489
  Beta virt. eigenvalues --    0.02770   0.02840   0.02987   0.03531   0.03735
  Beta virt. eigenvalues --    0.03817   0.04045   0.04099   0.04342   0.04359
  Beta virt. eigenvalues --    0.04393   0.04415   0.04642   0.05039   0.05126
  Beta virt. eigenvalues --    0.05742   0.06481   0.07379   0.08505   0.08553
  Beta virt. eigenvalues --    0.08591   0.08670   0.09378   0.09521   0.09653
  Beta virt. eigenvalues --    0.09854   0.09905   0.10038   0.10093   0.10132
  Beta virt. eigenvalues --    0.10180   0.10356   0.10660   0.10886   0.10966
  Beta virt. eigenvalues --    0.11467   0.11618   0.11709   0.11986   0.12197
  Beta virt. eigenvalues --    0.12366   0.12434   0.12507   0.12559   0.13325
  Beta virt. eigenvalues --    0.13437   0.13630   0.14021   0.14277   0.14839
  Beta virt. eigenvalues --    0.15002   0.15049   0.15241   0.15380   0.15853
  Beta virt. eigenvalues --    0.16093   0.16738   0.17087   0.17751   0.17832
  Beta virt. eigenvalues --    0.18295   0.18445   0.18613   0.18789   0.18943
  Beta virt. eigenvalues --    0.19304   0.19411   0.19549   0.19573   0.19660
  Beta virt. eigenvalues --    0.19941   0.20063   0.20412   0.20712   0.20920
  Beta virt. eigenvalues --    0.21152   0.21322   0.21371   0.21551   0.21594
  Beta virt. eigenvalues --    0.21696   0.21949   0.21966   0.22157   0.22304
  Beta virt. eigenvalues --    0.22385   0.22810   0.23161   0.23248   0.23303
  Beta virt. eigenvalues --    0.23378   0.23620   0.23789   0.24036   0.24265
  Beta virt. eigenvalues --    0.24442   0.24599   0.24729   0.25011   0.25189
  Beta virt. eigenvalues --    0.25464   0.25506   0.25607   0.26270   0.26820
  Beta virt. eigenvalues --    0.26874   0.27181   0.27360   0.27648   0.27926
  Beta virt. eigenvalues --    0.27987   0.28379   0.28755   0.28789   0.29084
  Beta virt. eigenvalues --    0.29317   0.29328   0.29440   0.29585   0.29745
  Beta virt. eigenvalues --    0.30143   0.30531   0.30960   0.31248   0.31564
  Beta virt. eigenvalues --    0.31713   0.32328   0.32562   0.32730   0.33319
  Beta virt. eigenvalues --    0.33708   0.34431   0.35411   0.36922   0.37139
  Beta virt. eigenvalues --    0.38225   0.38849   0.39026   0.39355   0.39647
  Beta virt. eigenvalues --    0.40358   0.41393   0.41835   0.41990   0.42113
  Beta virt. eigenvalues --    0.42262   0.42505   0.42799   0.43359   0.44014
  Beta virt. eigenvalues --    0.44282   0.44531   0.44922   0.45207   0.45508
  Beta virt. eigenvalues --    0.45666   0.45833   0.45937   0.46463   0.46556
  Beta virt. eigenvalues --    0.46972   0.47118   0.47690   0.47876   0.48186
  Beta virt. eigenvalues --    0.48329   0.48356   0.48687   0.49032   0.49112
  Beta virt. eigenvalues --    0.49364   0.49721   0.49885   0.49959   0.50030
  Beta virt. eigenvalues --    0.50162   0.50452   0.50625   0.50719   0.50858
  Beta virt. eigenvalues --    0.51304   0.51406   0.51730   0.51860   0.52158
  Beta virt. eigenvalues --    0.52569   0.52824   0.52942   0.53135   0.53405
  Beta virt. eigenvalues --    0.53776   0.54024   0.54362   0.54438   0.54652
  Beta virt. eigenvalues --    0.54772   0.55482   0.56079   0.56084   0.56440
  Beta virt. eigenvalues --    0.56631   0.57072   0.57161   0.57281   0.57800
  Beta virt. eigenvalues --    0.58440   0.58779   0.59009   0.59430   0.59535
  Beta virt. eigenvalues --    0.60059   0.60594   0.60815   0.61212   0.61700
  Beta virt. eigenvalues --    0.61980   0.62899   0.63521   0.64171   0.64691
  Beta virt. eigenvalues --    0.65039   0.66206   0.66531   0.66587   0.66679
  Beta virt. eigenvalues --    0.67849   0.68100   0.68287   0.68800   0.68932
  Beta virt. eigenvalues --    0.69762   0.70333   0.70626   0.71323   0.71798
  Beta virt. eigenvalues --    0.72112   0.72471   0.72710   0.72887   0.73101
  Beta virt. eigenvalues --    0.73150   0.73376   0.73437   0.73684   0.73794
  Beta virt. eigenvalues --    0.74157   0.74227   0.74953   0.75571   0.75709
  Beta virt. eigenvalues --    0.76239   0.77091   0.77256   0.77940   0.78450
  Beta virt. eigenvalues --    0.79093   0.79701   0.80031   0.80595   0.80948
  Beta virt. eigenvalues --    0.81121   0.81256   0.82041   0.82278   0.82551
  Beta virt. eigenvalues --    0.83026   0.83440   0.83989   0.84283   0.84387
  Beta virt. eigenvalues --    0.84707   0.85250   0.85654   0.86546   0.87329
  Beta virt. eigenvalues --    0.87829   0.88448   0.88802   0.89527   0.89866
  Beta virt. eigenvalues --    0.89956   0.90340   0.90469   0.90737   0.91284
  Beta virt. eigenvalues --    0.91410   0.91920   0.92005   0.92173   0.92184
  Beta virt. eigenvalues --    0.92608   0.92691   0.93240   0.93422   0.93724
  Beta virt. eigenvalues --    0.94889   0.95215   0.95543   0.95873   0.96828
  Beta virt. eigenvalues --    0.97257   0.97341   0.97942   0.98205   0.98830
  Beta virt. eigenvalues --    0.99336   0.99416   0.99702   0.99790   1.00112
  Beta virt. eigenvalues --    1.00432   1.00632   1.00744   1.01054   1.01189
  Beta virt. eigenvalues --    1.01224   1.01356   1.01922   1.02127   1.02369
  Beta virt. eigenvalues --    1.02637   1.02726   1.03422   1.03744   1.03834
  Beta virt. eigenvalues --    1.04038   1.04307   1.04772   1.04918   1.05045
  Beta virt. eigenvalues --    1.05255   1.05505   1.05673   1.06115   1.06695
  Beta virt. eigenvalues --    1.07124   1.07175   1.07419   1.07574   1.07714
  Beta virt. eigenvalues --    1.07891   1.08128   1.08514   1.08838   1.08886
  Beta virt. eigenvalues --    1.09076   1.09378   1.09583   1.10274   1.10993
  Beta virt. eigenvalues --    1.11259   1.11479   1.11930   1.12227   1.12406
  Beta virt. eigenvalues --    1.12464   1.12926   1.13114   1.13288   1.13337
  Beta virt. eigenvalues --    1.13468   1.13778   1.13911   1.14280   1.14424
  Beta virt. eigenvalues --    1.14610   1.15006   1.15225   1.15513   1.16044
  Beta virt. eigenvalues --    1.16478   1.17289   1.17641   1.18008   1.18529
  Beta virt. eigenvalues --    1.18920   1.19562   1.19873   1.19936   1.20290
  Beta virt. eigenvalues --    1.20551   1.21187   1.22701   1.22883   1.22927
  Beta virt. eigenvalues --    1.23257   1.23356   1.23728   1.23803   1.24649
  Beta virt. eigenvalues --    1.25209   1.25687   1.27085   1.27553   1.27875
  Beta virt. eigenvalues --    1.28279   1.29035   1.29372   1.30095   1.30294
  Beta virt. eigenvalues --    1.30607   1.30731   1.30927   1.31040   1.31587
  Beta virt. eigenvalues --    1.31821   1.31958   1.32217   1.32414   1.32511
  Beta virt. eigenvalues --    1.32647   1.32841   1.32960   1.33338   1.34114
  Beta virt. eigenvalues --    1.34454   1.34884   1.35052   1.35502   1.35712
  Beta virt. eigenvalues --    1.35766   1.35866   1.36309   1.36514   1.36706
  Beta virt. eigenvalues --    1.36869   1.37265   1.37826   1.38023   1.38045
  Beta virt. eigenvalues --    1.38282   1.38580   1.38774   1.38874   1.39086
  Beta virt. eigenvalues --    1.39166   1.39496   1.39567   1.39691   1.39964
  Beta virt. eigenvalues --    1.40175   1.40272   1.40632   1.40919   1.41124
  Beta virt. eigenvalues --    1.41134   1.41168   1.41507   1.41686   1.41881
  Beta virt. eigenvalues --    1.42200   1.42447   1.42604   1.42734   1.43024
  Beta virt. eigenvalues --    1.43168   1.43419   1.43656   1.43820   1.44310
  Beta virt. eigenvalues --    1.44554   1.44821   1.45042   1.45352   1.45515
  Beta virt. eigenvalues --    1.45624   1.45947   1.46374   1.46712   1.47522
  Beta virt. eigenvalues --    1.47976   1.48198   1.49708   1.49782   1.49919
  Beta virt. eigenvalues --    1.50368   1.50867   1.51824   1.52330   1.52515
  Beta virt. eigenvalues --    1.52681   1.53126   1.53499   1.53849   1.55352
  Beta virt. eigenvalues --    1.55511   1.57467   1.58077   1.58141   1.58300
  Beta virt. eigenvalues --    1.58560   1.58968   1.59085   1.59544   1.60161
  Beta virt. eigenvalues --    1.60722   1.60959   1.61434   1.61617   1.62001
  Beta virt. eigenvalues --    1.62228   1.62518   1.62912   1.63461   1.64134
  Beta virt. eigenvalues --    1.64727   1.64934   1.65142   1.65636   1.65857
  Beta virt. eigenvalues --    1.66157   1.66932   1.68260   1.68464   1.69864
  Beta virt. eigenvalues --    1.70425   1.70706   1.71101   1.72499   1.73148
  Beta virt. eigenvalues --    1.73295   1.73514   1.74257   1.74474   1.74989
  Beta virt. eigenvalues --    1.75814   1.76318   1.77483   1.77801   1.77901
  Beta virt. eigenvalues --    1.78313   1.78509   1.79023   1.79282   1.79632
  Beta virt. eigenvalues --    1.79865   1.81005   1.81129   1.81558   1.81609
  Beta virt. eigenvalues --    1.82389   1.82860   1.83745   1.83996   1.84092
  Beta virt. eigenvalues --    1.84498   1.85001   1.85024   1.85576   1.86098
  Beta virt. eigenvalues --    1.86260   1.86571   1.86801   1.87434   1.87767
  Beta virt. eigenvalues --    1.88398   1.88546   1.88925   1.89138   1.89333
  Beta virt. eigenvalues --    1.89923   1.90543   1.91379   1.92163   1.92652
  Beta virt. eigenvalues --    1.93078   1.93170   1.93816   1.93855   1.95058
  Beta virt. eigenvalues --    1.96273   1.96771   1.97678   1.97895   1.98565
  Beta virt. eigenvalues --    1.98702   2.01945   2.01968   2.02221   2.03285
  Beta virt. eigenvalues --    2.05203   2.05576   2.07124   2.08360   2.08556
  Beta virt. eigenvalues --    2.10766   2.11032   2.11558   2.11947   2.13071
  Beta virt. eigenvalues --    2.13907   2.14670   2.14852   2.15721   2.17598
  Beta virt. eigenvalues --    2.18355   2.18921   2.19203   2.19652   2.20430
  Beta virt. eigenvalues --    2.20897   2.21063   2.21868   2.24800   2.26583
  Beta virt. eigenvalues --    2.26718   2.27441   2.27762   2.29418   2.29945
  Beta virt. eigenvalues --    2.30320   2.30888   2.31298   2.32772   2.33437
  Beta virt. eigenvalues --    2.33684   2.34140   2.34362   2.34882   2.35775
  Beta virt. eigenvalues --    2.36319   2.38810   2.39604   2.41981   2.42794
  Beta virt. eigenvalues --    2.43369   2.47692   2.49372   2.54483   2.65234
  Beta virt. eigenvalues --    2.66901   2.67121   2.67152   2.67262   2.68043
  Beta virt. eigenvalues --    2.68433   2.69162   2.69230   2.69301   2.69572
  Beta virt. eigenvalues --    2.69633   2.69740   2.69826   2.69906   2.70085
  Beta virt. eigenvalues --    2.70135   2.70179   2.70622   2.70707   2.70774
  Beta virt. eigenvalues --    2.70847   2.70893   2.71082   2.71402   2.71610
  Beta virt. eigenvalues --    2.71739   2.72058   2.72768   2.72842   2.72991
  Beta virt. eigenvalues --    2.73265   2.73302   2.73518   2.73642   2.73787
  Beta virt. eigenvalues --    2.73890   2.74257   2.74305   2.74365   2.75384
  Beta virt. eigenvalues --    2.75456   2.75558   2.75644   2.75687   2.75692
  Beta virt. eigenvalues --    2.75873   2.75908   2.76025   2.76107   2.76200
  Beta virt. eigenvalues --    2.76272   2.76401   2.76528   2.76944   2.77426
  Beta virt. eigenvalues --    2.77502   2.77739   2.78075   2.78407   2.78509
  Beta virt. eigenvalues --    2.78706   2.79078   2.79424   2.79581   2.79667
  Beta virt. eigenvalues --    2.79756   2.79915   2.80070   2.80334   2.81140
  Beta virt. eigenvalues --    2.82221   2.82437   2.82582   2.82697   2.82723
  Beta virt. eigenvalues --    2.82971   2.83102   2.83536   2.83936   2.84773
  Beta virt. eigenvalues --    2.84846   2.85202   2.85346   2.85763   2.85785
  Beta virt. eigenvalues --    2.85933   2.86107   2.86455   2.87274   2.87503
  Beta virt. eigenvalues --    2.87764   2.88462   2.88636   2.88703   2.88842
  Beta virt. eigenvalues --    2.88880   2.89400   2.89459   2.89505   2.90161
  Beta virt. eigenvalues --    2.91057   2.91223   2.92086   2.92150   2.92241
  Beta virt. eigenvalues --    2.92722   2.92727   2.92810   2.93157   2.93214
  Beta virt. eigenvalues --    2.93729   2.94097   2.94493   2.94566   2.94719
  Beta virt. eigenvalues --    2.94874   2.94889   2.95211   2.95378   2.95729
  Beta virt. eigenvalues --    2.95921   2.96144   2.96172   2.96387   2.96478
  Beta virt. eigenvalues --    2.96651   2.96805   2.96830   2.97181   2.97405
  Beta virt. eigenvalues --    2.97556   2.98047   2.98293   2.98311   2.99012
  Beta virt. eigenvalues --    2.99126   2.99335   2.99500   2.99680   2.99806
  Beta virt. eigenvalues --    3.00017   3.00320   3.00563   3.00781   3.00882
  Beta virt. eigenvalues --    3.01418   3.01655   3.01855   3.02316   3.02461
  Beta virt. eigenvalues --    3.02716   3.02898   3.03386   3.04192   3.07085
  Beta virt. eigenvalues --    3.08644   3.08694   3.08765   3.08918   3.09247
  Beta virt. eigenvalues --    3.10077   3.10570   3.10644   3.11278   3.13881
  Beta virt. eigenvalues --    3.14039   3.14094   3.14797   3.15040   3.15187
  Beta virt. eigenvalues --    3.16524   3.16582   3.16932   3.22336   3.28340
  Beta virt. eigenvalues --    3.30300   3.30562   3.30789   3.42681   3.43363
  Beta virt. eigenvalues --    3.44155   3.44626   3.45785   3.46582   3.46685
  Beta virt. eigenvalues --    3.47570   3.47809   3.48046   3.48958   3.49133
  Beta virt. eigenvalues --    3.49494   3.53084   3.53904   3.54411   3.55456
  Beta virt. eigenvalues --    3.55613   3.56451   3.56630   3.57121   3.57266
  Beta virt. eigenvalues --    3.57411   3.57504   3.57893   3.58583   3.59512
  Beta virt. eigenvalues --    3.59845   3.60905   3.61384   3.61673   3.62486
  Beta virt. eigenvalues --    3.62637   3.63268   3.63646   3.63994   3.64505
  Beta virt. eigenvalues --    3.73290   3.77696  68.66703  68.67705  68.68968
  Beta virt. eigenvalues --   68.71192  68.75003  68.75939  68.83779  68.84829
  Beta virt. eigenvalues --   68.85342  68.88105  68.89147  68.90394 576.25183
  Beta virt. eigenvalues --  576.26157 576.27396 576.29569 576.33387 576.34323
  Beta virt. eigenvalues --  576.42009 576.43032 576.43536 576.46200 576.47212
  Beta virt. eigenvalues --  576.48459
          Condensed to atoms (all electrons):
          Atomic-Atomic Spin Densities.
 Mulliken charges and spin densities:
               1          2
     1  Cl  -0.352998  -0.617657
     2  C   -0.037862  -0.081661
     3  C    0.014606   0.047243
     4  C   -0.035804  -0.078325
     5  C   -0.031419   0.050406
     6  C    0.006658  -0.098686
     7  C   -0.049163   0.049711
     8  H    0.046892   0.003470
     9  H    0.049221   0.003365
    10  H    0.053896  -0.001783
    11  H    0.055096   0.004336
    12  H    0.052819  -0.001732
    13  C    0.000500  -0.208471
    14  C   -0.024596  -0.083850
    15  H    0.072969   0.008969
    16  H    0.094700   0.004580
    17  H    0.093159   0.003861
    18  O   -0.671715  -0.000565
    19  O   -0.668607  -0.000494
    20  O   -0.666189  -0.001900
    21  O   -0.670826  -0.000525
    22  W    1.716465   0.000353
    23  W    1.655211   0.000517
    24  W    1.667618   0.000191
    25  W    1.675994   0.000188
    26  W    1.660129   0.002798
    27  W    1.707613   0.002530
    28  W    1.612459   0.003347
    29  W    1.668552   0.002945
    30  O   -0.351064  -0.000530
    31  O   -0.394934  -0.000563
    32  O   -0.394409  -0.000599
    33  O   -0.392738  -0.000552
    34  O   -0.672100  -0.000305
    35  O   -0.677268  -0.000057
    36  O   -0.669381  -0.000148
    37  O   -0.671209  -0.000231
    38  O   -0.395671   0.002098
    39  O   -0.396081   0.002116
    40  O   -0.339615  -0.001062
    41  O   -0.395963   0.002107
    42  O   -0.677123   0.000075
    43  O   -0.670496   0.000179
    44  O   -0.666722   0.000298
    45  O   -0.673533   0.000097
    46  O   -0.395891   0.002327
    47  O   -0.352578   0.002212
    48  O   -0.387460   0.001788
    49  O   -0.394983   0.002382
    50  W    1.656613   0.002857
    51  W    1.659845   0.002743
    52  W    1.670755   0.003857
    53  W    1.667913   0.002690
    54  O   -0.720305   0.000103
    55  O   -0.703616   0.000007
    56  O   -0.721853   0.000172
    57  O   -0.718837   0.000060
    58  O   -0.702076  -0.000016
    59  O   -0.722253   0.000158
    60  O   -0.721032   0.000207
    61  O   -0.717206   0.000205
    62  O   -0.721350  -0.000175
    63  O   -0.704908  -0.000011
    64  O   -0.720702  -0.000192
    65  O   -0.723279  -0.000205
    66  O   -0.881949   0.005276
    67  O   -0.882455   0.007417
    68  O   -0.880258   0.007149
    69  O   -0.887715   0.006664
    70  K    0.851236   0.000199
    71  K    0.850884   0.000221
    72  K    0.846804   0.000247
    73  V    1.199587   0.935573
 Sum of Mulliken charges =  -1.00000  -0.00000
 Mulliken charges and spin densities with hydrogens summed into heavy atoms:
               1          2
     1  Cl  -0.352998  -0.617657
     2  C    0.009029  -0.078191
     3  C    0.014606   0.047243
     4  C    0.013417  -0.074960
     5  C    0.022477   0.048623
     6  C    0.061755  -0.094350
     7  C    0.003656   0.047980
    13  C    0.073468  -0.199502
    14  C    0.163264  -0.075408
    18  O   -0.671715  -0.000565
    19  O   -0.668607  -0.000494
    20  O   -0.666189  -0.001900
    21  O   -0.670826  -0.000525
    22  W    1.716465   0.000353
    23  W    1.655211   0.000517
    24  W    1.667618   0.000191
    25  W    1.675994   0.000188
    26  W    1.660129   0.002798
    27  W    1.707613   0.002530
    28  W    1.612459   0.003347
    29  W    1.668552   0.002945
    30  O   -0.351064  -0.000530
    31  O   -0.394934  -0.000563
    32  O   -0.394409  -0.000599
    33  O   -0.392738  -0.000552
    34  O   -0.672100  -0.000305
    35  O   -0.677268  -0.000057
    36  O   -0.669381  -0.000148
    37  O   -0.671209  -0.000231
    38  O   -0.395671   0.002098
    39  O   -0.396081   0.002116
    40  O   -0.339615  -0.001062
    41  O   -0.395963   0.002107
    42  O   -0.677123   0.000075
    43  O   -0.670496   0.000179
    44  O   -0.666722   0.000298
    45  O   -0.673533   0.000097
    46  O   -0.395891   0.002327
    47  O   -0.352578   0.002212
    48  O   -0.387460   0.001788
    49  O   -0.394983   0.002382
    50  W    1.656613   0.002857
    51  W    1.659845   0.002743
    52  W    1.670755   0.003857
    53  W    1.667913   0.002690
    54  O   -0.720305   0.000103
    55  O   -0.703616   0.000007
    56  O   -0.721853   0.000172
    57  O   -0.718837   0.000060
    58  O   -0.702076  -0.000016
    59  O   -0.722253   0.000158
    60  O   -0.721032   0.000207
    61  O   -0.717206   0.000205
    62  O   -0.721350  -0.000175
    63  O   -0.704908  -0.000011
    64  O   -0.720702  -0.000192
    65  O   -0.723279  -0.000205
    66  O   -0.881949   0.005276
    67  O   -0.882455   0.007417
    68  O   -0.880258   0.007149
    69  O   -0.887715   0.006664
    70  K    0.851236   0.000199
    71  K    0.850884   0.000221
    72  K    0.846804   0.000247
    73  V    1.199587   0.935573
 Electronic spatial extent (au):  <R**2>=         316900.6721
 Charge=             -1.0000 electrons
 Dipole moment (field-independent basis, Debye):
    X=             29.4007    Y=            -13.7357    Z=            -30.7665  Tot=             44.7174
 Quadrupole moment (field-independent basis, Debye-Ang):
   XX=           -781.6237   YY=           -700.4860   ZZ=           -783.3637
   XY=            132.2694   XZ=            188.3332   YZ=            -93.6449
 Traceless Quadrupole moment (field-independent basis, Debye-Ang):
   XX=            -26.4659   YY=             54.6718   ZZ=            -28.2059
   XY=            132.2694   XZ=            188.3332   YZ=            -93.6449
 Octapole moment (field-independent basis, Debye-Ang**2):
  XXX=          10474.0547  YYY=            912.0789  ZZZ=         -17454.8940  XYY=           4091.7041
  XXY=           -697.0857  XXZ=          -6256.8803  XZZ=           4198.5981  YZZ=           -134.1585
  YYZ=          -6982.9772  XYZ=           1449.6033
 Hexadecapole moment (field-independent basis, Debye-Ang**3):
 XXXX=        -128537.0410 YYYY=         -39023.4435 ZZZZ=        -326380.0883 XXXY=           8860.4423
 XXXZ=          89277.0277 YYYX=           2557.1015 YYYZ=           7901.6112 ZZZX=          91877.9109
 ZZZY=           7780.7216 XXYY=         -35886.4031 XXZZ=         -72118.9435 YYZZ=         -77466.8538
 XXYZ=         -11283.1439 YYXZ=          40247.0674 ZZXY=          14878.1808
 N-N= 2.100280160336D+04 E-N=-5.911531491982D+04  KE= 6.765665878810D+03
                          Isotropic Fermi Contact Couplings
        Atom                 a.u.       MegaHertz       Gauss      10(-4) cm-1
     1  Cl(35)            -0.09712     -21.29219      -7.59758      -7.10231
     2  C(13)             -0.01267      -7.12315      -2.54172      -2.37603
     3  C(13)              0.01568       8.81182       3.14428       2.93931
     4  C(13)             -0.01223      -6.87644      -2.45368      -2.29373
     5  C(13)              0.01135       6.37925       2.27627       2.12789
     6  C(13)             -0.01590      -8.93846      -3.18947      -2.98155
     7  C(13)              0.01120       6.29320       2.24557       2.09919
     8  H(1)               0.00112       2.49537       0.89041       0.83236
     9  H(1)               0.00109       2.43754       0.86978       0.81308
    10  H(1)              -0.00052      -1.17130      -0.41795      -0.39070
    11  H(1)               0.00131       2.93391       1.04689       0.97865
    12  H(1)              -0.00051      -1.13649      -0.40553      -0.37909
    13  C(13)             -0.02827     -15.88908      -5.66962      -5.30003
    14  C(13)             -0.02617     -14.71119      -5.24932      -4.90712
    15  H(1)               0.00285       6.36075       2.26967       2.12172
    16  H(1)               0.00168       3.76272       1.34263       1.25511
    17  H(1)               0.00135       3.01755       1.07674       1.00655
    18  O(17)             -0.00045       0.13641       0.04868       0.04550
    19  O(17)             -0.00039       0.11971       0.04271       0.03993
    20  O(17)             -0.00163       0.49336       0.17604       0.16457
    21  O(17)             -0.00043       0.12901       0.04603       0.04303
    22  W(183)             0.00000       0.00000       0.00000       0.00000
    23  W(183)             0.00000       0.00000       0.00000       0.00000
    24  W(183)             0.00000       0.00000       0.00000       0.00000
    25  W(183)             0.00000       0.00000       0.00000       0.00000
    26  W(183)             0.00000       0.00000       0.00000       0.00000
    27  W(183)             0.00000       0.00000       0.00000       0.00000
    28  W(183)             0.00000       0.00000       0.00000       0.00000
    29  W(183)             0.00000       0.00000       0.00000       0.00000
    30  O(17)             -0.00020       0.06039       0.02155       0.02015
    31  O(17)             -0.00024       0.07165       0.02557       0.02390
    32  O(17)             -0.00025       0.07624       0.02720       0.02543
    33  O(17)             -0.00022       0.06819       0.02433       0.02275
    34  O(17)             -0.00006       0.01738       0.00620       0.00580
    35  O(17)              0.00013      -0.03937      -0.01405      -0.01313
    36  O(17)              0.00012      -0.03680      -0.01313      -0.01228
    37  O(17)              0.00004      -0.01074      -0.00383      -0.00358
    38  O(17)              0.00194      -0.58945      -0.21033      -0.19662
    39  O(17)              0.00191      -0.57753      -0.20608      -0.19264
    40  O(17)             -0.01181       3.57929       1.27718       1.19392
    41  O(17)              0.00190      -0.57701      -0.20589      -0.19247
    42  O(17)              0.00026      -0.07976      -0.02846      -0.02661
    43  O(17)              0.00034      -0.10288      -0.03671      -0.03432
    44  O(17)              0.00046      -0.13964      -0.04983      -0.04658
    45  O(17)              0.00028      -0.08412      -0.03001      -0.02806
    46  O(17)              0.00223      -0.67574      -0.24112      -0.22540
    47  O(17)              0.00199      -0.60434      -0.21564      -0.20158
    48  O(17)              0.00059      -0.17887      -0.06382      -0.05966
    49  O(17)              0.00224      -0.67960      -0.24250      -0.22669
    50  W(183)             0.00000       0.00000       0.00000       0.00000
    51  W(183)             0.00000       0.00000       0.00000       0.00000
    52  W(183)             0.00000       0.00000       0.00000       0.00000
    53  W(183)             0.00000       0.00000       0.00000       0.00000
    54  O(17)              0.00016      -0.04948      -0.01766      -0.01651
    55  O(17)              0.00004      -0.01113      -0.00397      -0.00371
    56  O(17)              0.00027      -0.08038      -0.02868      -0.02681
    57  O(17)              0.00005      -0.01619      -0.00578      -0.00540
    58  O(17)              0.00013      -0.04062      -0.01449      -0.01355
    59  O(17)              0.00028      -0.08461      -0.03019      -0.02822
    60  O(17)              0.00033      -0.10102      -0.03605      -0.03370
    61  O(17)              0.00035      -0.10509      -0.03750      -0.03506
    62  O(17)             -0.00026       0.07909       0.02822       0.02638
    63  O(17)             -0.00017       0.05270       0.01880       0.01758
    64  O(17)             -0.00028       0.08565       0.03056       0.02857
    65  O(17)             -0.00031       0.09320       0.03326       0.03109
    66  O(17)             -0.00820       2.48633       0.88719       0.82935
    67  O(17)             -0.00701       2.12440       0.75804       0.70862
    68  O(17)             -0.00723       2.19060       0.78166       0.73070
    69  O(17)             -0.00757       2.29382       0.81849       0.76514
    70  K(39)             -0.00002      -0.00200      -0.00071      -0.00067
    71  K(39)             -0.00002      -0.00191      -0.00068      -0.00064
    72  K(39)             -0.00002      -0.00214      -0.00076      -0.00071
    73  V(51)              0.07038      41.44819      14.78975      13.82563
 --------------------------------------------------------
       Center         ----  Spin Dipole Couplings  ----
                      3XX-RR        3YY-RR        3ZZ-RR
 --------------------------------------------------------
     1   Atom        0.441262     -1.780188      1.338926
     2   Atom       -0.017285     -0.012207      0.029493
     3   Atom        0.006420      0.001963     -0.008382
     4   Atom       -0.016723     -0.014412      0.031134
     5   Atom        0.010688      0.005887     -0.016575
     6   Atom       -0.019912     -0.015626      0.035538
     7   Atom        0.009751      0.005088     -0.014839
     8   Atom       -0.001469     -0.001288      0.002757
     9   Atom        0.000134      0.000205     -0.000339
    10   Atom        0.001509      0.000414     -0.001923
    11   Atom        0.003699      0.000211     -0.003910
    12   Atom        0.000565     -0.000550     -0.000015
    13   Atom       -0.063586     -0.030368      0.093954
    14   Atom       -0.022334     -0.044358      0.066692
    15   Atom       -0.002183      0.002033      0.000150
    16   Atom        0.007258      0.003027     -0.010285
    17   Atom       -0.011340      0.004772      0.006568
    18   Atom        0.001352     -0.001312     -0.000040
    19   Atom        0.001912     -0.001831     -0.000080
    20   Atom       -0.002095     -0.000361      0.002457
    21   Atom       -0.000612      0.000644     -0.000031
    22   Atom       -0.001994      0.000594      0.001400
    23   Atom       -0.001834      0.000686      0.001149
    24   Atom       -0.002402      0.001053      0.001349
    25   Atom       -0.002096      0.000631      0.001466
    26   Atom        0.000357     -0.002275      0.001917
    27   Atom        0.000516     -0.002515      0.001999
    28   Atom        0.000921     -0.003117      0.002196
    29   Atom        0.000674     -0.002750      0.002076
    30   Atom       -0.000147      0.000264     -0.000118
    31   Atom        0.000012      0.000058     -0.000069
    32   Atom       -0.000509      0.000621     -0.000111
    33   Atom       -0.000165      0.000240     -0.000075
    34   Atom       -0.000022     -0.001967      0.001989
    35   Atom       -0.000333     -0.002592      0.002925
    36   Atom       -0.002171     -0.000471      0.002642
    37   Atom       -0.001866     -0.000644      0.002510
    38   Atom        0.006126     -0.002976     -0.003150
    39   Atom        0.006169     -0.003052     -0.003117
    40   Atom       -0.010948      0.007744      0.003204
    41   Atom       -0.004482      0.007856     -0.003374
    42   Atom        0.002625     -0.001002     -0.001623
    43   Atom        0.002946     -0.001060     -0.001886
    44   Atom       -0.004501      0.005812     -0.001311
    45   Atom       -0.003347      0.004905     -0.001558
    46   Atom       -0.000493      0.000453      0.000040
    47   Atom        0.002035     -0.002878      0.000843
    48   Atom        0.005174     -0.007692      0.002518
    49   Atom        0.005208     -0.005026     -0.000182
    50   Atom        0.006100     -0.002768     -0.003332
    51   Atom        0.006450     -0.003162     -0.003288
    52   Atom       -0.002136      0.004764     -0.002627
    53   Atom       -0.002058      0.005461     -0.003403
    54   Atom       -0.003128     -0.001719      0.004847
    55   Atom       -0.002829     -0.001921      0.004750
    56   Atom       -0.001167     -0.004478      0.005645
    57   Atom       -0.001152     -0.003745      0.004898
    58   Atom       -0.003991      0.006409     -0.002418
    59   Atom       -0.003920      0.006660     -0.002740
    60   Atom        0.002632      0.000028     -0.002661
    61   Atom        0.002896     -0.000328     -0.002568
    62   Atom        0.000841      0.000960     -0.001801
    63   Atom        0.001216      0.000283     -0.001500
    64   Atom        0.005340     -0.003809     -0.001531
    65   Atom        0.004995     -0.003147     -0.001848
    66   Atom       -0.030448      0.002152      0.028296
    67   Atom       -0.035259     -0.000729      0.035988
    68   Atom       -0.061995      0.022109      0.039886
    69   Atom       -0.057370      0.027137      0.030233
    70   Atom       -0.000578      0.000558      0.000020
    71   Atom        0.000437     -0.000530      0.000092
    72   Atom        0.000759     -0.000955      0.000196
    73   Atom       -1.014328      0.264200      0.750127
 --------------------------------------------------------
                        XY            XZ            YZ
 --------------------------------------------------------
     1   Atom        2.228044      0.815439     -1.317279
     2   Atom        0.054216      0.022406     -0.020518
     3   Atom       -0.015021     -0.004792      0.008667
     4   Atom        0.051994      0.020676     -0.019947
     5   Atom       -0.027121     -0.011943      0.011972
     6   Atom        0.066505      0.028367     -0.024129
     7   Atom       -0.026669     -0.010309      0.012752
     8   Atom       -0.002098     -0.001870      0.000428
     9   Atom       -0.002017     -0.003487     -0.002655
    10   Atom       -0.000484     -0.001177      0.000861
    11   Atom        0.001721      0.002381      0.005343
    12   Atom       -0.001186      0.000213      0.002193
    13   Atom        0.157272      0.072024     -0.062489
    14   Atom        0.110610      0.051947     -0.053601
    15   Atom       -0.004409     -0.010675     -0.012743
    16   Atom        0.001165      0.010104      0.005919
    17   Atom       -0.001593     -0.009885     -0.004430
    18   Atom        0.000457     -0.001718      0.000230
    19   Atom        0.000356      0.002086     -0.000550
    20   Atom        0.003748      0.001324     -0.001170
    21   Atom       -0.001174      0.001380     -0.001367
    22   Atom        0.002216     -0.001952     -0.004096
    23   Atom        0.002190      0.002212      0.003918
    24   Atom        0.002324      0.001814      0.004198
    25   Atom        0.001994     -0.002004     -0.004122
    26   Atom       -0.002030     -0.004588      0.002413
    27   Atom       -0.001840      0.004717     -0.002737
    28   Atom       -0.001458     -0.004688      0.002617
    29   Atom       -0.001664      0.004781     -0.002211
    30   Atom        0.000418     -0.000179     -0.000577
    31   Atom        0.000448      0.000650      0.000301
    32   Atom        0.000468     -0.000151      0.000814
    33   Atom        0.000307     -0.000117     -0.000627
    34   Atom        0.000629     -0.003240     -0.000882
    35   Atom        0.000841      0.003933      0.001042
    36   Atom       -0.000350     -0.001780      0.003849
    37   Atom       -0.000629      0.001484     -0.003175
    38   Atom        0.004745      0.003618      0.001627
    39   Atom        0.004953     -0.003542     -0.001863
    40   Atom        0.012351      0.006308     -0.008567
    41   Atom       -0.002393     -0.000526      0.003705
[...]
                                 (Linear)    (Quad)   (Total)
    X1      -18.86509   0.00738   0.00000   0.00727   0.00947 -18.85562
    Y1       14.97762  -0.01166   0.00000  -0.01138  -0.01299  14.96464
    Z1       19.79553  -0.00378   0.00000  -0.00391  -0.00606  19.78948
    X2      -15.70043   0.00173   0.00000   0.00150   0.00315 -15.69728
    Y2        8.00968   0.00097   0.00000   0.01141   0.00990   8.01958
    Z2       23.11787   0.00199   0.00000   0.00105  -0.00037  23.11750
    X3      -17.13858   0.00102   0.00000  -0.01960  -0.01789 -17.15647
    Y3        7.39976   0.00236   0.00000   0.02201   0.02041   7.42017
    Z3       20.96562  -0.00399   0.00000   0.00862   0.00719  20.97281
    X4      -18.90784  -0.00247   0.00000  -0.00818  -0.00660 -18.91444
    Y4        5.42630  -0.00213   0.00000   0.00397   0.00248   5.42878
    Z4       21.16090  -0.00087   0.00000  -0.00751  -0.00884  21.15207
    X5      -19.25123  -0.00099   0.00000  -0.00035   0.00106 -19.25017
    Y5        4.12698   0.00006   0.00000   0.00017  -0.00111   4.12587
    Z5       23.41979  -0.00138   0.00000  -0.01176  -0.01298  23.40681
    X6      -17.81711   0.00001   0.00000   0.00265   0.00401 -17.81310
    Y6        4.76174   0.00041   0.00000   0.00566   0.00448   4.76623
    Z6       25.53960  -0.00149   0.00000  -0.01360  -0.01482  25.52478
    X7      -16.03774   0.00133   0.00000   0.00778   0.00927 -16.02847
    Y7        6.70346   0.00184   0.00000   0.00461   0.00331   6.70677
    Z7       25.37447  -0.00041   0.00000  -0.00636  -0.00768  25.36679
    X8      -14.30996  -0.00004   0.00000   0.00322   0.00496 -14.30500
    Y8        9.53319  -0.00032   0.00000   0.00774   0.00614   9.53933
    Z8       23.04113  -0.00009   0.00000  -0.00152  -0.00301  23.03812
    X9      -20.03447   0.00031   0.00000  -0.00352  -0.00190 -20.03636
    Y9        4.92147  -0.00006   0.00000   0.00267   0.00111   4.92258
    Z9       19.50308   0.00017   0.00000  -0.00840  -0.00973  19.49336
   X10      -20.64573   0.00049   0.00000   0.00720   0.00851 -20.63721
   Y10        2.60844   0.00003   0.00000  -0.00535  -0.00653   2.60191
   Z10       23.52906  -0.00022   0.00000  -0.00997  -0.01113  23.51793
   X11      -18.06869  -0.00018   0.00000   0.00084   0.00207 -18.06662
   Y11        3.73445   0.00022   0.00000   0.00632   0.00531   3.73976
   Z11       27.31106   0.00003   0.00000  -0.01230  -0.01344  27.29762
   X12      -14.91391   0.00015   0.00000   0.01165   0.01309 -14.90082
   Y12        7.21551  -0.00026   0.00000  -0.00466  -0.00588   7.20963
   Z12       27.03010  -0.00057   0.00000  -0.00767  -0.00899  27.02112
   X13      -16.89224  -0.01594   0.00000  -0.06292  -0.06103 -16.95327
   Y13        8.74533  -0.01439   0.00000   0.05718   0.05536   8.80069
   Z13       18.56075   0.01106   0.00000   0.04080   0.03926  18.60001
   X14      -15.34491   0.00709   0.00000  -0.06548  -0.06346 -15.40837
   Y14       10.70451   0.02382   0.00000   0.10382   0.10186  10.80637
   Z14       18.08780  -0.00064   0.00000   0.03771   0.03607  18.12387
   X15      -18.11086  -0.00004   0.00000  -0.03399  -0.03208 -18.14294
   Y15        8.05638   0.00049   0.00000   0.03524   0.03335   8.08973
   Z15       17.03568   0.00025   0.00000   0.02728   0.02575  17.06143
   X16      -15.25266  -0.00037   0.00000  -0.04033  -0.03818 -15.29084
   Y16       11.55127  -0.00073   0.00000   0.05288   0.05075  11.60202
   Z16       16.20995  -0.00060   0.00000   0.01572   0.01401  16.22396
   X17      -13.97858  -0.00027   0.00000  -0.03714  -0.03514 -14.01372
   Y17       11.39398   0.00023   0.00000   0.07453   0.07261  11.46659
   Z17       19.47351   0.00028   0.00000   0.02249   0.02084  19.49435
   X18       -1.90869   0.00520   0.00000   0.02580   0.02715  -1.88154
   Y18       -3.32991  -0.00092   0.00000  -0.00631  -0.00941  -3.33933
   Z18       14.09455  -0.00127   0.00000  -0.01146  -0.01133  14.08322
   X19      -15.89551  -0.00489   0.00000  -0.01816  -0.01676 -15.91227
   Y19       -2.50633   0.00123   0.00000  -0.00178  -0.00405  -2.51039
   Z19       14.10504  -0.00156   0.00000  -0.01323  -0.01375  14.09129
   X20      -13.33296  -0.00376   0.00000  -0.01078  -0.00931 -13.34227
   Y20        2.54000   0.00456   0.00000   0.01678   0.01484   2.55484
   Z20       19.81982   0.00055   0.00000   0.00822   0.00737  19.82719
   X21       -4.40830   0.00372   0.00000   0.01372   0.01454  -4.39376
   Y21       -8.22430  -0.00342   0.00000  -0.02143  -0.02388  -8.24818
   Z21       19.95815   0.00145   0.00000   0.01220   0.01266  19.97080
   X22       -6.46858  -0.00235   0.00000   0.01334   0.01505  -6.45353
   Y22        1.40121  -0.01636   0.00000  -0.02523  -0.02822   1.37298
   Z22       12.27121   0.01488   0.00000   0.01206   0.01160  12.28281
   X23      -11.36109   0.00384   0.00000  -0.00854  -0.00735 -11.36844
   Y23       -7.23588   0.01554   0.00000   0.01144   0.00876  -7.22712
   Z23       12.44060   0.01534   0.00000   0.00974   0.00982  12.45042
   X24       -6.86361  -0.00975   0.00000  -0.01648  -0.01514  -6.87875
   Y24        1.73435  -0.01333   0.00000  -0.00414  -0.00630   1.72804
   Z24       21.56154  -0.01517   0.00000  -0.01270  -0.01321  21.54832
   X25      -10.92212   0.01101   0.00000   0.02176   0.02257 -10.89955
   Y25       -7.31149   0.01146   0.00000  -0.00096  -0.00287  -7.31436
   Z25       21.68039  -0.01594   0.00000  -0.01169  -0.01158  21.66881
   X26       -4.66831  -0.01272   0.00000   0.00442   0.00577  -4.66255
   Y26       -4.81412   0.01139   0.00000   0.00973   0.00662  -4.80750
   Z26       12.05764   0.01692   0.00000   0.01097   0.01111  12.06875
   X27      -13.12451   0.01272   0.00000   0.00550   0.00708 -13.11743
   Y27       -1.01281  -0.01253   0.00000  -0.02269  -0.02531  -1.03812
   Z27       11.99865   0.01637   0.00000   0.01239   0.01186  12.01051
   X28      -12.90100   0.01794   0.00000   0.01618   0.01738 -12.88361
   Y28       -0.47352  -0.00503   0.00000   0.00774   0.00596  -0.46756
   Z28       21.90764  -0.01674   0.00000  -0.01277  -0.01334  21.89430
   X29       -4.86189  -0.01692   0.00000  -0.01143  -0.01051  -4.87239
   Y29       -5.09236   0.00277   0.00000  -0.01441  -0.01665  -5.10902
   Z29       21.97634  -0.01684   0.00000  -0.01139  -0.01123  21.96511
   X30       -6.03865   0.00111   0.00000  -0.00524  -0.00331  -6.04195
   Y30        3.67058   0.00409   0.00000  -0.01137  -0.01457   3.65601
   Z30       10.07060  -0.00440   0.00000   0.00556   0.00492  10.07552
   X31      -11.61499  -0.00047   0.00000   0.00874   0.00989 -11.60511
   Y31       -9.60268  -0.00452   0.00000   0.00088  -0.00198  -9.60465
   Z31       10.28566  -0.00437   0.00000   0.00225   0.00252  10.28818
   X32       -5.12765   0.00332   0.00000   0.00231   0.00366  -5.12399
   Y32        3.34883   0.00296   0.00000  -0.01265  -0.01473   3.33410
   Z32       23.72809   0.00444   0.00000  -0.00434  -0.00491  23.72318
   X33      -12.64177  -0.00333   0.00000   0.00272   0.00334 -12.63843
   Y33       -8.85583  -0.00291   0.00000   0.00797   0.00635  -8.84948
   Z33       23.90927   0.00462   0.00000  -0.00325  -0.00308  23.90619
   X34       -5.09491   0.00192   0.00000   0.01849   0.02009  -5.07482
   Y34       -1.64029   0.00117   0.00000  -0.00117  -0.00439  -1.64468
   Z34       10.55383  -0.00472   0.00000  -0.01403  -0.01418  10.53965
   X35      -12.69452  -0.00215   0.00000  -0.01213  -0.01069 -12.70521
   Y35       -4.29124  -0.00014   0.00000  -0.00851  -0.01128  -4.30252
   Z35       10.63399  -0.00500   0.00000  -0.01602  -0.01625  10.61774
   X36      -10.05881  -0.00098   0.00000  -0.00336  -0.00213 -10.06094
   Y36        1.06892   0.00223   0.00000   0.01465   0.01283   1.08176
   Z36       23.37477   0.00472   0.00000   0.01083   0.01025  23.38502
   X37       -7.68422   0.00052   0.00000   0.00615   0.00692  -7.67729
   Y37       -6.63585  -0.00197   0.00000  -0.01742  -0.01937  -6.65522
   Z37       23.45701   0.00486   0.00000   0.01306   0.01324  23.47025
   X38        0.55878   0.00698   0.00000  -0.00116   0.00024   0.55903
   Y38       -0.00247   0.00256   0.00000  -0.00103  -0.00398  -0.00645
   Z38       17.52051   0.00213   0.00000   0.00421   0.00416  17.52467
   X39      -18.36526  -0.00710   0.00000   0.00702   0.00809 -18.35717
   Y39       -5.70134  -0.00261   0.00000  -0.00603  -0.00785  -5.70919
   Z39       17.62728   0.00226   0.00000   0.00436   0.00402  17.63130
   X40      -12.07434  -0.00427   0.00000  -0.01016  -0.00832 -12.08266
   Y40        6.45812   0.00992   0.00000  -0.00332  -0.00563   6.45249
   Z40       16.31683  -0.00066   0.00000   0.00564   0.00450  16.32133
   X41       -5.60539   0.00178   0.00000  -0.00696  -0.00623  -5.61161
   Y41      -12.19221  -0.00712   0.00000  -0.00442  -0.00709 -12.19930
   Z41       16.53568  -0.00178   0.00000  -0.00245  -0.00171  16.53397
   X42       -3.41852   0.00311   0.00000   0.02110   0.02274  -3.39579
   Y42        1.47947   0.00402   0.00000   0.00280  -0.00021   1.47926
   Z42       14.13941  -0.00206   0.00000  -0.01202  -0.01237  14.12704
   X43      -14.38666  -0.00373   0.00000  -0.01751  -0.01640 -14.40306
   Y43       -7.32773  -0.00379   0.00000  -0.01111  -0.01346  -7.34119
   Z43       14.28538  -0.00157   0.00000  -0.01162  -0.01166  14.27372
   X44       -8.56776   0.00027   0.00000  -0.00235  -0.00078  -8.56854
   Y44        4.19470   0.00561   0.00000   0.01896   0.01673   4.21144
   Z44       19.70422   0.00095   0.00000   0.00576   0.00496  19.70919
   X45       -9.19370  -0.00126   0.00000   0.00528   0.00601  -9.18769
   Y45       -9.85315  -0.00502   0.00000  -0.02202  -0.02419  -9.87734
   Z45       19.88803   0.00184   0.00000   0.01074   0.01114  19.89917
   X46       -3.09115   0.00388   0.00000   0.00065   0.00199  -3.08916
   Y46       -6.56317  -0.00457   0.00000  -0.01248  -0.01587  -6.57904
   Z46        9.87410  -0.00482   0.00000   0.00620   0.00657   9.88067
   X47      -14.79778  -0.00413   0.00000   0.01120   0.01296 -14.78482
   Y47        0.50039   0.00331   0.00000  -0.00003  -0.00275   0.49764
   Z47        9.74290  -0.00493   0.00000   0.00403   0.00330   9.74620
   X48      -15.19212  -0.00598   0.00000   0.00207   0.00319 -15.18893
   Y48       -0.31819   0.00078   0.00000  -0.00454  -0.00599  -0.32418
   Z48       24.14647   0.00530   0.00000  -0.00621  -0.00689  24.13959
   X49       -2.52920   0.00573   0.00000   0.00306   0.00388  -2.52532
   Y49       -5.31436  -0.00075   0.00000  -0.00038  -0.00258  -5.31693
   Z49       24.17217   0.00488   0.00000  -0.00572  -0.00544  24.16674
   X50       -2.39192  -0.02222   0.00000  -0.00663  -0.00524  -2.39716
   Y50       -0.97638  -0.00782   0.00000  -0.01206  -0.01490  -0.99129
   Z50       16.71056  -0.00471   0.00000  -0.01660  -0.01669  16.69387
   X51      -15.41888   0.02294   0.00000   0.01307   0.01423 -15.40465
   Y51       -4.74271   0.00613   0.00000   0.00281   0.00074  -4.74196
   Z51       16.78309  -0.00527   0.00000  -0.01781  -0.01812  16.76497
   X52      -11.20260   0.00909   0.00000   0.00401   0.00564 -11.19696
   Y52        3.49832  -0.02528   0.00000  -0.01670  -0.01900   3.47933
   Z52       17.09291   0.00564   0.00000   0.01661   0.01577  17.10868
   X53       -6.55632  -0.00739   0.00000   0.00017   0.00104  -6.55528
   Y53       -9.22712   0.02204   0.00000   0.00726   0.00472  -9.22240
   Z53       17.32381   0.00432   0.00000   0.01631   0.01675  17.34057
   X54       -8.00906   0.00099   0.00000   0.00047   0.00178  -8.00728
   Y54       -5.84274  -0.00230   0.00000   0.00876   0.00579  -5.83694
   Z54       11.47202  -0.00333   0.00000   0.01025   0.01035  11.48237
   X55       -9.78158  -0.00099   0.00000   0.00757   0.00922  -9.77236
   Y55       -0.05766   0.00219   0.00000  -0.02196  -0.02483  -0.08249
   Z55       11.35871  -0.00304   0.00000   0.01115   0.01068  11.36939
   X56      -11.69181  -0.00254   0.00000   0.01613   0.01711 -11.67471
   Y56       -3.78008   0.00034   0.00000   0.00558   0.00379  -3.77629
   Z56       22.53226   0.00328   0.00000  -0.01187  -0.01210  22.52015
   X57       -6.02283   0.00225   0.00000  -0.01155  -0.01046  -6.03328
   Y57       -1.79652   0.00091   0.00000  -0.00923  -0.01136  -1.80788
   Z57       22.55071   0.00319   0.00000  -0.01204  -0.01222  22.53849
   X58       -8.29305  -0.00067   0.00000   0.00608   0.00778  -8.28528
   Y58        3.00803   0.00387   0.00000  -0.01631  -0.01897   2.98906
   Z58       14.83120  -0.00140   0.00000   0.01027   0.00959  14.84079
   X59       -9.46180  -0.00046   0.00000  -0.00450  -0.00351  -9.46530
   Y59       -8.83457  -0.00337   0.00000   0.00961   0.00703  -8.82754
   Z59       14.97957  -0.00218   0.00000   0.01003   0.01033  14.98989
   X60       -4.42571   0.00230   0.00000  -0.01211  -0.01070  -4.43641
   Y60        1.13701   0.00249   0.00000  -0.00789  -0.01042   1.12659
   Z60       19.05136   0.00227   0.00000  -0.01171  -0.01207  19.03929
   X61      -13.35502  -0.00269   0.00000   0.01698   0.01792 -13.33711
   Y61       -6.82456  -0.00200   0.00000   0.00186  -0.00013  -6.82469
   Z61       19.16262   0.00209   0.00000  -0.01145  -0.01149  19.15113
   X62       -4.87695   0.00214   0.00000   0.00239   0.00347  -4.87348
   Y62       -7.31608  -0.00312   0.00000   0.00466   0.00180  -7.31428
   Z62       14.85232  -0.00124   0.00000   0.01242   0.01277  14.86509
   X63      -12.93017  -0.00167   0.00000   0.00415   0.00576 -12.92440
   Y63        1.48645   0.00401   0.00000  -0.01281  -0.01520   1.47125
   Z63       14.74685  -0.00043   0.00000   0.01336   0.01263  14.75948
   X64      -14.82441  -0.00360   0.00000   0.01231   0.01352 -14.81090
   Y64       -2.21873   0.00046   0.00000   0.00456   0.00267  -2.21606
   Z64       19.20005   0.00148   0.00000  -0.01392  -0.01442  19.18564
   X65       -2.97603   0.00381   0.00000  -0.00589  -0.00475  -2.98078
   Y65       -3.46704   0.00017   0.00000  -0.01123  -0.01383  -3.48087
   Z65       19.18437   0.00111   0.00000  -0.01265  -0.01255  19.17181
   X66       -6.39661   0.04126   0.00000   0.07471   0.07609  -6.32051
   Y66       -2.13565   0.00794   0.00000   0.00457   0.00182  -2.13383
   Z66       15.14587  -0.02691   0.00000  -0.04267  -0.04282  15.10305
   X67      -11.40224  -0.04180   0.00000  -0.06626  -0.06497 -11.46721
   Y67       -3.68534  -0.00923   0.00000  -0.01818  -0.02063  -3.70597
   Z67       15.19782  -0.02647   0.00000  -0.04331  -0.04354  15.15428
   X68       -9.70862  -0.01728   0.00000  -0.02748  -0.02615  -9.73477
   Y68       -0.37355   0.03990   0.00000   0.06070   0.05847  -0.31507
   Z68       18.80556   0.02696   0.00000   0.04159   0.04113  18.84669
   X69       -8.03328   0.01739   0.00000   0.03418   0.03521  -7.99806
   Y69       -5.33497  -0.03780   0.00000  -0.06496  -0.06729  -5.40226
   Z69       18.85882   0.02708   0.00000   0.04152   0.04158  18.90040
   X70       -6.10812  -0.00035   0.00000  -0.00263  -0.00162  -6.10975
   Y70      -11.57145   0.00146   0.00000   0.00891   0.00577 -11.56568
   Z70       10.70124   0.00103   0.00000   0.01266   0.01333  10.71457
   X71       -0.27607  -0.00124   0.00000  -0.01203  -0.01086  -0.28693
   Y71        0.07918  -0.00049   0.00000  -0.00959  -0.01199   0.06719
   Z71       23.34284  -0.00111   0.00000  -0.01280  -0.01290  23.32994
   X72      -17.52354   0.00145   0.00000   0.01783   0.01867 -17.50487
   Y72       -5.53259   0.00066   0.00000   0.00422   0.00285  -5.52974
   Z72       23.46030  -0.00105   0.00000  -0.01273  -0.01306  23.44724
   X73       -8.88973   0.00078   0.00000   0.00462   0.00588  -8.88385
   Y73       -2.87533  -0.00065   0.00000  -0.00454  -0.00698  -2.88232
   Z73       16.99728  -0.00071   0.00000  -0.00187  -0.00207  16.99521
         Item               Value     Threshold  Converged?
 Maximum Force            0.041802     0.000450     NO 
 RMS     Force            0.009476     0.000300     NO 
 Maximum Displacement     0.101862     0.001800     NO 
 RMS     Displacement     0.020216     0.001200     NO 
 Predicted change in Energy=-1.375754D-02
 GradGradGradGradGradGradGradGradGradGradGradGradGradGradGradGradGradGrad

 Unable to Open any file for archive entry.
 1\1\GINC-X11P1N2\Force\UwB97XD\def2SVP\C8H8Cl1K3O40V1W12(1-)\MAYUMIAO\
 01-Jun-2024\0\\# def2svp wb97xd scrf=(smd,solvent=acetonitrile) g09def
 ault scf=(xqc,maxcycle=64) force guess=read nosymm\\Title Card\\-1,1\C
 l,-9.98297698,7.9258171,10.4753458\C,-8.30830964,4.23853822,12.2334525
 4\C,-9.069344,3.91578481,11.09452886\C,-10.00559704,2.87147321,11.1978
 6851\C,-10.18731015,2.18390376,12.39322112\C,-9.4284067,2.51980675,13.
 51497639\C,-8.48680592,3.54731749,13.42759081\H,-7.57250697,5.04474611
 ,12.19284248\H,-10.60178232,2.60433006,10.32058764\H,-10.92524891,1.38
 032755,12.45104132\H,-9.56153897,1.97618763,14.45239048\H,-7.8920997,3
 .81828157,14.30371473\C,-8.9389868,4.6278302,9.82192468\C,-8.12017411,
 5.66458346,9.57165049\H,-9.58385534,4.26325085,9.01489413\H,-8.0713608
 2,6.11266663,8.57793773\H,-7.39714686,6.02943376,10.30493846\O,-1.0100
 3646,-1.76211447,7.45851384\O,-8.41154359,-1.32629524,7.46406352\O,-7.
 05549806,1.34410932,10.48819679\O,-2.33277293,-4.35211105,10.56139703\
 W,-3.42302653,0.74148592,6.49364516\W,-6.01202827,-3.82906021,6.583282
 51\W,-3.63206789,0.91777589,11.40987351\W,-5.77973674,-3.86907129,11.4
 7277013\W,-2.47036527,-2.54752274,6.38062764\W,-6.94519313,-0.53595509
 ,6.34941382\W,-6.82691329,-0.25057541,11.59302121\W,-2.57279875,-2.694
 76331,11.62937994\O,-3.19551353,1.94238778,5.32913354\O,-6.14638896,-5
 .08151796,5.44293497\O,-2.71343586,1.77212209,12.55636535\O,-6.6897344
 2,-4.68630309,12.65223876\O,-2.6961098,-0.8680043,5.58484811\O,-6.7176
 4945,-2.27082804,5.6272634\O,-5.32289501,0.56564937,12.36939796\O,-4.0
 6631249,-3.51154167,12.4129166\O,0.29569482,-0.00130775,9.27145686\O,-
 9.71847497,-3.01701722,9.32795739\O,-6.38946747,3.41748992,8.63449594\
 O,-2.96624351,-6.45184222,8.75030308\O,-1.80900472,0.78290041,7.482251
 17\O,-7.61309235,-3.87766917,7.55949626\O,-4.53386353,2.21974155,10.42
 702566\O,-4.86509504,-5.21406008,10.52429311\O,-1.63576676,-3.47307921
 ,5.22515052\O,-7.83064962,0.26479526,5.15571865\O,-8.0393221,-0.168381
 33,12.77776215\O,-1.33839531,-2.81223627,12.79136359\W,-1.26574748,-0.
 51667869,8.84284628\W,-8.15932009,-2.50973191,8.88122649\W,-5.92816084
 ,1.85123231,9.04517745\W,-3.46945443,-4.88278064,9.16736792\O,-4.23821
 341,-3.09184231,6.07072997\O,-5.17619059,-0.03051204,6.01077304\O,-6.1
 8704111,-2.00033276,11.92355651\O,-3.18714325,-0.95067763,11.93332127\
 O,-4.38849549,1.591779,7.84833468\O,-5.00696677,-4.67505544,7.92684627
 \O,-2.34198437,0.60167901,10.0815447\O,-7.06717478,-3.61139919,10.1404
 1967\O,-2.58077041,-3.87150484,7.85950896\O,-6.84234867,0.78659777,7.8
 0369667\O,-7.84474214,-1.17410062,10.16023107\O,-1.57484674,-1.8346788
 9,10.15192877\O,-3.38493766,-1.1301378,8.01485023\O,-6.03380568,-1.950
 20038,8.04233893\O,-5.13758122,-0.19767157,9.95147464\O,-4.25102637,-2
 .82314598,9.97965901\K,-3.23228005,-6.12334732,5.66285059\K,-0.1460921
 ,0.04190285,12.35249967\K,-9.27305721,-2.92772008,12.41465638\V,-4.704
 24493,-1.52156144,8.9945745\\Version=ES64L-G16RevC.01\HF=-7327.7000328
 \S2=1.013883\S2-1=0.\S2A=0.111667\RMSD=9.597e-10\RMSF=9.476e-03\Dipole
 =1.7785595,-7.1845698,5.5910059\Quadrupole=-19.6767407,40.6471592,-20.
 9704185,98.3390904,140.0211221,-69.6226683\PG=C01 [X(C8H8Cl1K3O40V1W12
 )]\\@
 The archive entry for this job was punched.


 A politician is a person who can make waves and then
 make you think he's the only one who can save the ship.
 -- Ivern Ball
 Job cpu time:       0 days 21 hours 44 minutes 10.9 seconds.
 Elapsed time:       0 days  0 hours 24 minutes 49.8 seconds.
 File lengths (MBytes):  RWF=   1863 Int=      0 D2E=      0 Chk=    306 Scr=      1
 Normal termination of Gaussian 16 at Sat Jun  1 23:15:53 2024.
