 Entering Gaussian System, Link 0=g16
 Input=JOBS/22_A.gjf
 Output=JOBS/22_A.log
 Initial command:
 /data/app/gaussian/C01-avx2//g16/l1.exe "/tmp/Gau-618781.inp" -scrdir="/tmp/"
 Entering Link 1 = /data/app/gaussian/C01-avx2//g16/l1.exe PID=    618782.
  
 Copyright (c) 1988-2019, Gaussian, Inc.  All Rights Reserved.
  
 This is part of the Gaussian(R) 16 program.  It is based on
 the Gaussian(R) 09 system (copyright 2009, Gaussian, Inc.),
 the Gaussian(R) 03 system (copyright 2003, Gaussian, Inc.),
 the Gaussian(R) 98 system (copyright 1998, Gaussian, Inc.),
 the Gaussian(R) 94 system (copyright 1995, Gaussian, Inc.),
 the Gaussian 92(TM) system (copyright 1992, Gaussian, Inc.),
 the Gaussian 90(TM) system (copyright 1990, Gaussian, Inc.),
 the Gaussian 88(TM) system (copyright 1988, Gaussian, Inc.),
 the Gaussian 86(TM) system (copyright 1986, Carnegie Mellon
 University), and the Gaussian 82(TM) system (copyright 1983,
 Carnegie Mellon University). Gaussian is a federally registered
 trademark of Gaussian, Inc.
  
 This software contains proprietary and confidential information,
 including trade secrets, belonging to Gaussian, Inc.
  
 This software is provided under written license and may be
 used, copied, transmitted, or stored only in accord with that
 written license.
  
 The following legend is applicable only to US Government
 contracts under FAR:
  
                    RESTRICTED RIGHTS LEGEND
  
 Use, reproduction and disclosure by the US Government is
 subject to restrictions as set forth in subparagraphs (a)
 and (c) of the Commercial Computer Software - Restricted
 Rights clause in FAR 52.227-19.
  
 Gaussian, Inc.
 340 Quinnipiac St., Bldg. 40, Wallingford CT 06492
  
  
 ---------------------------------------------------------------
 Warning -- This program may not be used in any manner that
 competes with the business of Gaussian, Inc. or will provide
 assistance to any competitor of Gaussian, Inc.  The licensee
 of this program is prohibited from giving any competitor of
 Gaussian, Inc. access to this program.  By using this program,
 the user acknowledges that Gaussian, Inc. is engaged in the
 business of creating and licensing software in the field of
 computational chemistry and represents and warrants to the
 licensee that it is not a competitor of Gaussian, Inc. and that
 it will not use this program in any manner prohibited above.
 ---------------------------------------------------------------
  

 Cite this work as:
 Gaussian 16, Revision C.01,
 M. J. Frisch, G. W. Trucks, H. B. Schlegel, G. E. Scuseria, 
 M. A. Robb, J. R. Cheeseman, G. Scalmani, V. Barone, 
 G. A. Petersson, H. Nakatsuji, X. Li, M. Caricato, A. V. Marenich, 
 J. Bloino, B. G. Janesko, R. Gomperts, B. Mennucci, H. P. Hratchian, 
 J. V. Ortiz, A. F. Izmaylov, J. L. Sonnenberg, D. Williams-Young, 
 F. Ding, F. Lipparini, F. Egidi, J. Goings, B. Peng, A. Petrone, 
 T. Henderson, D. Ranasinghe, V. G. Zakrzewski, J. Gao, N. Rega, 
 G. Zheng, W. Liang, M. Hada, M. Ehara, K. Toyota, R. Fukuda, 
 J. Hasegawa, M. Ishida, T. Nakajima, Y. Honda, O. Kitao, H. Nakai, 
 T. Vreven, K. Throssell, J. A. Montgomery, Jr., J. E. Peralta, 
 F. Ogliaro, M. J. Bearpark, J. J. Heyd, E. N. Brothers, K. N. Kudin, 
 V. N. Staroverov, T. A. Keith, R. Kobayashi, J. Normand, 
 K. Raghavachari, A. P. Rendell, J. C. Burant, S. S. Iyengar, 
 J. Tomasi, M. Cossi, J. M. Millam, M. Klene, C. Adamo, R. Cammi, 
 J. W. Ochterski, R. L. Martin, K. Morokuma, O. Farkas, 
 J. B. Foresman, and D. J. Fox, Gaussian, Inc., Wallingford CT, 2019.
 
 ******************************************
 Gaussian 16:  ES64L-G16RevC.01  3-Jul-2019
                 2-Jun-2024 
 ******************************************
 %chk=a.chk
 %nprocshared=56
 Will use up to   56 processors via shared memory.
 %mem=96gb
 ----------------------------------------------------------------------
 # def2svp wb97xd scrf=(smd,solvent=acetonitrile) g09default scf=(xqc,m
 axcycle=64) force guess=read nosymm
 ----------------------------------------------------------------------
 1/10=7,30=1,38=1,158=3,167=1/1,3;
 2/12=2,15=1,17=6,18=5,40=1/2;
 3/5=43,7=101,11=2,25=1,27=10,30=1,70=32201,71=1,72=2,74=-58,75=-4,116=-2,158=3/1,2,3;
 4/5=1,60=-1/1;
 5/5=2,7=64,8=3,13=1,38=6,53=2,87=10/2,8;
 6/7=2,8=2,9=2,10=2,28=1,87=10/1;
 7/29=1,30=1,87=10/1,2,3,16;
 1/10=7,30=1,158=3,167=1/3;
 99//99;
 Using 2006 physical constants.
 ----------
 Title Card
 ----------
 Symbolic Z-matrix:
 Charge = -1 Multiplicity = 1
 17                   -9.9807    7.94951   10.48187 
 6                    -8.30962   4.23837   12.23284 
 6                    -9.07259   3.91601   11.09543 
 6                    -10.0071   2.87027   11.1984 
 6                    -10.18739   2.18285   12.3938 
 6                    -9.42833   2.5197    13.51492 
 6                    -8.48667   3.547     13.42706 
 1                    -7.57177   5.04251   12.18985 
 1                    -10.6015   2.60077   10.32036 
 1                    -10.9254   1.37929   12.45309 
 1                    -9.56344   1.97862   14.45358 
 1                    -7.89174   3.81806   14.30285 
 6                    -8.94276   4.62838   9.82297 
 6                    -8.12563   5.66686   9.57219 
 1                    -9.58536   4.26113   9.0156 
 1                    -8.07835   6.11359   8.57772 
 1                    -7.40692   6.03895   10.30584 
 8                    -1.00897  -1.7618    7.45751 
 8                    -8.41191  -1.32748   7.46287 
 8                    -7.05341   1.34504   10.48834 
 8                    -2.33283  -4.35382   10.56173 
 74                   -3.42196   0.73907   6.49217 
 74                   -6.0116   -3.82941   6.58223 
 74                   -3.63136   0.91708   11.41083 
 74                   -5.77964  -3.86838   11.47285 
 74                   -2.46974  -2.54875   6.38181 
 74                   -6.94432  -0.53674   6.35064 
 74                   -6.82622  -0.25014   11.59089 
 74                   -2.57274  -2.69538   11.62833 
 8                    -3.1925    1.93878   5.32635 
 8                    -6.148    -5.08005   5.43999 
 8                    -2.71541   1.77147   12.55959 
 8                    -6.68673  -4.68658   12.65392 
 8                    -2.69415  -0.86913   5.585 
 8                    -6.71805  -2.27124   5.62768 
 8                    -5.32263   0.56633   12.36822 
 8                    -4.06556  -3.51296   12.41186 
 8                     0.29563  -0.00006   9.27009 
 8                    -9.7184   -3.01866   9.32583 
 8                    -6.38728   3.41769   8.63876 
 8                    -2.96798  -6.45313   8.75271 
 8                    -1.8076    0.78097   7.48053 
 8                    -7.61334  -3.87711   7.55805 
 8                    -4.53315   2.21964   10.42833 
 8                    -4.86416  -5.21353   10.52495 
 8                    -1.63314  -3.47407   5.22732 
 8                    -7.83275   0.26314   5.15824 
 8                    -8.03962  -0.16484   12.77453 
 8                    -1.33781  -2.81691   12.78935 
 74                   -1.26582  -0.5169    8.84202 
 74                   -8.15887  -2.51043   8.87988 
 74                   -5.9251    1.85048   9.04571 
 74                   -3.46984  -4.88324   9.16826 
 8                    -4.2382   -3.0916    6.07021 
 8                    -5.17476  -0.03205   6.00947 
 8                    -6.18551  -1.99991   11.92306 
 8                    -3.1871   -0.95128   11.93421 
 8                    -4.38617   1.58925   7.84915 
 8                    -5.00742  -4.67506   7.92661 
 8                    -2.34192   0.60125   10.08142 
 8                    -7.06682  -3.61171   10.13984 
 8                    -2.58039  -3.87172   7.86011 
 8                    -6.84084   0.78555   7.80439 
 8                    -7.84393  -1.17377   10.15866 
 8                    -1.5753   -1.83595   10.15069 
 8                    -3.38362  -1.13067   8.01338 
 8                    -6.03406  -1.95028   8.04058 
 8                    -5.13641  -0.19705   9.95186 
 8                    -4.25066  -2.82402   9.98002 
 19                   -3.23115  -6.12608   5.66081 
 19                   -0.1427    0.0437    12.35425 
 19                   -9.27581  -2.92602   12.4176 
 23                   -4.70379  -1.52183   8.99382 
 

 GradGradGradGradGradGradGradGradGradGradGradGradGradGradGradGradGradGrad
 Berny optimization.
 Initialization pass.
 Trust Radius=3.00D-01 FncErr=1.00D-07 GrdErr=1.00D-07 EigMax=2.50D+02 EigMin=1.00D-04
 Number of steps in this run=      2 maximum allowed number of steps=      2.
 GradGradGradGradGradGradGradGradGradGradGradGradGradGradGradGradGradGrad

 Symmetry turned off by external request.
 Stoichiometry    C8H8ClK3O40VW12(1-)
 Framework group  C1[X(C8H8ClK3O40VW12)]
 Deg. of freedom   213
 Full point group                 C1      NOp   1
                          Input orientation:                          
 ---------------------------------------------------------------------
 Center     Atomic      Atomic             Coordinates (Angstroms)
 Number     Number       Type             X           Y           Z
 ---------------------------------------------------------------------
      1         17           0       -9.980699    7.949511   10.481866
      2          6           0       -8.309623    4.238369   12.232841
      3          6           0       -9.072595    3.916013   11.095431
      4          6           0      -10.007098    2.870275   11.198401
      5          6           0      -10.187393    2.182850   12.393799
      6          6           0       -9.428334    2.519705   13.514919
      7          6           0       -8.486671    3.547003   13.427056
      8          1           0       -7.571770    5.042514   12.189852
      9          1           0      -10.601502    2.600774   10.320365
     10          1           0      -10.925404    1.379291   12.453088
     11          1           0       -9.563441    1.978619   14.453584
     12          1           0       -7.891735    3.818061   14.302851
     13          6           0       -8.942762    4.628379    9.822965
     14          6           0       -8.125625    5.666855    9.572186
     15          1           0       -9.585359    4.261129    9.015599
     16          1           0       -8.078350    6.113589    8.577722
     17          1           0       -7.406923    6.038953   10.305839
     18          8           0       -1.008966   -1.761799    7.457509
     19          8           0       -8.411914   -1.327480    7.462868
     20          8           0       -7.053411    1.345040   10.488335
     21          8           0       -2.332831   -4.353824   10.561725
     22         74           0       -3.421961    0.739067    6.492169
     23         74           0       -6.011596   -3.829412    6.582229
     24         74           0       -3.631359    0.917082   11.410835
     25         74           0       -5.779644   -3.868380   11.472845
     26         74           0       -2.469738   -2.548746    6.381806
     27         74           0       -6.944318   -0.536735    6.350636
     28         74           0       -6.826219   -0.250142   11.590894
     29         74           0       -2.572740   -2.695375   11.628327
     30          8           0       -3.192500    1.938776    5.326352
     31          8           0       -6.147997   -5.080051    5.439995
     32          8           0       -2.715413    1.771466   12.559592
     33          8           0       -6.686725   -4.686576   12.653922
     34          8           0       -2.694148   -0.869133    5.585003
     35          8           0       -6.718048   -2.271241    5.627678
     36          8           0       -5.322628    0.566333   12.368218
     37          8           0       -4.065555   -3.512957   12.411857
     38          8           0        0.295626   -0.000060    9.270094
     39          8           0       -9.718397   -3.018659    9.325830
     40          8           0       -6.387277    3.417695    8.638764
     41          8           0       -2.967983   -6.453128    8.752714
     42          8           0       -1.807598    0.780966    7.480526
     43          8           0       -7.613336   -3.877107    7.558048
     44          8           0       -4.533152    2.219641   10.428328
     45          8           0       -4.864160   -5.213532   10.524947
     46          8           0       -1.633137   -3.474071    5.227322
     47          8           0       -7.832752    0.263138    5.158243
     48          8           0       -8.039616   -0.164844   12.774529
     49          8           0       -1.337813   -2.816910   12.789351
     50         74           0       -1.265821   -0.516899    8.842020
     51         74           0       -8.158869   -2.510430    8.879879
     52         74           0       -5.925097    1.850481    9.045708
     53         74           0       -3.469841   -4.883238    9.168263
     54          8           0       -4.238195   -3.091598    6.070212
     55          8           0       -5.174763   -0.032049    6.009469
     56          8           0       -6.185509   -1.999915   11.923059
     57          8           0       -3.187098   -0.951280   11.934205
     58          8           0       -4.386170    1.589250    7.849153
     59          8           0       -5.007416   -4.675061    7.926612
     60          8           0       -2.341916    0.601252   10.081424
     61          8           0       -7.066823   -3.611714   10.139839
     62          8           0       -2.580392   -3.871719    7.860114
     63          8           0       -6.840845    0.785553    7.804388
     64          8           0       -7.843930   -1.173768   10.158660
     65          8           0       -1.575300   -1.835946   10.150691
     66          8           0       -3.383624   -1.130670    8.013384
     67          8           0       -6.034059   -1.950281    8.040582
     68          8           0       -5.136406   -0.197052    9.951865
     69          8           0       -4.250661   -2.824016    9.980018
     70         19           0       -3.231153   -6.126084    5.660811
     71         19           0       -0.142704    0.043697   12.354252
     72         19           0       -9.275809   -2.926023   12.417599
     73         23           0       -4.703789   -1.521831    8.993816
 ---------------------------------------------------------------------
 Rotational constants (GHZ):           0.0171830           0.0132985           0.0130906
 Standard basis: def2SVP (5D, 7F)
  1217 basis functions,  2313 primitive gaussians,  1337 cartesian basis functions
   321 alpha electrons      321 beta electrons
       nuclear repulsion energy     21000.2099873938 Hartrees.
 NAtoms=   73 NActive=   73 NUniq=   73 SFac= 1.00D+00 NAtFMM=   60 NAOKFM=T Big=T
 Integral buffers will be    131072 words long.
 Raffenetti 2 integral format.
 Two-electron integral symmetry is turned off.
 Nuclear repulsion after empirical dispersion term =    20999.9321655544 Hartrees.
 Force PCM accuracy= 1.00D-10.
 ------------------------------------------------------------------------------
 Polarizable Continuum Model (PCM)
 =================================
 Model                : PCM (using non-symmetric T matrix).
 Atomic radii         : SMD-Coulomb.
 Polarization charges : Total charges.
 Charge compensation  : None.
 Solution method      : On-the-fly selection.
 Cavity type          : VdW (van der Waals Surface) (Alpha=1.000).
 Cavity algorithm     : GePol (No added spheres)
                        Default sphere list used, NSphG=   73.
                        Lebedev-Laikov grids with approx.  5.0 points / Ang**2.
                        Smoothing algorithm: York/Karplus (Gamma=1.0000).
                        Polarization charges: spherical gaussians, with
                                              point-specific exponents (IZeta= 3).
                        Self-potential: point-specific (ISelfS= 7).
                        Self-field    : sphere-specific E.n sum rule (ISelfD= 2).
 1st derivatives      : Analytical E(r).r(x)/FMM algorithm (CHGder, D1EAlg=3).
                        Cavity 1st derivative terms included.
 Solvent              : Acetonitrile, Eps=  35.688000 Eps(inf)=   1.806874
 ------------------------------------------------------------------------------
 ------------------------------------------------------------------------------
 Atomic radii for non-electrostatic terms: SMD-CDS.
 ------------------------------------------------------------------------------
 Nuclear repulsion after PCM non-electrostatic terms =    20999.9263393342 Hartrees.
 One-electron integrals computed using PRISM.
   1 Symmetry operations used in ECPInt.
 ECPInt:  NShTT=  127765 NPrTT=  468030 LenC2=   96802 LenP2D=  221524.
 LDataN:  DoStor=T MaxTD1= 8 Len=  415
 NBasis=  1217 RedAO= T EigKep=  1.36D-04  NBF=  1217
 NBsUse=  1217 1.00D-06 EigRej= -1.00D+00 NBFU=  1217
 Defaulting to unpruned grid for atomic number  74.
 Defaulting to unpruned grid for atomic number  74.
 Defaulting to unpruned grid for atomic number  74.
 Defaulting to unpruned grid for atomic number  74.
 Defaulting to unpruned grid for atomic number  74.
 Defaulting to unpruned grid for atomic number  74.
 Defaulting to unpruned grid for atomic number  74.
 Defaulting to unpruned grid for atomic number  74.
 Initial guess from the checkpoint file:  "a.chk"
 B after Tr=     0.001070   -0.001661    0.000011
         Rot=    1.000000    0.000007    0.000006    0.000063 Ang=   0.01 deg.
 Requested convergence on RMS density matrix=1.00D-08 within  64 cycles.
 Requested convergence on MAX density matrix=1.00D-06.
 Requested convergence on             energy=1.00D-06.
 No special actions if energy rises.
 Defaulting to unpruned grid for atomic number  74.
 Defaulting to unpruned grid for atomic number  74.
 Defaulting to unpruned grid for atomic number  74.
 Defaulting to unpruned grid for atomic number  74.
 Defaulting to unpruned grid for atomic number  74.
 Defaulting to unpruned grid for atomic number  74.
 Defaulting to unpruned grid for atomic number  74.
 Defaulting to unpruned grid for atomic number  74.
 Defaulting to unpruned grid for atomic number  74.
 Defaulting to unpruned grid for atomic number  74.
 Defaulting to unpruned grid for atomic number  74.
 Defaulting to unpruned grid for atomic number  74.
 Defaulting to unpruned grid for atomic number  74.
 Defaulting to unpruned grid for atomic number  74.
 Defaulting to unpruned grid for atomic number  74.
 Defaulting to unpruned grid for atomic number  74.
 Defaulting to unpruned grid for atomic number  74.
 Defaulting to unpruned grid for atomic number  74.
 Defaulting to unpruned grid for atomic number  74.
 Defaulting to unpruned grid for atomic number  74.
 Defaulting to unpruned grid for atomic number  74.
 Defaulting to unpruned grid for atomic number  74.
 Defaulting to unpruned grid for atomic number  74.
 Defaulting to unpruned grid for atomic number  74.
 Defaulting to unpruned grid for atomic number  74.
 Defaulting to unpruned grid for atomic number  74.
 Defaulting to unpruned grid for atomic number  74.
 Defaulting to unpruned grid for atomic number  74.
 Defaulting to unpruned grid for atomic number  74.
 Defaulting to unpruned grid for atomic number  74.
 Defaulting to unpruned grid for atomic number  74.
 Defaulting to unpruned grid for atomic number  74.
 Defaulting to unpruned grid for atomic number  74.
 Defaulting to unpruned grid for atomic number  74.
 Defaulting to unpruned grid for atomic number  74.
 Defaulting to unpruned grid for atomic number  74.
 Defaulting to unpruned grid for atomic number  74.
 Defaulting to unpruned grid for atomic number  74.
 Defaulting to unpruned grid for atomic number  74.
 Defaulting to unpruned grid for atomic number  74.
 Defaulting to unpruned grid for atomic number  74.
 Defaulting to unpruned grid for atomic number  74.
 Defaulting to unpruned grid for atomic number  74.
 Defaulting to unpruned grid for atomic number  74.
 Defaulting to unpruned grid for atomic number  74.
 Defaulting to unpruned grid for atomic number  74.
 Defaulting to unpruned grid for atomic number  74.
 Defaulting to unpruned grid for atomic number  74.
 Defaulting to unpruned grid for atomic number  74.
 Defaulting to unpruned grid for atomic number  74.
 Defaulting to unpruned grid for atomic number  74.
 Defaulting to unpruned grid for atomic number  74.
 Defaulting to unpruned grid for atomic number  74.
 Defaulting to unpruned grid for atomic number  74.
 Defaulting to unpruned grid for atomic number  74.
 Defaulting to unpruned grid for atomic number  74.
 Inv3:  Mode=1 IEnd=    86736387.
 Iteration    1 A*A^-1 deviation from unit magnitude is 3.44D-15 for   3840.
 Iteration    1 A*A^-1 deviation from orthogonality  is 2.67D-15 for    531    218.
 Iteration    1 A^-1*A deviation from unit magnitude is 3.55D-15 for    740.
 Iteration    1 A^-1*A deviation from orthogonality  is 2.42D-09 for    980    938.
 Iteration    2 A*A^-1 deviation from unit magnitude is 4.22D-15 for   3789.
 Iteration    2 A*A^-1 deviation from orthogonality  is 3.17D-15 for    835     74.
 Iteration    2 A^-1*A deviation from unit magnitude is 1.78D-15 for   1126.
 Iteration    2 A^-1*A deviation from orthogonality  is 7.05D-16 for   1440   1372.
 Error on total polarization charges =  0.01597
 SCF Done:  E(RwB97XD) =  -7327.70037035     A.U. after   11 cycles
            NFock= 11  Conv=0.40D-08     -V/T= 2.0832
 SMD-CDS (non-electrostatic) energy       (kcal/mol) =      -3.66
 (included in total energy above)
 QCSCF skips out because SCF is already converged.

 **********************************************************************

            Population analysis using the SCF Density.

 **********************************************************************

 Alpha  occ. eigenvalues -- -197.29219-130.00141-130.00116-130.00037-101.47591
 Alpha  occ. eigenvalues --  -22.62360 -19.33521 -19.33511 -19.33510 -19.33485
 Alpha  occ. eigenvalues --  -19.30692 -19.30668 -19.30664 -19.30654 -19.30650
 Alpha  occ. eigenvalues --  -19.30641 -19.30615 -19.30583 -19.30494 -19.30302
 Alpha  occ. eigenvalues --  -19.30286 -19.30035 -19.29327 -19.29320 -19.29291
 Alpha  occ. eigenvalues --  -19.29285 -19.29279 -19.29271 -19.29262 -19.29208
 Alpha  occ. eigenvalues --  -19.29182 -19.29159 -19.29149 -19.29133 -19.29114
 Alpha  occ. eigenvalues --  -19.29101 -19.29097 -19.29084 -19.29073 -19.29067
 Alpha  occ. eigenvalues --  -19.29036 -19.28987 -19.28962 -19.28948 -19.28923
 Alpha  occ. eigenvalues --  -19.28722 -19.11314 -19.11306 -19.11297 -13.37543
 Alpha  occ. eigenvalues --  -13.37519 -13.37428 -10.70472 -10.70466 -10.70465
 Alpha  occ. eigenvalues --  -10.70448 -10.70441 -10.70440 -10.70359 -10.70352
 Alpha  occ. eigenvalues --  -10.70350 -10.29787 -10.29308 -10.29250 -10.29050
 Alpha  occ. eigenvalues --  -10.28957 -10.28950 -10.28086 -10.27536  -9.38048
 Alpha  occ. eigenvalues --   -7.12870  -7.12831  -7.12829  -3.23280  -3.23264
 Alpha  occ. eigenvalues --   -3.23260  -3.23256  -3.23246  -3.23237  -3.23181
 Alpha  occ. eigenvalues --   -3.23177  -3.23134  -3.22904  -3.22897  -3.22636
 Alpha  occ. eigenvalues --   -2.91646  -1.94039  -1.94009  -1.93996  -1.87686
 Alpha  occ. eigenvalues --   -1.87625  -1.87600  -1.87540  -1.87456  -1.87439
 Alpha  occ. eigenvalues --   -1.87432  -1.87395  -1.87347  -1.87210  -1.87181
 Alpha  occ. eigenvalues --   -1.86976  -1.86590  -1.86471  -1.86465  -1.86438
 Alpha  occ. eigenvalues --   -1.86417  -1.86372  -1.86302  -1.86285  -1.86264
 Alpha  occ. eigenvalues --   -1.86248  -1.86219  -1.86187  -1.86112  -1.86087
 Alpha  occ. eigenvalues --   -1.86080  -1.86050  -1.86009  -1.85955  -1.85936
 Alpha  occ. eigenvalues --   -1.85875  -1.85839  -1.85747  -1.85611  -1.85538
 Alpha  occ. eigenvalues --   -1.51228  -1.51205  -1.51115  -1.12946  -1.11177
 Alpha  occ. eigenvalues --   -1.11083  -1.11077  -1.08898  -1.08486  -1.08431
 Alpha  occ. eigenvalues --   -1.08261  -1.07496  -1.07441  -1.07413  -1.06859
 Alpha  occ. eigenvalues --   -1.06835  -1.06797  -1.06264  -1.06223  -1.05297
 Alpha  occ. eigenvalues --   -1.05291  -1.04937  -1.04928  -1.04896  -1.04178
 Alpha  occ. eigenvalues --   -1.04173  -1.04138  -1.03994  -1.03979  -1.03967
 Alpha  occ. eigenvalues --   -1.03912  -1.03855  -1.03839  -1.03723  -1.03677
 Alpha  occ. eigenvalues --   -1.03589  -1.03531  -1.03248  -1.03218  -1.03096
 Alpha  occ. eigenvalues --   -1.03081  -1.03017  -1.02876  -0.94377  -0.86693
 Alpha  occ. eigenvalues --   -0.86670  -0.86586  -0.86520  -0.86505  -0.86499
 Alpha  occ. eigenvalues --   -0.86479  -0.86474  -0.86395  -0.86378  -0.82807
 Alpha  occ. eigenvalues --   -0.79769  -0.70752  -0.69768  -0.68003  -0.64539
 Alpha  occ. eigenvalues --   -0.63907  -0.63848  -0.63829  -0.63212  -0.63185
 Alpha  occ. eigenvalues --   -0.63078  -0.63022  -0.62594  -0.62525  -0.61875
 Alpha  occ. eigenvalues --   -0.61544  -0.61525  -0.61432  -0.61186  -0.61172
 Alpha  occ. eigenvalues --   -0.61127  -0.60363  -0.59401  -0.59382  -0.59376
 Alpha  occ. eigenvalues --   -0.59323  -0.59300  -0.58672  -0.57951  -0.57917
 Alpha  occ. eigenvalues --   -0.57851  -0.56996  -0.56961  -0.56924  -0.56233
 Alpha  occ. eigenvalues --   -0.56191  -0.56048  -0.55663  -0.54818  -0.54766
 Alpha  occ. eigenvalues --   -0.54723  -0.54562  -0.54196  -0.54085  -0.54034
 Alpha  occ. eigenvalues --   -0.53988  -0.53897  -0.53237  -0.53183  -0.53058
 Alpha  occ. eigenvalues --   -0.52980  -0.52866  -0.52693  -0.52649  -0.52606
 Alpha  occ. eigenvalues --   -0.52558  -0.52488  -0.52431  -0.52414  -0.51544
 Alpha  occ. eigenvalues --   -0.51519  -0.51337  -0.51294  -0.51271  -0.51211
 Alpha  occ. eigenvalues --   -0.51140  -0.51097  -0.50999  -0.50750  -0.50568
 Alpha  occ. eigenvalues --   -0.50558  -0.50534  -0.49885  -0.49876  -0.49259
 Alpha  occ. eigenvalues --   -0.49241  -0.49221  -0.49172  -0.49126  -0.49035
 Alpha  occ. eigenvalues --   -0.48856  -0.48039  -0.47990  -0.47874  -0.47655
 Alpha  occ. eigenvalues --   -0.47328  -0.47261  -0.47203  -0.46976  -0.46927
 Alpha  occ. eigenvalues --   -0.46825  -0.46560  -0.46532  -0.46415  -0.46162
 Alpha  occ. eigenvalues --   -0.46099  -0.46042  -0.45589  -0.45057  -0.44879
 Alpha  occ. eigenvalues --   -0.44845  -0.44141  -0.44114  -0.43972  -0.43542
 Alpha  occ. eigenvalues --   -0.43279  -0.43220  -0.43092  -0.43073  -0.43030
 Alpha  occ. eigenvalues --   -0.42704  -0.42681  -0.42640  -0.42567  -0.42557
 Alpha  occ. eigenvalues --   -0.42482  -0.42437  -0.42422  -0.42267  -0.42258
 Alpha  occ. eigenvalues --   -0.42220  -0.42001  -0.41878  -0.41818  -0.41806
 Alpha  occ. eigenvalues --   -0.41197  -0.41187  -0.41140  -0.41039  -0.40535
 Alpha  occ. eigenvalues --   -0.40522  -0.40499  -0.40374  -0.39414  -0.39387
 Alpha  occ. eigenvalues --   -0.36829  -0.32529  -0.28794  -0.24508  -0.24475
 Alpha  occ. eigenvalues --   -0.23139
 Alpha virt. eigenvalues --   -0.09270  -0.09067  -0.08334  -0.08281  -0.06907
 Alpha virt. eigenvalues --   -0.06844  -0.06758  -0.04290  -0.04016  -0.03980
 Alpha virt. eigenvalues --   -0.03649  -0.03479  -0.03396  -0.03168  -0.03040
 Alpha virt. eigenvalues --   -0.02983  -0.02950  -0.02170  -0.02134  -0.02099
 Alpha virt. eigenvalues --   -0.01449  -0.01415  -0.01345  -0.01255  -0.01164
 Alpha virt. eigenvalues --   -0.00013   0.00005   0.00071   0.01456   0.01479
 Alpha virt. eigenvalues --    0.01915   0.01959   0.02048   0.02186   0.02224
 Alpha virt. eigenvalues --    0.02237   0.02263   0.02371   0.02791   0.02864
 Alpha virt. eigenvalues --    0.02954   0.03007   0.03071   0.04292   0.04581
 Alpha virt. eigenvalues --    0.06809   0.07289   0.07479   0.07558   0.07755
 Alpha virt. eigenvalues --    0.08040   0.08464   0.08519   0.08780   0.09152
 Alpha virt. eigenvalues --    0.09327   0.09384   0.09644   0.09876   0.10237
 Alpha virt. eigenvalues --    0.10270   0.10336   0.10392   0.10447   0.10630
 Alpha virt. eigenvalues --    0.10893   0.11063   0.11084   0.11646   0.11725
 Alpha virt. eigenvalues --    0.12310   0.13108   0.13245   0.13356   0.13575
 Alpha virt. eigenvalues --    0.13745   0.14406   0.14567   0.14659   0.15012
 Alpha virt. eigenvalues --    0.15530   0.16125   0.16360   0.16549   0.16740
 Alpha virt. eigenvalues --    0.16756   0.16890   0.17097   0.17251   0.17673
 Alpha virt. eigenvalues --    0.17877   0.18141   0.18200   0.18362   0.18591
 Alpha virt. eigenvalues --    0.18738   0.18978   0.19254   0.19355   0.19495
 Alpha virt. eigenvalues --    0.19605   0.20171   0.20306   0.20410   0.20641
 Alpha virt. eigenvalues --    0.20707   0.20877   0.20917   0.21295   0.21370
 Alpha virt. eigenvalues --    0.21452   0.21594   0.21676   0.21865   0.22159
 Alpha virt. eigenvalues --    0.22461   0.22727   0.22943   0.23186   0.23335
 Alpha virt. eigenvalues --    0.23528   0.23881   0.24047   0.24245   0.24559
 Alpha virt. eigenvalues --    0.24764   0.25193   0.25561   0.25627   0.25914
 Alpha virt. eigenvalues --    0.26061   0.26244   0.26465   0.26580   0.26775
 Alpha virt. eigenvalues --    0.27066   0.27245   0.27431   0.27473   0.27711
 Alpha virt. eigenvalues --    0.28038   0.28287   0.28338   0.28637   0.28715
 Alpha virt. eigenvalues --    0.29294   0.29596   0.29897   0.30193   0.30471
 Alpha virt. eigenvalues --    0.30632   0.31001   0.31176   0.31735   0.31793
 Alpha virt. eigenvalues --    0.32241   0.34841   0.35248   0.35838   0.36322
 Alpha virt. eigenvalues --    0.36670   0.36927   0.37238   0.38128   0.38456
 Alpha virt. eigenvalues --    0.38694   0.39219   0.39539   0.39745   0.40296
 Alpha virt. eigenvalues --    0.40735   0.40903   0.41044   0.41152   0.41754
 Alpha virt. eigenvalues --    0.42132   0.42370   0.42682   0.43303   0.43555
 Alpha virt. eigenvalues --    0.43748   0.44517   0.44712   0.44840   0.45185
 Alpha virt. eigenvalues --    0.45700   0.46236   0.46509   0.46720   0.47144
 Alpha virt. eigenvalues --    0.47405   0.47654   0.47958   0.48090   0.48192
 Alpha virt. eigenvalues --    0.48358   0.48411   0.48632   0.48851   0.48983
 Alpha virt. eigenvalues --    0.49142   0.49361   0.49528   0.49877   0.49972
 Alpha virt. eigenvalues --    0.50205   0.50534   0.50659   0.50950   0.51216
 Alpha virt. eigenvalues --    0.51686   0.51831   0.51918   0.52344   0.52589
 Alpha virt. eigenvalues --    0.52652   0.52967   0.53049   0.53213   0.53252
 Alpha virt. eigenvalues --    0.53735   0.54088   0.54312   0.54415   0.54672
 Alpha virt. eigenvalues --    0.54997   0.55427   0.55698   0.56452   0.56525
 Alpha virt. eigenvalues --    0.56827   0.57377   0.57737   0.58131   0.58341
 Alpha virt. eigenvalues --    0.58620   0.59144   0.59496   0.60325   0.60844
 Alpha virt. eigenvalues --    0.61461   0.62530   0.62745   0.62778   0.63329
 Alpha virt. eigenvalues --    0.64279   0.65393   0.65672   0.65747   0.65872
 Alpha virt. eigenvalues --    0.66211   0.66857   0.67260   0.67334   0.67576
 Alpha virt. eigenvalues --    0.67898   0.68441   0.70014   0.70551   0.71168
 Alpha virt. eigenvalues --    0.71434   0.71987   0.72097   0.72195   0.72262
 Alpha virt. eigenvalues --    0.72474   0.72638   0.73162   0.73525   0.73983
 Alpha virt. eigenvalues --    0.74616   0.74938   0.75681   0.75765   0.75941
 Alpha virt. eigenvalues --    0.76329   0.76702   0.76873   0.76989   0.77378
 Alpha virt. eigenvalues --    0.77664   0.78490   0.79211   0.79489   0.79615
 Alpha virt. eigenvalues --    0.79806   0.80334   0.80684   0.81079   0.81510
 Alpha virt. eigenvalues --    0.81586   0.81715   0.82079   0.82731   0.83178
 Alpha virt. eigenvalues --    0.84190   0.84347   0.84948   0.85409   0.86109
 Alpha virt. eigenvalues --    0.87150   0.87512   0.88052   0.88146   0.88853
 Alpha virt. eigenvalues --    0.89149   0.89205   0.89548   0.89629   0.90483
 Alpha virt. eigenvalues --    0.90722   0.90831   0.91375   0.91560   0.91709
 Alpha virt. eigenvalues --    0.92675   0.93038   0.93812   0.94022   0.94146
 Alpha virt. eigenvalues --    0.94477   0.94883   0.95995   0.96085   0.96972
 Alpha virt. eigenvalues --    0.96996   0.97282   0.97424   0.97855   0.97994
 Alpha virt. eigenvalues --    0.98269   0.98401   0.98625   0.98687   0.98863
 Alpha virt. eigenvalues --    0.99194   0.99760   1.00154   1.00325   1.00447
 Alpha virt. eigenvalues --    1.00895   1.01434   1.01615   1.01669   1.02144
 Alpha virt. eigenvalues --    1.02201   1.02458   1.02573   1.02684   1.02935
 Alpha virt. eigenvalues --    1.02951   1.03691   1.04002   1.04102   1.04151
 Alpha virt. eigenvalues --    1.04318   1.04438   1.04555   1.04592   1.04848
 Alpha virt. eigenvalues --    1.05044   1.05229   1.05272   1.05576   1.05911
 Alpha virt. eigenvalues --    1.06033   1.06425   1.06750   1.07135   1.07312
 Alpha virt. eigenvalues --    1.07535   1.07977   1.08810   1.09111   1.09376
 Alpha virt. eigenvalues --    1.09399   1.09769   1.10088   1.10210   1.10240
 Alpha virt. eigenvalues --    1.10798   1.10880   1.11065   1.11215   1.11548
 Alpha virt. eigenvalues --    1.11664   1.11753   1.11939   1.12037   1.12652
 Alpha virt. eigenvalues --    1.12896   1.13555   1.13846   1.14457   1.15226
 Alpha virt. eigenvalues --    1.15313   1.15993   1.16303   1.16645   1.17068
 Alpha virt. eigenvalues --    1.17542   1.17706   1.17898   1.18710   1.18965
 Alpha virt. eigenvalues --    1.19854   1.20788   1.21061   1.21281   1.21321
 Alpha virt. eigenvalues --    1.21376   1.22043   1.22131   1.22951   1.23708
 Alpha virt. eigenvalues --    1.25056   1.25821   1.26402   1.26663   1.26791
 Alpha virt. eigenvalues --    1.27155   1.27964   1.28039   1.28581   1.28626
 Alpha virt. eigenvalues --    1.28857   1.29032   1.29098   1.29267   1.29705
 Alpha virt. eigenvalues --    1.30075   1.30172   1.30296   1.30755   1.30930
 Alpha virt. eigenvalues --    1.31027   1.31941   1.32171   1.32922   1.33060
 Alpha virt. eigenvalues --    1.33230   1.33482   1.33641   1.33833   1.33970
 Alpha virt. eigenvalues --    1.34167   1.34304   1.34496   1.34651   1.34851
 Alpha virt. eigenvalues --    1.34887   1.35182   1.35418   1.35684   1.35963
 Alpha virt. eigenvalues --    1.36156   1.36482   1.36638   1.36734   1.36960
 Alpha virt. eigenvalues --    1.37136   1.37320   1.37585   1.37675   1.37879
 Alpha virt. eigenvalues --    1.37943   1.38466   1.38691   1.38981   1.39165
 Alpha virt. eigenvalues --    1.39400   1.39565   1.39711   1.39859   1.40104
 Alpha virt. eigenvalues --    1.40409   1.40572   1.40783   1.40804   1.41007
 Alpha virt. eigenvalues --    1.41191   1.41306   1.41576   1.42074   1.42328
 Alpha virt. eigenvalues --    1.42552   1.43170   1.43229   1.43356   1.43428
 Alpha virt. eigenvalues --    1.43970   1.44177   1.44549   1.45221   1.45614
 Alpha virt. eigenvalues --    1.46391   1.46889   1.47657   1.47865   1.47924
 Alpha virt. eigenvalues --    1.48437   1.48820   1.49297   1.49765   1.50386
 Alpha virt. eigenvalues --    1.50539   1.51043   1.51547   1.51939   1.53337
 Alpha virt. eigenvalues --    1.53559   1.55429   1.55784   1.55848   1.55917
 Alpha virt. eigenvalues --    1.56164   1.56395   1.56713   1.56771   1.57235
 Alpha virt. eigenvalues --    1.57303   1.58160   1.58432   1.59209   1.59258
 Alpha virt. eigenvalues --    1.59735   1.60153   1.60511   1.60613   1.60656
 Alpha virt. eigenvalues --    1.60839   1.61276   1.62305   1.62351   1.62690
 Alpha virt. eigenvalues --    1.64189   1.64423   1.65107   1.65753   1.67160
 Alpha virt. eigenvalues --    1.67791   1.68080   1.69793   1.70587   1.70927
 Alpha virt. eigenvalues --    1.71526   1.71706   1.72561   1.73202   1.74307
 Alpha virt. eigenvalues --    1.75134   1.75201   1.75409   1.75799   1.76610
 Alpha virt. eigenvalues --    1.76705   1.77048   1.77322   1.77708   1.78608
 Alpha virt. eigenvalues --    1.78742   1.79154   1.79383   1.80387   1.80525
 Alpha virt. eigenvalues --    1.81251   1.81523   1.81795   1.82288   1.82751
 Alpha virt. eigenvalues --    1.83058   1.83305   1.83850   1.84360   1.84518
 Alpha virt. eigenvalues --    1.85233   1.85374   1.85729   1.86150   1.86379
 Alpha virt. eigenvalues --    1.86556   1.87240   1.87715   1.88333   1.88687
 Alpha virt. eigenvalues --    1.89351   1.90101   1.90164   1.90534   1.90553
 Alpha virt. eigenvalues --    1.90864   1.91188   1.91547   1.92426   1.93844
 Alpha virt. eigenvalues --    1.94831   1.95225   1.95437   1.95707   1.96149
 Alpha virt. eigenvalues --    1.98538   1.99272   1.99407   1.99546   2.05060
 Alpha virt. eigenvalues --    2.06874   2.07373   2.08163   2.08409   2.08753
 Alpha virt. eigenvalues --    2.09018   2.09395   2.09683   2.10409   2.11030
 Alpha virt. eigenvalues --    2.11481   2.11903   2.12956   2.14864   2.15375
 Alpha virt. eigenvalues --    2.15947   2.16726   2.17223   2.17652   2.17783
 Alpha virt. eigenvalues --    2.20166   2.20633   2.20665   2.20929   2.21323
 Alpha virt. eigenvalues --    2.21611   2.22250   2.24166   2.25336   2.25831
 Alpha virt. eigenvalues --    2.26434   2.26557   2.27362   2.28326   2.28582
 Alpha virt. eigenvalues --    2.29318   2.29660   2.30048   2.33488   2.35815
 Alpha virt. eigenvalues --    2.36528   2.39496   2.40999   2.41116   2.43896
 Alpha virt. eigenvalues --    2.44198   2.50642   2.51944   2.57650   2.64865
 Alpha virt. eigenvalues --    2.64943   2.65091   2.65807   2.66154   2.66550
 Alpha virt. eigenvalues --    2.66822   2.66880   2.66957   2.67066   2.67101
 Alpha virt. eigenvalues --    2.67175   2.67298   2.67385   2.67404   2.67550
 Alpha virt. eigenvalues --    2.67724   2.67798   2.67904   2.67932   2.68028
 Alpha virt. eigenvalues --    2.68933   2.69075   2.69271   2.69411   2.69974
 Alpha virt. eigenvalues --    2.70173   2.70244   2.70426   2.70587   2.70788
 Alpha virt. eigenvalues --    2.70833   2.71407   2.71475   2.71551   2.71621
 Alpha virt. eigenvalues --    2.71715   2.72037   2.72583   2.72851   2.72999
 Alpha virt. eigenvalues --    2.73104   2.73187   2.73255   2.73358   2.73379
 Alpha virt. eigenvalues --    2.73537   2.73759   2.73885   2.73922   2.74039
 Alpha virt. eigenvalues --    2.74131   2.74251   2.74381   2.74620   2.74770
 Alpha virt. eigenvalues --    2.74840   2.75036   2.75304   2.75869   2.76049
 Alpha virt. eigenvalues --    2.76162   2.76301   2.76486   2.76774   2.76947
 Alpha virt. eigenvalues --    2.77092   2.77207   2.77245   2.78375   2.78516
 Alpha virt. eigenvalues --    2.78670   2.78909   2.79970   2.80148   2.80297
 Alpha virt. eigenvalues --    2.81141   2.81721   2.81743   2.82040   2.82227
 Alpha virt. eigenvalues --    2.82286   2.82803   2.83100   2.83318   2.83777
 Alpha virt. eigenvalues --    2.83819   2.83962   2.84077   2.84334   2.85069
 Alpha virt. eigenvalues --    2.85631   2.86154   2.86269   2.86411   2.86601
 Alpha virt. eigenvalues --    2.86674   2.86829   2.86983   2.87946   2.88449
 Alpha virt. eigenvalues --    2.88718   2.89050   2.89581   2.89692   2.89767
 Alpha virt. eigenvalues --    2.89861   2.89965   2.90084   2.90401   2.90470
 Alpha virt. eigenvalues --    2.90629   2.91767   2.91882   2.91934   2.92011
 Alpha virt. eigenvalues --    2.92299   2.92522   2.92716   2.93010   2.93144
 Alpha virt. eigenvalues --    2.93295   2.93599   2.93716   2.94029   2.94166
 Alpha virt. eigenvalues --    2.94216   2.95040   2.95274   2.95486   2.95744
 Alpha virt. eigenvalues --    2.95929   2.95957   2.96434   2.96628   2.96690
 Alpha virt. eigenvalues --    2.96761   2.96980   2.97025   2.97221   2.97515
 Alpha virt. eigenvalues --    2.97591   2.97806   2.97987   2.98413   2.99118
 Alpha virt. eigenvalues --    2.99377   2.99542   2.99750   2.99853   3.00158
 Alpha virt. eigenvalues --    3.00382   3.00591   3.01398   3.01635   3.01855
 Alpha virt. eigenvalues --    3.02843   3.03392   3.03502   3.03881   3.04929
 Alpha virt. eigenvalues --    3.06244   3.06544   3.07002   3.11060   3.11343
 Alpha virt. eigenvalues --    3.11539   3.11603   3.12215   3.12502   3.13686
 Alpha virt. eigenvalues --    3.13815   3.13915   3.16901   3.20115   3.21705
 Alpha virt. eigenvalues --    3.21926   3.23962   3.32703   3.40582   3.41291
 Alpha virt. eigenvalues --    3.42051   3.42478   3.44469   3.44542   3.45403
 Alpha virt. eigenvalues --    3.45673   3.45870   3.46819   3.47005   3.47392
 Alpha virt. eigenvalues --    3.48714   3.50868   3.51549   3.52057   3.53276
 Alpha virt. eigenvalues --    3.53356   3.54178   3.54410   3.54776   3.54893
 Alpha virt. eigenvalues --    3.55079   3.55239   3.55655   3.56275   3.57318
 Alpha virt. eigenvalues --    3.57628   3.57993   3.59186   3.59398   3.60343
 Alpha virt. eigenvalues --    3.60423   3.61046   3.61427   3.61754   3.62300
 Alpha virt. eigenvalues --    3.69780   3.75012  68.64552  68.65605  68.66869
 Alpha virt. eigenvalues --   68.69181  68.72906  68.73818  68.81690  68.82744
 Alpha virt. eigenvalues --   68.83236  68.85980  68.87088  68.88370 576.22982
 Alpha virt. eigenvalues --  576.24009 576.25248 576.27509 576.31248 576.32149
 Alpha virt. eigenvalues --  576.39870 576.40902 576.41378 576.44021 576.45108
 Alpha virt. eigenvalues --  576.46384
          Condensed to atoms (all electrons):
 Mulliken charges:
               1
     1  Cl  -0.930696
     2  C   -0.079426
     3  C    0.040200
     4  C   -0.076678
     5  C   -0.033365
     6  C   -0.031138
     7  C   -0.050476
     8  H    0.028130
     9  H    0.029743
    10  H    0.040306
    11  H    0.036669
    12  H    0.039280
    13  C   -0.088166
    14  C    0.018406
    15  H    0.018784
    16  H    0.039117
    17  H    0.037353
    18  O   -0.662961
    19  O   -0.659551
    20  O   -0.655029
    21  O   -0.661619
    22  W    1.733463
    23  W    1.669528
    24  W    1.679747
    25  W    1.689873
    26  W    1.674345
    27  W    1.725791
    28  W    1.621011
    29  W    1.682827
    30  O   -0.321730
    31  O   -0.366515
    32  O   -0.366197
    33  O   -0.363991
    34  O   -0.663779
    35  O   -0.669952
    36  O   -0.660607
    37  O   -0.662328
    38  O   -0.366077
    39  O   -0.366231
    40  O   -0.292939
    41  O   -0.365814
    42  O   -0.669586
    43  O   -0.662068
    44  O   -0.658231
    45  O   -0.665324
    46  O   -0.366051
    47  O   -0.321353
    48  O   -0.354714
    49  O   -0.364745
    50  W    1.671099
    51  W    1.674157
    52  W    1.676044
    53  W    1.682602
    54  O   -0.722514
    55  O   -0.705557
    56  O   -0.725483
    57  O   -0.720812
    58  O   -0.705349
    59  O   -0.725111
    60  O   -0.723752
    61  O   -0.719637
    62  O   -0.723313
    63  O   -0.707184
    64  O   -0.721922
    65  O   -0.725564
    66  O   -0.800283
    67  O   -0.800015
    68  O   -0.797783
    69  O   -0.808666
    70  K    0.865494
    71  K    0.865085
    72  K    0.861464
    73  V    1.189763
 Sum of Mulliken charges =  -1.00000
 Mulliken charges with hydrogens summed into heavy atoms:
               1
     1  Cl  -0.930696
     2  C   -0.051295
     3  C    0.040200
     4  C   -0.046935
     5  C    0.006941
     6  C    0.005531
     7  C   -0.011196
    13  C   -0.069381
    14  C    0.094875
    18  O   -0.662961
    19  O   -0.659551
    20  O   -0.655029
    21  O   -0.661619
    22  W    1.733463
    23  W    1.669528
    24  W    1.679747
    25  W    1.689873
    26  W    1.674345
    27  W    1.725791
    28  W    1.621011
    29  W    1.682827
    30  O   -0.321730
    31  O   -0.366515
    32  O   -0.366197
    33  O   -0.363991
    34  O   -0.663779
    35  O   -0.669952
    36  O   -0.660607
    37  O   -0.662328
    38  O   -0.366077
    39  O   -0.366231
    40  O   -0.292939
    41  O   -0.365814
    42  O   -0.669586
    43  O   -0.662068
    44  O   -0.658231
    45  O   -0.665324
    46  O   -0.366051
    47  O   -0.321353
    48  O   -0.354714
    49  O   -0.364745
    50  W    1.671099
    51  W    1.674157
    52  W    1.676044
    53  W    1.682602
    54  O   -0.722514
    55  O   -0.705557
    56  O   -0.725483
    57  O   -0.720812
    58  O   -0.705349
    59  O   -0.725111
    60  O   -0.723752
    61  O   -0.719637
    62  O   -0.723313
    63  O   -0.707184
    64  O   -0.721922
    65  O   -0.725564
    66  O   -0.800283
    67  O   -0.800015
    68  O   -0.797783
    69  O   -0.808666
    70  K    0.865494
    71  K    0.865085
    72  K    0.861464
    73  V    1.189763
 Electronic spatial extent (au):  <R**2>=         317370.9026
 Charge=             -1.0000 electrons
 Dipole moment (field-independent basis, Debye):
    X=             51.9899    Y=            -50.7810    Z=            -38.4909  Tot=             82.2387
 Quadrupole moment (field-independent basis, Debye-Ang):
   XX=          -1074.8940   YY=           -871.0111   ZZ=           -910.0554
   XY=            454.8929   XZ=            465.6147   YZ=           -471.7412
 Traceless Quadrupole moment (field-independent basis, Debye-Ang):
   XX=           -122.9072   YY=             80.9757   ZZ=             41.9315
   XY=            454.8929   XZ=            465.6147   YZ=           -471.7412
 Octapole moment (field-independent basis, Debye-Ang**2):
  XXX=          13721.4859  YYY=           -904.4611  ZZZ=         -19073.8371  XYY=           5986.5080
  XXY=          -3734.6597  XXZ=          -9609.9325  XZZ=           7403.8184  YZZ=          -4096.6293
  YYZ=          -8839.0159  XYZ=           4793.4224
 Hexadecapole moment (field-independent basis, Debye-Ang**3):
 XXXX=        -162793.6989 YYYY=         -50951.5643 ZZZZ=        -345382.5282 XXXY=          38348.4658
 XXXZ=         125508.7779 YYYX=          19540.9785 YYYZ=         -10850.5904 ZZZX=         128211.5434
 ZZZY=         -34638.6966 XXYY=         -55429.4810 XXZZ=        -109656.2938 YYZZ=         -97401.2861
 XXYZ=         -42972.6442 YYXZ=          60434.0618 ZZXY=          50184.7357
 N-N= 2.099992633933D+04 E-N=-5.908465762274D+04  KE= 6.765170435213D+03
   1 Symmetry operations used in ECPInt.
 ECPInt:  NShTT=  127765 NPrTT=  468030 LenC2=   96802 LenP2D=  221524.
 LDataN:  DoStor=T MaxTD1= 9 Len=  602
 D1PCM: PCM CHGder 1st derivatives, ID1Alg=3 FixD1E=F DoIter=F DoCFld=F I1PDM=0.
 Calling FoFJK, ICntrl=      2127 FMM=T ISym2X=0 I1Cent= 0 IOpClX= 0 NMat=1 NMatS=1 NMatT=0.
 Defaulting to unpruned grid for atomic number  74.
 Defaulting to unpruned grid for atomic number  74.
 Defaulting to unpruned grid for atomic number  74.
 Defaulting to unpruned grid for atomic number  74.
 Defaulting to unpruned grid for atomic number  74.
 Defaulting to unpruned grid for atomic number  74.
 Defaulting to unpruned grid for atomic number  74.
 Defaulting to unpruned grid for atomic number  74.
 Defaulting to unpruned grid for atomic number  74.
 Defaulting to unpruned grid for atomic number  74.
 Defaulting to unpruned grid for atomic number  74.
 Defaulting to unpruned grid for atomic number  74.
 Defaulting to unpruned grid for atomic number  74.
 Defaulting to unpruned grid for atomic number  74.
 Defaulting to unpruned grid for atomic number  74.
 Defaulting to unpruned grid for atomic number  74.
 Defaulting to unpruned grid for atomic number  74.
 Defaulting to unpruned grid for atomic number  74.
 Defaulting to unpruned grid for atomic number  74.
 Defaulting to unpruned grid for atomic number  74.
 Defaulting to unpruned grid for atomic number  74.
 Defaulting to unpruned grid for atomic number  74.
 Defaulting to unpruned grid for atomic number  74.
 Defaulting to unpruned grid for atomic number  74.
 Defaulting to unpruned grid for atomic number  74.
 Defaulting to unpruned grid for atomic number  74.
 Defaulting to unpruned grid for atomic number  74.
 Defaulting to unpruned grid for atomic number  74.
 Defaulting to unpruned grid for atomic number  74.
 Defaulting to unpruned grid for atomic number  74.
 Defaulting to unpruned grid for atomic number  74.
 Defaulting to unpruned grid for atomic number  74.
 Defaulting to unpruned grid for atomic number  74.
 Defaulting to unpruned grid for atomic number  74.
 Defaulting to unpruned grid for atomic number  74.
 Defaulting to unpruned grid for atomic number  74.
 Defaulting to unpruned grid for atomic number  74.
 Defaulting to unpruned grid for atomic number  74.
 Defaulting to unpruned grid for atomic number  74.
 Defaulting to unpruned grid for atomic number  74.
 Defaulting to unpruned grid for atomic number  74.
 Defaulting to unpruned grid for atomic number  74.
 Defaulting to unpruned grid for atomic number  74.
 Defaulting to unpruned grid for atomic number  74.
 Defaulting to unpruned grid for atomic number  74.
 Defaulting to unpruned grid for atomic number  74.
 Defaulting to unpruned grid for atomic number  74.
 Defaulting to unpruned grid for atomic number  74.
 Defaulting to unpruned grid for atomic number  74.
 Defaulting to unpruned grid for atomic number  74.
 Defaulting to unpruned grid for atomic number  74.
 Defaulting to unpruned grid for atomic number  74.
 Defaulting to unpruned grid for atomic number  74.
 Defaulting to unpruned grid for atomic number  74.
 Defaulting to unpruned grid for atomic number  74.
 Defaulting to unpruned grid for atomic number  74.
 -------------------------------------------------------------------
 Center     Atomic                   Forces (Hartrees/Bohr)
 Number     Number              X              Y              Z
 -------------------------------------------------------------------
      1       17          -0.002141524    0.006822273    0.002184544
      2        6          -0.001422426   -0.000443172   -0.001444847
      3        6          -0.000636726   -0.001327256    0.002581028
      4        6           0.001014620    0.001539213    0.000227778
      5        6           0.000246911   -0.000056876    0.001575374
      6        6          -0.000394514    0.000054695    0.000944376
      7        6          -0.001023442   -0.000955666    0.000640941
      8        1          -0.000142298    0.000114787   -0.000356631
      9        1           0.000021580    0.000112920    0.000045310
     10        1           0.000166171   -0.000449141   -0.000029246
     11        1          -0.000066615   -0.000117474    0.000267600
     12        1           0.000422366   -0.000226594    0.000095793
     13        6           0.009577787    0.008163909   -0.006772866
     14        6          -0.004386320   -0.014215529    0.000079754
     15        1          -0.001169498    0.000666531    0.000087648
     16        1          -0.001345529    0.001154498    0.000441267
     17        1          -0.002175761    0.002136242    0.000502375
     18        8          -0.002906638    0.000144886    0.001013391
     19        8           0.003072618   -0.000668390    0.001025392
     20        8           0.002206882   -0.002869501   -0.000575128
     21        8          -0.002153040    0.002052180   -0.001088971
     22       74           0.001330181    0.009446789   -0.009130465
     23       74          -0.002060621   -0.009080953   -0.009439193
     24       74           0.005782055    0.007505844    0.009129597
     25       74          -0.006101767   -0.006387995    0.009237613
     26       74           0.007984962   -0.007144829   -0.009722480
     27       74          -0.008032708    0.007753993   -0.009551918
     28       74          -0.010883594    0.002952313    0.009564269
     29       74           0.010235145   -0.001821145    0.009483236
     30        8          -0.000651479   -0.003258560    0.003316489
     31        8           0.000566420    0.003184700    0.003332531
     32        8          -0.002096005   -0.002449124   -0.003293885
     33        8           0.002118654    0.002296537   -0.003329451
     34        8          -0.000844993   -0.001000592    0.002993502
     35        8           0.001339792    0.000217693    0.003035063
     36        8           0.000556798   -0.001459860   -0.002968303
     37        8          -0.000233880    0.001147934   -0.003027057
     38        8          -0.004300715   -0.001704085   -0.000944347
     39        8           0.004394693    0.001579675   -0.001051454
     40        8           0.002236156   -0.006354912    0.001171065
     41        8          -0.001329875    0.004365965    0.001102684
     42        8          -0.001798339   -0.002495483    0.001330522
     43        8           0.002243650    0.002171194    0.000959367
     44        8          -0.000070356   -0.003298629   -0.000575572
     45        8           0.000608587    0.002908990   -0.001279306
     46        8          -0.002663380    0.002234651    0.003243616
     47        8           0.002992556   -0.002188907    0.003240909
     48        8           0.003848637   -0.000711672   -0.003542388
     49        8          -0.003475763    0.000498518   -0.003149084
     50       74           0.013130777    0.004748924    0.002754838
     51       74          -0.013412402   -0.004025667    0.003114456
     52       74          -0.005101673    0.015299405   -0.003219394
     53       74           0.004127813   -0.013255490   -0.002641839
     54        8          -0.000435948    0.001196994    0.002005247
     55        8           0.000682775   -0.001640510    0.002007599
     56        8           0.001717442   -0.000060310   -0.002173741
     57        8          -0.001211187   -0.000677846   -0.002073613
     58        8           0.000309713   -0.002231354    0.000873476
     59        8           0.000493591    0.002161123    0.001478531
     60        8          -0.001264273   -0.001836025   -0.001549824
     61        8           0.001536891    0.001520454   -0.001466750
     62        8          -0.001035414    0.001825502    0.000830978
     63        8           0.000962075   -0.002421217    0.000413011
     64        8           0.002156255   -0.000095835   -0.001141586
     65        8          -0.002180996   -0.000508646   -0.000895274
     66        8          -0.024798232   -0.004733748    0.015956288
     67        8           0.025315895    0.005265358    0.015875387
     68        8           0.011007794   -0.024001236   -0.016083879
     69        8          -0.010653362    0.022828454   -0.016293719
     70       19           0.000268939   -0.000589943   -0.000465912
     71       19           0.000715854    0.000256218    0.000369457
     72       19          -0.000558981    0.000148876    0.000399967
     73       23          -0.000232762    0.000285933    0.000345855
 -------------------------------------------------------------------
 Cartesian Forces:  Max     0.025315895 RMS     0.005694955

 GradGradGradGradGradGradGradGradGradGradGradGradGradGradGradGradGradGrad
 Berny optimization.
 Search for a local minimum.
 Step number   1 out of a maximum of    2
 All quantities printed in internal units (Hartrees-Bohrs-Radians)
 Second derivative matrix not updated -- first step.
 ITU=  0
     Eigenvalues ---    0.00000   0.00000   0.00000   0.00010   0.00091
     Eigenvalues ---    0.00092   0.00257   0.00568   0.00617   0.01648
     Eigenvalues ---    0.01984   0.02894   0.02951   0.03204   0.03399
     Eigenvalues ---    0.03447   0.03711   0.03720   0.04145   0.04506
     Eigenvalues ---    0.04584   0.04593   0.04603   0.04819   0.04839
     Eigenvalues ---    0.05001   0.05342   0.05549   0.05568   0.06346
     Eigenvalues ---    0.06398   0.06525   0.06783   0.06864   0.07048
     Eigenvalues ---    0.07312   0.07361   0.07618   0.08324   0.08399
     Eigenvalues ---    0.08711   0.08733   0.08900   0.08952   0.09750
     Eigenvalues ---    0.09896   0.10075   0.10357   0.10411   0.10476
     Eigenvalues ---    0.10834   0.10881   0.11509   0.11585   0.11971
     Eigenvalues ---    0.11998   0.12069   0.12459   0.12557   0.12651
     Eigenvalues ---    0.12681   0.12732   0.12870   0.12957   0.13063
     Eigenvalues ---    0.13810   0.13899   0.14243   0.14499   0.14768
     Eigenvalues ---    0.16733   0.16765   0.16967   0.17167   0.17552
     Eigenvalues ---    0.17659   0.18547   0.19696   0.19855   0.20220
     Eigenvalues ---    0.20768   0.21027   0.21741   0.21826   0.22035
     Eigenvalues ---    0.22381   0.23012   0.23326   0.23817   0.23840
     Eigenvalues ---    0.24552   0.24654   0.24825   0.25707   0.25910
     Eigenvalues ---    0.26103   0.26315   0.27487   0.27577   0.27793
     Eigenvalues ---    0.28275   0.28319   0.28769   0.29514   0.30034
     Eigenvalues ---    0.30559   0.30589   0.30675   0.30706   0.30712
     Eigenvalues ---    0.30841   0.31157   0.31294   0.31455   0.32171
     Eigenvalues ---    0.32444   0.32521   0.32617   0.32897   0.33448
     Eigenvalues ---    0.33534   0.35257   0.35453   0.35783   0.36791
     Eigenvalues ---    0.37358   0.37537   0.37569   0.38044   0.38378
     Eigenvalues ---    0.38739   0.39097   0.40138   0.40181   0.41236
     Eigenvalues ---    0.42172   0.42282   0.43609   0.43889   0.44994
     Eigenvalues ---    0.45251   0.45512   0.45770   0.47342   0.48029
     Eigenvalues ---    0.48318   0.48603   0.48803   0.49466   0.49558
     Eigenvalues ---    0.49788   0.50529   0.51388   0.51426   0.52055
     Eigenvalues ---    0.52956   0.53464   0.55511   0.58845   0.64428
     Eigenvalues ---    0.67516   0.76887   0.81733   0.82954   0.96818
     Eigenvalues ---    0.97260   0.98829   0.99729   1.02104   1.04437
     Eigenvalues ---    1.07528   1.11581   1.12274   1.12309   1.15934
     Eigenvalues ---    1.19375   1.19884   1.20639   1.22358   1.22842
     Eigenvalues ---    1.23153   1.25900   1.26591   1.26858   1.27285
     Eigenvalues ---    1.27703   1.29072   1.29485   1.44834   1.45646
     Eigenvalues ---    1.46024   1.48150   1.51309   1.51771   1.52178
     Eigenvalues ---    1.52480   1.55422   1.55520   1.56348   1.58105
     Eigenvalues ---    1.58355   1.59704   1.61369   1.65316   1.68055
     Eigenvalues ---    1.75651   1.79768   1.82744   1.85196   1.87799
     Eigenvalues ---    1.93738   1.97040   3.17701
 Eigenvalue     1 is   2.22D-16 Eigenvector:
                          Y16       Y15       Y14       Y13       Y17
   1                    0.17510   0.17510   0.17510   0.17510   0.17510
                          Y9        Y3        Y4        Y8        Y2
   1                    0.17510   0.17510   0.17510   0.17510   0.17510
 Eigenvalue     2 is   2.83D-07 Eigenvector:
                          Y16       X16       X11       Y11       Y14
   1                    0.33899  -0.26356   0.26166  -0.25151   0.24861
                          Y15       Y17       Y13       X14       X6
   1                    0.23602   0.21236   0.19120  -0.18632   0.18261
 Eigenvalue     3 is   2.85D-06 Eigenvector:
                          X9        X10       Y12       Y9        X12
   1                    0.32979   0.29007   0.27815  -0.26026  -0.25477
                          Y8        Y10       X8        X15       Y17
   1                    0.24889  -0.23091  -0.21745   0.21676   0.20795
 Quadratic step=1.381D+01 exceeds max=3.000D-01 adjusted using Lamda=-6.674D-03.
 Angle between NR and scaled steps=  43.72 degrees.
 Angle between quadratic step and forces=  67.59 degrees.
 Linear search not attempted -- first point.
 B after Tr=     0.004598    0.003158    0.002186
         Rot=    1.000000   -0.000175    0.000078    0.000269 Ang=  -0.04 deg.
 Variable       Old X    -DE/DX   Delta X   Delta X   Delta X     New X
                                 (Linear)    (Quad)   (Total)
    X1      -18.86079  -0.00214   0.00000  -0.00209   0.00751 -18.85327
    Y1       15.02240   0.00682   0.00000   0.00692   0.01332  15.03572
    Z1       19.80786   0.00218   0.00000   0.00235   0.00684  19.81470
    X2      -15.70291  -0.00142   0.00000  -0.01298  -0.00769 -15.71060
    Y2        8.00936  -0.00044   0.00000  -0.01700  -0.01345   7.99591
    Z2       23.11672  -0.00144   0.00000  -0.00867  -0.00615  23.11057
    X3      -17.14472  -0.00064   0.00000   0.00305   0.00834 -17.13638
    Y3        7.40019  -0.00133   0.00000  -0.04303  -0.03796   7.36223
    Z3       20.96733   0.00258   0.00000  -0.00957  -0.00749  20.95983
    X4      -18.91067   0.00101   0.00000  -0.00639  -0.00219 -18.91287
    Y4        5.42403   0.00154   0.00000  -0.02670  -0.02075   5.40328
    Z4       21.16191   0.00023   0.00000   0.02136   0.02248  21.18439
    X5      -19.25138   0.00025   0.00000  -0.01295  -0.00979 -19.26118
    Y5        4.12499  -0.00006   0.00000  -0.00432   0.00102   4.12601
    Z5       23.42089   0.00158   0.00000   0.03662   0.03723  23.45812
    X6      -17.81697  -0.00039   0.00000  -0.01769  -0.01452 -17.83148
    Y6        4.76155   0.00005   0.00000   0.01144   0.01527   4.77682
    Z6       25.53950   0.00094   0.00000   0.03379   0.03485  25.57435
    X7      -16.03748  -0.00102   0.00000  -0.01614  -0.01190 -16.04938
    Y7        6.70286  -0.00096   0.00000   0.00654   0.00948   6.71235
    Z7       25.37346   0.00064   0.00000   0.00901   0.01103  25.38449
    X8      -14.30857  -0.00014   0.00000  -0.01142  -0.00529 -14.31386
    Y8        9.52897   0.00011   0.00000  -0.01864  -0.01581   9.51316
    Z8       23.03548  -0.00036   0.00000  -0.02432  -0.02105  23.01443
    X9      -20.03394   0.00002   0.00000  -0.00577  -0.00159 -20.03553
    Y9        4.91475   0.00011   0.00000  -0.03928  -0.03215   4.88260
    Z9       19.50266   0.00005   0.00000   0.02501   0.02577  19.52843
   X10      -20.64602   0.00017   0.00000  -0.00896  -0.00665 -20.65267
   Y10        2.60648  -0.00045   0.00000  -0.00791  -0.00186   2.60462
   Z10       23.53293  -0.00003   0.00000   0.04293   0.04280  23.57573
   X11      -18.07229  -0.00007   0.00000  -0.01577  -0.01342 -18.08571
   Y11        3.73905  -0.00012   0.00000   0.02361   0.02696   3.76600
   Z11       27.31332   0.00027   0.00000   0.04153   0.04220  27.35552
   X12      -14.91322   0.00042   0.00000  -0.00642  -0.00215 -14.91537
   Y12        7.21509  -0.00023   0.00000   0.01561   0.01736   7.23245
   Z12       27.02847   0.00010   0.00000   0.00059   0.00297  27.03144
   X13      -16.89937   0.00958   0.00000   0.02918   0.03555 -16.86382
   Y13        8.74637   0.00816   0.00000  -0.09091  -0.08514   8.66123
   Z13       18.56271  -0.00677   0.00000  -0.04575  -0.04317  18.51954
   X14      -15.35521  -0.00439   0.00000  -0.01083  -0.00332 -15.35853
   Y14       10.70880  -0.01422   0.00000  -0.08926  -0.08412  10.62468
   Z14       18.08881   0.00008   0.00000  -0.05321  -0.04971  18.03910
   X15      -18.11370  -0.00117   0.00000   0.02024   0.02647 -18.08724
   Y15        8.05237   0.00067   0.00000  -0.09813  -0.09116   7.96121
   Z15       17.03701   0.00009   0.00000  -0.03554  -0.03340  17.00362
   X16      -15.26587  -0.00135   0.00000  -0.03877  -0.03051 -15.29638
   Y16       11.55301   0.00115   0.00000  -0.07238  -0.06662  11.48639
   Z16       16.20955   0.00044   0.00000  -0.04670  -0.04289  16.16665
   X17      -13.99706  -0.00218   0.00000  -0.08110  -0.07339 -14.07045
   Y17       11.41197   0.00214   0.00000   0.00100   0.00494  11.41691
   Z17       19.47521   0.00050   0.00000  -0.02947  -0.02549  19.44972
   X18       -1.90667  -0.00291   0.00000  -0.01436  -0.01377  -1.92044
   Y18       -3.32932   0.00014   0.00000  -0.00668  -0.00742  -3.33674
   Z18       14.09265   0.00101   0.00000   0.01098   0.01170  14.10435
   X19      -15.89621   0.00307   0.00000   0.01603   0.01708 -15.87913
   Y19       -2.50857  -0.00067   0.00000   0.01536   0.02215  -2.48643
   Z19       14.10278   0.00103   0.00000   0.01142   0.01025  14.11303
   X20      -13.32902   0.00221   0.00000   0.01624   0.01911 -13.30990
   Y20        2.54176  -0.00287   0.00000  -0.00624  -0.00283   2.53893
   Z20       19.82008  -0.00058   0.00000  -0.00648  -0.00549  19.81459
   X21       -4.40841  -0.00215   0.00000  -0.01276  -0.01571  -4.42412
   Y21       -8.22754   0.00205   0.00000   0.01129   0.00986  -8.21767
   Z21       19.95877  -0.00109   0.00000  -0.01248  -0.01386  19.94491
   X22       -6.46657   0.00133   0.00000  -0.00137   0.00207  -6.46450
   Y22        1.39663   0.00945   0.00000   0.01291   0.01527   1.41191
   Z22       12.26842  -0.00913   0.00000  -0.00531  -0.00364  12.26478
   X23      -11.36027  -0.00206   0.00000   0.00461   0.00337 -11.35690
   Y23       -7.23654  -0.00908   0.00000   0.00087   0.00580  -7.23074
   Z23       12.43861  -0.00944   0.00000  -0.00483  -0.00695  12.43166
   X24       -6.86227   0.00578   0.00000   0.02017   0.02233  -6.83995
   Y24        1.73303   0.00751   0.00000  -0.00216  -0.00285   1.73018
   Z24       21.56335   0.00913   0.00000   0.00621   0.00793  21.57129
   X25      -10.92194  -0.00610   0.00000  -0.01567  -0.01839 -10.94034
   Y25       -7.31018  -0.00639   0.00000   0.00935   0.01083  -7.29935
   Z25       21.68054   0.00924   0.00000   0.00302   0.00095  21.68148
   X26       -4.66713   0.00798   0.00000  -0.00203  -0.00192  -4.66905
   Y26       -4.81643  -0.00714   0.00000  -0.01141  -0.00995  -4.82638
   Z26       12.05986  -0.00972   0.00000  -0.00447  -0.00470  12.05517
   X27      -13.12286  -0.00803   0.00000   0.00145   0.00364 -13.11922
   Y27       -1.01428   0.00775   0.00000   0.02490   0.03094  -0.98335
   Z27       12.00096  -0.00955   0.00000  -0.00464  -0.00485  11.99612
   X28      -12.89968  -0.01088   0.00000  -0.00368  -0.00276 -12.90244
   Y28       -0.47270   0.00295   0.00000   0.00101   0.00346  -0.46924
   Z28       21.90362   0.00956   0.00000   0.00547   0.00547  21.90909
   X29       -4.86177   0.01024   0.00000   0.00859   0.00701  -4.85477
   Y29       -5.09352  -0.00182   0.00000   0.00558   0.00367  -5.08985
   Z29       21.97435   0.00948   0.00000   0.00293   0.00258  21.97694
   X30       -6.03295  -0.00065   0.00000   0.01592   0.02092  -6.01203
   Y30        3.66376  -0.00326   0.00000   0.00160   0.00448   3.66824
   Z30       10.06535   0.00332   0.00000  -0.00107   0.00146  10.06680
   X31      -11.61803   0.00057   0.00000  -0.00919  -0.01136 -11.62939
   Y31       -9.59990   0.00318   0.00000   0.00827   0.01410  -9.58580
   Z31       10.28010   0.00333   0.00000   0.00074  -0.00225  10.27785
   X32       -5.13139  -0.00210   0.00000   0.01020   0.01289  -5.11849
   Y32        3.34758  -0.00245   0.00000  -0.00073  -0.00310   3.34448
   Z32       23.73419  -0.00329   0.00000   0.00102   0.00358  23.73777
   X33      -12.63608   0.00212   0.00000  -0.00562  -0.00953 -12.64561
   Y33       -8.85635   0.00230   0.00000   0.00704   0.00865  -8.84769
   Z33       23.91245  -0.00333   0.00000  -0.00235  -0.00524  23.90721
   X34       -5.09120  -0.00084   0.00000  -0.00702  -0.00496  -5.09616
   Y34       -1.64242  -0.00100   0.00000  -0.00449  -0.00228  -1.64470
   Z34       10.55413   0.00299   0.00000   0.01266   0.01348  10.56760
   X35      -12.69527   0.00134   0.00000   0.01093   0.01156 -12.68371
   Y35       -4.29202   0.00022   0.00000   0.01639   0.02266  -4.26936
   Z35       10.63477   0.00304   0.00000   0.01290   0.01161  10.64638
   X36      -10.05831   0.00056   0.00000   0.01122   0.01274 -10.04557
   Y36        1.07021  -0.00146   0.00000  -0.01030  -0.00989   1.06032
   Z36       23.37255  -0.00297   0.00000  -0.00932  -0.00833  23.36421
   X37       -7.68279  -0.00023   0.00000  -0.00501  -0.00765  -7.69044
   Y37       -6.63853   0.00115   0.00000   0.01352   0.01263  -6.62589
   Z37       23.45501  -0.00303   0.00000  -0.01324  -0.01457  23.44044
   X38        0.55865  -0.00430   0.00000   0.00702   0.00887   0.56753
   Y38       -0.00011  -0.00170   0.00000  -0.01111  -0.01438  -0.01450
   Z38       17.51794  -0.00094   0.00000  -0.00100   0.00127  17.51921
   X39      -18.36511   0.00439   0.00000  -0.00433  -0.00555 -18.37066
   Y39       -5.70444   0.00158   0.00000   0.02036   0.02726  -5.67718
   Z39       17.62326  -0.00105   0.00000  -0.00090  -0.00357  17.61969
   X40      -12.07020   0.00224   0.00000   0.01668   0.02221 -12.04799
   Y40        6.45851  -0.00635   0.00000   0.00969   0.01363   6.47214
   Z40       16.32490   0.00117   0.00000   0.00994   0.01250  16.33740
   X41       -5.60868  -0.00133   0.00000  -0.00750  -0.01205  -5.62073
   Y41      -12.19465   0.00437   0.00000   0.00130   0.00170 -12.19294
   Z41       16.54023   0.00110   0.00000   0.00046  -0.00249  16.53774
   X42       -3.41586  -0.00180   0.00000  -0.00748  -0.00430  -3.42017
   Y42        1.47581  -0.00250   0.00000  -0.00768  -0.00763   1.46819
   Z42       14.13615   0.00133   0.00000   0.01098   0.01314  14.14929
   X43      -14.38712   0.00224   0.00000   0.01072   0.00915 -14.37797
   Y43       -7.32667   0.00217   0.00000   0.01812   0.02403  -7.30264
   Z43       14.28264   0.00096   0.00000   0.00919   0.00658  14.28922
   X44       -8.56642  -0.00007   0.00000   0.01523   0.01900  -8.54741
   Y44        4.19451  -0.00330   0.00000  -0.01333  -0.01245   4.18206
   Z44       19.70668  -0.00058   0.00000  -0.00341  -0.00110  19.70558
   X45       -9.19193   0.00061   0.00000  -0.01232  -0.01612  -9.20805
   Y45       -9.85215   0.00291   0.00000   0.01982   0.02099  -9.83116
   Z45       19.88927  -0.00128   0.00000  -0.01232  -0.01501  19.87425
   X46       -3.08618  -0.00266   0.00000  -0.00290  -0.00338  -3.08956
   Y46       -6.56504   0.00223   0.00000  -0.00145  -0.00008  -6.56512
   Z46        9.87821   0.00324   0.00000  -0.00055  -0.00114   9.87707
   X47      -14.80176   0.00299   0.00000  -0.00013   0.00322 -14.79854
   Y47        0.49726  -0.00219   0.00000   0.01181   0.01954   0.51680
   Z47        9.74767   0.00324   0.00000   0.00047   0.00052   9.74819
   X48      -15.19267   0.00385   0.00000   0.00453   0.00520 -15.18748
   Y48       -0.31151  -0.00071   0.00000   0.01138   0.01429  -0.29722
   Z48       24.14036  -0.00354   0.00000   0.00026  -0.00003  24.14033
   X49       -2.52810  -0.00348   0.00000   0.00009  -0.00197  -2.53007
   Y49       -5.32319   0.00050   0.00000  -0.00710  -0.01102  -5.33421
   Z49       24.16837  -0.00315   0.00000  -0.00133  -0.00140  24.16697
   X50       -2.39206   0.01313   0.00000   0.00907   0.01053  -2.38153
   Y50       -0.97680   0.00475   0.00000  -0.00013  -0.00153  -0.97833
   Z50       16.70900   0.00275   0.00000   0.01124   0.01271  16.72171
   X51      -15.41803  -0.01341   0.00000  -0.00663  -0.00720 -15.42523
   Y51       -4.74402  -0.00403   0.00000   0.01054   0.01614  -4.72789
   Z51       16.78054   0.00311   0.00000   0.01190   0.01002  16.79056
   X52      -11.19681  -0.00510   0.00000   0.00852   0.01234 -11.18447
   Y52        3.49690   0.01530   0.00000   0.01584   0.01906   3.51596
   Z52       17.09391  -0.00322   0.00000  -0.00755  -0.00589  17.08803
   X53       -6.55705   0.00413   0.00000  -0.00663  -0.00971  -6.56676
   Y53       -9.22798  -0.01326   0.00000  -0.00410  -0.00345  -9.23143
   Z53       17.32551  -0.00264   0.00000  -0.01253  -0.01460  17.31091
   X54       -8.00903  -0.00044   0.00000   0.00050   0.00015  -8.00888
   Y54       -5.84227   0.00120   0.00000  -0.00529  -0.00182  -5.84409
   Z54       11.47104   0.00201   0.00000  -0.00608  -0.00719  11.46385
   X55       -9.77889   0.00068   0.00000   0.00044   0.00325  -9.77564
   Y55       -0.06056  -0.00164   0.00000   0.01859   0.02305  -0.03751
   Z55       11.35625   0.00201   0.00000  -0.00520  -0.00455  11.35170
   X56      -11.68892   0.00172   0.00000  -0.00780  -0.00876 -11.69767
   Y56       -3.77929  -0.00006   0.00000   0.00343   0.00502  -3.77428
   Z56       22.53132  -0.00217   0.00000   0.00478   0.00382  22.53513
   X57       -6.02274  -0.00121   0.00000   0.01412   0.01423  -6.00851
   Y57       -1.79766  -0.00068   0.00000   0.00227   0.00078  -1.79688
   Z57       22.55238  -0.00207   0.00000   0.00537   0.00599  22.55837
   X58       -8.28866   0.00031   0.00000   0.00408   0.00799  -8.28067
   Y58        3.00325  -0.00223   0.00000   0.01469   0.01714   3.02038
   Z58       14.83275   0.00087   0.00000  -0.00715  -0.00520  14.82755
   X59       -9.46264   0.00049   0.00000  -0.00071  -0.00321  -9.46585
   Y59       -8.83459   0.00216   0.00000  -0.00195   0.00108  -8.83351
   Z59       14.97913   0.00148   0.00000  -0.00716  -0.00955  14.96958
   X60       -4.42558  -0.00126   0.00000   0.01702   0.01925  -4.40633
   Y60        1.13620  -0.00184   0.00000  -0.00159  -0.00272   1.13348
   Z60       19.05113  -0.00155   0.00000   0.00711   0.00900  19.06013
   X61      -13.35436   0.00154   0.00000  -0.01341  -0.01548 -13.36984
   Y61       -6.82515   0.00152   0.00000   0.01067   0.01433  -6.81082
   Z61       19.16152  -0.00147   0.00000   0.00578   0.00349  19.16501
   X62       -4.87623  -0.00104   0.00000  -0.00352  -0.00519  -4.88142
   Y62       -7.31649   0.00183   0.00000  -0.00725  -0.00665  -7.32314
   Z62       14.85346   0.00083   0.00000  -0.00826  -0.00940  14.84406
   X63      -12.92732   0.00096   0.00000   0.00436   0.00746 -12.91986
   Y63        1.48448  -0.00242   0.00000   0.01961   0.02458   1.50906
   Z63       14.74816   0.00041   0.00000  -0.00692  -0.00623  14.74193
   X64      -14.82288   0.00216   0.00000  -0.00483  -0.00443 -14.82731
   Y64       -2.21810  -0.00010   0.00000   0.00830   0.01274  -2.20536
   Z64       19.19709  -0.00114   0.00000   0.00801   0.00711  19.20420
   X65       -2.97689  -0.00218   0.00000   0.00813   0.00786  -2.96902
   Y65       -3.46944  -0.00051   0.00000  -0.00045  -0.00239  -3.47183
   Z65       19.18203  -0.00090   0.00000   0.00637   0.00688  19.18891
   X66       -6.39412  -0.02480   0.00000  -0.04306  -0.04199  -6.43611
   Y66       -2.13666  -0.00473   0.00000  -0.00448  -0.00316  -2.13981
   Z66       15.14310   0.01596   0.00000   0.02669   0.02712  15.17023
   X67      -11.40272   0.02532   0.00000   0.04455   0.04480 -11.35792
   Y67       -3.68550   0.00527   0.00000   0.01828   0.02224  -3.66325
   Z67       15.19450   0.01588   0.00000   0.02742   0.02655  15.22105
   X68       -9.70640   0.01101   0.00000   0.02576   0.02720  -9.67920
   Y68       -0.37237  -0.02400   0.00000  -0.03562  -0.03381  -0.40618
   Z68       18.80630  -0.01608   0.00000  -0.02722  -0.02669  18.77961
   X69       -8.03258  -0.01065   0.00000  -0.02171  -0.02291  -8.05549
   Y69       -5.33662   0.02283   0.00000   0.04319   0.04410  -5.29251
   Z69       18.85950  -0.01629   0.00000  -0.02862  -0.02954  18.82996
   X70       -6.10599   0.00027   0.00000  -0.00451  -0.00783  -6.11382
   Y70      -11.57662  -0.00059   0.00000  -0.00468  -0.00197 -11.57859
   Z70       10.69738  -0.00047   0.00000  -0.00690  -0.00972  10.68766
   X71       -0.26967   0.00072   0.00000   0.01403   0.01502  -0.25465
   Y71        0.08257   0.00026   0.00000  -0.00319  -0.00806   0.07451
   Z71       23.34615   0.00037   0.00000   0.00546   0.00764  23.35379
   X72      -17.52874  -0.00056   0.00000  -0.00915  -0.01119 -17.53993
   Y72       -5.52938   0.00015   0.00000   0.01197   0.01638  -5.51300
   Z72       23.46586   0.00040   0.00000   0.00568   0.00320  23.46906
   X73       -8.88887  -0.00023   0.00000   0.00101   0.00141  -8.88747
   Y73       -2.87584   0.00029   0.00000   0.00554   0.00755  -2.86830
   Z73       16.99585   0.00035   0.00000   0.00001  -0.00020  16.99565
         Item               Value     Threshold  Converged?
 Maximum Force            0.025316     0.000450     NO 
 RMS     Force            0.005695     0.000300     NO 
 Maximum Displacement     0.091161     0.001800     NO 
 RMS     Displacement     0.020037     0.001200     NO 
 Predicted change in Energy=-5.009624D-03
 GradGradGradGradGradGradGradGradGradGradGradGradGradGradGradGradGradGrad

 Unable to Open any file for archive entry.
 1\1\GINC-X11P1N2\Force\RwB97XD\def2SVP\C8H8Cl1K3O40V1W12(1-)\MAYUMIAO\
 02-Jun-2024\0\\# def2svp wb97xd scrf=(smd,solvent=acetonitrile) g09def
 ault scf=(xqc,maxcycle=64) force guess=read nosymm\\Title Card\\-1,1\C
 l,-9.98069932,7.94951069,10.48186582\C,-8.30962269,4.2383694,12.232840
 67\C,-9.07259474,3.91601328,11.09543136\C,-10.0070979,2.87027461,11.19
 840116\C,-10.1873934,2.18284991,12.39379905\C,-9.42833352,2.51970492,1
 3.51491942\C,-8.48667139,3.54700334,13.42705555\H,-7.57176992,5.042514
 18,12.1898516\H,-10.60150193,2.60077396,10.32036468\H,-10.92540431,1.3
 792908,12.45308843\H,-9.5634414,1.97861878,14.453584\H,-7.89173526,3.8
 1806078,14.30285123\C,-8.94276154,4.6283786,9.82296503\C,-8.12562545,5
 .66685518,9.5721862\H,-9.58535875,4.26112906,9.01559887\H,-8.07834963,
 6.11358925,8.57772192\H,-7.40692309,6.03895253,10.30583911\O,-1.008965
 63,-1.76179916,7.45750902\O,-8.41191418,-1.32748031,7.46286804\O,-7.05
 341147,1.3450404,10.48833526\O,-2.33283081,-4.35382414,10.56172534\W,-
 3.42196115,0.73906736,6.49216866\W,-6.01159612,-3.8294116,6.58222905\W
 ,-3.63135936,0.91708162,11.41083464\W,-5.77964355,-3.86838031,11.47284
 521\W,-2.4697382,-2.54874649,6.38180566\W,-6.94431787,-0.53673528,6.35
 06358\W,-6.82621907,-0.25014184,11.59089407\W,-2.57273962,-2.69537535,
 11.6283273\O,-3.19249997,1.93877626,5.32635226\O,-6.14799686,-5.080050
 82,5.43999488\O,-2.71541276,1.77146564,12.55959202\O,-6.68672529,-4.68
 657607,12.65392231\O,-2.69414757,-0.869133,5.5850031\O,-6.71804824,-2.
 27124081,5.62767757\O,-5.32262828,0.56633291,12.36821834\O,-4.06555513
 ,-3.5129572,12.41185676\O,0.29562628,-0.00006012,9.27009366\O,-9.71839
 732,-3.01865895,9.32583004\O,-6.38727658,3.41769485,8.63876443\O,-2.96
 798313,-6.45312834,8.75271417\O,-1.80759782,0.78096625,7.48052633\O,-7
 .61333589,-3.87710724,7.55804775\O,-4.5331525,2.21964085,10.4283276\O,
 -4.86415978,-5.21353194,10.52494718\O,-1.63313744,-3.4740715,5.2273218
 1\O,-7.83275157,0.26313828,5.15824305\O,-8.0396157,-0.16484357,12.7745
 2924\O,-1.33781257,-2.81690956,12.78935051\W,-1.26582111,-0.51689869,8
 .84201961\W,-8.15886929,-2.51042986,8.87987872\W,-5.92509693,1.8504811
 8,9.04570837\W,-3.46984073,-4.88323752,9.16826329\O,-4.23819545,-3.091
 59824,6.07021211\O,-5.17476323,-0.03204857,6.00946906\O,-6.18550925,-1
 .99991469,11.9230589\O,-3.18709769,-0.95128013,11.93420509\O,-4.386169
 64,1.58924955,7.84915336\O,-5.00741555,-4.67506105,7.9266116\O,-2.3419
 1591,0.60125244,10.08142351\O,-7.06682344,-3.61171402,10.13983899\O,-2
 .58039195,-3.87171902,7.86011389\O,-6.84084495,0.78555341,7.80438795\O
 ,-7.84392994,-1.17376803,10.15866035\O,-1.57529975,-1.83594634,10.1506
 9148\O,-3.38362369,-1.13066977,8.01338419\O,-6.03405872,-1.9502811,8.0
 4058202\O,-5.13640617,-0.19705208,9.9518645\O,-4.25066061,-2.82401634,
 9.98001759\K,-3.23115287,-6.1260835,5.66081093\K,-0.14270409,0.0436968
 ,12.35425215\K,-9.27580875,-2.92602286,12.41759904\V,-4.7037889,-1.521
 83064,8.99381612\\Version=ES64L-G16RevC.01\HF=-7327.7003704\RMSD=3.968
 e-09\RMSF=5.695e-03\Dipole=10.6665924,-21.7588736,2.5521305\Quadrupole
 =-91.3784898,60.203468,31.1750219,338.2017459,346.1731064,-350.7280769
 \PG=C01 [X(C8H8Cl1K3O40V1W12)]\\@
 The archive entry for this job was punched.


 IF YOU DON'T HAVE THE LAW - ARGUE THE FACTS.
 IF YOU DON'T HAVE THE FACTS - ARGUE THE LAW.
 IF YOU DON'T HAVE EITHER - POUND THE TABLE.
 Job cpu time:       0 days  9 hours 19 minutes 42.8 seconds.
 Elapsed time:       0 days  0 hours 10 minutes 35.2 seconds.
 File lengths (MBytes):  RWF=   1253 Int=      0 D2E=      0 Chk=    249 Scr=      1
 Normal termination of Gaussian 16 at Sun Jun  2 00:36:57 2024.
