 Entering Gaussian System, Link 0=g16
 Input=JOBS/23_A.gjf
 Output=JOBS/23_A.log
 Initial command:
 /data/app/gaussian/C01-avx2//g16/l1.exe "/tmp/Gau-620800.inp" -scrdir="/tmp/"
 Entering Link 1 = /data/app/gaussian/C01-avx2//g16/l1.exe PID=    620801.
  
 Copyright (c) 1988-2019, Gaussian, Inc.  All Rights Reserved.
  
 This is part of the Gaussian(R) 16 program.  It is based on
 the Gaussian(R) 09 system (copyright 2009, Gaussian, Inc.),
 the Gaussian(R) 03 system (copyright 2003, Gaussian, Inc.),
 the Gaussian(R) 98 system (copyright 1998, Gaussian, Inc.),
 the Gaussian(R) 94 system (copyright 1995, Gaussian, Inc.),
 the Gaussian 92(TM) system (copyright 1992, Gaussian, Inc.),
 the Gaussian 90(TM) system (copyright 1990, Gaussian, Inc.),
 the Gaussian 88(TM) system (copyright 1988, Gaussian, Inc.),
 the Gaussian 86(TM) system (copyright 1986, Carnegie Mellon
 University), and the Gaussian 82(TM) system (copyright 1983,
 Carnegie Mellon University). Gaussian is a federally registered
 trademark of Gaussian, Inc.
  
 This software contains proprietary and confidential information,
 including trade secrets, belonging to Gaussian, Inc.
  
 This software is provided under written license and may be
 used, copied, transmitted, or stored only in accord with that
 written license.
  
 The following legend is applicable only to US Government
 contracts under FAR:
  
                    RESTRICTED RIGHTS LEGEND
  
 Use, reproduction and disclosure by the US Government is
 subject to restrictions as set forth in subparagraphs (a)
 and (c) of the Commercial Computer Software - Restricted
 Rights clause in FAR 52.227-19.
  
 Gaussian, Inc.
 340 Quinnipiac St., Bldg. 40, Wallingford CT 06492
  
  
 ---------------------------------------------------------------
 Warning -- This program may not be used in any manner that
 competes with the business of Gaussian, Inc. or will provide
 assistance to any competitor of Gaussian, Inc.  The licensee
 of this program is prohibited from giving any competitor of
 Gaussian, Inc. access to this program.  By using this program,
 the user acknowledges that Gaussian, Inc. is engaged in the
 business of creating and licensing software in the field of
 computational chemistry and represents and warrants to the
 licensee that it is not a competitor of Gaussian, Inc. and that
 it will not use this program in any manner prohibited above.
 ---------------------------------------------------------------
  

 Cite this work as:
 Gaussian 16, Revision C.01,
 M. J. Frisch, G. W. Trucks, H. B. Schlegel, G. E. Scuseria, 
 M. A. Robb, J. R. Cheeseman, G. Scalmani, V. Barone, 
 G. A. Petersson, H. Nakatsuji, X. Li, M. Caricato, A. V. Marenich, 
 J. Bloino, B. G. Janesko, R. Gomperts, B. Mennucci, H. P. Hratchian, 
 J. V. Ortiz, A. F. Izmaylov, J. L. Sonnenberg, D. Williams-Young, 
 F. Ding, F. Lipparini, F. Egidi, J. Goings, B. Peng, A. Petrone, 
 T. Henderson, D. Ranasinghe, V. G. Zakrzewski, J. Gao, N. Rega, 
 G. Zheng, W. Liang, M. Hada, M. Ehara, K. Toyota, R. Fukuda, 
 J. Hasegawa, M. Ishida, T. Nakajima, Y. Honda, O. Kitao, H. Nakai, 
 T. Vreven, K. Throssell, J. A. Montgomery, Jr., J. E. Peralta, 
 F. Ogliaro, M. J. Bearpark, J. J. Heyd, E. N. Brothers, K. N. Kudin, 
 V. N. Staroverov, T. A. Keith, R. Kobayashi, J. Normand, 
 K. Raghavachari, A. P. Rendell, J. C. Burant, S. S. Iyengar, 
 J. Tomasi, M. Cossi, J. M. Millam, M. Klene, C. Adamo, R. Cammi, 
 J. W. Ochterski, R. L. Martin, K. Morokuma, O. Farkas, 
 J. B. Foresman, and D. J. Fox, Gaussian, Inc., Wallingford CT, 2019.
 
 ******************************************
 Gaussian 16:  ES64L-G16RevC.01  3-Jul-2019
                 2-Jun-2024 
 ******************************************
 %chk=a.chk
 %nprocshared=56
 Will use up to   56 processors via shared memory.
 %mem=96gb
 ----------------------------------------------------------------------
 # def2svp wb97xd scrf=(smd,solvent=acetonitrile) g09default scf=(xqc,m
 axcycle=64) force guess=read nosymm
 ----------------------------------------------------------------------
 1/10=7,30=1,38=1,158=3,167=1/1,3;
 2/12=2,15=1,17=6,18=5,40=1/2;
 3/5=43,7=101,11=2,25=1,27=10,30=1,70=32201,71=1,72=2,74=-58,75=-4,116=-2,158=3/1,2,3;
 4/5=1,60=-1/1;
 5/5=2,7=64,8=3,13=1,38=6,53=2,87=10/2,8;
 6/7=2,8=2,9=2,10=2,28=1,87=10/1;
 7/29=1,30=1,87=10/1,2,3,16;
 1/10=7,30=1,158=3,167=1/3;
 99//99;
 Using 2006 physical constants.
 ----------
 Title Card
 ----------
 Symbolic Z-matrix:
 Charge = -1 Multiplicity = 1
 17                   -9.97815   7.96302   10.48557 
 6                    -8.31043   4.23826   12.2325 
 6                    -9.07433   3.91624   11.09577 
 6                    -10.00824   2.8696    11.19845 
 6                    -10.18782   2.18215   12.39448 
 6                    -9.4286    2.5199    13.51517 
 6                    -8.48673   3.54697   13.42689 
 1                    -7.57149   5.04124   12.18798 
 1                    -10.60127   2.59884   10.32042 
 1                    -10.92521   1.37848   12.45416 
 1                    -9.56454   1.97998   14.45435 
 1                    -7.89121   3.81774   14.30225 
 6                    -8.94482   4.62858   9.82365 
 6                    -8.12935   5.66852   9.5723 
 1                    -9.58684   4.26034   9.01601 
 1                    -8.08315   6.11444   8.57762 
 1                    -7.41365   6.04544   10.30675 
 8                    -1.00813  -1.76197   7.45717 
 8                    -8.41214  -1.32802   7.46233 
 8                    -7.05243   1.34551   10.4882 
 8                    -2.3327   -4.35483   10.5617 
 74                   -3.42135   0.73746   6.49124 
 74                   -6.01124  -3.82923   6.5817 
 74                   -3.63115   0.91633   11.41128 
 74                   -5.77914  -3.86771   11.47261 
 74                   -2.46915  -2.5496    6.3827 
 74                   -6.94406  -0.53707   6.35146 
 74                   -6.82585  -0.2499    11.58945 
 74                   -2.5727   -2.69589   11.62735 
 8                    -3.19086   1.9363    5.32519 
 8                    -6.14868  -5.0791    5.43867 
 8                    -2.71644   1.77074   12.56108 
 8                    -6.68509  -4.68642   12.6546 
 8                    -2.6929   -0.86999   5.58494 
 8                    -6.71821  -2.27141   5.62768 
 8                    -5.32252   0.56658   12.36771 
 8                    -4.06508  -3.5137    12.4114 
 8                     0.29541   0.00047   9.26952 
 8                    -9.71805  -3.01949   9.32477 
 8                    -6.3861    3.41759   8.64144 
 8                    -2.96906  -6.45391   8.75403 
 8                    -1.80671   0.78005   7.47967 
 8                    -7.61348  -3.87708   7.55725 
 8                    -4.5325    2.21972   10.42905 
 8                    -4.8639   -5.21352   10.52519 
 8                    -1.63187  -3.47496   5.22873 
 8                    -7.8336    0.26215   5.15979 
 8                    -8.03966  -0.16309   12.77254 
 8                    -1.33744  -2.81943   12.78814 
 74                   -1.26587  -0.51695   8.84155 
 74                   -8.15858  -2.51111   8.87918 
 74                   -5.92315   1.85015   9.04611 
 74                   -3.47034  -4.88339   9.16879 
 8                    -4.23799  -3.09167   6.06987 
 8                    -5.17404  -0.03299   6.00882 
 8                    -6.18467  -1.99961   11.92273 
 8                    -3.18683  -0.95172   11.93466 
 8                    -4.38489   1.58798   7.84943 
 8                    -5.00755  -4.67507   7.92644 
 8                    -2.34176   0.60088   10.08137 
 8                    -7.06669  -3.61177   10.13952 
 8                    -2.5801   -3.87196   7.86048 
 8                    -6.83995   0.78503   7.80484 
 8                    -7.84347  -1.17355   10.15765 
 8                    -1.57548  -1.8368    10.14988 
 8                    -3.38284  -1.1311    8.01252 
 8                    -6.03413  -1.95036   8.03971 
 8                    -5.13554  -0.19682   9.95204 
 8                    -4.25044  -2.82436   9.98009 
 19                   -3.23047  -6.12749   5.65972 
 19                   -0.14078   0.04468   12.35508 
 19                   -9.27721  -2.92473   12.41914 
 23                   -4.7034   -1.52206   8.99342 
 

 GradGradGradGradGradGradGradGradGradGradGradGradGradGradGradGradGradGrad
 Berny optimization.
 Initialization pass.
 Trust Radius=3.00D-01 FncErr=1.00D-07 GrdErr=1.00D-07 EigMax=2.50D+02 EigMin=1.00D-04
 Number of steps in this run=      2 maximum allowed number of steps=      2.
 GradGradGradGradGradGradGradGradGradGradGradGradGradGradGradGradGradGrad

 Symmetry turned off by external request.
 Stoichiometry    C8H8ClK3O40VW12(1-)
 Framework group  C1[X(C8H8ClK3O40VW12)]
 Deg. of freedom   213
 Full point group                 C1      NOp   1
                          Input orientation:                          
 ---------------------------------------------------------------------
 Center     Atomic      Atomic             Coordinates (Angstroms)
 Number     Number       Type             X           Y           Z
 ---------------------------------------------------------------------
      1         17           0       -9.978150    7.963020   10.485566
      2          6           0       -8.310433    4.238263   12.232502
      3          6           0       -9.074331    3.916242   11.095765
      4          6           0      -10.008237    2.869598   11.198448
      5          6           0      -10.187820    2.182148   12.394478
      6          6           0       -9.428600    2.519904   13.515170
      7          6           0       -8.486727    3.546969   13.426892
      8          1           0       -7.571485    5.041241   12.187982
      9          1           0      -10.601272    2.598837   10.320419
     10          1           0      -10.925207    1.378479   12.454157
     11          1           0       -9.564536    1.979976   14.454350
     12          1           0       -7.891212    3.817744   14.302253
     13          6           0       -8.944820    4.628585    9.823651
     14          6           0       -8.129352    5.668521    9.572296
     15          1           0       -9.586837    4.260338    9.016008
     16          1           0       -8.083152    6.114440    8.577622
     17          1           0       -7.413651    6.045443   10.306750
     18          8           0       -1.008132   -1.761972    7.457170
     19          8           0       -8.412137   -1.328016    7.462328
     20          8           0       -7.052432    1.345507   10.488203
     21          8           0       -2.332703   -4.354829   10.561704
     22         74           0       -3.421353    0.737459    6.491244
     23         74           0       -6.011241   -3.829227    6.581695
     24         74           0       -3.631149    0.916328   11.411280
     25         74           0       -5.779144   -3.867706   11.472609
     26         74           0       -2.469152   -2.549598    6.382703
     27         74           0       -6.944060   -0.537072    6.351462
     28         74           0       -6.825852   -0.249902   11.589450
     29         74           0       -2.572697   -2.695888   11.627349
     30          8           0       -3.190860    1.936300    5.325187
     31          8           0       -6.148675   -5.079102    5.438675
     32          8           0       -2.716437    1.770738   12.561078
     33          8           0       -6.685092   -4.686422   12.654595
     34          8           0       -2.692898   -0.869992    5.584937
     35          8           0       -6.718211   -2.271407    5.627678
     36          8           0       -5.322524    0.566584   12.367714
     37          8           0       -4.065084   -3.513702   12.411396
     38          8           0        0.295413    0.000474    9.269516
     39          8           0       -9.718053   -3.019488    9.324767
     40          8           0       -6.386101    3.417595    8.641441
     41          8           0       -2.969057   -6.453906    8.754027
     42          8           0       -1.806711    0.780047    7.479667
     43          8           0       -7.613476   -3.877077    7.557248
     44          8           0       -4.532502    2.219724   10.429049
     45          8           0       -4.863899   -5.213517   10.525188
     46          8           0       -1.631872   -3.474957    5.228726
     47          8           0       -7.833601    0.262153    5.159793
     48          8           0       -8.039659   -0.163088   12.772542
     49          8           0       -1.337441   -2.819430   12.788139
     50         74           0       -1.265871   -0.516945    8.841552
     51         74           0       -8.158581   -2.511108    8.879182
     52         74           0       -5.923154    1.850153    9.046105
     53         74           0       -3.470343   -4.883389    9.168791
     54          8           0       -4.237988   -3.091666    6.069869
     55          8           0       -5.174039   -0.032987    6.008823
     56          8           0       -6.184670   -1.999614   11.922726
     57          8           0       -3.186829   -0.951716   11.934657
     58          8           0       -4.384885    1.587975    7.849433
     59          8           0       -5.007547   -4.675074    7.926437
     60          8           0       -2.341761    0.600884   10.081367
     61          8           0       -7.066686   -3.611768   10.139520
     62          8           0       -2.580096   -3.871963    7.860482
     63          8           0       -6.839950    0.785025    7.804836
     64          8           0       -7.843467   -1.173554   10.157645
     65          8           0       -1.575475   -1.836797   10.149883
     66          8           0       -3.382841   -1.131097    8.012522
     67          8           0       -6.034129   -1.950358    8.039707
     68          8           0       -5.135539   -0.196816    9.952038
     69          8           0       -4.250438   -2.824362    9.980088
     70         19           0       -3.230471   -6.127486    5.659716
     71         19           0       -0.140783    0.044683   12.355078
     72         19           0       -9.277214   -2.924733   12.419136
     73         23           0       -4.703404   -1.522063    8.993416
 ---------------------------------------------------------------------
 Rotational constants (GHZ):           0.0171842           0.0132963           0.0130873
 Standard basis: def2SVP (5D, 7F)
  1217 basis functions,  2313 primitive gaussians,  1337 cartesian basis functions
   321 alpha electrons      321 beta electrons
       nuclear repulsion energy     20998.9218064000 Hartrees.
 NAtoms=   73 NActive=   73 NUniq=   73 SFac= 1.00D+00 NAtFMM=   60 NAOKFM=T Big=T
 Integral buffers will be    131072 words long.
 Raffenetti 2 integral format.
 Two-electron integral symmetry is turned off.
 Nuclear repulsion after empirical dispersion term =    20998.6440168093 Hartrees.
 Force PCM accuracy= 1.00D-10.
 ------------------------------------------------------------------------------
 Polarizable Continuum Model (PCM)
 =================================
 Model                : PCM (using non-symmetric T matrix).
 Atomic radii         : SMD-Coulomb.
 Polarization charges : Total charges.
 Charge compensation  : None.
 Solution method      : On-the-fly selection.
 Cavity type          : VdW (van der Waals Surface) (Alpha=1.000).
 Cavity algorithm     : GePol (No added spheres)
                        Default sphere list used, NSphG=   73.
                        Lebedev-Laikov grids with approx.  5.0 points / Ang**2.
                        Smoothing algorithm: York/Karplus (Gamma=1.0000).
                        Polarization charges: spherical gaussians, with
                                              point-specific exponents (IZeta= 3).
                        Self-potential: point-specific (ISelfS= 7).
                        Self-field    : sphere-specific E.n sum rule (ISelfD= 2).
 1st derivatives      : Analytical E(r).r(x)/FMM algorithm (CHGder, D1EAlg=3).
                        Cavity 1st derivative terms included.
 Solvent              : Acetonitrile, Eps=  35.688000 Eps(inf)=   1.806874
 ------------------------------------------------------------------------------
 ------------------------------------------------------------------------------
 Atomic radii for non-electrostatic terms: SMD-CDS.
 ------------------------------------------------------------------------------
 Nuclear repulsion after PCM non-electrostatic terms =    20998.6381921145 Hartrees.
 One-electron integrals computed using PRISM.
   1 Symmetry operations used in ECPInt.
 ECPInt:  NShTT=  127765 NPrTT=  468030 LenC2=   96802 LenP2D=  221511.
 LDataN:  DoStor=T MaxTD1= 8 Len=  415
 NBasis=  1217 RedAO= T EigKep=  1.36D-04  NBF=  1217
 NBsUse=  1217 1.00D-06 EigRej= -1.00D+00 NBFU=  1217
 Defaulting to unpruned grid for atomic number  74.
 Defaulting to unpruned grid for atomic number  74.
 Defaulting to unpruned grid for atomic number  74.
 Defaulting to unpruned grid for atomic number  74.
 Defaulting to unpruned grid for atomic number  74.
 Defaulting to unpruned grid for atomic number  74.
 Defaulting to unpruned grid for atomic number  74.
 Defaulting to unpruned grid for atomic number  74.
 Initial guess from the checkpoint file:  "a.chk"
 B after Tr=     0.001163   -0.001773   -0.000077
         Rot=    1.000000    0.000006    0.000006    0.000072 Ang=   0.01 deg.
 Requested convergence on RMS density matrix=1.00D-08 within  64 cycles.
 Requested convergence on MAX density matrix=1.00D-06.
 Requested convergence on             energy=1.00D-06.
 No special actions if energy rises.
 Defaulting to unpruned grid for atomic number  74.
 Defaulting to unpruned grid for atomic number  74.
 Defaulting to unpruned grid for atomic number  74.
 Defaulting to unpruned grid for atomic number  74.
 Defaulting to unpruned grid for atomic number  74.
 Defaulting to unpruned grid for atomic number  74.
 Defaulting to unpruned grid for atomic number  74.
 Defaulting to unpruned grid for atomic number  74.
 Defaulting to unpruned grid for atomic number  74.
 Defaulting to unpruned grid for atomic number  74.
 Defaulting to unpruned grid for atomic number  74.
 Defaulting to unpruned grid for atomic number  74.
 Defaulting to unpruned grid for atomic number  74.
 Defaulting to unpruned grid for atomic number  74.
 Defaulting to unpruned grid for atomic number  74.
 Defaulting to unpruned grid for atomic number  74.
 Defaulting to unpruned grid for atomic number  74.
 Defaulting to unpruned grid for atomic number  74.
 Defaulting to unpruned grid for atomic number  74.
 Defaulting to unpruned grid for atomic number  74.
 Defaulting to unpruned grid for atomic number  74.
 Defaulting to unpruned grid for atomic number  74.
 Defaulting to unpruned grid for atomic number  74.
 Defaulting to unpruned grid for atomic number  74.
 Defaulting to unpruned grid for atomic number  74.
 Defaulting to unpruned grid for atomic number  74.
 Defaulting to unpruned grid for atomic number  74.
 Defaulting to unpruned grid for atomic number  74.
 Defaulting to unpruned grid for atomic number  74.
 Defaulting to unpruned grid for atomic number  74.
 Defaulting to unpruned grid for atomic number  74.
 Defaulting to unpruned grid for atomic number  74.
 Defaulting to unpruned grid for atomic number  74.
 Defaulting to unpruned grid for atomic number  74.
 Defaulting to unpruned grid for atomic number  74.
 Defaulting to unpruned grid for atomic number  74.
 Defaulting to unpruned grid for atomic number  74.
 Defaulting to unpruned grid for atomic number  74.
 Defaulting to unpruned grid for atomic number  74.
 Defaulting to unpruned grid for atomic number  74.
 Defaulting to unpruned grid for atomic number  74.
 Defaulting to unpruned grid for atomic number  74.
 Defaulting to unpruned grid for atomic number  74.
 Defaulting to unpruned grid for atomic number  74.
 Defaulting to unpruned grid for atomic number  74.
 Defaulting to unpruned grid for atomic number  74.
 Defaulting to unpruned grid for atomic number  74.
 Defaulting to unpruned grid for atomic number  74.
 Defaulting to unpruned grid for atomic number  74.
 Defaulting to unpruned grid for atomic number  74.
 Defaulting to unpruned grid for atomic number  74.
 Defaulting to unpruned grid for atomic number  74.
 Defaulting to unpruned grid for atomic number  74.
 Defaulting to unpruned grid for atomic number  74.
 Defaulting to unpruned grid for atomic number  74.
 Defaulting to unpruned grid for atomic number  74.
 Inv3:  Mode=1 IEnd=    86768652.
 Iteration    1 A*A^-1 deviation from unit magnitude is 3.33D-15 for   4328.
 Iteration    1 A*A^-1 deviation from orthogonality  is 3.48D-15 for    889     26.
 Iteration    1 A^-1*A deviation from unit magnitude is 4.00D-15 for   4679.
 Iteration    1 A^-1*A deviation from orthogonality  is 3.27D-09 for   4440   3645.
 Iteration    2 A*A^-1 deviation from unit magnitude is 4.00D-15 for   1259.
 Iteration    2 A*A^-1 deviation from orthogonality  is 3.55D-15 for   5069   2656.
 Iteration    2 A^-1*A deviation from unit magnitude is 1.11D-15 for   1635.
 Iteration    2 A^-1*A deviation from orthogonality  is 5.17D-16 for   4309   4287.
 Error on total polarization charges =  0.01596
 SCF Done:  E(RwB97XD) =  -7327.70037196     A.U. after   11 cycles
            NFock= 11  Conv=0.46D-08     -V/T= 2.0832
 SMD-CDS (non-electrostatic) energy       (kcal/mol) =      -3.66
 (included in total energy above)
 QCSCF skips out because SCF is already converged.

 **********************************************************************

            Population analysis using the SCF Density.

 **********************************************************************

 Alpha  occ. eigenvalues -- -197.29278-130.00149-130.00127-130.00048-101.47594
 Alpha  occ. eigenvalues --  -22.62414 -19.33557 -19.33539 -19.33536 -19.33513
 Alpha  occ. eigenvalues --  -19.30690 -19.30666 -19.30660 -19.30651 -19.30650
 Alpha  occ. eigenvalues --  -19.30641 -19.30614 -19.30585 -19.30495 -19.30306
 Alpha  occ. eigenvalues --  -19.30287 -19.30038 -19.29326 -19.29322 -19.29293
 Alpha  occ. eigenvalues --  -19.29283 -19.29281 -19.29271 -19.29262 -19.29207
 Alpha  occ. eigenvalues --  -19.29182 -19.29165 -19.29148 -19.29132 -19.29112
 Alpha  occ. eigenvalues --  -19.29104 -19.29101 -19.29090 -19.29072 -19.29065
 Alpha  occ. eigenvalues --  -19.29037 -19.28981 -19.28956 -19.28947 -19.28920
 Alpha  occ. eigenvalues --  -19.28729 -19.11369 -19.11361 -19.11352 -13.37552
 Alpha  occ. eigenvalues --  -13.37530 -13.37440 -10.70481 -10.70474 -10.70474
 Alpha  occ. eigenvalues --  -10.70459 -10.70452 -10.70452 -10.70371 -10.70364
 Alpha  occ. eigenvalues --  -10.70361 -10.29793 -10.29313 -10.29255 -10.29056
 Alpha  occ. eigenvalues --  -10.28963 -10.28961 -10.28099 -10.27564  -9.38051
 Alpha  occ. eigenvalues --   -7.12872  -7.12833  -7.12832  -3.23281  -3.23264
 Alpha  occ. eigenvalues --   -3.23261  -3.23255  -3.23245  -3.23239  -3.23181
 Alpha  occ. eigenvalues --   -3.23177  -3.23134  -3.22902  -3.22896  -3.22637
 Alpha  occ. eigenvalues --   -2.91688  -1.94076  -1.94047  -1.94035  -1.87685
 Alpha  occ. eigenvalues --   -1.87626  -1.87600  -1.87540  -1.87455  -1.87438
 Alpha  occ. eigenvalues --   -1.87432  -1.87396  -1.87347  -1.87213  -1.87184
 Alpha  occ. eigenvalues --   -1.86979  -1.86591  -1.86472  -1.86466  -1.86439
 Alpha  occ. eigenvalues --   -1.86417  -1.86372  -1.86302  -1.86286  -1.86264
 Alpha  occ. eigenvalues --   -1.86249  -1.86220  -1.86188  -1.86112  -1.86086
 Alpha  occ. eigenvalues --   -1.86082  -1.86050  -1.86011  -1.85954  -1.85934
 Alpha  occ. eigenvalues --   -1.85873  -1.85838  -1.85745  -1.85610  -1.85539
 Alpha  occ. eigenvalues --   -1.51236  -1.51215  -1.51126  -1.12968  -1.11204
 Alpha  occ. eigenvalues --   -1.11106  -1.11099  -1.08908  -1.08490  -1.08435
 Alpha  occ. eigenvalues --   -1.08260  -1.07508  -1.07450  -1.07423  -1.06862
 Alpha  occ. eigenvalues --   -1.06837  -1.06802  -1.06268  -1.06228  -1.05297
 Alpha  occ. eigenvalues --   -1.05291  -1.04941  -1.04930  -1.04901  -1.04177
 Alpha  occ. eigenvalues --   -1.04172  -1.04139  -1.03993  -1.03975  -1.03963
 Alpha  occ. eigenvalues --   -1.03911  -1.03855  -1.03839  -1.03723  -1.03678
 Alpha  occ. eigenvalues --   -1.03586  -1.03531  -1.03253  -1.03221  -1.03096
 Alpha  occ. eigenvalues --   -1.03081  -1.03016  -1.02880  -0.94380  -0.86701
 Alpha  occ. eigenvalues --   -0.86680  -0.86596  -0.86532  -0.86513  -0.86507
 Alpha  occ. eigenvalues --   -0.86489  -0.86484  -0.86406  -0.86389  -0.82810
 Alpha  occ. eigenvalues --   -0.79776  -0.70754  -0.69776  -0.68017  -0.64542
 Alpha  occ. eigenvalues --   -0.63909  -0.63851  -0.63833  -0.63233  -0.63203
 Alpha  occ. eigenvalues --   -0.63099  -0.63029  -0.62608  -0.62540  -0.61896
 Alpha  occ. eigenvalues --   -0.61553  -0.61534  -0.61441  -0.61188  -0.61172
 Alpha  occ. eigenvalues --   -0.61130  -0.60368  -0.59405  -0.59390  -0.59381
 Alpha  occ. eigenvalues --   -0.59331  -0.59307  -0.58678  -0.57955  -0.57922
 Alpha  occ. eigenvalues --   -0.57856  -0.57011  -0.56976  -0.56938  -0.56237
 Alpha  occ. eigenvalues --   -0.56194  -0.56051  -0.55664  -0.54817  -0.54766
 Alpha  occ. eigenvalues --   -0.54723  -0.54568  -0.54199  -0.54090  -0.54038
 Alpha  occ. eigenvalues --   -0.53992  -0.53903  -0.53234  -0.53180  -0.53058
 Alpha  occ. eigenvalues --   -0.52982  -0.52868  -0.52693  -0.52645  -0.52602
 Alpha  occ. eigenvalues --   -0.52556  -0.52495  -0.52436  -0.52415  -0.51547
 Alpha  occ. eigenvalues --   -0.51522  -0.51341  -0.51296  -0.51275  -0.51215
 Alpha  occ. eigenvalues --   -0.51139  -0.51102  -0.51006  -0.50746  -0.50564
 Alpha  occ. eigenvalues --   -0.50557  -0.50530  -0.49884  -0.49877  -0.49265
 Alpha  occ. eigenvalues --   -0.49244  -0.49223  -0.49171  -0.49125  -0.49033
 Alpha  occ. eigenvalues --   -0.48860  -0.48043  -0.47993  -0.47879  -0.47664
 Alpha  occ. eigenvalues --   -0.47328  -0.47267  -0.47208  -0.46979  -0.46933
 Alpha  occ. eigenvalues --   -0.46824  -0.46554  -0.46526  -0.46417  -0.46171
 Alpha  occ. eigenvalues --   -0.46108  -0.46051  -0.45592  -0.45060  -0.44880
 Alpha  occ. eigenvalues --   -0.44848  -0.44144  -0.44121  -0.43979  -0.43549
 Alpha  occ. eigenvalues --   -0.43280  -0.43221  -0.43093  -0.43075  -0.43031
 Alpha  occ. eigenvalues --   -0.42704  -0.42679  -0.42641  -0.42571  -0.42560
 Alpha  occ. eigenvalues --   -0.42484  -0.42438  -0.42424  -0.42268  -0.42257
 Alpha  occ. eigenvalues --   -0.42221  -0.42001  -0.41879  -0.41821  -0.41808
 Alpha  occ. eigenvalues --   -0.41199  -0.41192  -0.41143  -0.41041  -0.40536
 Alpha  occ. eigenvalues --   -0.40524  -0.40500  -0.40385  -0.39417  -0.39390
 Alpha  occ. eigenvalues --   -0.36841  -0.32530  -0.28793  -0.24509  -0.24477
 Alpha  occ. eigenvalues --   -0.23166
 Alpha virt. eigenvalues --   -0.09317  -0.09116  -0.08337  -0.08284  -0.06911
 Alpha virt. eigenvalues --   -0.06846  -0.06761  -0.04328  -0.04048  -0.04014
 Alpha virt. eigenvalues --   -0.03656  -0.03489  -0.03406  -0.03174  -0.03047
 Alpha virt. eigenvalues --   -0.02991  -0.02959  -0.02171  -0.02136  -0.02099
 Alpha virt. eigenvalues --   -0.01452  -0.01418  -0.01349  -0.01257  -0.01165
 Alpha virt. eigenvalues --   -0.00016   0.00002   0.00068   0.01456   0.01477
 Alpha virt. eigenvalues --    0.01911   0.01958   0.02047   0.02185   0.02222
 Alpha virt. eigenvalues --    0.02235   0.02261   0.02370   0.02791   0.02864
 Alpha virt. eigenvalues --    0.02955   0.03007   0.03070   0.04279   0.04583
 Alpha virt. eigenvalues --    0.06800   0.07287   0.07486   0.07565   0.07758
 Alpha virt. eigenvalues --    0.08040   0.08459   0.08513   0.08778   0.09153
 Alpha virt. eigenvalues --    0.09329   0.09385   0.09647   0.09877   0.10245
 Alpha virt. eigenvalues --    0.10276   0.10343   0.10400   0.10454   0.10629
 Alpha virt. eigenvalues --    0.10890   0.11065   0.11083   0.11649   0.11729
 Alpha virt. eigenvalues --    0.12306   0.13105   0.13241   0.13353   0.13575
 Alpha virt. eigenvalues --    0.13745   0.14401   0.14564   0.14656   0.15009
 Alpha virt. eigenvalues --    0.15530   0.16124   0.16358   0.16552   0.16742
 Alpha virt. eigenvalues --    0.16761   0.16888   0.17099   0.17249   0.17669
 Alpha virt. eigenvalues --    0.17873   0.18142   0.18201   0.18362   0.18595
 Alpha virt. eigenvalues --    0.18735   0.18983   0.19262   0.19363   0.19499
 Alpha virt. eigenvalues --    0.19612   0.20174   0.20307   0.20414   0.20641
 Alpha virt. eigenvalues --    0.20709   0.20876   0.20918   0.21296   0.21368
 Alpha virt. eigenvalues --    0.21452   0.21594   0.21672   0.21864   0.22149
 Alpha virt. eigenvalues --    0.22450   0.22722   0.22935   0.23180   0.23330
 Alpha virt. eigenvalues --    0.23524   0.23876   0.24040   0.24243   0.24553
 Alpha virt. eigenvalues --    0.24760   0.25192   0.25557   0.25630   0.25912
 Alpha virt. eigenvalues --    0.26056   0.26242   0.26463   0.26580   0.26775
 Alpha virt. eigenvalues --    0.27061   0.27242   0.27427   0.27470   0.27709
 Alpha virt. eigenvalues --    0.28031   0.28284   0.28337   0.28640   0.28716
 Alpha virt. eigenvalues --    0.29289   0.29580   0.29890   0.30185   0.30460
 Alpha virt. eigenvalues --    0.30622   0.30988   0.31168   0.31725   0.31785
 Alpha virt. eigenvalues --    0.32236   0.34829   0.35245   0.35840   0.36317
 Alpha virt. eigenvalues --    0.36669   0.36921   0.37231   0.38118   0.38456
 Alpha virt. eigenvalues --    0.38696   0.39222   0.39540   0.39745   0.40292
 Alpha virt. eigenvalues --    0.40734   0.40898   0.41044   0.41151   0.41752
 Alpha virt. eigenvalues --    0.42131   0.42368   0.42691   0.43304   0.43558
 Alpha virt. eigenvalues --    0.43750   0.44522   0.44719   0.44844   0.45189
 Alpha virt. eigenvalues --    0.45700   0.46238   0.46507   0.46718   0.47144
 Alpha virt. eigenvalues --    0.47406   0.47652   0.47962   0.48094   0.48198
 Alpha virt. eigenvalues --    0.48358   0.48416   0.48637   0.48848   0.48985
 Alpha virt. eigenvalues --    0.49145   0.49367   0.49530   0.49884   0.49969
 Alpha virt. eigenvalues --    0.50205   0.50549   0.50662   0.50955   0.51209
 Alpha virt. eigenvalues --    0.51681   0.51824   0.51920   0.52342   0.52581
 Alpha virt. eigenvalues --    0.52654   0.52957   0.53043   0.53207   0.53246
 Alpha virt. eigenvalues --    0.53734   0.54090   0.54319   0.54418   0.54668
 Alpha virt. eigenvalues --    0.54998   0.55425   0.55694   0.56446   0.56518
 Alpha virt. eigenvalues --    0.56824   0.57376   0.57732   0.58123   0.58330
 Alpha virt. eigenvalues --    0.58613   0.59141   0.59490   0.60314   0.60830
 Alpha virt. eigenvalues --    0.61456   0.62505   0.62743   0.62770   0.63302
 Alpha virt. eigenvalues --    0.64259   0.65384   0.65663   0.65736   0.65862
 Alpha virt. eigenvalues --    0.66200   0.66844   0.67242   0.67324   0.67556
 Alpha virt. eigenvalues --    0.67881   0.68429   0.69992   0.70534   0.71149
 Alpha virt. eigenvalues --    0.71419   0.71974   0.72081   0.72183   0.72248
 Alpha virt. eigenvalues --    0.72462   0.72623   0.73154   0.73511   0.73980
 Alpha virt. eigenvalues --    0.74624   0.74935   0.75660   0.75751   0.75937
 Alpha virt. eigenvalues --    0.76333   0.76682   0.76860   0.76978   0.77371
 Alpha virt. eigenvalues --    0.77654   0.78480   0.79193   0.79477   0.79611
 Alpha virt. eigenvalues --    0.79801   0.80329   0.80684   0.81067   0.81507
 Alpha virt. eigenvalues --    0.81592   0.81705   0.82067   0.82721   0.83170
 Alpha virt. eigenvalues --    0.84183   0.84342   0.84942   0.85400   0.86107
 Alpha virt. eigenvalues --    0.87141   0.87505   0.88046   0.88139   0.88846
 Alpha virt. eigenvalues --    0.89144   0.89201   0.89548   0.89637   0.90478
 Alpha virt. eigenvalues --    0.90719   0.90829   0.91376   0.91549   0.91700
 Alpha virt. eigenvalues --    0.92676   0.93036   0.93806   0.94027   0.94149
 Alpha virt. eigenvalues --    0.94474   0.94880   0.95990   0.96082   0.96961
 Alpha virt. eigenvalues --    0.96989   0.97272   0.97415   0.97843   0.97987
 Alpha virt. eigenvalues --    0.98264   0.98393   0.98623   0.98676   0.98853
 Alpha virt. eigenvalues --    0.99184   0.99753   1.00150   1.00316   1.00432
 Alpha virt. eigenvalues --    1.00899   1.01435   1.01626   1.01670   1.02143
 Alpha virt. eigenvalues --    1.02203   1.02466   1.02570   1.02675   1.02941
 Alpha virt. eigenvalues --    1.02967   1.03690   1.03995   1.04102   1.04148
 Alpha virt. eigenvalues --    1.04314   1.04429   1.04545   1.04588   1.04836
 Alpha virt. eigenvalues --    1.05034   1.05221   1.05273   1.05567   1.05916
 Alpha virt. eigenvalues --    1.06031   1.06426   1.06727   1.07131   1.07312
 Alpha virt. eigenvalues --    1.07537   1.07971   1.08811   1.09125   1.09371
 Alpha virt. eigenvalues --    1.09393   1.09773   1.10093   1.10217   1.10241
 Alpha virt. eigenvalues --    1.10797   1.10883   1.11067   1.11206   1.11553
 Alpha virt. eigenvalues --    1.11665   1.11739   1.11904   1.12016   1.12647
 Alpha virt. eigenvalues --    1.12897   1.13553   1.13853   1.14452   1.15221
 Alpha virt. eigenvalues --    1.15315   1.15994   1.16301   1.16634   1.17068
 Alpha virt. eigenvalues --    1.17534   1.17702   1.17899   1.18710   1.18959
 Alpha virt. eigenvalues --    1.19842   1.20795   1.21066   1.21284   1.21322
 Alpha virt. eigenvalues --    1.21382   1.22050   1.22137   1.22961   1.23700
 Alpha virt. eigenvalues --    1.25069   1.25820   1.26406   1.26662   1.26794
 Alpha virt. eigenvalues --    1.27166   1.27929   1.28044   1.28580   1.28626
 Alpha virt. eigenvalues --    1.28865   1.29049   1.29079   1.29280   1.29696
 Alpha virt. eigenvalues --    1.30076   1.30176   1.30294   1.30760   1.30933
 Alpha virt. eigenvalues --    1.31036   1.31940   1.32167   1.32931   1.33050
 Alpha virt. eigenvalues --    1.33228   1.33475   1.33647   1.33837   1.33964
 Alpha virt. eigenvalues --    1.34169   1.34309   1.34490   1.34651   1.34844
 Alpha virt. eigenvalues --    1.34878   1.35179   1.35403   1.35670   1.35955
 Alpha virt. eigenvalues --    1.36165   1.36475   1.36609   1.36738   1.36958
 Alpha virt. eigenvalues --    1.37138   1.37315   1.37589   1.37680   1.37862
 Alpha virt. eigenvalues --    1.37933   1.38465   1.38691   1.38973   1.39167
 Alpha virt. eigenvalues --    1.39387   1.39571   1.39714   1.39860   1.40112
 Alpha virt. eigenvalues --    1.40412   1.40584   1.40787   1.40803   1.41002
 Alpha virt. eigenvalues --    1.41194   1.41304   1.41575   1.42070   1.42324
 Alpha virt. eigenvalues --    1.42550   1.43178   1.43237   1.43361   1.43433
 Alpha virt. eigenvalues --    1.43978   1.44168   1.44549   1.45211   1.45622
 Alpha virt. eigenvalues --    1.46403   1.46877   1.47667   1.47861   1.47932
 Alpha virt. eigenvalues --    1.48433   1.48819   1.49302   1.49768   1.50392
 Alpha virt. eigenvalues --    1.50520   1.51037   1.51538   1.51940   1.53330
 Alpha virt. eigenvalues --    1.53560   1.55434   1.55784   1.55839   1.55912
 Alpha virt. eigenvalues --    1.56161   1.56392   1.56706   1.56769   1.57240
 Alpha virt. eigenvalues --    1.57303   1.58161   1.58422   1.59204   1.59256
 Alpha virt. eigenvalues --    1.59725   1.60151   1.60509   1.60602   1.60652
 Alpha virt. eigenvalues --    1.60833   1.61271   1.62290   1.62346   1.62685
 Alpha virt. eigenvalues --    1.64185   1.64404   1.65105   1.65738   1.67147
 Alpha virt. eigenvalues --    1.67780   1.68075   1.69814   1.70594   1.70930
 Alpha virt. eigenvalues --    1.71536   1.71707   1.72563   1.73192   1.74303
 Alpha virt. eigenvalues --    1.75125   1.75195   1.75416   1.75797   1.76601
 Alpha virt. eigenvalues --    1.76707   1.77036   1.77318   1.77714   1.78622
 Alpha virt. eigenvalues --    1.78739   1.79154   1.79402   1.80381   1.80530
 Alpha virt. eigenvalues --    1.81247   1.81518   1.81783   1.82283   1.82746
 Alpha virt. eigenvalues --    1.83060   1.83303   1.83842   1.84353   1.84519
 Alpha virt. eigenvalues --    1.85222   1.85354   1.85713   1.86144   1.86379
 Alpha virt. eigenvalues --    1.86541   1.87242   1.87713   1.88332   1.88680
 Alpha virt. eigenvalues --    1.89356   1.90100   1.90167   1.90523   1.90547
 Alpha virt. eigenvalues --    1.90862   1.91190   1.91556   1.92432   1.93830
 Alpha virt. eigenvalues --    1.94825   1.95238   1.95454   1.95711   1.96161
 Alpha virt. eigenvalues --    1.98518   1.99277   1.99412   1.99561   2.05046
 Alpha virt. eigenvalues --    2.06883   2.07340   2.08169   2.08427   2.08767
 Alpha virt. eigenvalues --    2.09026   2.09413   2.09680   2.10404   2.11050
 Alpha virt. eigenvalues --    2.11497   2.11913   2.12958   2.14862   2.15362
 Alpha virt. eigenvalues --    2.15951   2.16706   2.17205   2.17633   2.17769
 Alpha virt. eigenvalues --    2.20165   2.20613   2.20625   2.20907   2.21294
 Alpha virt. eigenvalues --    2.21586   2.22236   2.24202   2.25354   2.25841
 Alpha virt. eigenvalues --    2.26434   2.26562   2.27379   2.28346   2.28608
 Alpha virt. eigenvalues --    2.29314   2.29675   2.30076   2.33501   2.35776
 Alpha virt. eigenvalues --    2.36522   2.39557   2.40998   2.41086   2.43887
 Alpha virt. eigenvalues --    2.44206   2.50634   2.51910   2.57610   2.64860
 Alpha virt. eigenvalues --    2.64940   2.65087   2.65802   2.66152   2.66545
 Alpha virt. eigenvalues --    2.66816   2.66877   2.66956   2.67065   2.67101
 Alpha virt. eigenvalues --    2.67173   2.67300   2.67383   2.67403   2.67547
 Alpha virt. eigenvalues --    2.67722   2.67794   2.67897   2.67922   2.68022
 Alpha virt. eigenvalues --    2.68928   2.69064   2.69275   2.69406   2.69972
 Alpha virt. eigenvalues --    2.70172   2.70244   2.70426   2.70591   2.70791
 Alpha virt. eigenvalues --    2.70839   2.71409   2.71476   2.71551   2.71619
 Alpha virt. eigenvalues --    2.71716   2.72039   2.72591   2.72862   2.73006
 Alpha virt. eigenvalues --    2.73116   2.73197   2.73267   2.73360   2.73384
 Alpha virt. eigenvalues --    2.73540   2.73771   2.73891   2.73927   2.74046
 Alpha virt. eigenvalues --    2.74132   2.74254   2.74377   2.74623   2.74776
 Alpha virt. eigenvalues --    2.74841   2.75040   2.75301   2.75844   2.76058
 Alpha virt. eigenvalues --    2.76170   2.76297   2.76485   2.76772   2.76953
 Alpha virt. eigenvalues --    2.77101   2.77221   2.77254   2.78386   2.78533
 Alpha virt. eigenvalues --    2.78676   2.78918   2.79968   2.80147   2.80298
 Alpha virt. eigenvalues --    2.81148   2.81722   2.81752   2.82051   2.82233
 Alpha virt. eigenvalues --    2.82295   2.82802   2.83091   2.83314   2.83778
 Alpha virt. eigenvalues --    2.83828   2.83965   2.84087   2.84331   2.85075
 Alpha virt. eigenvalues --    2.85632   2.86152   2.86271   2.86418   2.86602
 Alpha virt. eigenvalues --    2.86681   2.86831   2.86982   2.87952   2.88441
 Alpha virt. eigenvalues --    2.88705   2.89036   2.89578   2.89687   2.89762
 Alpha virt. eigenvalues --    2.89846   2.89949   2.90075   2.90407   2.90481
 Alpha virt. eigenvalues --    2.90637   2.91767   2.91883   2.91925   2.92008
 Alpha virt. eigenvalues --    2.92284   2.92513   2.92707   2.93000   2.93136
 Alpha virt. eigenvalues --    2.93288   2.93592   2.93699   2.94025   2.94153
 Alpha virt. eigenvalues --    2.94208   2.95044   2.95278   2.95490   2.95736
 Alpha virt. eigenvalues --    2.95919   2.95949   2.96418   2.96605   2.96665
 Alpha virt. eigenvalues --    2.96745   2.96963   2.97003   2.97220   2.97509
 Alpha virt. eigenvalues --    2.97583   2.97798   2.97989   2.98413   2.99108
 Alpha virt. eigenvalues --    2.99369   2.99533   2.99759   2.99847   3.00155
 Alpha virt. eigenvalues --    3.00377   3.00588   3.01391   3.01621   3.01832
 Alpha virt. eigenvalues --    3.02789   3.03352   3.03477   3.03857   3.04954
 Alpha virt. eigenvalues --    3.06252   3.06557   3.07013   3.11050   3.11345
 Alpha virt. eigenvalues --    3.11550   3.11605   3.12220   3.12492   3.13689
 Alpha virt. eigenvalues --    3.13819   3.13909   3.16900   3.20140   3.21707
 Alpha virt. eigenvalues --    3.21936   3.23979   3.32696   3.40636   3.41348
 Alpha virt. eigenvalues --    3.42093   3.42536   3.44532   3.44599   3.45460
 Alpha virt. eigenvalues --    3.45727   3.45928   3.46876   3.47080   3.47463
 Alpha virt. eigenvalues --    3.48699   3.50893   3.51584   3.52079   3.53318
 Alpha virt. eigenvalues --    3.53391   3.54222   3.54450   3.54813   3.54935
 Alpha virt. eigenvalues --    3.55107   3.55293   3.55710   3.56308   3.57331
 Alpha virt. eigenvalues --    3.57654   3.58012   3.59209   3.59420   3.60362
 Alpha virt. eigenvalues --    3.60450   3.61070   3.61449   3.61774   3.62318
 Alpha virt. eigenvalues --    3.69757   3.75003  68.64547  68.65606  68.66863
 Alpha virt. eigenvalues --   68.69159  68.72906  68.73814  68.81708  68.82751
 Alpha virt. eigenvalues --   68.83246  68.85971  68.87080  68.88368 576.22977
 Alpha virt. eigenvalues --  576.24010 576.25242 576.27488 576.31248 576.32146
 Alpha virt. eigenvalues --  576.39888 576.40909 576.41388 576.44013 576.45100
 Alpha virt. eigenvalues --  576.46382
          Condensed to atoms (all electrons):
 Mulliken charges:
               1
     1  Cl  -0.931225
     2  C   -0.079099
     3  C    0.040270
     4  C   -0.076387
     5  C   -0.033187
     6  C   -0.030959
     7  C   -0.050323
     8  H    0.028221
     9  H    0.029690
    10  H    0.040236
    11  H    0.036678
    12  H    0.039309
    13  C   -0.088944
    14  C    0.017675
    15  H    0.019189
    16  H    0.039371
    17  H    0.037332
    18  O   -0.662960
    19  O   -0.659529
    20  O   -0.654931
    21  O   -0.661459
    22  W    1.733638
    23  W    1.669559
    24  W    1.679735
    25  W    1.689946
    26  W    1.674519
    27  W    1.725971
    28  W    1.621090
    29  W    1.682864
    30  O   -0.321487
    31  O   -0.366452
    32  O   -0.366167
    33  O   -0.364024
    34  O   -0.663849
    35  O   -0.669959
    36  O   -0.660648
    37  O   -0.662300
    38  O   -0.366055
    39  O   -0.366046
    40  O   -0.292955
    41  O   -0.365850
    42  O   -0.669602
    43  O   -0.662143
    44  O   -0.658286
    45  O   -0.665282
    46  O   -0.366057
    47  O   -0.321197
    48  O   -0.354692
    49  O   -0.364725
    50  W    1.671204
    51  W    1.674208
    52  W    1.676595
    53  W    1.682686
    54  O   -0.722628
    55  O   -0.705814
    56  O   -0.725584
    57  O   -0.720877
    58  O   -0.705750
    59  O   -0.725224
    60  O   -0.723889
    61  O   -0.719742
    62  O   -0.723497
    63  O   -0.707497
    64  O   -0.722151
    65  O   -0.725706
    66  O   -0.800536
    67  O   -0.800186
    68  O   -0.798104
    69  O   -0.808956
    70  K    0.865812
    71  K    0.865481
    72  K    0.861883
    73  V    1.189764
 Sum of Mulliken charges =  -1.00000
 Mulliken charges with hydrogens summed into heavy atoms:
               1
     1  Cl  -0.931225
     2  C   -0.050878
     3  C    0.040270
     4  C   -0.046698
     5  C    0.007049
     6  C    0.005720
     7  C   -0.011015
    13  C   -0.069756
    14  C    0.094378
    18  O   -0.662960
    19  O   -0.659529
    20  O   -0.654931
    21  O   -0.661459
    22  W    1.733638
    23  W    1.669559
    24  W    1.679735
    25  W    1.689946
    26  W    1.674519
    27  W    1.725971
    28  W    1.621090
    29  W    1.682864
    30  O   -0.321487
    31  O   -0.366452
    32  O   -0.366167
    33  O   -0.364024
    34  O   -0.663849
    35  O   -0.669959
    36  O   -0.660648
    37  O   -0.662300
    38  O   -0.366055
    39  O   -0.366046
    40  O   -0.292955
    41  O   -0.365850
    42  O   -0.669602
    43  O   -0.662143
    44  O   -0.658286
    45  O   -0.665282
    46  O   -0.366057
    47  O   -0.321197
    48  O   -0.354692
    49  O   -0.364725
    50  W    1.671204
    51  W    1.674208
    52  W    1.676595
    53  W    1.682686
    54  O   -0.722628
    55  O   -0.705814
    56  O   -0.725584
    57  O   -0.720877
    58  O   -0.705750
    59  O   -0.725224
    60  O   -0.723889
    61  O   -0.719742
    62  O   -0.723497
    63  O   -0.707497
    64  O   -0.722151
    65  O   -0.725706
    66  O   -0.800536
    67  O   -0.800186
    68  O   -0.798104
    69  O   -0.808956
    70  K    0.865812
    71  K    0.865481
    72  K    0.861883
    73  V    1.189764
 Electronic spatial extent (au):  <R**2>=         317386.0060
 Charge=             -1.0000 electrons
 Dipole moment (field-independent basis, Debye):
    X=             51.9834    Y=            -50.8572    Z=            -38.4952  Tot=             82.2837
 Quadrupole moment (field-independent basis, Debye-Ang):
   XX=          -1074.6049   YY=           -872.1350   ZZ=           -910.0642
   XY=            455.6192   XZ=            465.5845   YZ=           -472.6102
 Traceless Quadrupole moment (field-independent basis, Debye-Ang):
   XX=           -122.3369   YY=             80.1331   ZZ=             42.2038
   XY=            455.6192   XZ=            465.5845   YZ=           -472.6102
 Octapole moment (field-independent basis, Debye-Ang**2):
  XXX=          13716.4593  YYY=           -917.5290  ZZZ=         -19072.7116  XYY=           5996.9292
  XXY=          -3741.0647  XXZ=          -9606.5625  XZZ=           7403.2687  YZZ=          -4106.6554
  YYZ=          -8852.7078  XYZ=           4802.5484
 Hexadecapole moment (field-independent basis, Debye-Ang**3):
 XXXX=        -162724.0769 YYYY=         -51100.3628 ZZZZ=        -345346.9260 XXXY=          38408.6836
 XXXZ=         125452.8270 YYYX=          19666.0726 YYYZ=         -10993.1473 ZZZX=         128197.2815
 ZZZY=         -34757.4565 XXYY=         -55529.7389 XXZZ=        -109612.4494 YYZZ=         -97563.9817
 XXYZ=         -43057.7060 YYXZ=          60555.8550 ZZXY=          50296.7145
 N-N= 2.099863819211D+04 E-N=-5.908202864680D+04  KE= 6.765169863885D+03
   1 Symmetry operations used in ECPInt.
 ECPInt:  NShTT=  127765 NPrTT=  468030 LenC2=   96802 LenP2D=  221511.
 LDataN:  DoStor=T MaxTD1= 9 Len=  602
 D1PCM: PCM CHGder 1st derivatives, ID1Alg=3 FixD1E=F DoIter=F DoCFld=F I1PDM=0.
 Calling FoFJK, ICntrl=      2127 FMM=T ISym2X=0 I1Cent= 0 IOpClX= 0 NMat=1 NMatS=1 NMatT=0.
 Defaulting to unpruned grid for atomic number  74.
 Defaulting to unpruned grid for atomic number  74.
 Defaulting to unpruned grid for atomic number  74.
 Defaulting to unpruned grid for atomic number  74.
 Defaulting to unpruned grid for atomic number  74.
 Defaulting to unpruned grid for atomic number  74.
 Defaulting to unpruned grid for atomic number  74.
 Defaulting to unpruned grid for atomic number  74.
 Defaulting to unpruned grid for atomic number  74.
 Defaulting to unpruned grid for atomic number  74.
 Defaulting to unpruned grid for atomic number  74.
 Defaulting to unpruned grid for atomic number  74.
 Defaulting to unpruned grid for atomic number  74.
 Defaulting to unpruned grid for atomic number  74.
 Defaulting to unpruned grid for atomic number  74.
 Defaulting to unpruned grid for atomic number  74.
 Defaulting to unpruned grid for atomic number  74.
 Defaulting to unpruned grid for atomic number  74.
 Defaulting to unpruned grid for atomic number  74.
 Defaulting to unpruned grid for atomic number  74.
 Defaulting to unpruned grid for atomic number  74.
 Defaulting to unpruned grid for atomic number  74.
 Defaulting to unpruned grid for atomic number  74.
 Defaulting to unpruned grid for atomic number  74.
 Defaulting to unpruned grid for atomic number  74.
 Defaulting to unpruned grid for atomic number  74.
 Defaulting to unpruned grid for atomic number  74.
 Defaulting to unpruned grid for atomic number  74.
 Defaulting to unpruned grid for atomic number  74.
 Defaulting to unpruned grid for atomic number  74.
 Defaulting to unpruned grid for atomic number  74.
 Defaulting to unpruned grid for atomic number  74.
 Defaulting to unpruned grid for atomic number  74.
 Defaulting to unpruned grid for atomic number  74.
 Defaulting to unpruned grid for atomic number  74.
 Defaulting to unpruned grid for atomic number  74.
 Defaulting to unpruned grid for atomic number  74.
 Defaulting to unpruned grid for atomic number  74.
 Defaulting to unpruned grid for atomic number  74.
 Defaulting to unpruned grid for atomic number  74.
 Defaulting to unpruned grid for atomic number  74.
 Defaulting to unpruned grid for atomic number  74.
 Defaulting to unpruned grid for atomic number  74.
 Defaulting to unpruned grid for atomic number  74.
 Defaulting to unpruned grid for atomic number  74.
 Defaulting to unpruned grid for atomic number  74.
 Defaulting to unpruned grid for atomic number  74.
 Defaulting to unpruned grid for atomic number  74.
 Defaulting to unpruned grid for atomic number  74.
 Defaulting to unpruned grid for atomic number  74.
 Defaulting to unpruned grid for atomic number  74.
 Defaulting to unpruned grid for atomic number  74.
 Defaulting to unpruned grid for atomic number  74.
 Defaulting to unpruned grid for atomic number  74.
 Defaulting to unpruned grid for atomic number  74.
 Defaulting to unpruned grid for atomic number  74.
 -------------------------------------------------------------------
 Center     Atomic                   Forces (Hartrees/Bohr)
 Number     Number              X              Y              Z
 -------------------------------------------------------------------
      1       17          -0.002057064    0.006688577    0.002163303
      2        6          -0.001378875   -0.000527813   -0.001399302
      3        6          -0.000749558   -0.001653093    0.002708777
      4        6           0.001356131    0.001573646    0.000839515
      5        6           0.000422131    0.000353107    0.001172354
      6        6          -0.000489618    0.000074316    0.001007257
      7        6          -0.001087833   -0.000938130    0.000529282
      8        1          -0.000147034    0.000171670   -0.000281259
      9        1          -0.000190804    0.000093833   -0.000160014
     10        1           0.000027466   -0.000610137   -0.000010917
     11        1          -0.000000197   -0.000173642    0.000277220
     12        1           0.000455093   -0.000203786    0.000144988
     13        6           0.009542459    0.008490523   -0.007163346
     14        6          -0.004563248   -0.014176354    0.000416737
     15        1          -0.001027275    0.000646151    0.000141118
     16        1          -0.001318632    0.001200791    0.000303182
     17        1          -0.002221589    0.001939261    0.000346771
     18        8          -0.002946544    0.000098797    0.001098165
     19        8           0.003114341   -0.000649698    0.001113448
     20        8           0.002177600   -0.002939312   -0.000625240
     21        8          -0.002182600    0.002117677   -0.001144007
     22       74           0.001280121    0.009319174   -0.008957758
     23       74          -0.002146795   -0.009221569   -0.009643309
     24       74           0.005911548    0.007693821    0.009321982
     25       74          -0.006493610   -0.006745343    0.009733829
     26       74           0.008145500   -0.007256513   -0.009974109
     27       74          -0.008018066    0.007769283   -0.009542566
     28       74          -0.011137552    0.003025465    0.009811732
     29       74           0.010772788   -0.001863935    0.009959735
     30        8          -0.000688829   -0.002936950    0.003103029
     31        8           0.000658936    0.003187641    0.003443719
     32        8          -0.002031569   -0.002510590   -0.003413895
     33        8           0.002213683    0.002513741   -0.003622682
     34        8          -0.000907142   -0.001033491    0.002962195
     35        8           0.001393025    0.000237339    0.003002519
     36        8           0.000556736   -0.001544569   -0.002932145
     37        8          -0.000255075    0.001233527   -0.003029837
     38        8          -0.004300736   -0.001756812   -0.000894679
     39        8           0.004326876    0.001585897   -0.000972525
     40        8           0.002241583   -0.006203136    0.000966282
     41        8          -0.001386076    0.004652019    0.001106020
     42        8          -0.001842372   -0.002446982    0.001415005
     43        8           0.002302756    0.002133875    0.001031046
     44        8          -0.000007942   -0.003359573   -0.000635288
     45        8           0.000536065    0.002892832   -0.001346619
     46        8          -0.002725642    0.002214310    0.003230735
     47        8           0.002932791   -0.001991276    0.003014353
     48        8           0.003874192   -0.000844644   -0.003516794
     49        8          -0.003694263    0.000654163   -0.003345995
     50       74           0.013362404    0.004853383    0.002793102
     51       74          -0.013510681   -0.004018713    0.003142178
     52       74          -0.005172545    0.015383536   -0.003285188
     53       74           0.004290310   -0.013844517   -0.002871726
     54        8          -0.000371462    0.001183894    0.002052818
     55        8           0.000610769   -0.001588969    0.002071894
     56        8           0.001687590   -0.000071832   -0.002214110
     57        8          -0.001172871   -0.000735265   -0.002137253
     58        8           0.000294746   -0.002189302    0.000767698
     59        8           0.000517110    0.002187482    0.001480245
     60        8          -0.001291869   -0.001851062   -0.001519666
     61        8           0.001607068    0.001525050   -0.001434310
     62        8          -0.001112842    0.001809090    0.000865296
     63        8           0.001015951   -0.002396181    0.000406700
     64        8           0.002204637   -0.000155925   -0.001132803
     65        8          -0.002237470   -0.000462799   -0.000880435
     66        8          -0.025217144   -0.004878139    0.016327460
     67        8           0.025755701    0.005371010    0.016274668
     68        8           0.011098833   -0.024434584   -0.016414094
     69        8          -0.010727155    0.023075619   -0.016537653
     70       19           0.000263118   -0.000563417   -0.000456182
     71       19           0.000693180    0.000227267    0.000350463
     72       19          -0.000534958    0.000156985    0.000372657
     73       23          -0.000297703    0.000443296    0.000226229
 -------------------------------------------------------------------
 Cartesian Forces:  Max     0.025755701 RMS     0.005791503

 GradGradGradGradGradGradGradGradGradGradGradGradGradGradGradGradGradGrad
 Berny optimization.
 Search for a local minimum.
 Step number   1 out of a maximum of    2
 All quantities printed in internal units (Hartrees-Bohrs-Radians)
 Second derivative matrix not updated -- first step.
 ITU=  0
     Eigenvalues ---   -0.00000   0.00000   0.00000   0.00010   0.00091
     Eigenvalues ---    0.00092   0.00258   0.00569   0.00617   0.01646
     Eigenvalues ---    0.01985   0.02895   0.02950   0.03203   0.03398
     Eigenvalues ---    0.03446   0.03712   0.03721   0.04145   0.04506
     Eigenvalues ---    0.04583   0.04593   0.04604   0.04818   0.04838
     Eigenvalues ---    0.05002   0.05342   0.05547   0.05565   0.06346
     Eigenvalues ---    0.06397   0.06524   0.06785   0.06865   0.07050
     Eigenvalues ---    0.07313   0.07361   0.07618   0.08321   0.08397
     Eigenvalues ---    0.08708   0.08730   0.08899   0.08950   0.09748
     Eigenvalues ---    0.09893   0.10071   0.10356   0.10411   0.10473
     Eigenvalues ---    0.10829   0.10877   0.11504   0.11581   0.11969
     Eigenvalues ---    0.11995   0.12068   0.12454   0.12562   0.12642
     Eigenvalues ---    0.12673   0.12722   0.12869   0.12944   0.13052
     Eigenvalues ---    0.13820   0.13899   0.14234   0.14493   0.14760
     Eigenvalues ---    0.16733   0.16763   0.16968   0.17167   0.17549
     Eigenvalues ---    0.17658   0.18539   0.19690   0.19850   0.20223
     Eigenvalues ---    0.20760   0.21021   0.21724   0.21815   0.22031
     Eigenvalues ---    0.22359   0.23002   0.23317   0.23814   0.23838
     Eigenvalues ---    0.24546   0.24649   0.24813   0.25707   0.25900
     Eigenvalues ---    0.26098   0.26307   0.27484   0.27569   0.27784
     Eigenvalues ---    0.28265   0.28307   0.28754   0.29496   0.30021
     Eigenvalues ---    0.30542   0.30573   0.30655   0.30682   0.30695
     Eigenvalues ---    0.30824   0.31156   0.31288   0.31445   0.32139
     Eigenvalues ---    0.32419   0.32487   0.32603   0.32892   0.33439
     Eigenvalues ---    0.33523   0.35262   0.35437   0.35772   0.36789
     Eigenvalues ---    0.37350   0.37518   0.37559   0.38022   0.38361
     Eigenvalues ---    0.38721   0.39071   0.40128   0.40161   0.41191
     Eigenvalues ---    0.42154   0.42266   0.43618   0.43871   0.44989
     Eigenvalues ---    0.45226   0.45488   0.45763   0.47303   0.48011
     Eigenvalues ---    0.48292   0.48560   0.48759   0.49429   0.49525
     Eigenvalues ---    0.49771   0.50515   0.51356   0.51432   0.52009
     Eigenvalues ---    0.52914   0.53424   0.55428   0.58809   0.64433
     Eigenvalues ---    0.67555   0.76867   0.81709   0.82932   0.96836
     Eigenvalues ---    0.97261   0.98798   0.99696   1.02095   1.04454
     Eigenvalues ---    1.07478   1.11509   1.12202   1.12318   1.15848
     Eigenvalues ---    1.19302   1.19820   1.20637   1.22347   1.22827
     Eigenvalues ---    1.23147   1.25854   1.26549   1.26824   1.27289
     Eigenvalues ---    1.27676   1.29022   1.29437   1.44942   1.45734
     Eigenvalues ---    1.45952   1.48219   1.51216   1.51697   1.52159
     Eigenvalues ---    1.52472   1.55412   1.55511   1.56248   1.58074
     Eigenvalues ---    1.58336   1.59702   1.61337   1.65261   1.67360
     Eigenvalues ---    1.74659   1.78797   1.82128   1.84255   1.87161
     Eigenvalues ---    1.93397   1.96496   3.12372
 Eigenvalue     1 is  -1.11D-16 should be greater than     0.000000 Eigenvector:
                          Y16       Y14       Y17       Y15       Y13
   1                    0.17508   0.17508   0.17508   0.17508   0.17508
                          Y8        Y3        Y9        Y2        Y4
   1                    0.17508   0.17508   0.17508   0.17508   0.17508
 Eigenvalue     2 is   2.85D-07 Eigenvector:
                          Y16       X16       X11       Y11       Y14
   1                    0.33891  -0.26369   0.26170  -0.25138   0.24868
                          Y15       Y17       Y13       X14       X6
   1                    0.23546   0.21262   0.19097  -0.18657   0.18270
 Eigenvalue     3 is   2.87D-06 Eigenvector:
                          X9        X10       Y12       Y9        X12
   1                    0.33019   0.28958   0.27867  -0.26015  -0.25527
                          Y8        Y10       X15       X8        Y17
   1                    0.24889  -0.23033   0.21743  -0.21704   0.20667
 Quadratic step=1.352D+01 exceeds max=3.000D-01 adjusted using Lamda=-6.625D-03.
 Angle between NR and scaled steps=  44.39 degrees.
 Angle between quadratic step and forces=  67.29 degrees.
 Linear search not attempted -- first point.
 B after Tr=     0.004658    0.003132    0.002217
         Rot=    1.000000   -0.000177    0.000078    0.000271 Ang=  -0.04 deg.
 Variable       Old X    -DE/DX   Delta X   Delta X   Delta X     New X
                                 (Linear)    (Quad)   (Total)
    X1      -18.85597  -0.00206   0.00000  -0.00200   0.00772 -18.84825
    Y1       15.04793   0.00669   0.00000   0.00679   0.01313  15.06105
    Z1       19.81485   0.00216   0.00000   0.00233   0.00693  19.82177
    X2      -15.70444  -0.00138   0.00000  -0.01277  -0.00739 -15.71183
    Y2        8.00916  -0.00053   0.00000  -0.01669  -0.01321   7.99594
    Z2       23.11608  -0.00140   0.00000  -0.00858  -0.00599  23.11009
    X3      -17.14800  -0.00075   0.00000   0.00335   0.00872 -17.13928
    Y3        7.40063  -0.00165   0.00000  -0.04268  -0.03767   7.36296
    Z3       20.96796   0.00271   0.00000  -0.00980  -0.00766  20.96030
    X4      -18.91283   0.00136   0.00000  -0.00620  -0.00193 -18.91476
    Y4        5.42275   0.00157   0.00000  -0.02553  -0.01964   5.40312
    Z4       21.16200   0.00084   0.00000   0.02188   0.02305  21.18505
    X5      -19.25219   0.00042   0.00000  -0.01289  -0.00966 -19.26185
    Y5        4.12366   0.00035   0.00000  -0.00314   0.00214   4.12580
    Z5       23.42217   0.00117   0.00000   0.03618   0.03684  23.45901
    X6      -17.81747  -0.00049   0.00000  -0.01756  -0.01431 -17.83179
    Y6        4.76193   0.00007   0.00000   0.01154   0.01529   4.77722
    Z6       25.53997   0.00101   0.00000   0.03359   0.03471  25.57468
    X7      -16.03759  -0.00109   0.00000  -0.01623  -0.01190 -16.04949
    Y7        6.70280  -0.00094   0.00000   0.00681   0.00966   6.71246
    Z7       25.37315   0.00053   0.00000   0.00893   0.01102  25.38417
    X8      -14.30803  -0.00015   0.00000  -0.01201  -0.00580 -14.31383
    Y8        9.52657   0.00017   0.00000  -0.01742  -0.01467   9.51190
    Z8       23.03195  -0.00028   0.00000  -0.02287  -0.01952  23.01242
    X9      -20.03350  -0.00019   0.00000  -0.00771  -0.00346 -20.03696
    Y9        4.91109   0.00009   0.00000  -0.03691  -0.02983   4.88126
    Z9       19.50277  -0.00016   0.00000   0.02559   0.02640  19.52916
   X10      -20.64565   0.00003   0.00000  -0.00944  -0.00706 -20.65271
   Y10        2.60495  -0.00061   0.00000  -0.00710  -0.00111   2.60383
   Z10       23.53495  -0.00001   0.00000   0.04224   0.04215  23.57709
   X11      -18.07435  -0.00000   0.00000  -0.01427  -0.01185 -18.08620
   Y11        3.74161  -0.00017   0.00000   0.02227   0.02553   3.76714
   Z11       27.31476   0.00028   0.00000   0.04078   0.04150  27.35627
   X12      -14.91223   0.00046   0.00000  -0.00651  -0.00216 -14.91439
   Y12        7.21449  -0.00020   0.00000   0.01591   0.01757   7.23206
   Z12       27.02734   0.00014   0.00000   0.00073   0.00317  27.03052
   X13      -16.90326   0.00954   0.00000   0.02777   0.03423 -16.86903
   Y13        8.74676   0.00849   0.00000  -0.08928  -0.08356   8.66320
   Z13       18.56401  -0.00716   0.00000  -0.04641  -0.04376  18.52025
   X14      -15.36225  -0.00456   0.00000  -0.01347  -0.00588 -15.36813
   Y14       10.71195  -0.01418   0.00000  -0.08715  -0.08207  10.62988
   Z14       18.08902   0.00042   0.00000  -0.05347  -0.04990  18.03912
   X15      -18.11650  -0.00103   0.00000   0.02030   0.02661 -18.08988
   Y15        8.05087   0.00065   0.00000  -0.09777  -0.09085   7.96003
   Z15       17.03779   0.00014   0.00000  -0.03631  -0.03411  17.00368
   X16      -15.27494  -0.00132   0.00000  -0.04140  -0.03305 -15.30799
   Y16       11.55462   0.00120   0.00000  -0.06989  -0.06418  11.49044
   Z16       16.20936   0.00030   0.00000  -0.04721  -0.04333  16.16603
   X17      -14.00977  -0.00222   0.00000  -0.08203  -0.07422 -14.08399
   Y17       11.42423   0.00194   0.00000  -0.00054   0.00335  11.42758
   Z17       19.47694   0.00035   0.00000  -0.03121  -0.02715  19.44979
   X18       -1.90509  -0.00295   0.00000  -0.01455  -0.01390  -1.91900
   Y18       -3.32964   0.00010   0.00000  -0.00722  -0.00804  -3.33768
   Z18       14.09201   0.00110   0.00000   0.01156   0.01229  14.10430
   X19      -15.89663   0.00311   0.00000   0.01644   0.01754 -15.87910
   Y19       -2.50959  -0.00065   0.00000   0.01577   0.02251  -2.48708
   Z19       14.10176   0.00111   0.00000   0.01218   0.01103  14.11279
   X20      -13.32717   0.00218   0.00000   0.01597   0.01890 -13.30826
   Y20        2.54264  -0.00294   0.00000  -0.00681  -0.00347   2.53917
   Z20       19.81983  -0.00063   0.00000  -0.00694  -0.00591  19.81392
   X21       -4.40817  -0.00218   0.00000  -0.01254  -0.01546  -4.42363
   Y21       -8.22943   0.00212   0.00000   0.01114   0.00961  -8.21982
   Z21       19.95873  -0.00114   0.00000  -0.01281  -0.01420  19.94453
   X22       -6.46542   0.00128   0.00000  -0.00167   0.00183  -6.46359
   Y22        1.39360   0.00932   0.00000   0.01358   0.01588   1.40947
   Z22       12.26667  -0.00896   0.00000  -0.00530  -0.00360  12.26308
   X23      -11.35960  -0.00215   0.00000   0.00496   0.00375 -11.35585
   Y23       -7.23619  -0.00922   0.00000   0.00050   0.00539  -7.23080
   Z23       12.43760  -0.00964   0.00000  -0.00491  -0.00703  12.43058
   X24       -6.86188   0.00591   0.00000   0.02074   0.02296  -6.83892
   Y24        1.73161   0.00769   0.00000  -0.00231  -0.00311   1.72850
   Z24       21.56419   0.00932   0.00000   0.00631   0.00807  21.57226
   X25      -10.92100  -0.00649   0.00000  -0.01624  -0.01893 -10.93993
   Y25       -7.30890  -0.00675   0.00000   0.00863   0.01002  -7.29888
   Z25       21.68009   0.00973   0.00000   0.00354   0.00147  21.68156
   X26       -4.66602   0.00815   0.00000  -0.00200  -0.00184  -4.66787
   Y26       -4.81804  -0.00726   0.00000  -0.01186  -0.01046  -4.82850
   Z26       12.06156  -0.00997   0.00000  -0.00480  -0.00502  12.05654
   X27      -13.12237  -0.00802   0.00000   0.00149   0.00373 -13.11864
   Y27       -1.01492   0.00777   0.00000   0.02557   0.03157  -0.98335
   Z27       12.00252  -0.00954   0.00000  -0.00497  -0.00515  11.99737
   X28      -12.89899  -0.01114   0.00000  -0.00405  -0.00307 -12.90206
   Y28       -0.47225   0.00303   0.00000   0.00037   0.00274  -0.46950
   Z28       21.90089   0.00981   0.00000   0.00609   0.00612  21.90701
   X29       -4.86169   0.01077   0.00000   0.00932   0.00779  -4.85390
   Y29       -5.09449  -0.00186   0.00000   0.00557   0.00355  -5.09094
   Z29       21.97250   0.00996   0.00000   0.00350   0.00316  21.97566
   X30       -6.02985  -0.00069   0.00000   0.01540   0.02047  -6.00938
   Y30        3.65908  -0.00294   0.00000   0.00315   0.00598   3.66506
   Z30       10.06314   0.00310   0.00000  -0.00115   0.00143  10.06457
   X31      -11.61931   0.00066   0.00000  -0.00861  -0.01076 -11.63007
   Y31       -9.59811   0.00319   0.00000   0.00781   0.01361  -9.58450
   Z31       10.27761   0.00344   0.00000   0.00095  -0.00205  10.27556
   X32       -5.13332  -0.00203   0.00000   0.01121   0.01397  -5.11936
   Y32        3.34621  -0.00251   0.00000  -0.00090  -0.00339   3.34282
   Z32       23.73700  -0.00341   0.00000   0.00059   0.00319  23.74019
   X33      -12.63299   0.00221   0.00000  -0.00626  -0.01014 -12.64313
   Y33       -8.85605   0.00251   0.00000   0.00671   0.00823  -8.84782
   Z33       23.91372  -0.00362   0.00000  -0.00257  -0.00546  23.90825
   X34       -5.08884  -0.00091   0.00000  -0.00766  -0.00555  -5.09439
   Y34       -1.64405  -0.00103   0.00000  -0.00456  -0.00241  -1.64645
   Z34       10.55400   0.00296   0.00000   0.01262   0.01345  10.56745
   X35      -12.69558   0.00139   0.00000   0.01157   0.01225 -12.68333
   Y35       -4.29234   0.00024   0.00000   0.01668   0.02292  -4.26942
   Z35       10.63477   0.00300   0.00000   0.01283   0.01155  10.64632
   X36      -10.05811   0.00056   0.00000   0.01146   0.01304 -10.04507
   Y36        1.07069  -0.00154   0.00000  -0.01116  -0.01085   1.05983
   Z36       23.37159  -0.00293   0.00000  -0.00896  -0.00794  23.36365
   X37       -7.68190  -0.00026   0.00000  -0.00499  -0.00759  -7.68948
   Y37       -6.63993   0.00123   0.00000   0.01368   0.01269  -6.62725
   Z37       23.45414  -0.00303   0.00000  -0.01285  -0.01418  23.43996
   X38        0.55825  -0.00430   0.00000   0.00747   0.00939   0.56764
   Y38        0.00090  -0.00176   0.00000  -0.01162  -0.01499  -0.01409
   Z38       17.51685  -0.00089   0.00000  -0.00041   0.00189  17.51874
   X39      -18.36446   0.00433   0.00000  -0.00452  -0.00569 -18.37015
   Y39       -5.70601   0.00159   0.00000   0.02032   0.02717  -5.67883
   Z39       17.62126  -0.00097   0.00000  -0.00014  -0.00281  17.61845
   X40      -12.06798   0.00224   0.00000   0.01704   0.02265 -12.04534
   Y40        6.45832  -0.00620   0.00000   0.01035   0.01423   6.47255
   Z40       16.32996   0.00097   0.00000   0.00797   0.01060  16.34055
   X41       -5.61070  -0.00139   0.00000  -0.00723  -0.01177  -5.62247
   Y41      -12.19611   0.00465   0.00000   0.00106   0.00139 -12.19472
   Z41       16.54271   0.00111   0.00000  -0.00034  -0.00332  16.53939
   X42       -3.41419  -0.00184   0.00000  -0.00790  -0.00466  -3.41885
   Y42        1.47408  -0.00245   0.00000  -0.00729  -0.00731   1.46677
   Z42       14.13452   0.00142   0.00000   0.01185   0.01405  14.14857
   X43      -14.38738   0.00230   0.00000   0.01131   0.00977 -14.37761
   Y43       -7.32661   0.00213   0.00000   0.01780   0.02367  -7.30294
   Z43       14.28113   0.00103   0.00000   0.00986   0.00725  14.28838
   X44       -8.56519  -0.00001   0.00000   0.01578   0.01962  -8.54557
   Y44        4.19467  -0.00336   0.00000  -0.01374  -0.01295   4.18172
   Z44       19.70805  -0.00064   0.00000  -0.00411  -0.00175  19.70630
   X45       -9.19144   0.00054   0.00000  -0.01288  -0.01666  -9.20810
   Y45       -9.85212   0.00289   0.00000   0.01915   0.02024  -9.83188
   Z45       19.88972  -0.00135   0.00000  -0.01279  -0.01550  19.87423
   X46       -3.08379  -0.00273   0.00000  -0.00312  -0.00356  -3.08735
   Y46       -6.56672   0.00221   0.00000  -0.00175  -0.00043  -6.56715
   Z46        9.88086   0.00323   0.00000  -0.00113  -0.00172   9.87914
   X47      -14.80336   0.00293   0.00000   0.00028   0.00369 -14.79967
   Y47        0.49540  -0.00199   0.00000   0.01287   0.02058   0.51597
   Z47        9.75059   0.00301   0.00000  -0.00060  -0.00052   9.75008
   X48      -15.19275   0.00387   0.00000   0.00442   0.00514 -15.18761
   Y48       -0.30819  -0.00084   0.00000   0.01011   0.01293  -0.29526
   Z48       24.13661  -0.00352   0.00000   0.00115   0.00089  24.13749
   X49       -2.52740  -0.00369   0.00000   0.00034  -0.00167  -2.52907
   Y49       -5.32795   0.00065   0.00000  -0.00643  -0.01047  -5.33842
   Z49       24.16608  -0.00335   0.00000  -0.00102  -0.00109  24.16499
   X50       -2.39215   0.01336   0.00000   0.00943   0.01094  -2.38121
   Y50       -0.97688   0.00485   0.00000  -0.00024  -0.00173  -0.97862
   Z50       16.70811   0.00279   0.00000   0.01179   0.01329  16.72140
   X51      -15.41748  -0.01351   0.00000  -0.00664  -0.00717 -15.42466
   Y51       -4.74531  -0.00402   0.00000   0.01037   0.01592  -4.72939
   Z51       16.77922   0.00314   0.00000   0.01256   0.01069  16.78991
   X52      -11.19314  -0.00517   0.00000   0.00834   0.01223 -11.18091
   Y52        3.49628   0.01538   0.00000   0.01631   0.01946   3.51574
   Z52       17.09466  -0.00329   0.00000  -0.00837  -0.00666  17.08800
   X53       -6.55800   0.00429   0.00000  -0.00642  -0.00947  -6.56747
   Y53       -9.22827  -0.01384   0.00000  -0.00498  -0.00442  -9.23269
   Z53       17.32650  -0.00287   0.00000  -0.01311  -0.01519  17.31132
   X54       -8.00864  -0.00037   0.00000   0.00080   0.00050  -8.00814
   Y54       -5.84240   0.00118   0.00000  -0.00584  -0.00242  -5.84482
   Z54       11.47039   0.00205   0.00000  -0.00629  -0.00739  11.46300
   X55       -9.77752   0.00061   0.00000   0.00010   0.00296  -9.77456
   Y55       -0.06234  -0.00159   0.00000   0.01973   0.02415  -0.03819
   Z55       11.35503   0.00207   0.00000  -0.00526  -0.00459  11.35044
   X56      -11.68733   0.00169   0.00000  -0.00837  -0.00928 -11.69661
   Y56       -3.77872  -0.00007   0.00000   0.00270   0.00420  -3.77452
   Z56       22.53069  -0.00221   0.00000   0.00528   0.00434  22.53502
   X57       -6.02223  -0.00117   0.00000   0.01491   0.01507  -6.00717
   Y57       -1.79848  -0.00074   0.00000   0.00213   0.00054  -1.79794
   Z57       22.55323  -0.00214   0.00000   0.00558   0.00623  22.55946
   X58       -8.28623   0.00029   0.00000   0.00365   0.00762  -8.27861
   Y58        3.00084  -0.00219   0.00000   0.01566   0.01803   3.01887
   Z58       14.83328   0.00077   0.00000  -0.00797  -0.00598  14.82729
   X59       -9.46289   0.00052   0.00000  -0.00033  -0.00280  -9.46570
   Y59       -8.83461   0.00219   0.00000  -0.00256   0.00040  -8.83421
   Z59       14.97880   0.00148   0.00000  -0.00755  -0.00994  14.96885
   X60       -4.42529  -0.00129   0.00000   0.01755   0.01985  -4.40544
   Y60        1.13551  -0.00185   0.00000  -0.00176  -0.00299   1.13252
   Z60       19.05102  -0.00152   0.00000   0.00751   0.00944  19.06046
   X61      -13.35410   0.00161   0.00000  -0.01367  -0.01570 -13.36980
   Y61       -6.82525   0.00153   0.00000   0.01019   0.01379  -6.81147
   Z61       19.16092  -0.00143   0.00000   0.00636   0.00408  19.16500
   X62       -4.87567  -0.00111   0.00000  -0.00355  -0.00518  -4.88085
   Y62       -7.31695   0.00181   0.00000  -0.00800  -0.00747  -7.32442
   Z62       14.85416   0.00087   0.00000  -0.00872  -0.00986  14.84430
   X63      -12.92563   0.00102   0.00000   0.00429   0.00746 -12.91817
   Y63        1.48348  -0.00240   0.00000   0.02044   0.02536   1.50884
   Z63       14.74900   0.00041   0.00000  -0.00771  -0.00698  14.74202
   X64      -14.82200   0.00220   0.00000  -0.00500  -0.00454 -14.82654
   Y64       -2.21770  -0.00016   0.00000   0.00772   0.01209  -2.20560
   Z64       19.19517  -0.00113   0.00000   0.00882   0.00793  19.20310
   X65       -2.97722  -0.00224   0.00000   0.00858   0.00836  -2.96886
   Y65       -3.47104  -0.00046   0.00000  -0.00040  -0.00245  -3.47349
   Z65       19.18050  -0.00088   0.00000   0.00697   0.00749  19.18799
   X66       -6.39264  -0.02522   0.00000  -0.04381  -0.04268  -6.43532
   Y66       -2.13746  -0.00488   0.00000  -0.00475  -0.00349  -2.14096
   Z66       15.14147   0.01633   0.00000   0.02748   0.02793  15.16940
   X67      -11.40285   0.02576   0.00000   0.04537   0.04566 -11.35719
   Y67       -3.68564   0.00537   0.00000   0.01846   0.02236  -3.66328
   Z67       15.19284   0.01627   0.00000   0.02826   0.02740  15.22025
   X68       -9.70476   0.01110   0.00000   0.02582   0.02732  -9.67745
   Y68       -0.37193  -0.02443   0.00000  -0.03650  -0.03477  -0.40670
   Z68       18.80663  -0.01641   0.00000  -0.02772  -0.02716  18.77947
   X69       -8.03216  -0.01073   0.00000  -0.02179  -0.02295  -8.05511
   Y69       -5.33727   0.02308   0.00000   0.04324   0.04407  -5.29320
   Z69       18.85963  -0.01654   0.00000  -0.02893  -0.02984  18.82979
   X70       -6.10471   0.00026   0.00000  -0.00441  -0.00770  -6.11240
   Y70      -11.57927  -0.00056   0.00000  -0.00498  -0.00232 -11.58159
   Z70       10.69531  -0.00046   0.00000  -0.00727  -0.01011  10.68521
   X71       -0.26604   0.00069   0.00000   0.01444   0.01549  -0.25055
   Y71        0.08444   0.00023   0.00000  -0.00337  -0.00837   0.07607
   Z71       23.34771   0.00035   0.00000   0.00560   0.00780  23.35552
   X72      -17.53139  -0.00053   0.00000  -0.00929  -0.01129 -17.54268
   Y72       -5.52694   0.00016   0.00000   0.01143   0.01576  -5.51119
   Z72       23.46877   0.00037   0.00000   0.00606   0.00359  23.47235
   X73       -8.88815  -0.00030   0.00000   0.00097   0.00142  -8.88673
   Y73       -2.87628   0.00044   0.00000   0.00544   0.00738  -2.86891
   Z73       16.99509   0.00023   0.00000   0.00014  -0.00005  16.99504
         Item               Value     Threshold  Converged?
 Maximum Force            0.025756     0.000450     NO 
 RMS     Force            0.005792     0.000300     NO 
 Maximum Displacement     0.090847     0.001800     NO 
 RMS     Displacement     0.020034     0.001200     NO 
 Predicted change in Energy=-5.149548D-03
 GradGradGradGradGradGradGradGradGradGradGradGradGradGradGradGradGradGrad

 Unable to Open any file for archive entry.
 1\1\GINC-X11P1N2\Force\RwB97XD\def2SVP\C8H8Cl1K3O40V1W12(1-)\MAYUMIAO\
 02-Jun-2024\0\\# def2svp wb97xd scrf=(smd,solvent=acetonitrile) g09def
 ault scf=(xqc,maxcycle=64) force guess=read nosymm\\Title Card\\-1,1\C
 l,-9.97814957,7.96302018,10.48556553\C,-8.3104331,4.23826307,12.232502
 41\C,-9.07433078,3.91624222,11.09576512\C,-10.00823741,2.86959817,11.1
 9844758\C,-10.18782038,2.18214829,12.39447822\C,-9.42860017,2.51990415
 ,13.51516958\C,-8.48672655,3.54696895,13.42689193\H,-7.57148504,5.0412
 4115,12.18798192\H,-10.6012715,2.59883693,10.32041917\H,-10.92520681,1
 .37847852,12.45415705\H,-9.56453569,1.97997586,14.45434969\H,-7.891211
 91,3.81774385,14.30225291\C,-8.94481999,4.62858479,9.8236507\C,-8.1293
 5163,5.66852141,9.5722956\H,-9.58683652,4.26033828,9.0160085\H,-8.0831
 5236,6.11444032,8.57762242\H,-7.41365102,6.04544306,10.3067502\O,-1.00
 813246,-1.76197168,7.45716979\O,-8.41213683,-1.32801623,7.46232752\O,-
 7.05243205,1.34550702,10.488203\O,-2.33270327,-4.3548291,10.56170404\W
 ,-3.42135285,0.73745918,6.49124437\W,-6.01124146,-3.82922658,6.5816952
 9\W,-3.63114933,0.91632828,11.41127965\W,-5.77914399,-3.86770586,11.47
 26095\W,-2.46915221,-2.54959762,6.38270301\W,-6.94406005,-0.53707157,6
 .35146159\W,-6.82585156,-0.2499017,11.58945019\W,-2.57269663,-2.695887
 63,11.62734876\O,-3.19086048,1.93629956,5.3251867\O,-6.14867537,-5.079
 10218,5.43867453\O,-2.71643707,1.77073841,12.56107829\O,-6.68509209,-4
 .68642158,12.6545954\O,-2.69289815,-0.86999163,5.58493715\O,-6.7182105
 3,-2.27140692,5.62767843\O,-5.32252385,0.56658437,12.36771441\O,-4.065
 08427,-3.51370221,12.41139649\O,0.29541264,0.00047407,9.26951579\O,-9.
 71805257,-3.01948835,9.32476678\O,-6.38610099,3.41759498,8.64144087\O,
 -2.96905658,-6.45390565,8.75402747\O,-1.80671104,0.78004707,7.47966659
 \O,-7.61347604,-3.87707715,7.5572483\O,-4.53250214,2.21972441,10.42904
 911\O,-4.86389874,-5.21351658,10.52518779\O,-1.63187206,-3.47495689,5.
 22872557\O,-7.83360113,0.26215335,5.15979253\O,-8.03965945,-0.16308812
 ,12.77254205\O,-1.33744147,-2.81943008,12.78813894\W,-1.26587111,-0.51
 694505,8.84155223\W,-8.15858124,-2.51110838,8.87918213\W,-5.92315418,1
 .85015261,9.04610512\W,-3.47034341,-4.88338867,9.16879071\O,-4.2379884
 4,-3.09166637,6.06986918\O,-5.17403866,-0.03298661,6.00882279\O,-6.184
 67001,-1.9996143,11.9227256\O,-3.18682863,-0.9517158,11.93465725\O,-4.
 3848851,1.587975,7.84943263\O,-5.00754706,-4.67507369,7.92643694\O,-2.
 3417611,0.60088401,10.08136722\O,-7.06668551,-3.61176845,10.13952017\O
 ,-2.58009599,-3.87196254,7.8604818\O,-6.8399498,0.78502541,7.80483587\
 O,-7.84346712,-1.17355377,10.1576455\O,-1.57547525,-1.83679685,10.1498
 8305\O,-3.38284115,-1.13109695,8.01252193\O,-6.03412918,-1.95035803,8.
 03970687\O,-5.13553922,-0.19681596,9.95203772\O,-4.25043839,-2.8243615
 6,9.98008784\K,-3.23047143,-6.12748569,5.65971644\K,-0.1407832,0.04468
 334,12.35507849\K,-9.27721429,-2.92473271,12.41913592\V,-4.70340408,-1
 .52206261,8.99341619\\Version=ES64L-G16RevC.01\HF=-7327.700372\RMSD=4.
 650e-09\RMSF=5.792e-03\Dipole=10.6645797,-21.7886071,2.5505073\Quadrup
 ole=-90.9545028,59.5769757,31.3775271,338.7417387,346.150664,-351.3740
 982\PG=C01 [X(C8H8Cl1K3O40V1W12)]\\@
 The archive entry for this job was punched.


 The best way to pay for a lovely moment is to enjoy it.
 -- Richard Bach
 Job cpu time:       0 days  9 hours 12 minutes 19.3 seconds.
 Elapsed time:       0 days  0 hours 10 minutes 27.3 seconds.
 File lengths (MBytes):  RWF=   1253 Int=      0 D2E=      0 Chk=    249 Scr=      1
 Normal termination of Gaussian 16 at Sun Jun  2 01:12:14 2024.
