 Entering Gaussian System, Link 0=g16
 Input=JOBS/23_B.gjf
 Output=JOBS/23_B.log
 Initial command:
 /data/app/gaussian/C01-avx2//g16/l1.exe "/tmp/Gau-619760.inp" -scrdir="/tmp/"
 Entering Link 1 = /data/app/gaussian/C01-avx2//g16/l1.exe PID=    619761.
  
 Copyright (c) 1988-2019, Gaussian, Inc.  All Rights Reserved.
  
 This is part of the Gaussian(R) 16 program.  It is based on
 the Gaussian(R) 09 system (copyright 2009, Gaussian, Inc.),
 the Gaussian(R) 03 system (copyright 2003, Gaussian, Inc.),
 the Gaussian(R) 98 system (copyright 1998, Gaussian, Inc.),
 the Gaussian(R) 94 system (copyright 1995, Gaussian, Inc.),
 the Gaussian 92(TM) system (copyright 1992, Gaussian, Inc.),
 the Gaussian 90(TM) system (copyright 1990, Gaussian, Inc.),
 the Gaussian 88(TM) system (copyright 1988, Gaussian, Inc.),
 the Gaussian 86(TM) system (copyright 1986, Carnegie Mellon
 University), and the Gaussian 82(TM) system (copyright 1983,
 Carnegie Mellon University). Gaussian is a federally registered
 trademark of Gaussian, Inc.
  
 This software contains proprietary and confidential information,
 including trade secrets, belonging to Gaussian, Inc.
  
 This software is provided under written license and may be
 used, copied, transmitted, or stored only in accord with that
 written license.
  
 The following legend is applicable only to US Government
 contracts under FAR:
  
                    RESTRICTED RIGHTS LEGEND
  
 Use, reproduction and disclosure by the US Government is
 subject to restrictions as set forth in subparagraphs (a)
 and (c) of the Commercial Computer Software - Restricted
 Rights clause in FAR 52.227-19.
  
 Gaussian, Inc.
 340 Quinnipiac St., Bldg. 40, Wallingford CT 06492
  
  
 ---------------------------------------------------------------
 Warning -- This program may not be used in any manner that
 competes with the business of Gaussian, Inc. or will provide
 assistance to any competitor of Gaussian, Inc.  The licensee
 of this program is prohibited from giving any competitor of
 Gaussian, Inc. access to this program.  By using this program,
 the user acknowledges that Gaussian, Inc. is engaged in the
 business of creating and licensing software in the field of
 computational chemistry and represents and warrants to the
 licensee that it is not a competitor of Gaussian, Inc. and that
 it will not use this program in any manner prohibited above.
 ---------------------------------------------------------------
  

 Cite this work as:
 Gaussian 16, Revision C.01,
 M. J. Frisch, G. W. Trucks, H. B. Schlegel, G. E. Scuseria, 
 M. A. Robb, J. R. Cheeseman, G. Scalmani, V. Barone, 
 G. A. Petersson, H. Nakatsuji, X. Li, M. Caricato, A. V. Marenich, 
 J. Bloino, B. G. Janesko, R. Gomperts, B. Mennucci, H. P. Hratchian, 
 J. V. Ortiz, A. F. Izmaylov, J. L. Sonnenberg, D. Williams-Young, 
 F. Ding, F. Lipparini, F. Egidi, J. Goings, B. Peng, A. Petrone, 
 T. Henderson, D. Ranasinghe, V. G. Zakrzewski, J. Gao, N. Rega, 
 G. Zheng, W. Liang, M. Hada, M. Ehara, K. Toyota, R. Fukuda, 
 J. Hasegawa, M. Ishida, T. Nakajima, Y. Honda, O. Kitao, H. Nakai, 
 T. Vreven, K. Throssell, J. A. Montgomery, Jr., J. E. Peralta, 
 F. Ogliaro, M. J. Bearpark, J. J. Heyd, E. N. Brothers, K. N. Kudin, 
 V. N. Staroverov, T. A. Keith, R. Kobayashi, J. Normand, 
 K. Raghavachari, A. P. Rendell, J. C. Burant, S. S. Iyengar, 
 J. Tomasi, M. Cossi, J. M. Millam, M. Klene, C. Adamo, R. Cammi, 
 J. W. Ochterski, R. L. Martin, K. Morokuma, O. Farkas, 
 J. B. Foresman, and D. J. Fox, Gaussian, Inc., Wallingford CT, 2019.
 
 ******************************************
 Gaussian 16:  ES64L-G16RevC.01  3-Jul-2019
                 2-Jun-2024 
 ******************************************
 %chk=b.chk
 %nprocshared=56
 Will use up to   56 processors via shared memory.
 %mem=96gb
 ----------------------------------------------------------------------
 # def2svp wb97xd scrf=(smd,solvent=acetonitrile) g09default scf=(xqc,m
 axcycle=64) force guess=read nosymm
 ----------------------------------------------------------------------
 1/10=7,30=1,38=1,158=3,167=1/1,3;
 2/12=2,15=1,17=6,18=5,40=1/2;
 3/5=43,7=101,11=2,25=1,27=10,30=1,70=32201,71=1,72=2,74=-58,75=-4,116=-2,158=3/1,2,3;
 4/5=1,60=-1/1;
 5/5=2,7=64,8=3,13=1,38=6,53=2,87=10/2,8;
 6/7=2,8=2,9=2,10=2,28=1,87=10/1;
 7/29=1,30=1,87=10/1,2,3,16;
 1/10=7,30=1,158=3,167=1/3;
 99//99;
 Using 2006 physical constants.
 ----------
 Title Card
 ----------
 Symbolic Z-matrix:
 Charge = -1 Multiplicity = 1
 17                   -9.97815   7.96302   10.48557 
 6                    -8.31043   4.23826   12.2325 
 6                    -9.07433   3.91624   11.09577 
 6                    -10.00824   2.8696    11.19845 
 6                    -10.18782   2.18215   12.39448 
 6                    -9.4286    2.5199    13.51517 
 6                    -8.48673   3.54697   13.42689 
 1                    -7.57149   5.04124   12.18798 
 1                    -10.60127   2.59884   10.32042 
 1                    -10.92521   1.37848   12.45416 
 1                    -9.56454   1.97998   14.45435 
 1                    -7.89121   3.81774   14.30225 
 6                    -8.94482   4.62858   9.82365 
 6                    -8.12935   5.66852   9.5723 
 1                    -9.58684   4.26034   9.01601 
 1                    -8.08315   6.11444   8.57762 
 1                    -7.41365   6.04544   10.30675 
 8                    -1.00813  -1.76197   7.45717 
 8                    -8.41214  -1.32802   7.46233 
 8                    -7.05243   1.34551   10.4882 
 8                    -2.3327   -4.35483   10.5617 
 74                   -3.42135   0.73746   6.49124 
 74                   -6.01124  -3.82923   6.5817 
 74                   -3.63115   0.91633   11.41128 
 74                   -5.77914  -3.86771   11.47261 
 74                   -2.46915  -2.5496    6.3827 
 74                   -6.94406  -0.53707   6.35146 
 74                   -6.82585  -0.2499    11.58945 
 74                   -2.5727   -2.69589   11.62735 
 8                    -3.19086   1.9363    5.32519 
 8                    -6.14868  -5.0791    5.43867 
 8                    -2.71644   1.77074   12.56108 
 8                    -6.68509  -4.68642   12.6546 
 8                    -2.6929   -0.86999   5.58494 
 8                    -6.71821  -2.27141   5.62768 
 8                    -5.32252   0.56658   12.36771 
 8                    -4.06508  -3.5137    12.4114 
 8                     0.29541   0.00047   9.26952 
 8                    -9.71805  -3.01949   9.32477 
 8                    -6.3861    3.41759   8.64144 
 8                    -2.96906  -6.45391   8.75403 
 8                    -1.80671   0.78005   7.47967 
 8                    -7.61348  -3.87708   7.55725 
 8                    -4.5325    2.21972   10.42905 
 8                    -4.8639   -5.21352   10.52519 
 8                    -1.63187  -3.47496   5.22873 
 8                    -7.8336    0.26215   5.15979 
 8                    -8.03966  -0.16309   12.77254 
 8                    -1.33744  -2.81943   12.78814 
 74                   -1.26587  -0.51695   8.84155 
 74                   -8.15858  -2.51111   8.87918 
 74                   -5.92315   1.85015   9.04611 
 74                   -3.47034  -4.88339   9.16879 
 8                    -4.23799  -3.09167   6.06987 
 8                    -5.17404  -0.03299   6.00882 
 8                    -6.18467  -1.99961   11.92273 
 8                    -3.18683  -0.95172   11.93466 
 8                    -4.38489   1.58798   7.84943 
 8                    -5.00755  -4.67507   7.92644 
 8                    -2.34176   0.60088   10.08137 
 8                    -7.06669  -3.61177   10.13952 
 8                    -2.5801   -3.87196   7.86048 
 8                    -6.83995   0.78503   7.80484 
 8                    -7.84347  -1.17355   10.15765 
 8                    -1.57548  -1.8368    10.14988 
 8                    -3.38284  -1.1311    8.01252 
 8                    -6.03413  -1.95036   8.03971 
 8                    -5.13554  -0.19682   9.95204 
 8                    -4.25044  -2.82436   9.98009 
 19                   -3.23047  -6.12749   5.65972 
 19                   -0.14078   0.04468   12.35508 
 19                   -9.27721  -2.92473   12.41914 
 23                   -4.7034   -1.52206   8.99342 
 

 GradGradGradGradGradGradGradGradGradGradGradGradGradGradGradGradGradGrad
 Berny optimization.
 Initialization pass.
 Trust Radius=3.00D-01 FncErr=1.00D-07 GrdErr=1.00D-07 EigMax=2.50D+02 EigMin=1.00D-04
 Number of steps in this run=      2 maximum allowed number of steps=      2.
 GradGradGradGradGradGradGradGradGradGradGradGradGradGradGradGradGradGrad

 Symmetry turned off by external request.
 Stoichiometry    C8H8ClK3O40VW12(1-)
 Framework group  C1[X(C8H8ClK3O40VW12)]
 Deg. of freedom   213
 Full point group                 C1      NOp   1
                          Input orientation:                          
 ---------------------------------------------------------------------
 Center     Atomic      Atomic             Coordinates (Angstroms)
 Number     Number       Type             X           Y           Z
 ---------------------------------------------------------------------
      1         17           0       -9.978150    7.963020   10.485566
      2          6           0       -8.310433    4.238263   12.232502
      3          6           0       -9.074331    3.916242   11.095765
      4          6           0      -10.008237    2.869598   11.198448
      5          6           0      -10.187820    2.182148   12.394478
      6          6           0       -9.428600    2.519904   13.515170
      7          6           0       -8.486727    3.546969   13.426892
      8          1           0       -7.571485    5.041241   12.187982
      9          1           0      -10.601272    2.598837   10.320419
     10          1           0      -10.925207    1.378479   12.454157
     11          1           0       -9.564536    1.979976   14.454350
     12          1           0       -7.891212    3.817744   14.302253
     13          6           0       -8.944820    4.628585    9.823651
     14          6           0       -8.129352    5.668521    9.572296
     15          1           0       -9.586837    4.260338    9.016008
     16          1           0       -8.083152    6.114440    8.577622
     17          1           0       -7.413651    6.045443   10.306750
     18          8           0       -1.008132   -1.761972    7.457170
     19          8           0       -8.412137   -1.328016    7.462328
     20          8           0       -7.052432    1.345507   10.488203
     21          8           0       -2.332703   -4.354829   10.561704
     22         74           0       -3.421353    0.737459    6.491244
     23         74           0       -6.011241   -3.829227    6.581695
     24         74           0       -3.631149    0.916328   11.411280
     25         74           0       -5.779144   -3.867706   11.472609
     26         74           0       -2.469152   -2.549598    6.382703
     27         74           0       -6.944060   -0.537072    6.351462
     28         74           0       -6.825852   -0.249902   11.589450
     29         74           0       -2.572697   -2.695888   11.627349
     30          8           0       -3.190860    1.936300    5.325187
     31          8           0       -6.148675   -5.079102    5.438675
     32          8           0       -2.716437    1.770738   12.561078
     33          8           0       -6.685092   -4.686422   12.654595
     34          8           0       -2.692898   -0.869992    5.584937
     35          8           0       -6.718211   -2.271407    5.627678
     36          8           0       -5.322524    0.566584   12.367714
     37          8           0       -4.065084   -3.513702   12.411396
     38          8           0        0.295413    0.000474    9.269516
     39          8           0       -9.718053   -3.019488    9.324767
     40          8           0       -6.386101    3.417595    8.641441
     41          8           0       -2.969057   -6.453906    8.754027
     42          8           0       -1.806711    0.780047    7.479667
     43          8           0       -7.613476   -3.877077    7.557248
     44          8           0       -4.532502    2.219724   10.429049
     45          8           0       -4.863899   -5.213517   10.525188
     46          8           0       -1.631872   -3.474957    5.228726
     47          8           0       -7.833601    0.262153    5.159793
     48          8           0       -8.039659   -0.163088   12.772542
     49          8           0       -1.337441   -2.819430   12.788139
     50         74           0       -1.265871   -0.516945    8.841552
     51         74           0       -8.158581   -2.511108    8.879182
     52         74           0       -5.923154    1.850153    9.046105
     53         74           0       -3.470343   -4.883389    9.168791
     54          8           0       -4.237988   -3.091666    6.069869
     55          8           0       -5.174039   -0.032987    6.008823
     56          8           0       -6.184670   -1.999614   11.922726
     57          8           0       -3.186829   -0.951716   11.934657
     58          8           0       -4.384885    1.587975    7.849433
     59          8           0       -5.007547   -4.675074    7.926437
     60          8           0       -2.341761    0.600884   10.081367
     61          8           0       -7.066686   -3.611768   10.139520
     62          8           0       -2.580096   -3.871963    7.860482
     63          8           0       -6.839950    0.785025    7.804836
     64          8           0       -7.843467   -1.173554   10.157645
     65          8           0       -1.575475   -1.836797   10.149883
     66          8           0       -3.382841   -1.131097    8.012522
     67          8           0       -6.034129   -1.950358    8.039707
     68          8           0       -5.135539   -0.196816    9.952038
     69          8           0       -4.250438   -2.824362    9.980088
     70         19           0       -3.230471   -6.127486    5.659716
     71         19           0       -0.140783    0.044683   12.355078
     72         19           0       -9.277214   -2.924733   12.419136
     73         23           0       -4.703404   -1.522063    8.993416
 ---------------------------------------------------------------------
 Rotational constants (GHZ):           0.0171842           0.0132963           0.0130873
 Standard basis: def2SVP (5D, 7F)
  1217 basis functions,  2313 primitive gaussians,  1337 cartesian basis functions
   321 alpha electrons      321 beta electrons
       nuclear repulsion energy     20998.9218064000 Hartrees.
 NAtoms=   73 NActive=   73 NUniq=   73 SFac= 1.00D+00 NAtFMM=   60 NAOKFM=T Big=T
 Integral buffers will be    131072 words long.
 Raffenetti 2 integral format.
 Two-electron integral symmetry is turned off.
 Nuclear repulsion after empirical dispersion term =    20998.6440168093 Hartrees.
 Force PCM accuracy= 1.00D-10.
 ------------------------------------------------------------------------------
 Polarizable Continuum Model (PCM)
 =================================
 Model                : PCM (using non-symmetric T matrix).
 Atomic radii         : SMD-Coulomb.
 Polarization charges : Total charges.
 Charge compensation  : None.
 Solution method      : On-the-fly selection.
 Cavity type          : VdW (van der Waals Surface) (Alpha=1.000).
 Cavity algorithm     : GePol (No added spheres)
                        Default sphere list used, NSphG=   73.
                        Lebedev-Laikov grids with approx.  5.0 points / Ang**2.
                        Smoothing algorithm: York/Karplus (Gamma=1.0000).
                        Polarization charges: spherical gaussians, with
                                              point-specific exponents (IZeta= 3).
                        Self-potential: point-specific (ISelfS= 7).
                        Self-field    : sphere-specific E.n sum rule (ISelfD= 2).
 1st derivatives      : Analytical E(r).r(x)/FMM algorithm (CHGder, D1EAlg=3).
                        Cavity 1st derivative terms included.
 Solvent              : Acetonitrile, Eps=  35.688000 Eps(inf)=   1.806874
 ------------------------------------------------------------------------------
 ------------------------------------------------------------------------------
 Atomic radii for non-electrostatic terms: SMD-CDS.
 ------------------------------------------------------------------------------
 Nuclear repulsion after PCM non-electrostatic terms =    20998.6381921145 Hartrees.
 One-electron integrals computed using PRISM.
   1 Symmetry operations used in ECPInt.
 ECPInt:  NShTT=  127765 NPrTT=  468030 LenC2=   96802 LenP2D=  221511.
 LDataN:  DoStor=T MaxTD1= 8 Len=  415
 NBasis=  1217 RedAO= T EigKep=  1.36D-04  NBF=  1217
 NBsUse=  1217 1.00D-06 EigRej= -1.00D+00 NBFU=  1217
 Defaulting to unpruned grid for atomic number  74.
 Defaulting to unpruned grid for atomic number  74.
 Defaulting to unpruned grid for atomic number  74.
 Defaulting to unpruned grid for atomic number  74.
 Defaulting to unpruned grid for atomic number  74.
 Defaulting to unpruned grid for atomic number  74.
 Defaulting to unpruned grid for atomic number  74.
 Defaulting to unpruned grid for atomic number  74.
 Initial guess from the checkpoint file:  "b.chk"
 B after Tr=     0.001163   -0.001773   -0.000077
         Rot=    1.000000    0.000006    0.000006    0.000072 Ang=   0.01 deg.
 Initial guess <Sx>= 0.0000 <Sy>= 0.0000 <Sz>= 0.0000 <S**2>= 1.0138 S= 0.6242
 Requested convergence on RMS density matrix=1.00D-08 within  64 cycles.
 Requested convergence on MAX density matrix=1.00D-06.
 Requested convergence on             energy=1.00D-06.
 No special actions if energy rises.
 Defaulting to unpruned grid for atomic number  74.
 Defaulting to unpruned grid for atomic number  74.
 Defaulting to unpruned grid for atomic number  74.
 Defaulting to unpruned grid for atomic number  74.
 Defaulting to unpruned grid for atomic number  74.
 Defaulting to unpruned grid for atomic number  74.
 Defaulting to unpruned grid for atomic number  74.
 Defaulting to unpruned grid for atomic number  74.
 Defaulting to unpruned grid for atomic number  74.
 Defaulting to unpruned grid for atomic number  74.
 Defaulting to unpruned grid for atomic number  74.
 Defaulting to unpruned grid for atomic number  74.
 Defaulting to unpruned grid for atomic number  74.
 Defaulting to unpruned grid for atomic number  74.
 Defaulting to unpruned grid for atomic number  74.
 Defaulting to unpruned grid for atomic number  74.
 Defaulting to unpruned grid for atomic number  74.
 Defaulting to unpruned grid for atomic number  74.
 Defaulting to unpruned grid for atomic number  74.
 Defaulting to unpruned grid for atomic number  74.
 Defaulting to unpruned grid for atomic number  74.
 Defaulting to unpruned grid for atomic number  74.
 Defaulting to unpruned grid for atomic number  74.
 Defaulting to unpruned grid for atomic number  74.
 Defaulting to unpruned grid for atomic number  74.
 Defaulting to unpruned grid for atomic number  74.
 Defaulting to unpruned grid for atomic number  74.
 Defaulting to unpruned grid for atomic number  74.
 Defaulting to unpruned grid for atomic number  74.
 Defaulting to unpruned grid for atomic number  74.
 Defaulting to unpruned grid for atomic number  74.
 Defaulting to unpruned grid for atomic number  74.
 Defaulting to unpruned grid for atomic number  74.
 Defaulting to unpruned grid for atomic number  74.
 Defaulting to unpruned grid for atomic number  74.
 Defaulting to unpruned grid for atomic number  74.
 Defaulting to unpruned grid for atomic number  74.
 Defaulting to unpruned grid for atomic number  74.
 Defaulting to unpruned grid for atomic number  74.
 Defaulting to unpruned grid for atomic number  74.
 Defaulting to unpruned grid for atomic number  74.
 Defaulting to unpruned grid for atomic number  74.
 Defaulting to unpruned grid for atomic number  74.
 Defaulting to unpruned grid for atomic number  74.
 Defaulting to unpruned grid for atomic number  74.
 Defaulting to unpruned grid for atomic number  74.
 Defaulting to unpruned grid for atomic number  74.
 Defaulting to unpruned grid for atomic number  74.
 Defaulting to unpruned grid for atomic number  74.
 Defaulting to unpruned grid for atomic number  74.
 Defaulting to unpruned grid for atomic number  74.
 Defaulting to unpruned grid for atomic number  74.
 Defaulting to unpruned grid for atomic number  74.
 Defaulting to unpruned grid for atomic number  74.
 Defaulting to unpruned grid for atomic number  74.
 Defaulting to unpruned grid for atomic number  74.
 Inv3:  Mode=1 IEnd=    86768652.
 Iteration    1 A*A^-1 deviation from unit magnitude is 3.33D-15 for   1085.
 Iteration    1 A*A^-1 deviation from orthogonality  is 3.70D-15 for    889     26.
 Iteration    1 A^-1*A deviation from unit magnitude is 4.22D-15 for   4679.
 Iteration    1 A^-1*A deviation from orthogonality  is 3.82D-09 for   4440   3645.
 Iteration    2 A*A^-1 deviation from unit magnitude is 4.44D-15 for   3950.
 Iteration    2 A*A^-1 deviation from orthogonality  is 3.50D-15 for    808    184.
 Iteration    2 A^-1*A deviation from unit magnitude is 1.22D-15 for   2387.
 Iteration    2 A^-1*A deviation from orthogonality  is 6.31D-16 for   5223   5124.
 Restarting incremental Fock formation.
 Error on total polarization charges =  0.01560
 SCF Done:  E(UwB97XD) =  -7327.70032529     A.U. after   34 cycles
            NFock= 34  Conv=0.12D-08     -V/T= 2.0831
 <Sx>= 0.0000 <Sy>= 0.0000 <Sz>= 0.0000 <S**2>= 1.0138 S= 0.6242
 <L.S>=  0.00000000000    
 SMD-CDS (non-electrostatic) energy       (kcal/mol) =      -3.66
 (included in total energy above)
 Annihilation of the first spin contaminant:
 S**2 before annihilation     1.0138,   after     0.1111
 QCSCF skips out because SCF is already converged.

 **********************************************************************

            Population analysis using the SCF Density.

 **********************************************************************

 Alpha  occ. eigenvalues -- -197.10745-129.99152-129.99134-129.99114-101.62175
 Alpha  occ. eigenvalues --  -22.44419 -19.28498 -19.28480 -19.28448 -19.28379
 Alpha  occ. eigenvalues --  -19.28373 -19.28355 -19.28346 -19.28345 -19.28329
 Alpha  occ. eigenvalues --  -19.28233 -19.28195 -19.28129 -19.26950 -19.26912
 Alpha  occ. eigenvalues --  -19.26902 -19.26897 -19.26881 -19.26878 -19.26844
 Alpha  occ. eigenvalues --  -19.26839 -19.26831 -19.26815 -19.26811 -19.26798
 Alpha  occ. eigenvalues --  -19.26789 -19.26785 -19.26783 -19.26781 -19.26778
 Alpha  occ. eigenvalues --  -19.26768 -19.26742 -19.26723 -19.26717 -19.26702
 Alpha  occ. eigenvalues --  -19.26651 -19.26612 -19.24721 -19.24645 -19.24643
 Alpha  occ. eigenvalues --  -19.24619 -18.93994 -18.92893 -18.92880 -13.36561
 Alpha  occ. eigenvalues --  -13.36543 -13.36512 -10.69488 -10.69483 -10.69483
 Alpha  occ. eigenvalues --  -10.69469 -10.69465 -10.69465 -10.69440 -10.69436
 Alpha  occ. eigenvalues --  -10.69433 -10.32805 -10.32168 -10.31752 -10.30854
 Alpha  occ. eigenvalues --  -10.30828 -10.30811 -10.30447 -10.30367  -9.52583
 Alpha  occ. eigenvalues --   -7.27466  -7.27123  -7.27116  -3.21055  -3.21032
 Alpha  occ. eigenvalues --   -3.21026  -3.21024  -3.21003  -3.20984  -3.20978
 Alpha  occ. eigenvalues --   -3.20976  -3.20964  -3.20826  -3.20805  -3.20781
 Alpha  occ. eigenvalues --   -2.78728  -1.85297  -1.85265  -1.85240  -1.85216
 Alpha  occ. eigenvalues --   -1.85093  -1.85049  -1.85028  -1.85010  -1.84997
 Alpha  occ. eigenvalues --   -1.84993  -1.84966  -1.84904  -1.84358  -1.84245
 Alpha  occ. eigenvalues --   -1.84231  -1.84227  -1.84187  -1.84179  -1.84108
 Alpha  occ. eigenvalues --   -1.84094  -1.84071  -1.84061  -1.84040  -1.84027
 Alpha  occ. eigenvalues --   -1.83908  -1.83882  -1.83868  -1.83862  -1.83824
 Alpha  occ. eigenvalues --   -1.83790  -1.83773  -1.83767  -1.83748  -1.83648
 Alpha  occ. eigenvalues --   -1.83645  -1.83630  -1.81893  -1.81549  -1.81543
 Alpha  occ. eigenvalues --   -1.50260  -1.50242  -1.50212  -1.08585  -1.06957
 Alpha  occ. eigenvalues --   -1.06920  -1.06895  -1.05979  -1.05971  -1.05936
 Alpha  occ. eigenvalues --   -1.04547  -1.04537  -1.04534  -1.03944  -1.03926
 Alpha  occ. eigenvalues --   -1.03661  -1.03330  -1.03287  -1.03271  -1.03026
 Alpha  occ. eigenvalues --   -1.03002  -1.02225  -1.02214  -1.02183  -1.02050
 Alpha  occ. eigenvalues --   -1.02004  -1.01977  -1.01904  -1.01878  -1.01775
 Alpha  occ. eigenvalues --   -1.01732  -1.01720  -1.01604  -1.01553  -1.01535
 Alpha  occ. eigenvalues --   -1.01285  -1.00793  -1.00754  -1.00705  -1.00694
 Alpha  occ. eigenvalues --   -0.99971  -0.99899  -0.99837  -0.96067  -0.89184
 Alpha  occ. eigenvalues --   -0.85700  -0.85681  -0.85657  -0.85548  -0.85542
 Alpha  occ. eigenvalues --   -0.85531  -0.85525  -0.85506  -0.85487  -0.84160
 Alpha  occ. eigenvalues --   -0.82262  -0.80985  -0.71822  -0.69510  -0.64962
 Alpha  occ. eigenvalues --   -0.62280  -0.61663  -0.61622  -0.61582  -0.60524
 Alpha  occ. eigenvalues --   -0.58939  -0.58936  -0.58918  -0.58860  -0.58790
 Alpha  occ. eigenvalues --   -0.58730  -0.58723  -0.58672  -0.58513  -0.57333
 Alpha  occ. eigenvalues --   -0.57300  -0.57270  -0.56984  -0.56681  -0.56451
 Alpha  occ. eigenvalues --   -0.56410  -0.56371  -0.55978  -0.55830  -0.55335
 Alpha  occ. eigenvalues --   -0.55332  -0.55297  -0.54319  -0.54162  -0.54134
 Alpha  occ. eigenvalues --   -0.53955  -0.53651  -0.53607  -0.53581  -0.52687
 Alpha  occ. eigenvalues --   -0.52595  -0.52569  -0.52483  -0.52437  -0.51471
 Alpha  occ. eigenvalues --   -0.51457  -0.51437  -0.51361  -0.51308  -0.50674
 Alpha  occ. eigenvalues --   -0.50547  -0.50507  -0.50452  -0.50351  -0.50255
 Alpha  occ. eigenvalues --   -0.50219  -0.50060  -0.50010  -0.49998  -0.49741
 Alpha  occ. eigenvalues --   -0.49649  -0.49628  -0.49467  -0.49437  -0.49276
 Alpha  occ. eigenvalues --   -0.49239  -0.49173  -0.49087  -0.49046  -0.48960
 Alpha  occ. eigenvalues --   -0.48692  -0.48534  -0.48511  -0.48455  -0.47682
 Alpha  occ. eigenvalues --   -0.47660  -0.47112  -0.46453  -0.46020  -0.46000
 Alpha  occ. eigenvalues --   -0.45848  -0.45738  -0.45670  -0.45580  -0.45183
 Alpha  occ. eigenvalues --   -0.45138  -0.45127  -0.44823  -0.44613  -0.44470
 Alpha  occ. eigenvalues --   -0.44443  -0.44437  -0.44249  -0.44221  -0.44203
 Alpha  occ. eigenvalues --   -0.43403  -0.42991  -0.42540  -0.42492  -0.42434
 Alpha  occ. eigenvalues --   -0.42291  -0.42153  -0.42139  -0.42048  -0.41621
 Alpha  occ. eigenvalues --   -0.41597  -0.41550  -0.41016  -0.40973  -0.40784
 Alpha  occ. eigenvalues --   -0.40741  -0.40732  -0.40391  -0.40383  -0.40331
 Alpha  occ. eigenvalues --   -0.40204  -0.40170  -0.40151  -0.40125  -0.39851
 Alpha  occ. eigenvalues --   -0.39331  -0.39257  -0.39235  -0.39136  -0.39020
 Alpha  occ. eigenvalues --   -0.38924  -0.38891  -0.38820  -0.38727  -0.38686
 Alpha  occ. eigenvalues --   -0.38304  -0.38276  -0.38242  -0.37815  -0.37184
 Alpha  occ. eigenvalues --   -0.37177  -0.34728  -0.34709  -0.33548  -0.29895
 Alpha  occ. eigenvalues --   -0.25688
 Alpha virt. eigenvalues --   -0.12074  -0.06227  -0.06183  -0.04778  -0.04697
 Alpha virt. eigenvalues --   -0.04597  -0.01492  -0.01397  -0.01334  -0.01070
 Alpha virt. eigenvalues --   -0.00901  -0.00867  -0.00816  -0.00130  -0.00054
 Alpha virt. eigenvalues --   -0.00016   0.00707   0.00726   0.00770   0.00935
 Alpha virt. eigenvalues --    0.01049   0.01235   0.01816   0.01870   0.01921
 Alpha virt. eigenvalues --    0.02474   0.02727   0.02778   0.02838   0.03541
 Alpha virt. eigenvalues --    0.03598   0.03743   0.03889   0.03949   0.04323
 Alpha virt. eigenvalues --    0.04357   0.04375   0.04402   0.04634   0.05038
 Alpha virt. eigenvalues --    0.05124   0.06088   0.06467   0.07978   0.08198
 Alpha virt. eigenvalues --    0.08462   0.08573   0.08804   0.08854   0.09325
 Alpha virt. eigenvalues --    0.09734   0.09850   0.09875   0.09908   0.10012
 Alpha virt. eigenvalues --    0.10040   0.10167   0.10357   0.10890   0.10949
 Alpha virt. eigenvalues --    0.11538   0.11615   0.11944   0.12207   0.12257
 Alpha virt. eigenvalues --    0.12423   0.12456   0.12514   0.12866   0.13310
 Alpha virt. eigenvalues --    0.13432   0.13621   0.14041   0.14286   0.14764
 Alpha virt. eigenvalues --    0.14930   0.14950   0.15210   0.15378   0.15848
 Alpha virt. eigenvalues --    0.16100   0.16767   0.17060   0.17747   0.17836
 Alpha virt. eigenvalues --    0.18301   0.18436   0.18566   0.18787   0.18928
 Alpha virt. eigenvalues --    0.19264   0.19371   0.19512   0.19548   0.19637
 Alpha virt. eigenvalues --    0.19701   0.19864   0.20086   0.20705   0.20923
 Alpha virt. eigenvalues --    0.21155   0.21324   0.21378   0.21558   0.21595
 Alpha virt. eigenvalues --    0.21697   0.21944   0.21963   0.22162   0.22267
 Alpha virt. eigenvalues --    0.22397   0.22807   0.23178   0.23236   0.23303
 Alpha virt. eigenvalues --    0.23380   0.23595   0.23824   0.24048   0.24289
 Alpha virt. eigenvalues --    0.24416   0.24628   0.24706   0.25037   0.25173
 Alpha virt. eigenvalues --    0.25450   0.25485   0.25627   0.26360   0.26811
 Alpha virt. eigenvalues --    0.26869   0.27177   0.27373   0.27675   0.27925
 Alpha virt. eigenvalues --    0.27987   0.28425   0.28760   0.28794   0.29108
 Alpha virt. eigenvalues --    0.29291   0.29346   0.29454   0.29583   0.29740
 Alpha virt. eigenvalues --    0.30102   0.30493   0.30930   0.31223   0.31538
 Alpha virt. eigenvalues --    0.31686   0.32296   0.32531   0.32705   0.33266
 Alpha virt. eigenvalues --    0.33737   0.34438   0.35608   0.36936   0.37167
 Alpha virt. eigenvalues --    0.38259   0.38715   0.39015   0.39327   0.39662
 Alpha virt. eigenvalues --    0.40448   0.41406   0.41794   0.41938   0.42046
 Alpha virt. eigenvalues --    0.42260   0.42518   0.42685   0.43353   0.43910
 Alpha virt. eigenvalues --    0.44255   0.44430   0.44890   0.45292   0.45518
 Alpha virt. eigenvalues --    0.45613   0.45766   0.45975   0.46492   0.46700
 Alpha virt. eigenvalues --    0.46991   0.47178   0.47778   0.47901   0.48220
 Alpha virt. eigenvalues --    0.48359   0.48449   0.48708   0.49055   0.49136
 Alpha virt. eigenvalues --    0.49377   0.49794   0.49950   0.49964   0.50034
 Alpha virt. eigenvalues --    0.50174   0.50464   0.50629   0.50745   0.50905
 Alpha virt. eigenvalues --    0.51312   0.51404   0.51737   0.51890   0.52185
 Alpha virt. eigenvalues --    0.52585   0.52864   0.52980   0.53154   0.53457
 Alpha virt. eigenvalues --    0.53811   0.54059   0.54379   0.54434   0.54659
 Alpha virt. eigenvalues --    0.54777   0.55502   0.55977   0.56071   0.56454
 Alpha virt. eigenvalues --    0.56668   0.57106   0.57194   0.57336   0.57815
 Alpha virt. eigenvalues --    0.58541   0.58758   0.59014   0.59437   0.59676
 Alpha virt. eigenvalues --    0.60101   0.60508   0.60937   0.61241   0.61706
 Alpha virt. eigenvalues --    0.61971   0.62968   0.63611   0.63940   0.64730
 Alpha virt. eigenvalues --    0.65031   0.66288   0.66523   0.66565   0.66767
 Alpha virt. eigenvalues --    0.68097   0.68208   0.68573   0.68799   0.69312
 Alpha virt. eigenvalues --    0.69550   0.70136   0.70879   0.71343   0.71724
 Alpha virt. eigenvalues --    0.72144   0.72417   0.72783   0.72908   0.73073
 Alpha virt. eigenvalues --    0.73085   0.73325   0.73423   0.73748   0.73880
 Alpha virt. eigenvalues --    0.74239   0.74333   0.75236   0.75646   0.75948
 Alpha virt. eigenvalues --    0.76244   0.77091   0.77188   0.78065   0.78568
 Alpha virt. eigenvalues --    0.79056   0.79662   0.79971   0.80304   0.80649
 Alpha virt. eigenvalues --    0.80992   0.81130   0.82068   0.82217   0.82588
 Alpha virt. eigenvalues --    0.83024   0.83484   0.84004   0.84246   0.84531
 Alpha virt. eigenvalues --    0.84670   0.85234   0.85639   0.86535   0.87338
 Alpha virt. eigenvalues --    0.88094   0.88713   0.89291   0.89850   0.90170
 Alpha virt. eigenvalues --    0.90407   0.90677   0.91143   0.91745   0.91872
 Alpha virt. eigenvalues --    0.91932   0.92404   0.92632   0.92700   0.92844
 Alpha virt. eigenvalues --    0.93119   0.93186   0.93395   0.93764   0.93977
 Alpha virt. eigenvalues --    0.94989   0.95289   0.95869   0.96500   0.96867
 Alpha virt. eigenvalues --    0.97181   0.97215   0.97771   0.98001   0.98908
 Alpha virt. eigenvalues --    0.99300   0.99546   0.99681   1.00038   1.00218
 Alpha virt. eigenvalues --    1.00415   1.00613   1.00741   1.01037   1.01112
 Alpha virt. eigenvalues --    1.01191   1.01320   1.01850   1.02251   1.02522
 Alpha virt. eigenvalues --    1.02672   1.02697   1.03424   1.03779   1.03900
 Alpha virt. eigenvalues --    1.04085   1.04286   1.04783   1.04917   1.05041
 Alpha virt. eigenvalues --    1.05212   1.05445   1.05614   1.06092   1.06636
 Alpha virt. eigenvalues --    1.07072   1.07095   1.07348   1.07497   1.07585
 Alpha virt. eigenvalues --    1.07851   1.08084   1.08328   1.08607   1.08852
 Alpha virt. eigenvalues --    1.09044   1.09303   1.09542   1.10260   1.10990
 Alpha virt. eigenvalues --    1.11243   1.11464   1.11927   1.12225   1.12421
 Alpha virt. eigenvalues --    1.12473   1.12939   1.13121   1.13312   1.13370
 Alpha virt. eigenvalues --    1.13483   1.13772   1.13938   1.14255   1.14323
 Alpha virt. eigenvalues --    1.14619   1.15041   1.15242   1.15509   1.16224
 Alpha virt. eigenvalues --    1.16614   1.17348   1.17848   1.18168   1.18492
 Alpha virt. eigenvalues --    1.18857   1.19694   1.19826   1.20072   1.20407
 Alpha virt. eigenvalues --    1.20690   1.21266   1.22728   1.22929   1.22956
 Alpha virt. eigenvalues --    1.23241   1.23344   1.23737   1.23819   1.24688
 Alpha virt. eigenvalues --    1.25223   1.25939   1.27134   1.27564   1.27949
 Alpha virt. eigenvalues --    1.28294   1.29045   1.29485   1.30089   1.30320
 Alpha virt. eigenvalues --    1.30682   1.30757   1.30877   1.31109   1.31627
 Alpha virt. eigenvalues --    1.31864   1.32000   1.32246   1.32441   1.32537
 Alpha virt. eigenvalues --    1.32635   1.32826   1.32948   1.33361   1.34193
 Alpha virt. eigenvalues --    1.34654   1.34918   1.35080   1.35491   1.35695
 Alpha virt. eigenvalues --    1.35770   1.35877   1.36312   1.36521   1.36694
 Alpha virt. eigenvalues --    1.36884   1.37274   1.37827   1.38003   1.38048
 Alpha virt. eigenvalues --    1.38249   1.38585   1.38749   1.38847   1.39093
 Alpha virt. eigenvalues --    1.39120   1.39507   1.39530   1.39658   1.40003
 Alpha virt. eigenvalues --    1.40257   1.40294   1.40605   1.40958   1.41102
 Alpha virt. eigenvalues --    1.41141   1.41178   1.41523   1.41700   1.41914
 Alpha virt. eigenvalues --    1.42205   1.42451   1.42634   1.42738   1.43048
 Alpha virt. eigenvalues --    1.43180   1.43425   1.43654   1.43813   1.44289
 Alpha virt. eigenvalues --    1.44563   1.44859   1.45086   1.45371   1.45517
 Alpha virt. eigenvalues --    1.45653   1.45993   1.46423   1.46661   1.47518
 Alpha virt. eigenvalues --    1.48009   1.48235   1.49719   1.49777   1.49930
 Alpha virt. eigenvalues --    1.50368   1.50863   1.51829   1.52354   1.52509
 Alpha virt. eigenvalues --    1.52672   1.53093   1.53461   1.53844   1.55317
 Alpha virt. eigenvalues --    1.55502   1.57479   1.58048   1.58122   1.58266
 Alpha virt. eigenvalues --    1.58524   1.58958   1.59048   1.59479   1.60145
 Alpha virt. eigenvalues --    1.60705   1.60932   1.61420   1.61601   1.61996
 Alpha virt. eigenvalues --    1.62202   1.62509   1.62902   1.63454   1.64015
 Alpha virt. eigenvalues --    1.64582   1.64790   1.64974   1.65525   1.65772
 Alpha virt. eigenvalues --    1.66052   1.66840   1.68085   1.68366   1.69780
 Alpha virt. eigenvalues --    1.70362   1.70666   1.71107   1.72686   1.73174
 Alpha virt. eigenvalues --    1.73335   1.73538   1.74279   1.74452   1.75040
 Alpha virt. eigenvalues --    1.75845   1.76403   1.77504   1.77816   1.77941
 Alpha virt. eigenvalues --    1.78337   1.78626   1.79030   1.79263   1.79688
 Alpha virt. eigenvalues --    1.79865   1.80996   1.81171   1.81620   1.81661
 Alpha virt. eigenvalues --    1.82397   1.82984   1.83746   1.83956   1.84131
 Alpha virt. eigenvalues --    1.84494   1.85001   1.85033   1.85572   1.86113
 Alpha virt. eigenvalues --    1.86272   1.86534   1.86807   1.87419   1.87743
 Alpha virt. eigenvalues --    1.88383   1.88571   1.89050   1.89204   1.89374
 Alpha virt. eigenvalues --    1.89882   1.90527   1.91412   1.92204   1.92671
 Alpha virt. eigenvalues --    1.93098   1.93178   1.93842   1.93900   1.95061
 Alpha virt. eigenvalues --    1.96209   1.96881   1.97677   1.97900   1.98515
 Alpha virt. eigenvalues --    1.98689   2.01891   2.01907   2.02129   2.03440
 Alpha virt. eigenvalues --    2.05408   2.05724   2.07188   2.08474   2.08810
 Alpha virt. eigenvalues --    2.10814   2.11079   2.11618   2.12558   2.13116
 Alpha virt. eigenvalues --    2.13919   2.14667   2.14833   2.15662   2.17571
 Alpha virt. eigenvalues --    2.18536   2.18913   2.19118   2.19860   2.20420
 Alpha virt. eigenvalues --    2.20716   2.20890   2.21675   2.24853   2.26292
 Alpha virt. eigenvalues --    2.26551   2.27027   2.27667   2.28708   2.29678
 Alpha virt. eigenvalues --    2.29956   2.30742   2.31504   2.32350   2.32904
 Alpha virt. eigenvalues --    2.33419   2.33751   2.33856   2.34477   2.34671
 Alpha virt. eigenvalues --    2.34882   2.39099   2.39723   2.42075   2.42943
 Alpha virt. eigenvalues --    2.43434   2.48216   2.49615   2.55062   2.65515
 Alpha virt. eigenvalues --    2.67072   2.67141   2.67169   2.67362   2.68049
 Alpha virt. eigenvalues --    2.68564   2.69171   2.69234   2.69315   2.69573
 Alpha virt. eigenvalues --    2.69626   2.69732   2.69824   2.69907   2.70082
 Alpha virt. eigenvalues --    2.70114   2.70161   2.70632   2.70683   2.70760
 Alpha virt. eigenvalues --    2.70828   2.70880   2.71149   2.71452   2.71624
 Alpha virt. eigenvalues --    2.71750   2.72074   2.72783   2.72852   2.72996
 Alpha virt. eigenvalues --    2.73252   2.73285   2.73529   2.73653   2.73817
 Alpha virt. eigenvalues --    2.74108   2.74258   2.74310   2.74394   2.75387
 Alpha virt. eigenvalues --    2.75480   2.75576   2.75639   2.75687   2.75691
 Alpha virt. eigenvalues --    2.75887   2.75923   2.76050   2.76120   2.76207
 Alpha virt. eigenvalues --    2.76279   2.76407   2.76543   2.76978   2.77443
 Alpha virt. eigenvalues --    2.77518   2.77712   2.78067   2.78397   2.78509
 Alpha virt. eigenvalues --    2.78674   2.79060   2.79355   2.79540   2.79656
 Alpha virt. eigenvalues --    2.79719   2.79921   2.80142   2.80395   2.81149
 Alpha virt. eigenvalues --    2.82180   2.82435   2.82558   2.82692   2.82710
 Alpha virt. eigenvalues --    2.82960   2.83081   2.83564   2.83967   2.84773
 Alpha virt. eigenvalues --    2.84832   2.85205   2.85344   2.85783   2.85934
 Alpha virt. eigenvalues --    2.86007   2.86167   2.86472   2.87237   2.87461
 Alpha virt. eigenvalues --    2.87735   2.88469   2.88659   2.88723   2.88879
 Alpha virt. eigenvalues --    2.88904   2.89372   2.89429   2.89489   2.90154
 Alpha virt. eigenvalues --    2.91022   2.91173   2.92073   2.92137   2.92223
 Alpha virt. eigenvalues --    2.92722   2.92729   2.92795   2.93112   2.93160
 Alpha virt. eigenvalues --    2.93676   2.94077   2.94456   2.94557   2.94780
 Alpha virt. eigenvalues --    2.94838   2.94869   2.95229   2.95363   2.95703
 Alpha virt. eigenvalues --    2.95847   2.96082   2.96139   2.96377   2.96447
 Alpha virt. eigenvalues --    2.96617   2.96781   2.96910   2.97193   2.97400
 Alpha virt. eigenvalues --    2.97574   2.98029   2.98285   2.98308   2.98953
 Alpha virt. eigenvalues --    2.99118   2.99444   2.99506   2.99740   2.99763
 Alpha virt. eigenvalues --    2.99968   3.00312   3.00432   3.00663   3.00772
 Alpha virt. eigenvalues --    3.01359   3.01619   3.01856   3.02312   3.02415
 Alpha virt. eigenvalues --    3.02703   3.02881   3.03375   3.04162   3.07142
 Alpha virt. eigenvalues --    3.08370   3.08665   3.08805   3.08920   3.09259
 Alpha virt. eigenvalues --    3.09725   3.10063   3.10095   3.10235   3.13887
 Alpha virt. eigenvalues --    3.14063   3.14119   3.14830   3.15121   3.15183
 Alpha virt. eigenvalues --    3.16513   3.16586   3.16825   3.22465   3.27922
 Alpha virt. eigenvalues --    3.29400   3.29680   3.30485   3.42824   3.43509
 Alpha virt. eigenvalues --    3.44252   3.44744   3.45986   3.46751   3.46813
 Alpha virt. eigenvalues --    3.47696   3.47943   3.48173   3.49073   3.49303
 Alpha virt. eigenvalues --    3.49665   3.53124   3.53965   3.54438   3.55541
 Alpha virt. eigenvalues --    3.55682   3.56549   3.56714   3.57209   3.57324
 Alpha virt. eigenvalues --    3.57525   3.57594   3.57975   3.58625   3.59523
 Alpha virt. eigenvalues --    3.59869   3.60906   3.61418   3.61675   3.62533
 Alpha virt. eigenvalues --    3.62649   3.63296   3.63666   3.64015   3.64523
 Alpha virt. eigenvalues --    3.73406   3.77368  68.66695  68.67703  68.68950
 Alpha virt. eigenvalues --   68.71138  68.74992  68.75919  68.83813  68.84830
 Alpha virt. eigenvalues --   68.85352  68.88061  68.89110  68.90371 576.25145
 Alpha virt. eigenvalues --  576.26131 576.27353 576.29492 576.33359 576.34265
 Alpha virt. eigenvalues --  576.42013 576.43014 576.43513 576.46125 576.47156
 Alpha virt. eigenvalues --  576.48405
  Beta  occ. eigenvalues -- -197.10728-129.99152-129.99134-129.99114-101.62586
  Beta  occ. eigenvalues --  -22.43156 -19.28499 -19.28482 -19.28449 -19.28375
  Beta  occ. eigenvalues --  -19.28367 -19.28348 -19.28341 -19.28339 -19.28323
  Beta  occ. eigenvalues --  -19.28234 -19.28206 -19.28122 -19.26951 -19.26912
  Beta  occ. eigenvalues --  -19.26902 -19.26897 -19.26881 -19.26878 -19.26843
  Beta  occ. eigenvalues --  -19.26838 -19.26832 -19.26816 -19.26811 -19.26798
  Beta  occ. eigenvalues --  -19.26790 -19.26786 -19.26784 -19.26783 -19.26779
  Beta  occ. eigenvalues --  -19.26768 -19.26742 -19.26723 -19.26716 -19.26708
  Beta  occ. eigenvalues --  -19.26650 -19.26612 -19.24698 -19.24626 -19.24618
  Beta  occ. eigenvalues --  -19.24593 -18.93649 -18.91435 -18.91413 -13.36561
  Beta  occ. eigenvalues --  -13.36543 -13.36512 -10.69488 -10.69483 -10.69483
  Beta  occ. eigenvalues --  -10.69469 -10.69465 -10.69465 -10.69440 -10.69436
  Beta  occ. eigenvalues --  -10.69433 -10.33038 -10.32337 -10.31710 -10.30941
  Beta  occ. eigenvalues --  -10.30932 -10.30896 -10.30398 -10.30317  -9.53041
  Beta  occ. eigenvalues --   -7.28908  -7.27436  -7.27430  -3.21055  -3.21026
  Beta  occ. eigenvalues --   -3.21026  -3.21024  -3.20997  -3.20978  -3.20972
  Beta  occ. eigenvalues --   -3.20970  -3.20958  -3.20825  -3.20801  -3.20776
  Beta  occ. eigenvalues --   -2.74666  -1.85292  -1.85260  -1.85236  -1.85208
  Beta  occ. eigenvalues --   -1.85088  -1.85044  -1.85022  -1.85002  -1.84990
  Beta  occ. eigenvalues --   -1.84984  -1.84962  -1.84895  -1.84355  -1.84243
  Beta  occ. eigenvalues --   -1.84228  -1.84223  -1.84184  -1.84176  -1.84105
  Beta  occ. eigenvalues --   -1.84092  -1.84068  -1.84058  -1.84037  -1.84024
  Beta  occ. eigenvalues --   -1.83905  -1.83878  -1.83866  -1.83859  -1.83821
  Beta  occ. eigenvalues --   -1.83787  -1.83769  -1.83764  -1.83745  -1.83646
  Beta  occ. eigenvalues --   -1.83642  -1.83627  -1.80557  -1.75819  -1.75777
  Beta  occ. eigenvalues --   -1.50260  -1.50242  -1.50212  -1.08568  -1.06938
  Beta  occ. eigenvalues --   -1.06898  -1.06869  -1.05978  -1.05969  -1.05934
  Beta  occ. eigenvalues --   -1.04548  -1.04536  -1.04535  -1.03943  -1.03928
  Beta  occ. eigenvalues --   -1.03595  -1.03298  -1.03251  -1.03238  -1.03025
  Beta  occ. eigenvalues --   -1.02995  -1.02206  -1.02189  -1.02167  -1.02042
  Beta  occ. eigenvalues --   -1.01999  -1.01963  -1.01900  -1.01868  -1.01771
  Beta  occ. eigenvalues --   -1.01729  -1.01717  -1.01604  -1.01551  -1.01520
  Beta  occ. eigenvalues --   -1.01285  -1.00760  -1.00749  -1.00704  -1.00691
  Beta  occ. eigenvalues --   -0.99837  -0.99756  -0.99716  -0.96265  -0.89825
  Beta  occ. eigenvalues --   -0.85700  -0.85681  -0.85657  -0.85548  -0.85542
  Beta  occ. eigenvalues --   -0.85531  -0.85525  -0.85506  -0.85487  -0.84531
  Beta  occ. eigenvalues --   -0.84242  -0.82651  -0.72075  -0.69619  -0.65192
  Beta  occ. eigenvalues --   -0.62279  -0.61663  -0.61622  -0.61582  -0.60705
  Beta  occ. eigenvalues --   -0.58937  -0.58933  -0.58916  -0.58776  -0.58738
  Beta  occ. eigenvalues --   -0.58712  -0.58700  -0.58641  -0.58513  -0.57311
  Beta  occ. eigenvalues --   -0.57143  -0.57102  -0.56952  -0.56840  -0.56453
  Beta  occ. eigenvalues --   -0.56379  -0.56336  -0.55786  -0.55570  -0.55315
  Beta  occ. eigenvalues --   -0.55314  -0.55298  -0.54483  -0.54157  -0.54124
  Beta  occ. eigenvalues --   -0.53943  -0.53620  -0.53585  -0.53540  -0.52736
  Beta  occ. eigenvalues --   -0.52618  -0.52557  -0.52466  -0.52429  -0.51463
  Beta  occ. eigenvalues --   -0.51430  -0.51415  -0.51304  -0.51244  -0.50834
  Beta  occ. eigenvalues --   -0.50470  -0.50443  -0.50393  -0.50303  -0.50215
  Beta  occ. eigenvalues --   -0.50160  -0.50029  -0.50009  -0.49969  -0.49687
  Beta  occ. eigenvalues --   -0.49625  -0.49606  -0.49458  -0.49426  -0.49278
  Beta  occ. eigenvalues --   -0.49216  -0.49174  -0.49059  -0.49029  -0.48936
  Beta  occ. eigenvalues --   -0.48684  -0.48542  -0.48509  -0.48446  -0.47768
  Beta  occ. eigenvalues --   -0.47634  -0.47536  -0.45891  -0.45875  -0.45780
  Beta  occ. eigenvalues --   -0.45778  -0.45655  -0.45543  -0.45184  -0.45156
  Beta  occ. eigenvalues --   -0.45133  -0.45028  -0.44823  -0.44613  -0.44452
  Beta  occ. eigenvalues --   -0.44420  -0.44391  -0.44248  -0.44191  -0.44172
  Beta  occ. eigenvalues --   -0.43397  -0.43078  -0.42489  -0.42463  -0.42390
  Beta  occ. eigenvalues --   -0.42238  -0.42117  -0.42109  -0.42099  -0.41600
  Beta  occ. eigenvalues --   -0.41587  -0.41535  -0.41296  -0.41020  -0.40925
  Beta  occ. eigenvalues --   -0.40736  -0.40704  -0.40641  -0.40374  -0.40370
  Beta  occ. eigenvalues --   -0.40304  -0.40157  -0.40138  -0.40114  -0.39793
  Beta  occ. eigenvalues --   -0.39620  -0.39332  -0.39157  -0.39102  -0.39079
  Beta  occ. eigenvalues --   -0.38891  -0.38864  -0.38817  -0.38725  -0.38676
  Beta  occ. eigenvalues --   -0.38640  -0.38302  -0.38269  -0.38238  -0.37650
  Beta  occ. eigenvalues --   -0.37186  -0.37172  -0.35686  -0.35669  -0.33784
  Beta  occ. eigenvalues --   -0.30736
  Beta virt. eigenvalues --   -0.06225  -0.06183  -0.04777  -0.04695  -0.04597
  Beta virt. eigenvalues --   -0.01489  -0.01392  -0.01329  -0.01064  -0.00895
  Beta virt. eigenvalues --   -0.00864  -0.00813  -0.00127  -0.00043  -0.00008
  Beta virt. eigenvalues --    0.00716   0.00734   0.00781   0.00910   0.01053
  Beta virt. eigenvalues --    0.01561   0.01889   0.01903   0.01933   0.02485
  Beta virt. eigenvalues --    0.02765   0.02834   0.02901   0.03525   0.03726
  Beta virt. eigenvalues --    0.03805   0.04038   0.04076   0.04333   0.04363
  Beta virt. eigenvalues --    0.04393   0.04415   0.04641   0.05043   0.05135
  Beta virt. eigenvalues --    0.05740   0.06489   0.07274   0.08501   0.08531
  Beta virt. eigenvalues --    0.08577   0.08653   0.09357   0.09480   0.09635
  Beta virt. eigenvalues --    0.09852   0.09907   0.10029   0.10062   0.10102
  Beta virt. eigenvalues --    0.10155   0.10348   0.10587   0.10899   0.10957
  Beta virt. eigenvalues --    0.11471   0.11611   0.11719   0.11992   0.12220
  Beta virt. eigenvalues --    0.12375   0.12453   0.12522   0.12580   0.13324
  Beta virt. eigenvalues --    0.13438   0.13624   0.14022   0.14277   0.14826
  Beta virt. eigenvalues --    0.14989   0.15024   0.15232   0.15376   0.15852
  Beta virt. eigenvalues --    0.16079   0.16730   0.17070   0.17741   0.17822
  Beta virt. eigenvalues --    0.18296   0.18439   0.18611   0.18784   0.18940
  Beta virt. eigenvalues --    0.19306   0.19414   0.19541   0.19584   0.19669
  Beta virt. eigenvalues --    0.19930   0.20070   0.20414   0.20715   0.20926
  Beta virt. eigenvalues --    0.21153   0.21325   0.21371   0.21563   0.21603
  Beta virt. eigenvalues --    0.21705   0.21960   0.21976   0.22170   0.22293
  Beta virt. eigenvalues --    0.22383   0.22809   0.23170   0.23242   0.23301
  Beta virt. eigenvalues --    0.23369   0.23606   0.23791   0.24023   0.24245
  Beta virt. eigenvalues --    0.24408   0.24569   0.24705   0.24997   0.25167
  Beta virt. eigenvalues --    0.25440   0.25482   0.25589   0.26274   0.26813
  Beta virt. eigenvalues --    0.26864   0.27170   0.27360   0.27647   0.27920
  Beta virt. eigenvalues --    0.27984   0.28379   0.28761   0.28796   0.29083
  Beta virt. eigenvalues --    0.29322   0.29343   0.29444   0.29588   0.29741
  Beta virt. eigenvalues --    0.30109   0.30493   0.30924   0.31229   0.31537
  Beta virt. eigenvalues --    0.31689   0.32302   0.32536   0.32709   0.33292
  Beta virt. eigenvalues --    0.33710   0.34429   0.35408   0.36930   0.37143
  Beta virt. eigenvalues --    0.38239   0.38836   0.39027   0.39358   0.39656
  Beta virt. eigenvalues --    0.40377   0.41394   0.41841   0.42003   0.42128
  Beta virt. eigenvalues --    0.42269   0.42517   0.42811   0.43362   0.43994
  Beta virt. eigenvalues --    0.44268   0.44507   0.44916   0.45188   0.45511
  Beta virt. eigenvalues --    0.45674   0.45834   0.45939   0.46474   0.46591
  Beta virt. eigenvalues --    0.46992   0.47143   0.47726   0.47892   0.48187
  Beta virt. eigenvalues --    0.48322   0.48355   0.48693   0.49046   0.49128
  Beta virt. eigenvalues --    0.49368   0.49710   0.49890   0.49965   0.50032
  Beta virt. eigenvalues --    0.50172   0.50467   0.50620   0.50746   0.50860
  Beta virt. eigenvalues --    0.51311   0.51397   0.51708   0.51877   0.52180
  Beta virt. eigenvalues --    0.52584   0.52819   0.52939   0.53158   0.53414
  Beta virt. eigenvalues --    0.53787   0.54028   0.54355   0.54431   0.54658
  Beta virt. eigenvalues --    0.54770   0.55461   0.56055   0.56083   0.56462
  Beta virt. eigenvalues --    0.56636   0.57105   0.57173   0.57299   0.57796
  Beta virt. eigenvalues --    0.58402   0.58768   0.58999   0.59415   0.59504
  Beta virt. eigenvalues --    0.60046   0.60574   0.60804   0.61190   0.61695
  Beta virt. eigenvalues --    0.61975   0.62898   0.63512   0.64112   0.64684
  Beta virt. eigenvalues --    0.65040   0.66160   0.66487   0.66555   0.66639
  Beta virt. eigenvalues --    0.67789   0.68075   0.68259   0.68780   0.68895
  Beta virt. eigenvalues --    0.69730   0.70295   0.70608   0.71278   0.71769
  Beta virt. eigenvalues --    0.72088   0.72411   0.72679   0.72884   0.73059
  Beta virt. eigenvalues --    0.73099   0.73326   0.73396   0.73667   0.73760
  Beta virt. eigenvalues --    0.74156   0.74201   0.74969   0.75566   0.75729
  Beta virt. eigenvalues --    0.76240   0.77103   0.77225   0.77943   0.78457
  Beta virt. eigenvalues --    0.79085   0.79665   0.80011   0.80561   0.80924
  Beta virt. eigenvalues --    0.81110   0.81211   0.82052   0.82243   0.82545
  Beta virt. eigenvalues --    0.83026   0.83444   0.83978   0.84259   0.84406
  Beta virt. eigenvalues --    0.84685   0.85235   0.85635   0.86541   0.87314
  Beta virt. eigenvalues --    0.87876   0.88403   0.88793   0.89470   0.89767
  Beta virt. eigenvalues --    0.89928   0.90304   0.90451   0.90696   0.91258
  Beta virt. eigenvalues --    0.91389   0.91903   0.91992   0.92098   0.92118
  Beta virt. eigenvalues --    0.92570   0.92679   0.93231   0.93395   0.93709
  Beta virt. eigenvalues --    0.94870   0.95226   0.95494   0.95891   0.96809
  Beta virt. eigenvalues --    0.97246   0.97329   0.97937   0.98172   0.98809
  Beta virt. eigenvalues --    0.99310   0.99369   0.99675   0.99781   1.00102
  Beta virt. eigenvalues --    1.00419   1.00607   1.00745   1.01042   1.01161
  Beta virt. eigenvalues --    1.01221   1.01337   1.01908   1.01922   1.02340
  Beta virt. eigenvalues --    1.02612   1.02704   1.03435   1.03771   1.03818
  Beta virt. eigenvalues --    1.04035   1.04303   1.04797   1.04934   1.05051
  Beta virt. eigenvalues --    1.05231   1.05486   1.05669   1.06109   1.06678
  Beta virt. eigenvalues --    1.07107   1.07144   1.07398   1.07574   1.07703
  Beta virt. eigenvalues --    1.07900   1.08111   1.08512   1.08844   1.08893
  Beta virt. eigenvalues --    1.09072   1.09404   1.09608   1.10271   1.10992
  Beta virt. eigenvalues --    1.11250   1.11470   1.11934   1.12226   1.12415
  Beta virt. eigenvalues --    1.12480   1.12932   1.13137   1.13291   1.13339
  Beta virt. eigenvalues --    1.13485   1.13791   1.13914   1.14264   1.14418
  Beta virt. eigenvalues --    1.14588   1.14966   1.15210   1.15500   1.15974
  Beta virt. eigenvalues --    1.16425   1.17330   1.17638   1.18011   1.18516
  Beta virt. eigenvalues --    1.18928   1.19445   1.19865   1.19918   1.20283
  Beta virt. eigenvalues --    1.20556   1.21182   1.22709   1.22917   1.22959
  Beta virt. eigenvalues --    1.23252   1.23326   1.23733   1.23821   1.24649
  Beta virt. eigenvalues --    1.25187   1.25720   1.27135   1.27556   1.27866
  Beta virt. eigenvalues --    1.28290   1.29061   1.29385   1.30096   1.30317
  Beta virt. eigenvalues --    1.30627   1.30746   1.30923   1.31064   1.31614
  Beta virt. eigenvalues --    1.31868   1.32017   1.32245   1.32444   1.32502
  Beta virt. eigenvalues --    1.32627   1.32828   1.32942   1.33317   1.34044
  Beta virt. eigenvalues --    1.34526   1.34888   1.35050   1.35505   1.35683
  Beta virt. eigenvalues --    1.35769   1.35856   1.36315   1.36513   1.36654
  Beta virt. eigenvalues --    1.36889   1.37195   1.37824   1.38018   1.38036
  Beta virt. eigenvalues --    1.38276   1.38597   1.38763   1.38862   1.39045
  Beta virt. eigenvalues --    1.39142   1.39511   1.39533   1.39703   1.39970
  Beta virt. eigenvalues --    1.40213   1.40282   1.40623   1.40930   1.41127
  Beta virt. eigenvalues --    1.41148   1.41197   1.41518   1.41705   1.41903
  Beta virt. eigenvalues --    1.42213   1.42457   1.42635   1.42742   1.43030
  Beta virt. eigenvalues --    1.43193   1.43428   1.43664   1.43836   1.44308
  Beta virt. eigenvalues --    1.44565   1.44830   1.45049   1.45385   1.45527
  Beta virt. eigenvalues --    1.45647   1.45980   1.46380   1.46726   1.47523
  Beta virt. eigenvalues --    1.47966   1.48241   1.49726   1.49786   1.49939
  Beta virt. eigenvalues --    1.50370   1.50871   1.51848   1.52358   1.52523
  Beta virt. eigenvalues --    1.52677   1.53112   1.53471   1.53863   1.55335
  Beta virt. eigenvalues --    1.55510   1.57484   1.58073   1.58142   1.58285
  Beta virt. eigenvalues --    1.58556   1.58973   1.59070   1.59514   1.60157
  Beta virt. eigenvalues --    1.60724   1.60954   1.61429   1.61606   1.62007
  Beta virt. eigenvalues --    1.62211   1.62502   1.62917   1.63455   1.64095
  Beta virt. eigenvalues --    1.64706   1.64911   1.65114   1.65622   1.65826
  Beta virt. eigenvalues --    1.66136   1.66923   1.68251   1.68429   1.69837
  Beta virt. eigenvalues --    1.70396   1.70695   1.71102   1.72524   1.73175
  Beta virt. eigenvalues --    1.73320   1.73549   1.74297   1.74480   1.75018
  Beta virt. eigenvalues --    1.75800   1.76347   1.77461   1.77817   1.77887
  Beta virt. eigenvalues --    1.78288   1.78511   1.79017   1.79258   1.79634
  Beta virt. eigenvalues --    1.79850   1.81002   1.81179   1.81613   1.81625
  Beta virt. eigenvalues --    1.82405   1.82899   1.83731   1.83994   1.84086
  Beta virt. eigenvalues --    1.84490   1.84978   1.85008   1.85574   1.86120
  Beta virt. eigenvalues --    1.86259   1.86568   1.86812   1.87432   1.87749
  Beta virt. eigenvalues --    1.88377   1.88533   1.88908   1.89165   1.89292
  Beta virt. eigenvalues --    1.89897   1.90540   1.91395   1.92122   1.92670
  Beta virt. eigenvalues --    1.93115   1.93178   1.93858   1.93890   1.95066
  Beta virt. eigenvalues --    1.96255   1.96763   1.97706   1.97940   1.98591
  Beta virt. eigenvalues --    1.98716   2.01955   2.01984   2.02252   2.03193
  Beta virt. eigenvalues --    2.05257   2.05546   2.07117   2.08358   2.08537
  Beta virt. eigenvalues --    2.10822   2.11086   2.11617   2.11981   2.13080
  Beta virt. eigenvalues --    2.13931   2.14684   2.14850   2.15706   2.17600
  Beta virt. eigenvalues --    2.18356   2.18905   2.19167   2.19647   2.20392
  Beta virt. eigenvalues --    2.20853   2.20999   2.21820   2.24797   2.26600
  Beta virt. eigenvalues --    2.26720   2.27453   2.27773   2.29431   2.29939
  Beta virt. eigenvalues --    2.30298   2.30969   2.31373   2.32831   2.33425
  Beta virt. eigenvalues --    2.33700   2.34113   2.34374   2.34897   2.35737
  Beta virt. eigenvalues --    2.36262   2.38852   2.39579   2.41977   2.42827
  Beta virt. eigenvalues --    2.43496   2.47707   2.49347   2.54451   2.65248
  Beta virt. eigenvalues --    2.66877   2.67118   2.67152   2.67260   2.68047
  Beta virt. eigenvalues --    2.68459   2.69171   2.69233   2.69307   2.69573
  Beta virt. eigenvalues --    2.69627   2.69734   2.69827   2.69909   2.70093
  Beta virt. eigenvalues --    2.70132   2.70176   2.70618   2.70704   2.70774
  Beta virt. eigenvalues --    2.70849   2.70896   2.71084   2.71408   2.71620
  Beta virt. eigenvalues --    2.71753   2.72072   2.72784   2.72857   2.73003
  Beta virt. eigenvalues --    2.73273   2.73307   2.73530   2.73653   2.73800
  Beta virt. eigenvalues --    2.73904   2.74267   2.74315   2.74381   2.75396
  Beta virt. eigenvalues --    2.75487   2.75580   2.75645   2.75693   2.75696
  Beta virt. eigenvalues --    2.75899   2.75930   2.76054   2.76128   2.76213
  Beta virt. eigenvalues --    2.76284   2.76412   2.76548   2.76980   2.77462
  Beta virt. eigenvalues --    2.77537   2.77747   2.78091   2.78425   2.78519
  Beta virt. eigenvalues --    2.78698   2.79070   2.79385   2.79563   2.79676
  Beta virt. eigenvalues --    2.79742   2.79916   2.80082   2.80335   2.81151
  Beta virt. eigenvalues --    2.82244   2.82457   2.82603   2.82704   2.82716
  Beta virt. eigenvalues --    2.82972   2.83113   2.83560   2.83957   2.84787
  Beta virt. eigenvalues --    2.84847   2.85227   2.85368   2.85787   2.85831
  Beta virt. eigenvalues --    2.85948   2.86143   2.86476   2.87263   2.87488
  Beta virt. eigenvalues --    2.87763   2.88475   2.88661   2.88727   2.88881
  Beta virt. eigenvalues --    2.88908   2.89389   2.89454   2.89498   2.90157
  Beta virt. eigenvalues --    2.91036   2.91194   2.92083   2.92144   2.92230
  Beta virt. eigenvalues --    2.92736   2.92742   2.92809   2.93142   2.93196
  Beta virt. eigenvalues --    2.93701   2.94075   2.94463   2.94557   2.94707
  Beta virt. eigenvalues --    2.94853   2.94883   2.95206   2.95328   2.95711
  Beta virt. eigenvalues --    2.95861   2.96101   2.96158   2.96382   2.96456
  Beta virt. eigenvalues --    2.96631   2.96781   2.96834   2.97202   2.97410
  Beta virt. eigenvalues --    2.97578   2.98044   2.98302   2.98316   2.98985
  Beta virt. eigenvalues --    2.99125   2.99340   2.99507   2.99668   2.99798
  Beta virt. eigenvalues --    3.00006   3.00325   3.00510   3.00715   3.00826
  Beta virt. eigenvalues --    3.01381   3.01629   3.01864   3.02332   3.02449
  Beta virt. eigenvalues --    3.02716   3.02899   3.03389   3.04172   3.07146
  Beta virt. eigenvalues --    3.08611   3.08679   3.08760   3.08869   3.09271
  Beta virt. eigenvalues --    3.09867   3.10358   3.10451   3.11065   3.13897
  Beta virt. eigenvalues --    3.14072   3.14127   3.14829   3.15042   3.15171
  Beta virt. eigenvalues --    3.16526   3.16596   3.16897   3.22404   3.28412
  Beta virt. eigenvalues --    3.30336   3.30570   3.30840   3.42827   3.43516
  Beta virt. eigenvalues --    3.44255   3.44747   3.45799   3.46752   3.46821
  Beta virt. eigenvalues --    3.47701   3.47944   3.48176   3.49076   3.49305
  Beta virt. eigenvalues --    3.49667   3.53130   3.53985   3.54456   3.55546
  Beta virt. eigenvalues --    3.55691   3.56564   3.56723   3.57225   3.57352
  Beta virt. eigenvalues --    3.57542   3.57620   3.57999   3.58636   3.59527
  Beta virt. eigenvalues --    3.59873   3.60926   3.61425   3.61681   3.62536
  Beta virt. eigenvalues --    3.62652   3.63301   3.63667   3.64018   3.64529
  Beta virt. eigenvalues --    3.73344   3.77599  68.66697  68.67704  68.68951
  Beta virt. eigenvalues --   68.71140  68.74993  68.75921  68.83815  68.84831
  Beta virt. eigenvalues --   68.85353  68.88063  68.89111  68.90373 576.25176
  Beta virt. eigenvalues --  576.26156 576.27380 576.29518 576.33377 576.34306
  Beta virt. eigenvalues --  576.42045 576.43034 576.43546 576.46159 576.47176
  Beta virt. eigenvalues --  576.48439
          Condensed to atoms (all electrons):
          Atomic-Atomic Spin Densities.
 Mulliken charges and spin densities:
               1          2
     1  Cl  -0.349110  -0.622663
     2  C   -0.037713  -0.080964
     3  C    0.014822   0.045804
     4  C   -0.035820  -0.077552
     5  C   -0.031005   0.049921
     6  C    0.006735  -0.098271
     7  C   -0.048879   0.049363
     8  H    0.046895   0.003448
     9  H    0.049193   0.003333
    10  H    0.053740  -0.001761
    11  H    0.054917   0.004319
    12  H    0.052695  -0.001717
    13  C    0.000011  -0.204711
    14  C   -0.027291  -0.081928
    15  H    0.072694   0.008801
    16  H    0.094375   0.004510
    17  H    0.092472   0.003720
    18  O   -0.671667  -0.000567
    19  O   -0.668372  -0.000497
    20  O   -0.665944  -0.001875
    21  O   -0.670454  -0.000524
    22  W    1.716942   0.000354
    23  W    1.655145   0.000512
    24  W    1.667380   0.000189
    25  W    1.675947   0.000190
    26  W    1.660705   0.002769
    27  W    1.708274   0.002512
    28  W    1.612844   0.003307
    29  W    1.668604   0.002915
    30  O   -0.351089  -0.000532
    31  O   -0.394734  -0.000560
    32  O   -0.394342  -0.000601
    33  O   -0.392574  -0.000552
    34  O   -0.672171  -0.000309
    35  O   -0.677200  -0.000071
    36  O   -0.669457  -0.000151
    37  O   -0.671161  -0.000236
    38  O   -0.395810   0.002068
    39  O   -0.396002   0.002084
    40  O   -0.339566  -0.001025
    41  O   -0.395837   0.002074
    42  O   -0.677097   0.000084
    43  O   -0.670647   0.000182
    44  O   -0.666840   0.000303
    45  O   -0.673518   0.000102
    46  O   -0.395998   0.002336
    47  O   -0.352687   0.002222
    48  O   -0.387476   0.001802
    49  O   -0.394749   0.002390
    50  W    1.656979   0.002798
    51  W    1.659982   0.002684
    52  W    1.672018   0.003797
    53  W    1.668142   0.002625
    54  O   -0.720560   0.000095
    55  O   -0.704277   0.000003
    56  O   -0.722173   0.000163
    57  O   -0.719052   0.000054
    58  O   -0.703029  -0.000015
    59  O   -0.722464   0.000151
    60  O   -0.721359   0.000202
    61  O   -0.717437   0.000199
    62  O   -0.721890  -0.000171
    63  O   -0.705769  -0.000010
    64  O   -0.721278  -0.000189
    65  O   -0.723641  -0.000202
    66  O   -0.882871   0.005174
    67  O   -0.883167   0.007265
    68  O   -0.881226   0.007072
    69  O   -0.888360   0.006561
    70  K    0.852265   0.000193
    71  K    0.852115   0.000215
    72  K    0.848134   0.000238
    73  V    1.199738   0.936547
 Sum of Mulliken charges =  -1.00000   0.00000
 Mulliken charges and spin densities with hydrogens summed into heavy atoms:
               1          2
     1  Cl  -0.349110  -0.622663
     2  C    0.009182  -0.077516
     3  C    0.014822   0.045804
     4  C    0.013373  -0.074219
     5  C    0.022735   0.048160
     6  C    0.061652  -0.093951
     7  C    0.003816   0.047645
    13  C    0.072704  -0.195909
    14  C    0.159556  -0.073699
    18  O   -0.671667  -0.000567
    19  O   -0.668372  -0.000497
    20  O   -0.665944  -0.001875
    21  O   -0.670454  -0.000524
    22  W    1.716942   0.000354
    23  W    1.655145   0.000512
    24  W    1.667380   0.000189
    25  W    1.675947   0.000190
    26  W    1.660705   0.002769
    27  W    1.708274   0.002512
    28  W    1.612844   0.003307
    29  W    1.668604   0.002915
    30  O   -0.351089  -0.000532
    31  O   -0.394734  -0.000560
    32  O   -0.394342  -0.000601
    33  O   -0.392574  -0.000552
    34  O   -0.672171  -0.000309
    35  O   -0.677200  -0.000071
    36  O   -0.669457  -0.000151
    37  O   -0.671161  -0.000236
    38  O   -0.395810   0.002068
    39  O   -0.396002   0.002084
    40  O   -0.339566  -0.001025
    41  O   -0.395837   0.002074
    42  O   -0.677097   0.000084
    43  O   -0.670647   0.000182
    44  O   -0.666840   0.000303
    45  O   -0.673518   0.000102
    46  O   -0.395998   0.002336
    47  O   -0.352687   0.002222
    48  O   -0.387476   0.001802
    49  O   -0.394749   0.002390
    50  W    1.656979   0.002798
    51  W    1.659982   0.002684
    52  W    1.672018   0.003797
    53  W    1.668142   0.002625
    54  O   -0.720560   0.000095
    55  O   -0.704277   0.000003
    56  O   -0.722173   0.000163
    57  O   -0.719052   0.000054
    58  O   -0.703029  -0.000015
    59  O   -0.722464   0.000151
    60  O   -0.721359   0.000202
    61  O   -0.717437   0.000199
    62  O   -0.721890  -0.000171
    63  O   -0.705769  -0.000010
    64  O   -0.721278  -0.000189
    65  O   -0.723641  -0.000202
    66  O   -0.882871   0.005174
    67  O   -0.883167   0.007265
    68  O   -0.881226   0.007072
    69  O   -0.888360   0.006561
    70  K    0.852265   0.000193
    71  K    0.852115   0.000215
    72  K    0.848134   0.000238
    73  V    1.199738   0.936547
 Electronic spatial extent (au):  <R**2>=         316944.9919
 Charge=             -1.0000 electrons
 Dipole moment (field-independent basis, Debye):
    X=             29.3605    Y=            -13.7626    Z=            -30.7208  Tot=             44.6678
 Quadrupole moment (field-independent basis, Debye-Ang):
   XX=           -780.5693   YY=           -700.6945   ZZ=           -782.3614
   XY=            132.3049   XZ=            187.5805   YZ=            -93.7845
 Traceless Quadrupole moment (field-independent basis, Debye-Ang):
   XX=            -26.0275   YY=             53.8472   ZZ=            -27.8197
   XY=            132.3049   XZ=            187.5805   YZ=            -93.7845
 Octapole moment (field-independent basis, Debye-Ang**2):
  XXX=          10458.1466  YYY=            906.1486  ZZZ=         -17437.7695  XYY=           4092.6143
  XXY=           -695.0008  XXZ=          -6240.7450  XZZ=           4186.7336  YZZ=           -135.3378
  YYZ=          -6988.3711  XYZ=           1451.4267
 Hexadecapole moment (field-independent basis, Debye-Ang**3):
 XXXX=        -128337.6543 YYYY=         -39114.3098 ZZZZ=        -326113.7051 XXXY=           8834.0147
 XXXZ=          89060.8691 YYYX=           2603.5958 YYYZ=           7845.3306 ZZZX=          91704.7469
 ZZZY=           7754.9699 XXYY=         -35894.5929 XXZZ=         -71894.0244 YYZZ=         -77554.1958
 XXYZ=         -11286.1195 YYXZ=          40269.2272 ZZXY=          14917.1446
 N-N= 2.099863819211D+04 E-N=-5.910697255800D+04  KE= 6.765657892607D+03
                          Isotropic Fermi Contact Couplings
        Atom                 a.u.       MegaHertz       Gauss      10(-4) cm-1
     1  Cl(35)            -0.09615     -21.07839      -7.52129      -7.03099
     2  C(13)             -0.01254      -7.04855      -2.51510      -2.35114
     3  C(13)              0.01529       8.59597       3.06726       2.86731
     4  C(13)             -0.01209      -6.79491      -2.42459      -2.26654
     5  C(13)              0.01126       6.32704       2.25765       2.11047
     6  C(13)             -0.01581      -8.88659      -3.17096      -2.96425
     7  C(13)              0.01112       6.24778       2.22936       2.08403
     8  H(1)               0.00111       2.47574       0.88341       0.82582
     9  H(1)               0.00108       2.41455       0.86157       0.80541
    10  H(1)              -0.00052      -1.15673      -0.41275      -0.38584
    11  H(1)               0.00131       2.92205       1.04266       0.97469
    12  H(1)              -0.00050      -1.12702      -0.40215      -0.37593
    13  C(13)             -0.02760     -15.51109      -5.53474      -5.17394
    14  C(13)             -0.02513     -14.12798      -5.04122      -4.71259
    15  H(1)               0.00279       6.24075       2.22685       2.08169
    16  H(1)               0.00164       3.67568       1.31157       1.22608
    17  H(1)               0.00128       2.87153       1.02463       0.95784
    18  O(17)             -0.00045       0.13576       0.04844       0.04529
    19  O(17)             -0.00039       0.11951       0.04265       0.03987
    20  O(17)             -0.00164       0.49713       0.17739       0.16583
    21  O(17)             -0.00042       0.12753       0.04551       0.04254
    22  W(183)             0.00000       0.00000       0.00000       0.00000
    23  W(183)             0.00000       0.00000       0.00000       0.00000
    24  W(183)             0.00000       0.00000       0.00000       0.00000
    25  W(183)             0.00000       0.00000       0.00000       0.00000
    26  W(183)             0.00000       0.00000       0.00000       0.00000
    27  W(183)             0.00000       0.00000       0.00000       0.00000
    28  W(183)             0.00000       0.00000       0.00000       0.00000
    29  W(183)             0.00000       0.00000       0.00000       0.00000
    30  O(17)             -0.00020       0.06017       0.02147       0.02007
    31  O(17)             -0.00023       0.07051       0.02516       0.02352
    32  O(17)             -0.00025       0.07583       0.02706       0.02530
    33  O(17)             -0.00022       0.06747       0.02408       0.02251
    34  O(17)             -0.00006       0.01866       0.00666       0.00622
    35  O(17)              0.00012      -0.03614      -0.01289      -0.01205
    36  O(17)              0.00012      -0.03567      -0.01273      -0.01190
    37  O(17)              0.00003      -0.00930      -0.00332      -0.00310
    38  O(17)              0.00191      -0.57909      -0.20663      -0.19316
    39  O(17)              0.00187      -0.56632      -0.20208      -0.18891
    40  O(17)             -0.01125       3.41112       1.21717       1.13783
    41  O(17)              0.00187      -0.56535      -0.20173      -0.18858
    42  O(17)              0.00027      -0.08232      -0.02937      -0.02746
    43  O(17)              0.00034      -0.10419      -0.03718      -0.03475
    44  O(17)              0.00047      -0.14115      -0.05037      -0.04708
    45  O(17)              0.00029      -0.08648      -0.03086      -0.02885
    46  O(17)              0.00223      -0.67473      -0.24076      -0.22507
    47  O(17)              0.00200      -0.60507      -0.21591      -0.20183
    48  O(17)              0.00054      -0.16347      -0.05833      -0.05453
    49  O(17)              0.00224      -0.67801      -0.24193      -0.22616
    50  W(183)             0.00000       0.00000       0.00000       0.00000
    51  W(183)             0.00000       0.00000       0.00000       0.00000
    52  W(183)             0.00000       0.00000       0.00000       0.00000
    53  W(183)             0.00000       0.00000       0.00000       0.00000
    54  O(17)              0.00015      -0.04523      -0.01614      -0.01509
    55  O(17)              0.00003      -0.00897      -0.00320      -0.00299
    56  O(17)              0.00025      -0.07602      -0.02713      -0.02536
    57  O(17)              0.00004      -0.01351      -0.00482      -0.00451
    58  O(17)              0.00011      -0.03461      -0.01235      -0.01154
    59  O(17)              0.00026      -0.07949      -0.02837      -0.02652
    60  O(17)              0.00032      -0.09671      -0.03451      -0.03226
    61  O(17)              0.00033      -0.09935      -0.03545      -0.03314
    62  O(17)             -0.00026       0.07777       0.02775       0.02594
    63  O(17)             -0.00017       0.05211       0.01859       0.01738
    64  O(17)             -0.00028       0.08459       0.03018       0.02822
    65  O(17)             -0.00030       0.09220       0.03290       0.03076
    66  O(17)             -0.00815       2.46971       0.88125       0.82381
    67  O(17)             -0.00697       2.11313       0.75402       0.70487
    68  O(17)             -0.00716       2.16993       0.77428       0.72381
    69  O(17)             -0.00753       2.28081       0.81385       0.76080
    70  K(39)             -0.00002      -0.00197      -0.00070      -0.00066
    71  K(39)             -0.00002      -0.00189      -0.00068      -0.00063
    72  K(39)             -0.00002      -0.00212      -0.00076      -0.00071
    73  V(51)              0.07060      41.57770      14.83596      13.86883
 --------------------------------------------------------
       Center         ----  Spin Dipole Couplings  ----
                      3XX-RR        3YY-RR        3ZZ-RR
 --------------------------------------------------------
     1   Atom        0.491576     -1.834922      1.343346
     2   Atom       -0.016739     -0.012347      0.029087
     3   Atom        0.006040      0.001787     -0.007827
     4   Atom       -0.016914     -0.014023      0.030938
     5   Atom        0.010608      0.005786     -0.016394
     6   Atom       -0.019755     -0.015865      0.035620
     7   Atom        0.009636      0.005071     -0.014707
     8   Atom       -0.001470     -0.001319      0.002789
     9   Atom        0.000155      0.000200     -0.000355
    10   Atom        0.001495      0.000401     -0.001895
    11   Atom        0.003681      0.000239     -0.003920
    12   Atom        0.000555     -0.000554     -0.000002
    13   Atom       -0.063512     -0.028431      0.091943
    14   Atom       -0.022436     -0.043538      0.065974
    15   Atom       -0.002130      0.001944      0.000186
    16   Atom        0.007210      0.002939     -0.010150
    17   Atom       -0.011102      0.004582      0.006520
    18   Atom        0.001340     -0.001306     -0.000034
    19   Atom        0.001892     -0.001817     -0.000075
    20   Atom       -0.002057     -0.000391      0.002448
    21   Atom       -0.000615      0.000641     -0.000026
    22   Atom       -0.001992      0.000581      0.001411
    23   Atom       -0.001835      0.000682      0.001153
    24   Atom       -0.002400      0.001044      0.001356
    25   Atom       -0.002101      0.000626      0.001474
    26   Atom        0.000363     -0.002274      0.001911
    27   Atom        0.000519     -0.002517      0.001998
    28   Atom        0.000920     -0.003111      0.002191
    29   Atom        0.000671     -0.002747      0.002076
    30   Atom       -0.000144      0.000257     -0.000114
    31   Atom        0.000008      0.000055     -0.000063
    32   Atom       -0.000494      0.000608     -0.000114
    33   Atom       -0.000153      0.000228     -0.000075
    34   Atom        0.000004     -0.001951      0.001947
    35   Atom       -0.000299     -0.002556      0.002855
    36   Atom       -0.002159     -0.000449      0.002608
    37   Atom       -0.001849     -0.000619      0.002468
    38   Atom        0.006064     -0.002926     -0.003138
    39   Atom        0.006132     -0.003023     -0.003109
    40   Atom       -0.010740      0.007783      0.002957
    41   Atom       -0.004436      0.007792     -0.003357
    42   Atom        0.002632     -0.000997     -0.001634
    43   Atom        0.002932     -0.001048     -0.001885
    44   Atom       -0.004506      0.005820     -0.001314
    45   Atom       -0.003363      0.004918     -0.001555
    46   Atom       -0.000443      0.000389      0.000054
    47   Atom        0.002130     -0.002969      0.000839
    48   Atom        0.005184     -0.007711      0.002526
    49   Atom        0.005197     -0.005010     -0.000187
    50   Atom        0.006097     -0.002768     -0.003329
    51   Atom        0.006436     -0.003154     -0.003282
    52   Atom       -0.002149      0.004790     -0.002641
    53   Atom       -0.002059      0.005457     -0.003398
    54   Atom       -0.003114     -0.001718      0.004832
    55   Atom       -0.002818     -0.001921      0.004739
    56   Atom       -0.001161     -0.004461      0.005623
    57   Atom       -0.001146     -0.003723      0.004869
    58   Atom       -0.003990      0.006412     -0.002423
    59   Atom       -0.003909      0.006636     -0.002727
    60   Atom        0.002616      0.000032     -0.002648
    61   Atom        0.002874     -0.000320     -0.002554
    62   Atom        0.000846      0.000956     -0.001802
    63   Atom        0.001220      0.000287     -0.001507
    64   Atom        0.005347     -0.003807     -0.001541
    65   Atom        0.005001     -0.003155     -0.001847
    66   Atom       -0.031064      0.003781      0.027283
    67   Atom       -0.035742      0.000643      0.035098
    68   Atom       -0.061076      0.022070      0.039006
    69   Atom       -0.056394      0.027095      0.029299
    70   Atom       -0.000576      0.000557      0.000019
    71   Atom        0.000437     -0.000528      0.000091
    72   Atom        0.000757     -0.000952      0.000195
    73   Atom       -1.010604      0.277437      0.733167
 --------------------------------------------------------
                        XY            XZ            YZ
 --------------------------------------------------------
     1   Atom        2.217652      0.810809     -1.340526
     2   Atom        0.053722      0.022447     -0.020714
     3   Atom       -0.014174     -0.004525      0.008320
     4   Atom        0.051534      0.020446     -0.019652
     5   Atom       -0.026837     -0.011837      0.011829
     6   Atom        0.066359      0.027956     -0.023835
     7   Atom       -0.026465     -0.010243      0.012673
     8   Atom       -0.002090     -0.001821      0.000439
     9   Atom       -0.002002     -0.003461     -0.002670
    10   Atom       -0.000489     -0.001185      0.000839
    11   Atom        0.001708      0.002387      0.005300
    12   Atom       -0.001179      0.000204      0.002183
    13   Atom        0.153621      0.070671     -0.060736
    14   Atom        0.109169      0.050847     -0.052284
    15   Atom       -0.004366     -0.010420     -0.012487
    16   Atom        0.001214      0.009916      0.005752
    17   Atom       -0.001599     -0.009727     -0.004393
    18   Atom        0.000458     -0.001721      0.000228
    19   Atom        0.000362      0.002082     -0.000543
    20   Atom        0.003686      0.001245     -0.001111
    21   Atom       -0.001170      0.001386     -0.001380
    22   Atom        0.002215     -0.001961     -0.004099
    23   Atom        0.002190      0.002212      0.003921
    24   Atom        0.002316      0.001818      0.004195
    25   Atom        0.001992     -0.002009     -0.004126
    26   Atom       -0.002037     -0.004595      0.002420
    27   Atom       -0.001845      0.004728     -0.002738
    28   Atom       -0.001466     -0.004690      0.002616
    29   Atom       -0.001668      0.004785     -0.002215
    30   Atom        0.000405     -0.000178     -0.000568
    31   Atom        0.000441      0.000646      0.000295
    32   Atom        0.000464     -0.000152      0.000803
    33   Atom        0.000303     -0.000120     -0.000617
    34   Atom        0.000629     -0.003238     -0.000877
    35   Atom        0.000843      0.003913      0.001039
    36   Atom       -0.000355     -0.001770      0.003841
    37   Atom       -0.000630      0.001477     -0.003170
    38   Atom        0.004718      0.003538      0.001607
    39   Atom        0.004895     -0.003455     -0.001822
    40   Atom        0.011852      0.006095     -0.008152
    41   Atom       -0.002350     -0.000498      0.003620
[...]
 Variable       Old X    -DE/DX   Delta X   Delta X   Delta X     New X
                                 (Linear)    (Quad)   (Total)
    X1      -18.85597   0.00714   0.00000   0.00703   0.00925 -18.84672
    Y1       15.04793  -0.01161   0.00000  -0.01135  -0.01311  15.03482
    Z1       19.81485  -0.00376   0.00000  -0.00390  -0.00623  19.80862
    X2      -15.70444   0.00190   0.00000   0.00210   0.00379 -15.70065
    Y2        8.00916   0.00078   0.00000   0.01163   0.01002   8.01918
    Z2       23.11608   0.00220   0.00000   0.00144  -0.00009  23.11599
    X3      -17.14800   0.00114   0.00000  -0.01771  -0.01597 -17.16397
    Y3        7.40063   0.00215   0.00000   0.02209   0.02036   7.42098
    Z3       20.96796  -0.00428   0.00000   0.00754   0.00601  20.97397
    X4      -18.91283  -0.00216   0.00000  -0.00735  -0.00572 -18.91855
    Y4        5.42275  -0.00222   0.00000   0.00513   0.00351   5.42627
    Z4       21.16200  -0.00041   0.00000  -0.00742  -0.00882  21.15317
    X5      -19.25219  -0.00108   0.00000  -0.00088   0.00058 -19.25161
    Y5        4.12366   0.00034   0.00000   0.00162   0.00024   4.12390
    Z5       23.42217  -0.00175   0.00000  -0.01219  -0.01349  23.40868
    X6      -17.81747  -0.00025   0.00000   0.00143   0.00285 -17.81463
    Y6        4.76193   0.00058   0.00000   0.00666   0.00539   4.76732
    Z6       25.53997  -0.00104   0.00000  -0.01290  -0.01420  25.52577
    X7      -16.03759   0.00120   0.00000   0.00722   0.00875 -16.02884
    Y7        6.70280   0.00190   0.00000   0.00515   0.00377   6.70657
    Z7       25.37315  -0.00056   0.00000  -0.00603  -0.00744  25.36571
    X8      -14.30803  -0.00014   0.00000   0.00170   0.00348 -14.30456
    Y8        9.52657  -0.00015   0.00000   0.01019   0.00849   9.53505
    Z8       23.03195   0.00009   0.00000   0.00125  -0.00037  23.03158
    X9      -20.03350   0.00006   0.00000  -0.00561  -0.00395 -20.03745
    Y9        4.91109   0.00008   0.00000   0.00609   0.00437   4.91546
    Z9       19.50277   0.00013   0.00000  -0.00759  -0.00899  19.49377
   X10      -20.64565   0.00044   0.00000   0.00741   0.00878 -20.63687
   Y10        2.60495  -0.00011   0.00000  -0.00524  -0.00654   2.59841
   Z10       23.53495  -0.00027   0.00000  -0.01172  -0.01293  23.52202
   X11      -18.07435   0.00002   0.00000   0.00270   0.00398 -18.07037
   Y11        3.74161   0.00006   0.00000   0.00427   0.00319   3.74480
   Z11       27.31476  -0.00004   0.00000  -0.01304  -0.01425  27.30051
   X12      -14.91223   0.00026   0.00000   0.01222   0.01371 -14.89852
   Y12        7.21449  -0.00024   0.00000  -0.00481  -0.00610   7.20839
   Z12       27.02734  -0.00047   0.00000  -0.00745  -0.00886  27.01848
   X13      -16.90326  -0.01505   0.00000  -0.06338  -0.06146 -16.96472
   Y13        8.74676  -0.01367   0.00000   0.05971   0.05773   8.80449
   Z13       18.56401   0.01054   0.00000   0.04000   0.03834  18.60235
   X14      -15.36225   0.00606   0.00000  -0.06987  -0.06782 -15.43007
   Y14       10.71195   0.02336   0.00000   0.10761   0.10550  10.81745
   Z14       18.08902  -0.00034   0.00000   0.03891   0.03712  18.12614
   X15      -18.11650   0.00003   0.00000  -0.03456  -0.03261 -18.14911
   Y15        8.05087   0.00049   0.00000   0.03829   0.03623   8.08710
   Z15       17.03779   0.00017   0.00000   0.02650   0.02487  17.06265
   X16      -15.27494  -0.00028   0.00000  -0.04389  -0.04172 -15.31666
   Y16       11.55462  -0.00068   0.00000   0.05857   0.05627  11.61089
   Z16       16.20936  -0.00072   0.00000   0.01744   0.01558  16.22494
   X17      -14.00977  -0.00010   0.00000  -0.03776  -0.03573 -14.04550
   Y17       11.42423  -0.00018   0.00000   0.07301   0.07095  11.49518
   Z17       19.47694   0.00023   0.00000   0.02331   0.02152  19.49845
   X18       -1.90509   0.00515   0.00000   0.02587   0.02729  -1.87780
   Y18       -3.32964  -0.00114   0.00000  -0.00791  -0.01117  -3.34081
   Z18       14.09201  -0.00099   0.00000  -0.00987  -0.00974  14.08227
   X19      -15.89663  -0.00481   0.00000  -0.01785  -0.01638 -15.91302
   Y19       -2.50959   0.00135   0.00000  -0.00083  -0.00330  -2.51288
   Z19       14.10176  -0.00127   0.00000  -0.01160  -0.01212  14.08964
   X20      -13.32717  -0.00397   0.00000  -0.01217  -0.01065 -13.33781
   Y20        2.54264   0.00433   0.00000   0.01557   0.01351   2.55615
   Z20       19.81983   0.00039   0.00000   0.00685   0.00595  19.82578
   X21       -4.40817   0.00374   0.00000   0.01439   0.01530  -4.39287
   Y21       -8.22943  -0.00327   0.00000  -0.02130  -0.02385  -8.25329
   Z21       19.95873   0.00121   0.00000   0.01118   0.01168  19.97041
   X22       -6.46542  -0.00234   0.00000   0.01278   0.01454  -6.45088
   Y22        1.39360  -0.01607   0.00000  -0.02420  -0.02737   1.36622
   Z22       12.26667   0.01474   0.00000   0.01196   0.01145  12.27813
   X23      -11.35960   0.00367   0.00000  -0.00779  -0.00651 -11.36611
   Y23       -7.23619   0.01531   0.00000   0.01082   0.00794  -7.22825
   Z23       12.43760   0.01497   0.00000   0.00974   0.00986  12.44746
   X24       -6.86188  -0.00959   0.00000  -0.01572  -0.01432  -6.87619
   Y24        1.73161  -0.01295   0.00000  -0.00445  -0.00671   1.72490
   Z24       21.56419  -0.01480   0.00000  -0.01278  -0.01334  21.55086
   X25      -10.92100   0.01061   0.00000   0.02096   0.02185 -10.89914
   Y25       -7.30890   0.01091   0.00000  -0.00172  -0.00375  -7.31265
   Z25       21.68009  -0.01524   0.00000  -0.01107  -0.01092  21.66917
   X26       -4.66602  -0.01220   0.00000   0.00476   0.00619  -4.65983
   Y26       -4.81804   0.01103   0.00000   0.00850   0.00520  -4.81284
   Z26       12.06156   0.01626   0.00000   0.01037   0.01053  12.07209
   X27      -13.12237   0.01234   0.00000   0.00520   0.00684 -13.11554
   Y27       -1.01492  -0.01215   0.00000  -0.02147  -0.02430  -1.03922
   Z27       12.00252   0.01592   0.00000   0.01149   0.01094  12.01346
   X28      -12.89899   0.01731   0.00000   0.01517   0.01643 -12.88256
   Y28       -0.47225  -0.00482   0.00000   0.00660   0.00471  -0.46753
   Z28       21.90089  -0.01608   0.00000  -0.01164  -0.01224  21.88865
   X29       -4.86169  -0.01604   0.00000  -0.01007  -0.00906  -4.87075
   Y29       -5.09449   0.00262   0.00000  -0.01408  -0.01641  -5.11090
   Z29       21.97250  -0.01606   0.00000  -0.01062  -0.01044  21.96207
   X30       -6.02985   0.00088   0.00000  -0.00695  -0.00498  -6.03483
   Y30        3.65908   0.00430   0.00000  -0.00921  -0.01262   3.64645
   Z30       10.06314  -0.00430   0.00000   0.00631   0.00560  10.06875
   X31      -11.61931  -0.00022   0.00000   0.01030   0.01153 -11.60778
   Y31       -9.59811  -0.00453   0.00000  -0.00038  -0.00346  -9.60157
   Z31       10.27761  -0.00404   0.00000   0.00336   0.00370  10.28131
   X32       -5.13332   0.00352   0.00000   0.00438   0.00578  -5.12754
   Y32        3.34621   0.00280   0.00000  -0.01283  -0.01497   3.33124
   Z32       23.73700   0.00409   0.00000  -0.00605  -0.00670  23.73030
   X33      -12.63299  -0.00337   0.00000   0.00101   0.00172 -12.63127
   Y33       -8.85605  -0.00258   0.00000   0.00765   0.00594  -8.85012
   Z33       23.91372   0.00417   0.00000  -0.00417  -0.00395  23.90977
   X34       -5.08884   0.00176   0.00000   0.01756   0.01923  -5.06961
   Y34       -1.64405   0.00103   0.00000  -0.00184  -0.00526  -1.64930
   Z34       10.55400  -0.00491   0.00000  -0.01464  -0.01480  10.53920
   X35      -12.69558  -0.00198   0.00000  -0.01092  -0.00941 -12.70499
   Y35       -4.29234  -0.00011   0.00000  -0.00805  -0.01104  -4.30338
   Z35       10.63477  -0.00521   0.00000  -0.01684  -0.01705  10.61772
   X36      -10.05811  -0.00100   0.00000  -0.00333  -0.00204 -10.06016
   Y36        1.07069   0.00198   0.00000   0.01300   0.01109   1.08178
   Z36       23.37159   0.00496   0.00000   0.01194   0.01131  23.38290
   X37       -7.68190   0.00048   0.00000   0.00626   0.00711  -7.67478
   Y37       -6.63993  -0.00171   0.00000  -0.01641  -0.01843  -6.65837
   Z37       23.45414   0.00499   0.00000   0.01401   0.01422  23.46837
   X38        0.55825   0.00665   0.00000  -0.00086   0.00061   0.55886
   Y38        0.00090   0.00230   0.00000  -0.00207  -0.00513  -0.00424
   Z38       17.51685   0.00220   0.00000   0.00548   0.00539  17.52224
   X39      -18.36446  -0.00668   0.00000   0.00741   0.00856 -18.35590
   Y39       -5.70601  -0.00238   0.00000  -0.00568  -0.00767  -5.71368
   Z39       17.62126   0.00232   0.00000   0.00578   0.00546  17.62672
   X40      -12.06798  -0.00405   0.00000  -0.00941  -0.00753 -12.07551
   Y40        6.45832   0.00972   0.00000  -0.00298  -0.00545   6.45287
   Z40       16.32996  -0.00108   0.00000   0.00105  -0.00018  16.32977
   X41       -5.61070   0.00176   0.00000  -0.00634  -0.00552  -5.61622
   Y41      -12.19611  -0.00673   0.00000  -0.00479  -0.00761 -12.20372
   Z41       16.54271  -0.00187   0.00000  -0.00401  -0.00317  16.53954
   X42       -3.41419   0.00303   0.00000   0.02038   0.02207  -3.39212
   Y42        1.47408   0.00427   0.00000   0.00411   0.00094   1.47502
   Z42       14.13452  -0.00179   0.00000  -0.01021  -0.01061  14.12391
   X43      -14.38738  -0.00358   0.00000  -0.01644  -0.01525 -14.40263
   Y43       -7.32661  -0.00403   0.00000  -0.01228  -0.01482  -7.34143
   Z43       14.28113  -0.00140   0.00000  -0.01028  -0.01027  14.27086
   X44       -8.56519   0.00057   0.00000  -0.00111   0.00051  -8.56468
   Y44        4.19467   0.00554   0.00000   0.01854   0.01620   4.21087
   Z44       19.70805   0.00083   0.00000   0.00424   0.00337  19.71142
   X45       -9.19144  -0.00156   0.00000   0.00381   0.00463  -9.18681
   Y45       -9.85212  -0.00520   0.00000  -0.02329  -0.02558  -9.87770
   Z45       19.88972   0.00165   0.00000   0.00967   0.01013  19.89985
   X46       -3.08379   0.00358   0.00000  -0.00009   0.00132  -3.08247
   Y46       -6.56672  -0.00454   0.00000  -0.01347  -0.01706  -6.58378
   Z46        9.88086  -0.00475   0.00000   0.00525   0.00565   9.88651
   X47      -14.80336  -0.00390   0.00000   0.01275   0.01457 -14.78880
   Y47        0.49540   0.00348   0.00000   0.00171  -0.00125   0.49415
   Z47        9.75059  -0.00506   0.00000   0.00203   0.00126   9.75186
   X48      -15.19275  -0.00582   0.00000   0.00171   0.00290 -15.18986
   Y48       -0.30819   0.00039   0.00000  -0.00746  -0.00900  -0.31720
   Z48       24.13661   0.00531   0.00000  -0.00472  -0.00543  24.13118
   X49       -2.52740   0.00544   0.00000   0.00358   0.00448  -2.52292
   Y49       -5.32795  -0.00037   0.00000   0.00172  -0.00053  -5.32848
   Z49       24.16608   0.00467   0.00000  -0.00490  -0.00461  24.16147
   X50       -2.39215  -0.02134   0.00000  -0.00581  -0.00436  -2.39651
   Y50       -0.97688  -0.00746   0.00000  -0.01216  -0.01514  -0.99203
   Z50       16.70811  -0.00449   0.00000  -0.01550  -0.01562  16.69249
   X51      -15.41748   0.02207   0.00000   0.01282   0.01405 -15.40343
   Y51       -4.74531   0.00586   0.00000   0.00239   0.00015  -4.74516
   Z51       16.77922  -0.00495   0.00000  -0.01646  -0.01674  16.76248
   X52      -11.19314   0.00877   0.00000   0.00346   0.00515 -11.18799
   Y52        3.49628  -0.02447   0.00000  -0.01570  -0.01815   3.47814
   Z52       17.09466   0.00539   0.00000   0.01480   0.01389  17.10855
   X53       -6.55800  -0.00720   0.00000   0.00044   0.00140  -6.55660
   Y53       -9.22827   0.02108   0.00000   0.00590   0.00322  -9.22505
   Z53       17.32650   0.00400   0.00000   0.01531   0.01581  17.34232
   X54       -8.00864   0.00117   0.00000   0.00128   0.00267  -8.00597
   Y54       -5.84240  -0.00242   0.00000   0.00750   0.00433  -5.83807
   Z54       11.47039  -0.00326   0.00000   0.01001   0.01014  11.48053
   X55       -9.77752  -0.00121   0.00000   0.00670   0.00842  -9.76910
   Y55       -0.06234   0.00233   0.00000  -0.02022  -0.02330  -0.08563
   Z55       11.35503  -0.00287   0.00000   0.01127   0.01076  11.36579
   X56      -11.68733  -0.00269   0.00000   0.01500   0.01606 -11.67128
   Y56       -3.77872   0.00028   0.00000   0.00452   0.00263  -3.77610
   Z56       22.53069   0.00323   0.00000  -0.01117  -0.01139  22.51929
   X57       -6.02223   0.00245   0.00000  -0.01005  -0.00889  -6.03112
   Y57       -1.79848   0.00080   0.00000  -0.00928  -0.01149  -1.80997
   Z57       22.55323   0.00306   0.00000  -0.01206  -0.01225  22.54099
   X58       -8.28623  -0.00070   0.00000   0.00513   0.00687  -8.27936
   Y58        3.00084   0.00403   0.00000  -0.01450  -0.01732   2.98351
   Z58       14.83328  -0.00175   0.00000   0.00830   0.00757  14.84084
   X59       -9.46289  -0.00039   0.00000  -0.00377  -0.00269  -9.46558
   Y59       -8.83461  -0.00336   0.00000   0.00873   0.00598  -8.82863
   Z59       14.97880  -0.00226   0.00000   0.00937   0.00972  14.98852
   X60       -4.42529   0.00231   0.00000  -0.01129  -0.00982  -4.43510
   Y60        1.13551   0.00247   0.00000  -0.00822  -0.01086   1.12465
   Z60       19.05102   0.00237   0.00000  -0.01114  -0.01154  19.03948
   X61      -13.35410  -0.00260   0.00000   0.01664   0.01766 -13.33644
   Y61       -6.82525  -0.00197   0.00000   0.00138  -0.00075  -6.82600
   Z61       19.16092   0.00222   0.00000  -0.01049  -0.01049  19.15043
   X62       -4.87567   0.00196   0.00000   0.00231   0.00348  -4.87219
   Y62       -7.31695  -0.00318   0.00000   0.00332   0.00031  -7.31664
   Z62       14.85416  -0.00121   0.00000   0.01166   0.01205  14.86621
   X63      -12.92563  -0.00155   0.00000   0.00391   0.00557 -12.92006
   Y63        1.48348   0.00404   0.00000  -0.01160  -0.01418   1.46931
   Z63       14.74900  -0.00049   0.00000   0.01180   0.01102  14.76002
   X64      -14.82200  -0.00349   0.00000   0.01201   0.01329 -14.80871
   Y64       -2.21770   0.00030   0.00000   0.00347   0.00143  -2.21627
   Z64       19.19517   0.00149   0.00000  -0.01264  -0.01314  19.18203
   X65       -2.97722   0.00372   0.00000  -0.00507  -0.00387  -2.98108
   Y65       -3.47104   0.00031   0.00000  -0.01091  -0.01362  -3.48466
   Z65       19.18050   0.00113   0.00000  -0.01173  -0.01163  19.16887
   X66       -6.39264   0.03984   0.00000   0.07285   0.07430  -6.31835
   Y66       -2.13746   0.00739   0.00000   0.00358   0.00067  -2.13680
   Z66       15.14147  -0.02582   0.00000  -0.04089  -0.04105  15.10042
   X67      -11.40285  -0.04033   0.00000  -0.06440  -0.06304 -11.46589
   Y67       -3.68564  -0.00871   0.00000  -0.01754  -0.02016  -3.70581
   Z67       15.19284  -0.02529   0.00000  -0.04137  -0.04159  15.15125
   X68       -9.70476  -0.01689   0.00000  -0.02749  -0.02610  -9.73086
   Y68       -0.37193   0.03830   0.00000   0.05829   0.05593  -0.31600
   Z68       18.80663   0.02591   0.00000   0.04032   0.03984  18.84647
   X69       -8.03216   0.01702   0.00000   0.03392   0.03503  -7.99713
   Y69       -5.33727  -0.03646   0.00000  -0.06377  -0.06622  -5.40349
   Z69       18.85963   0.02611   0.00000   0.04040   0.04049  18.90012
   X70       -6.10471  -0.00035   0.00000  -0.00242  -0.00132  -6.10602
   Y70      -11.57927   0.00153   0.00000   0.00849   0.00514 -11.57413
   Z70       10.69531   0.00106   0.00000   0.01239   0.01315  10.70846
   X71       -0.26604  -0.00131   0.00000  -0.01167  -0.01043  -0.27647
   Y71        0.08444  -0.00056   0.00000  -0.00974  -0.01219   0.07225
   Z71       23.34771  -0.00118   0.00000  -0.01301  -0.01314  23.33457
   X72      -17.53139   0.00151   0.00000   0.01781   0.01873 -17.51266
   Y72       -5.52694   0.00070   0.00000   0.00346   0.00198  -5.52496
   Z72       23.46877  -0.00115   0.00000  -0.01259  -0.01289  23.45588
   X73       -8.88815   0.00065   0.00000   0.00450   0.00583  -8.88232
   Y73       -2.87628  -0.00051   0.00000  -0.00488  -0.00746  -2.88374
   Z73       16.99509  -0.00072   0.00000  -0.00149  -0.00168  16.99341
         Item               Value     Threshold  Converged?
 Maximum Force            0.040335     0.000450     NO 
 RMS     Force            0.009150     0.000300     NO 
 Maximum Displacement     0.105501     0.001800     NO 
 RMS     Displacement     0.020203     0.001200     NO 
 Predicted change in Energy=-1.293688D-02
 GradGradGradGradGradGradGradGradGradGradGradGradGradGradGradGradGradGrad

 Unable to Open any file for archive entry.
 1\1\GINC-X11P1N2\Force\UwB97XD\def2SVP\C8H8Cl1K3O40V1W12(1-)\MAYUMIAO\
 02-Jun-2024\0\\# def2svp wb97xd scrf=(smd,solvent=acetonitrile) g09def
 ault scf=(xqc,maxcycle=64) force guess=read nosymm\\Title Card\\-1,1\C
 l,-9.97814957,7.96302018,10.48556553\C,-8.3104331,4.23826307,12.232502
 41\C,-9.07433078,3.91624222,11.09576512\C,-10.00823741,2.86959817,11.1
 9844758\C,-10.18782038,2.18214829,12.39447822\C,-9.42860017,2.51990415
 ,13.51516958\C,-8.48672655,3.54696895,13.42689193\H,-7.57148504,5.0412
 4115,12.18798192\H,-10.6012715,2.59883693,10.32041917\H,-10.92520681,1
 .37847852,12.45415705\H,-9.56453569,1.97997586,14.45434969\H,-7.891211
 91,3.81774385,14.30225291\C,-8.94481999,4.62858479,9.8236507\C,-8.1293
 5163,5.66852141,9.5722956\H,-9.58683652,4.26033828,9.0160085\H,-8.0831
 5236,6.11444032,8.57762242\H,-7.41365102,6.04544306,10.3067502\O,-1.00
 813246,-1.76197168,7.45716979\O,-8.41213683,-1.32801623,7.46232752\O,-
 7.05243205,1.34550702,10.488203\O,-2.33270327,-4.3548291,10.56170404\W
 ,-3.42135285,0.73745918,6.49124437\W,-6.01124146,-3.82922658,6.5816952
 9\W,-3.63114933,0.91632828,11.41127965\W,-5.77914399,-3.86770586,11.47
 26095\W,-2.46915221,-2.54959762,6.38270301\W,-6.94406005,-0.53707157,6
 .35146159\W,-6.82585156,-0.2499017,11.58945019\W,-2.57269663,-2.695887
 63,11.62734876\O,-3.19086048,1.93629956,5.3251867\O,-6.14867537,-5.079
 10218,5.43867453\O,-2.71643707,1.77073841,12.56107829\O,-6.68509209,-4
 .68642158,12.6545954\O,-2.69289815,-0.86999163,5.58493715\O,-6.7182105
 3,-2.27140692,5.62767843\O,-5.32252385,0.56658437,12.36771441\O,-4.065
 08427,-3.51370221,12.41139649\O,0.29541264,0.00047407,9.26951579\O,-9.
 71805257,-3.01948835,9.32476678\O,-6.38610099,3.41759498,8.64144087\O,
 -2.96905658,-6.45390565,8.75402747\O,-1.80671104,0.78004707,7.47966659
 \O,-7.61347604,-3.87707715,7.5572483\O,-4.53250214,2.21972441,10.42904
 911\O,-4.86389874,-5.21351658,10.52518779\O,-1.63187206,-3.47495689,5.
 22872557\O,-7.83360113,0.26215335,5.15979253\O,-8.03965945,-0.16308812
 ,12.77254205\O,-1.33744147,-2.81943008,12.78813894\W,-1.26587111,-0.51
 694505,8.84155223\W,-8.15858124,-2.51110838,8.87918213\W,-5.92315418,1
 .85015261,9.04610512\W,-3.47034341,-4.88338867,9.16879071\O,-4.2379884
 4,-3.09166637,6.06986918\O,-5.17403866,-0.03298661,6.00882279\O,-6.184
 67001,-1.9996143,11.9227256\O,-3.18682863,-0.9517158,11.93465725\O,-4.
 3848851,1.587975,7.84943263\O,-5.00754706,-4.67507369,7.92643694\O,-2.
 3417611,0.60088401,10.08136722\O,-7.06668551,-3.61176845,10.13952017\O
 ,-2.58009599,-3.87196254,7.8604818\O,-6.8399498,0.78502541,7.80483587\
 O,-7.84346712,-1.17355377,10.1576455\O,-1.57547525,-1.83679685,10.1498
 8305\O,-3.38284115,-1.13109695,8.01252193\O,-6.03412918,-1.95035803,8.
 03970687\O,-5.13553922,-0.19681596,9.95203772\O,-4.25043839,-2.8243615
 6,9.98008784\K,-3.23047143,-6.12748569,5.65971644\K,-0.1407832,0.04468
 334,12.35507849\K,-9.27721429,-2.92473271,12.41913592\V,-4.70340408,-1
 .52206261,8.99341619\\Version=ES64L-G16RevC.01\HF=-7327.7003253\S2=1.0
 13808\S2-1=0.\S2A=0.111052\RMSD=1.193e-09\RMSF=9.150e-03\Dipole=1.7640
 267,-7.1944756,5.6091657\Quadrupole=-19.3508428,40.0341089,-20.6832661
 ,98.3654685,139.4614758,-69.7264695\PG=C01 [X(C8H8Cl1K3O40V1W12)]\\@
 The archive entry for this job was punched.


 HOW IS IT THAT THE SKY FEEDS THE STARS?

                           -- LUCRETIUS
 Job cpu time:       0 days 21 hours 41 minutes 19.8 seconds.
 Elapsed time:       0 days  0 hours 24 minutes 45.4 seconds.
 File lengths (MBytes):  RWF=   1864 Int=      0 D2E=      0 Chk=    306 Scr=      1
 Normal termination of Gaussian 16 at Sun Jun  2 01:01:44 2024.
