 Entering Gaussian System, Link 0=g16
 Input=JOBS/25_A.gjf
 Output=JOBS/25_A.log
 Initial command:
 /data/app/gaussian/C01-avx2//g16/l1.exe "/tmp/Gau-624804.inp" -scrdir="/tmp/"
 Entering Link 1 = /data/app/gaussian/C01-avx2//g16/l1.exe PID=    624805.
  
 Copyright (c) 1988-2019, Gaussian, Inc.  All Rights Reserved.
  
 This is part of the Gaussian(R) 16 program.  It is based on
 the Gaussian(R) 09 system (copyright 2009, Gaussian, Inc.),
 the Gaussian(R) 03 system (copyright 2003, Gaussian, Inc.),
 the Gaussian(R) 98 system (copyright 1998, Gaussian, Inc.),
 the Gaussian(R) 94 system (copyright 1995, Gaussian, Inc.),
 the Gaussian 92(TM) system (copyright 1992, Gaussian, Inc.),
 the Gaussian 90(TM) system (copyright 1990, Gaussian, Inc.),
 the Gaussian 88(TM) system (copyright 1988, Gaussian, Inc.),
 the Gaussian 86(TM) system (copyright 1986, Carnegie Mellon
 University), and the Gaussian 82(TM) system (copyright 1983,
 Carnegie Mellon University). Gaussian is a federally registered
 trademark of Gaussian, Inc.
  
 This software contains proprietary and confidential information,
 including trade secrets, belonging to Gaussian, Inc.
  
 This software is provided under written license and may be
 used, copied, transmitted, or stored only in accord with that
 written license.
  
 The following legend is applicable only to US Government
 contracts under FAR:
  
                    RESTRICTED RIGHTS LEGEND
  
 Use, reproduction and disclosure by the US Government is
 subject to restrictions as set forth in subparagraphs (a)
 and (c) of the Commercial Computer Software - Restricted
 Rights clause in FAR 52.227-19.
  
 Gaussian, Inc.
 340 Quinnipiac St., Bldg. 40, Wallingford CT 06492
  
  
 ---------------------------------------------------------------
 Warning -- This program may not be used in any manner that
 competes with the business of Gaussian, Inc. or will provide
 assistance to any competitor of Gaussian, Inc.  The licensee
 of this program is prohibited from giving any competitor of
 Gaussian, Inc. access to this program.  By using this program,
 the user acknowledges that Gaussian, Inc. is engaged in the
 business of creating and licensing software in the field of
 computational chemistry and represents and warrants to the
 licensee that it is not a competitor of Gaussian, Inc. and that
 it will not use this program in any manner prohibited above.
 ---------------------------------------------------------------
  

 Cite this work as:
 Gaussian 16, Revision C.01,
 M. J. Frisch, G. W. Trucks, H. B. Schlegel, G. E. Scuseria, 
 M. A. Robb, J. R. Cheeseman, G. Scalmani, V. Barone, 
 G. A. Petersson, H. Nakatsuji, X. Li, M. Caricato, A. V. Marenich, 
 J. Bloino, B. G. Janesko, R. Gomperts, B. Mennucci, H. P. Hratchian, 
 J. V. Ortiz, A. F. Izmaylov, J. L. Sonnenberg, D. Williams-Young, 
 F. Ding, F. Lipparini, F. Egidi, J. Goings, B. Peng, A. Petrone, 
 T. Henderson, D. Ranasinghe, V. G. Zakrzewski, J. Gao, N. Rega, 
 G. Zheng, W. Liang, M. Hada, M. Ehara, K. Toyota, R. Fukuda, 
 J. Hasegawa, M. Ishida, T. Nakajima, Y. Honda, O. Kitao, H. Nakai, 
 T. Vreven, K. Throssell, J. A. Montgomery, Jr., J. E. Peralta, 
 F. Ogliaro, M. J. Bearpark, J. J. Heyd, E. N. Brothers, K. N. Kudin, 
 V. N. Staroverov, T. A. Keith, R. Kobayashi, J. Normand, 
 K. Raghavachari, A. P. Rendell, J. C. Burant, S. S. Iyengar, 
 J. Tomasi, M. Cossi, J. M. Millam, M. Klene, C. Adamo, R. Cammi, 
 J. W. Ochterski, R. L. Martin, K. Morokuma, O. Farkas, 
 J. B. Foresman, and D. J. Fox, Gaussian, Inc., Wallingford CT, 2019.
 
 ******************************************
 Gaussian 16:  ES64L-G16RevC.01  3-Jul-2019
                 2-Jun-2024 
 ******************************************
 %chk=a.chk
 %nprocshared=56
 Will use up to   56 processors via shared memory.
 %mem=96gb
 ----------------------------------------------------------------------
 # def2svp wb97xd scrf=(smd,solvent=acetonitrile) g09default scf=(xqc,m
 axcycle=64) force guess=read nosymm
 ----------------------------------------------------------------------
 1/10=7,30=1,38=1,158=3,167=1/1,3;
 2/12=2,15=1,17=6,18=5,40=1/2;
 3/5=43,7=101,11=2,25=1,27=10,30=1,70=32201,71=1,72=2,74=-58,75=-4,116=-2,158=3/1,2,3;
 4/5=1,60=-1/1;
 5/5=2,7=64,8=3,13=1,38=6,53=2,87=10/2,8;
 6/7=2,8=2,9=2,10=2,28=1,87=10/1;
 7/29=1,30=1,87=10/1,2,3,16;
 1/10=7,30=1,158=3,167=1/3;
 99//99;
 Using 2006 physical constants.
 ----------
 Title Card
 ----------
 Symbolic Z-matrix:
 Charge = -1 Multiplicity = 1
 17                   -9.96967   7.99397   10.49402 
 6                    -8.31231   4.23785   12.23175 
 6                    -9.07842   3.9162    11.09652 
 6                    -10.01054   2.86813   11.19953 
 6                    -10.18899   2.18136   12.39577 
 6                    -9.42997   2.52093   13.5162 
 6                    -8.48726   3.54713   13.42654 
 1                    -7.57106   5.03841   12.18358 
 1                    -10.60117   2.59443   10.32038 
 1                    -10.92459   1.37584   12.45651 
 1                    -9.56695   1.98294   14.45636 
 1                    -7.88939   3.81673   14.30076 
 6                    -8.94998   4.62935   9.82463 
 6                    -8.13952   5.6737    9.57318 
 1                    -9.59093   4.25917   9.01716 
 1                    -8.09577   6.11719   8.57711 
 1                    -7.43153   6.06193   10.30909 
 8                    -1.00587  -1.76305   7.45696 
 8                    -8.41259  -1.32901   7.46148 
 8                    -7.05057   1.34635   10.48745 
 8                    -2.33223  -4.35713   10.56121 
 74                   -3.42008   0.73292   6.48952 
 74                   -6.01031  -3.82821   6.58042 
 74                   -3.63077   0.91413   11.4123 
 74                   -5.77785  -3.86618   11.4723 
 74                   -2.46732  -2.55191   6.3849 
 74                   -6.9436   -0.53782   6.35384 
 74                   -6.8253   -0.24936   11.58601 
 74                   -2.5718   -2.69737   11.62506 
 8                    -3.18729   1.93062   5.32261 
 8                    -6.14961  -5.07694   5.43625 
 8                    -2.71828   1.7684    12.56385 
 8                    -6.6815   -4.68524   12.65535 
 8                    -2.68988  -0.87244   5.58445 
 8                    -6.71836  -2.27161   5.62723 
 8                    -5.32236   0.56676   12.36691 
 8                    -4.06394  -3.51515   12.41055 
 8                     0.29495   0.00138   9.26875 
 8                    -9.71717  -3.02133   9.32285 
 8                    -6.3835    3.41752   8.64753 
 8                    -2.97171  -6.45559   8.75681 
 8                    -1.80459   0.77829   7.47808 
 8                    -7.61366  -3.87755   7.55561 
 8                    -4.53046   2.21999   10.43051 
 8                    -4.86392  -5.21401   10.52538 
 8                    -1.62926  -3.47787   5.23202 
 8                    -7.83524   0.26042   5.16291 
 8                    -8.03977  -0.15979   12.76796 
 8                    -1.33659  -2.8247    12.78508 
 74                   -1.26587  -0.5169    8.84051 
 74                   -8.15763  -2.51301   8.87771 
 74                   -5.91839   1.84951   9.04701 
 74                   -3.4718   -4.88434   9.16961 
 8                    -4.23698  -3.09221   6.0691 
 8                    -5.17266  -0.03515   6.00766 
 8                    -6.18289  -1.99881   11.92176 
 8                    -3.18569  -0.95304   11.93548 
 8                    -4.38201   1.58545   7.84949 
 8                    -5.00762  -4.67506   7.92593 
 8                    -2.34128   0.59979   10.08136 
 8                    -7.06627  -3.61171   10.13888 
 8                    -2.57942  -3.87286   7.86144 
 8                    -6.83767   0.78404   7.80593 
 8                    -7.8423   -1.17316   10.15513 
 8                    -1.57581  -1.83886   10.14789 
 8                    -3.38101  -1.13247   8.01068 
 8                    -6.03406  -1.95053   8.03817 
 8                    -5.13338  -0.19654   9.95224 
 8                    -4.2497   -2.82516   9.98008 
 19                   -3.22885  -6.13034   5.65736 
 19                   -0.13645   0.04682   12.3566 
 19                   -9.28008  -2.92109   12.42235 
 23                   -4.70244  -1.52252   8.99229 
 

 GradGradGradGradGradGradGradGradGradGradGradGradGradGradGradGradGradGrad
 Berny optimization.
 Initialization pass.
 Trust Radius=3.00D-01 FncErr=1.00D-07 GrdErr=1.00D-07 EigMax=2.50D+02 EigMin=1.00D-04
 Number of steps in this run=      2 maximum allowed number of steps=      2.
 GradGradGradGradGradGradGradGradGradGradGradGradGradGradGradGradGradGrad

 Symmetry turned off by external request.
 Stoichiometry    C8H8ClK3O40VW12(1-)
 Framework group  C1[X(C8H8ClK3O40VW12)]
 Deg. of freedom   213
 Full point group                 C1      NOp   1
                          Input orientation:                          
 ---------------------------------------------------------------------
 Center     Atomic      Atomic             Coordinates (Angstroms)
 Number     Number       Type             X           Y           Z
 ---------------------------------------------------------------------
      1         17           0       -9.969666    7.993965   10.494023
      2          6           0       -8.312309    4.237852   12.231747
      3          6           0       -9.078423    3.916202   11.096522
      4          6           0      -10.010538    2.868127   11.199533
      5          6           0      -10.188986    2.181359   12.395766
      6          6           0       -9.429973    2.520926   13.516200
      7          6           0       -8.487256    3.547134   13.426537
      8          1           0       -7.571058    5.038411   12.183581
      9          1           0      -10.601174    2.594432   10.320382
     10          1           0      -10.924594    1.375837   12.456514
     11          1           0       -9.566952    1.982935   14.456365
     12          1           0       -7.889392    3.816731   14.300756
     13          6           0       -8.949978    4.629346    9.824626
     14          6           0       -8.139521    5.673700    9.573175
     15          1           0       -9.590925    4.259172    9.017157
     16          1           0       -8.095774    6.117186    8.577113
     17          1           0       -7.431534    6.061931   10.309094
     18          8           0       -1.005873   -1.763055    7.456960
     19          8           0       -8.412586   -1.329006    7.461484
     20          8           0       -7.050565    1.346351   10.487448
     21          8           0       -2.332233   -4.357133   10.561207
     22         74           0       -3.420079    0.732922    6.489516
     23         74           0       -6.010308   -3.828212    6.580424
     24         74           0       -3.630773    0.914128   11.412301
     25         74           0       -5.777849   -3.866180   11.472296
     26         74           0       -2.467317   -2.551913    6.384902
     27         74           0       -6.943596   -0.537822    6.353841
     28         74           0       -6.825296   -0.249356   11.586014
     29         74           0       -2.571802   -2.697369   11.625064
     30          8           0       -3.187287    1.930618    5.322607
     31          8           0       -6.149612   -5.076939    5.436251
     32          8           0       -2.718283    1.768402   12.563846
     33          8           0       -6.681503   -4.685242   12.655350
     34          8           0       -2.689884   -0.872443    5.584453
     35          8           0       -6.718365   -2.271610    5.627226
     36          8           0       -5.322360    0.566758   12.366910
     37          8           0       -4.063943   -3.515154   12.410551
     38          8           0        0.294947    0.001383    9.268753
     39          8           0       -9.717171   -3.021328    9.322852
     40          8           0       -6.383503    3.417517    8.647529
     41          8           0       -2.971706   -6.455589    8.756808
     42          8           0       -1.804594    0.778291    7.478075
     43          8           0       -7.613664   -3.877554    7.555605
     44          8           0       -4.530461    2.219987   10.430513
     45          8           0       -4.863923   -5.214014   10.525381
     46          8           0       -1.629264   -3.477875    5.232016
     47          8           0       -7.835239    0.260421    5.162911
     48          8           0       -8.039769   -0.159790   12.767956
     49          8           0       -1.336587   -2.824699   12.785079
     50         74           0       -1.265875   -0.516904    8.840509
     51         74           0       -8.157634   -2.513010    8.877705
     52         74           0       -5.918388    1.849512    9.047014
     53         74           0       -3.471799   -4.884344    9.169609
     54          8           0       -4.236980   -3.092210    6.069103
     55          8           0       -5.172664   -0.035148    6.007662
     56          8           0       -6.182890   -1.998814   11.921764
     57          8           0       -3.185687   -0.953037   11.935478
     58          8           0       -4.382014    1.585448    7.849488
     59          8           0       -5.007623   -4.675061    7.925928
     60          8           0       -2.341279    0.599787   10.081360
     61          8           0       -7.066273   -3.611708   10.138883
     62          8           0       -2.579423   -3.872863    7.861436
     63          8           0       -6.837671    0.784043    7.805926
     64          8           0       -7.842300   -1.173157   10.155134
     65          8           0       -1.575812   -1.838858   10.147888
     66          8           0       -3.381006   -1.132465    8.010677
     67          8           0       -6.034059   -1.950532    8.038169
     68          8           0       -5.133385   -0.196544    9.952241
     69          8           0       -4.249703   -2.825157    9.980079
     70         19           0       -3.228846   -6.130338    5.657359
     71         19           0       -0.136450    0.046819   12.356598
     72         19           0       -9.280083   -2.921086   12.422355
     73         23           0       -4.702438   -1.522517    8.992295
 ---------------------------------------------------------------------
 Rotational constants (GHZ):           0.0171882           0.0132916           0.0130797
 Standard basis: def2SVP (5D, 7F)
  1217 basis functions,  2313 primitive gaussians,  1337 cartesian basis functions
   321 alpha electrons      321 beta electrons
       nuclear repulsion energy     20996.2850198272 Hartrees.
 NAtoms=   73 NActive=   73 NUniq=   73 SFac= 1.00D+00 NAtFMM=   60 NAOKFM=T Big=T
 Integral buffers will be    131072 words long.
 Raffenetti 2 integral format.
 Two-electron integral symmetry is turned off.
 Nuclear repulsion after empirical dispersion term =    20996.0073065714 Hartrees.
 Force PCM accuracy= 1.00D-10.
 ------------------------------------------------------------------------------
 Polarizable Continuum Model (PCM)
 =================================
 Model                : PCM (using non-symmetric T matrix).
 Atomic radii         : SMD-Coulomb.
 Polarization charges : Total charges.
 Charge compensation  : None.
 Solution method      : On-the-fly selection.
 Cavity type          : VdW (van der Waals Surface) (Alpha=1.000).
 Cavity algorithm     : GePol (No added spheres)
                        Default sphere list used, NSphG=   73.
                        Lebedev-Laikov grids with approx.  5.0 points / Ang**2.
                        Smoothing algorithm: York/Karplus (Gamma=1.0000).
                        Polarization charges: spherical gaussians, with
                                              point-specific exponents (IZeta= 3).
                        Self-potential: point-specific (ISelfS= 7).
                        Self-field    : sphere-specific E.n sum rule (ISelfD= 2).
 1st derivatives      : Analytical E(r).r(x)/FMM algorithm (CHGder, D1EAlg=3).
                        Cavity 1st derivative terms included.
 Solvent              : Acetonitrile, Eps=  35.688000 Eps(inf)=   1.806874
 ------------------------------------------------------------------------------
 ------------------------------------------------------------------------------
 Atomic radii for non-electrostatic terms: SMD-CDS.
 ------------------------------------------------------------------------------
 Nuclear repulsion after PCM non-electrostatic terms =    20996.0014852350 Hartrees.
 One-electron integrals computed using PRISM.
   1 Symmetry operations used in ECPInt.
 ECPInt:  NShTT=  127765 NPrTT=  468030 LenC2=   96799 LenP2D=  221485.
 LDataN:  DoStor=T MaxTD1= 8 Len=  415
 NBasis=  1217 RedAO= T EigKep=  1.36D-04  NBF=  1217
 NBsUse=  1217 1.00D-06 EigRej= -1.00D+00 NBFU=  1217
 Defaulting to unpruned grid for atomic number  74.
 Defaulting to unpruned grid for atomic number  74.
 Defaulting to unpruned grid for atomic number  74.
 Defaulting to unpruned grid for atomic number  74.
 Defaulting to unpruned grid for atomic number  74.
 Defaulting to unpruned grid for atomic number  74.
 Defaulting to unpruned grid for atomic number  74.
 Defaulting to unpruned grid for atomic number  74.
 Initial guess from the checkpoint file:  "a.chk"
 B after Tr=     0.001479   -0.002313   -0.000084
         Rot=    1.000000    0.000005    0.000005    0.000096 Ang=   0.01 deg.
 Requested convergence on RMS density matrix=1.00D-08 within  64 cycles.
 Requested convergence on MAX density matrix=1.00D-06.
 Requested convergence on             energy=1.00D-06.
 No special actions if energy rises.
 Defaulting to unpruned grid for atomic number  74.
 Defaulting to unpruned grid for atomic number  74.
 Defaulting to unpruned grid for atomic number  74.
 Defaulting to unpruned grid for atomic number  74.
 Defaulting to unpruned grid for atomic number  74.
 Defaulting to unpruned grid for atomic number  74.
 Defaulting to unpruned grid for atomic number  74.
 Defaulting to unpruned grid for atomic number  74.
 Defaulting to unpruned grid for atomic number  74.
 Defaulting to unpruned grid for atomic number  74.
 Defaulting to unpruned grid for atomic number  74.
 Defaulting to unpruned grid for atomic number  74.
 Defaulting to unpruned grid for atomic number  74.
 Defaulting to unpruned grid for atomic number  74.
 Defaulting to unpruned grid for atomic number  74.
 Defaulting to unpruned grid for atomic number  74.
 Defaulting to unpruned grid for atomic number  74.
 Defaulting to unpruned grid for atomic number  74.
 Defaulting to unpruned grid for atomic number  74.
 Defaulting to unpruned grid for atomic number  74.
 Defaulting to unpruned grid for atomic number  74.
 Defaulting to unpruned grid for atomic number  74.
 Defaulting to unpruned grid for atomic number  74.
 Defaulting to unpruned grid for atomic number  74.
 Defaulting to unpruned grid for atomic number  74.
 Defaulting to unpruned grid for atomic number  74.
 Defaulting to unpruned grid for atomic number  74.
 Defaulting to unpruned grid for atomic number  74.
 Defaulting to unpruned grid for atomic number  74.
 Defaulting to unpruned grid for atomic number  74.
 Defaulting to unpruned grid for atomic number  74.
 Defaulting to unpruned grid for atomic number  74.
 Defaulting to unpruned grid for atomic number  74.
 Defaulting to unpruned grid for atomic number  74.
 Defaulting to unpruned grid for atomic number  74.
 Defaulting to unpruned grid for atomic number  74.
 Defaulting to unpruned grid for atomic number  74.
 Defaulting to unpruned grid for atomic number  74.
 Defaulting to unpruned grid for atomic number  74.
 Defaulting to unpruned grid for atomic number  74.
 Defaulting to unpruned grid for atomic number  74.
 Defaulting to unpruned grid for atomic number  74.
 Defaulting to unpruned grid for atomic number  74.
 Defaulting to unpruned grid for atomic number  74.
 Defaulting to unpruned grid for atomic number  74.
 Defaulting to unpruned grid for atomic number  74.
 Defaulting to unpruned grid for atomic number  74.
 Defaulting to unpruned grid for atomic number  74.
 Defaulting to unpruned grid for atomic number  74.
 Defaulting to unpruned grid for atomic number  74.
 Defaulting to unpruned grid for atomic number  74.
 Defaulting to unpruned grid for atomic number  74.
 Defaulting to unpruned grid for atomic number  74.
 Defaulting to unpruned grid for atomic number  74.
 Defaulting to unpruned grid for atomic number  74.
 Defaulting to unpruned grid for atomic number  74.
 Inv3:  Mode=1 IEnd=    86704128.
 Iteration    1 A*A^-1 deviation from unit magnitude is 3.11D-15 for    901.
 Iteration    1 A*A^-1 deviation from orthogonality  is 3.29D-15 for    930    709.
 Iteration    1 A^-1*A deviation from unit magnitude is 3.33D-15 for    906.
 Iteration    1 A^-1*A deviation from orthogonality  is 1.25D-09 for    994    941.
 Iteration    2 A*A^-1 deviation from unit magnitude is 5.11D-15 for   3046.
 Iteration    2 A*A^-1 deviation from orthogonality  is 5.33D-15 for   5223   1971.
 Iteration    2 A^-1*A deviation from unit magnitude is 1.22D-15 for   4150.
 Iteration    2 A^-1*A deviation from orthogonality  is 5.65D-16 for   5235   5104.
 Error on total polarization charges =  0.01595
 SCF Done:  E(RwB97XD) =  -7327.70038049     A.U. after   11 cycles
            NFock= 11  Conv=0.55D-08     -V/T= 2.0832
 SMD-CDS (non-electrostatic) energy       (kcal/mol) =      -3.65
 (included in total energy above)
 QCSCF skips out because SCF is already converged.

 **********************************************************************

            Population analysis using the SCF Density.

 **********************************************************************

 Alpha  occ. eigenvalues -- -197.29400-130.00166-130.00150-130.00071-101.47608
 Alpha  occ. eigenvalues --  -22.62526 -19.33622 -19.33606 -19.33602 -19.33575
 Alpha  occ. eigenvalues --  -19.30690 -19.30668 -19.30659 -19.30655 -19.30651
 Alpha  occ. eigenvalues --  -19.30643 -19.30615 -19.30589 -19.30499 -19.30307
 Alpha  occ. eigenvalues --  -19.30284 -19.30047 -19.29325 -19.29321 -19.29292
 Alpha  occ. eigenvalues --  -19.29281 -19.29279 -19.29268 -19.29260 -19.29200
 Alpha  occ. eigenvalues --  -19.29186 -19.29167 -19.29144 -19.29129 -19.29111
 Alpha  occ. eigenvalues --  -19.29105 -19.29100 -19.29095 -19.29075 -19.29064
 Alpha  occ. eigenvalues --  -19.29039 -19.28974 -19.28950 -19.28949 -19.28920
 Alpha  occ. eigenvalues --  -19.28744 -19.11483 -19.11475 -19.11465 -13.37569
 Alpha  occ. eigenvalues --  -13.37553 -13.37463 -10.70498 -10.70491 -10.70491
 Alpha  occ. eigenvalues --  -10.70482 -10.70475 -10.70475 -10.70394 -10.70387
 Alpha  occ. eigenvalues --  -10.70384 -10.29806 -10.29322 -10.29265 -10.29070
 Alpha  occ. eigenvalues --  -10.28978 -10.28974 -10.28129 -10.27619  -9.38064
 Alpha  occ. eigenvalues --   -7.12885  -7.12847  -7.12845  -3.23280  -3.23266
 Alpha  occ. eigenvalues --   -3.23257  -3.23255  -3.23247  -3.23240  -3.23183
 Alpha  occ. eigenvalues --   -3.23178  -3.23135  -3.22905  -3.22900  -3.22644
 Alpha  occ. eigenvalues --   -2.91777  -1.94158  -1.94129  -1.94118  -1.87689
 Alpha  occ. eigenvalues --   -1.87631  -1.87603  -1.87545  -1.87458  -1.87442
 Alpha  occ. eigenvalues --   -1.87435  -1.87400  -1.87352  -1.87217  -1.87186
 Alpha  occ. eigenvalues --   -1.86989  -1.86591  -1.86471  -1.86465  -1.86439
 Alpha  occ. eigenvalues --   -1.86419  -1.86373  -1.86302  -1.86288  -1.86266
 Alpha  occ. eigenvalues --   -1.86250  -1.86221  -1.86190  -1.86111  -1.86086
 Alpha  occ. eigenvalues --   -1.86082  -1.86051  -1.86010  -1.85955  -1.85934
 Alpha  occ. eigenvalues --   -1.85875  -1.85840  -1.85747  -1.85613  -1.85547
 Alpha  occ. eigenvalues --   -1.51252  -1.51237  -1.51148  -1.13018  -1.11256
 Alpha  occ. eigenvalues --   -1.11161  -1.11151  -1.08930  -1.08496  -1.08443
 Alpha  occ. eigenvalues --   -1.08263  -1.07530  -1.07473  -1.07446  -1.06868
 Alpha  occ. eigenvalues --   -1.06842  -1.06812  -1.06277  -1.06239  -1.05296
 Alpha  occ. eigenvalues --   -1.05291  -1.04948  -1.04937  -1.04910  -1.04176
 Alpha  occ. eigenvalues --   -1.04171  -1.04140  -1.03993  -1.03976  -1.03964
 Alpha  occ. eigenvalues --   -1.03914  -1.03859  -1.03841  -1.03725  -1.03681
 Alpha  occ. eigenvalues --   -1.03589  -1.03536  -1.03253  -1.03218  -1.03096
 Alpha  occ. eigenvalues --   -1.03079  -1.03016  -1.02891  -0.94397  -0.86715
 Alpha  occ. eigenvalues --   -0.86700  -0.86616  -0.86550  -0.86527  -0.86522
 Alpha  occ. eigenvalues --   -0.86511  -0.86504  -0.86427  -0.86409  -0.82825
 Alpha  occ. eigenvalues --   -0.79795  -0.70764  -0.69790  -0.68033  -0.64548
 Alpha  occ. eigenvalues --   -0.63913  -0.63859  -0.63844  -0.63279  -0.63248
 Alpha  occ. eigenvalues --   -0.63146  -0.63044  -0.62643  -0.62574  -0.61943
 Alpha  occ. eigenvalues --   -0.61574  -0.61554  -0.61463  -0.61190  -0.61172
 Alpha  occ. eigenvalues --   -0.61134  -0.60378  -0.59418  -0.59406  -0.59393
 Alpha  occ. eigenvalues --   -0.59352  -0.59325  -0.58692  -0.57963  -0.57932
 Alpha  occ. eigenvalues --   -0.57865  -0.57044  -0.57008  -0.56972  -0.56251
 Alpha  occ. eigenvalues --   -0.56206  -0.56058  -0.55668  -0.54822  -0.54767
 Alpha  occ. eigenvalues --   -0.54727  -0.54581  -0.54208  -0.54098  -0.54048
 Alpha  occ. eigenvalues --   -0.54006  -0.53920  -0.53228  -0.53175  -0.53058
 Alpha  occ. eigenvalues --   -0.52982  -0.52871  -0.52694  -0.52638  -0.52597
 Alpha  occ. eigenvalues --   -0.52551  -0.52504  -0.52441  -0.52419  -0.51557
 Alpha  occ. eigenvalues --   -0.51533  -0.51354  -0.51309  -0.51286  -0.51226
 Alpha  occ. eigenvalues --   -0.51149  -0.51116  -0.51012  -0.50735  -0.50553
 Alpha  occ. eigenvalues --   -0.50552  -0.50517  -0.49884  -0.49879  -0.49278
 Alpha  occ. eigenvalues --   -0.49248  -0.49227  -0.49170  -0.49129  -0.49034
 Alpha  occ. eigenvalues --   -0.48872  -0.48054  -0.48003  -0.47891  -0.47684
 Alpha  occ. eigenvalues --   -0.47331  -0.47276  -0.47218  -0.46987  -0.46944
 Alpha  occ. eigenvalues --   -0.46823  -0.46547  -0.46516  -0.46421  -0.46191
 Alpha  occ. eigenvalues --   -0.46128  -0.46071  -0.45606  -0.45066  -0.44885
 Alpha  occ. eigenvalues --   -0.44855  -0.44156  -0.44134  -0.43996  -0.43569
 Alpha  occ. eigenvalues --   -0.43284  -0.43225  -0.43098  -0.43078  -0.43035
 Alpha  occ. eigenvalues --   -0.42705  -0.42678  -0.42644  -0.42579  -0.42570
 Alpha  occ. eigenvalues --   -0.42489  -0.42442  -0.42430  -0.42270  -0.42257
 Alpha  occ. eigenvalues --   -0.42224  -0.42003  -0.41883  -0.41827  -0.41812
 Alpha  occ. eigenvalues --   -0.41210  -0.41193  -0.41146  -0.41042  -0.40538
 Alpha  occ. eigenvalues --   -0.40526  -0.40504  -0.40394  -0.39423  -0.39396
 Alpha  occ. eigenvalues --   -0.36863  -0.32543  -0.28800  -0.24516  -0.24486
 Alpha  occ. eigenvalues --   -0.23226
 Alpha virt. eigenvalues --   -0.09416  -0.09217  -0.08347  -0.08295  -0.06922
 Alpha virt. eigenvalues --   -0.06855  -0.06769  -0.04411  -0.04118  -0.04089
 Alpha virt. eigenvalues --   -0.03670  -0.03507  -0.03422  -0.03183  -0.03063
 Alpha virt. eigenvalues --   -0.03005  -0.02976  -0.02172  -0.02138  -0.02100
 Alpha virt. eigenvalues --   -0.01461  -0.01426  -0.01356  -0.01262  -0.01170
 Alpha virt. eigenvalues --   -0.00022  -0.00006   0.00060   0.01453   0.01475
 Alpha virt. eigenvalues --    0.01909   0.01956   0.02044   0.02182   0.02217
 Alpha virt. eigenvalues --    0.02228   0.02257   0.02364   0.02788   0.02863
 Alpha virt. eigenvalues --    0.02952   0.03002   0.03063   0.04255   0.04584
 Alpha virt. eigenvalues --    0.06794   0.07282   0.07500   0.07581   0.07768
 Alpha virt. eigenvalues --    0.08040   0.08448   0.08502   0.08775   0.09156
 Alpha virt. eigenvalues --    0.09333   0.09388   0.09652   0.09880   0.10262
 Alpha virt. eigenvalues --    0.10290   0.10359   0.10417   0.10469   0.10629
 Alpha virt. eigenvalues --    0.10886   0.11069   0.11083   0.11655   0.11737
 Alpha virt. eigenvalues --    0.12298   0.13100   0.13236   0.13347   0.13574
 Alpha virt. eigenvalues --    0.13745   0.14388   0.14559   0.14649   0.15001
 Alpha virt. eigenvalues --    0.15528   0.16126   0.16354   0.16559   0.16748
 Alpha virt. eigenvalues --    0.16768   0.16886   0.17105   0.17247   0.17662
 Alpha virt. eigenvalues --    0.17866   0.18144   0.18203   0.18362   0.18600
 Alpha virt. eigenvalues --    0.18730   0.18998   0.19279   0.19380   0.19507
 Alpha virt. eigenvalues --    0.19625   0.20181   0.20308   0.20425   0.20642
 Alpha virt. eigenvalues --    0.20715   0.20873   0.20917   0.21300   0.21366
 Alpha virt. eigenvalues --    0.21454   0.21597   0.21664   0.21862   0.22126
 Alpha virt. eigenvalues --    0.22428   0.22710   0.22918   0.23167   0.23316
 Alpha virt. eigenvalues --    0.23514   0.23866   0.24027   0.24238   0.24543
 Alpha virt. eigenvalues --    0.24750   0.25189   0.25550   0.25637   0.25907
 Alpha virt. eigenvalues --    0.26049   0.26237   0.26456   0.26579   0.26774
 Alpha virt. eigenvalues --    0.27051   0.27234   0.27416   0.27464   0.27706
 Alpha virt. eigenvalues --    0.28016   0.28276   0.28336   0.28641   0.28718
 Alpha virt. eigenvalues --    0.29278   0.29546   0.29876   0.30167   0.30439
 Alpha virt. eigenvalues --    0.30605   0.30962   0.31152   0.31705   0.31770
 Alpha virt. eigenvalues --    0.32227   0.34800   0.35234   0.35841   0.36306
 Alpha virt. eigenvalues --    0.36670   0.36910   0.37222   0.38114   0.38454
 Alpha virt. eigenvalues --    0.38697   0.39225   0.39543   0.39741   0.40290
 Alpha virt. eigenvalues --    0.40734   0.40893   0.41046   0.41148   0.41750
 Alpha virt. eigenvalues --    0.42124   0.42364   0.42708   0.43307   0.43565
 Alpha virt. eigenvalues --    0.43753   0.44532   0.44733   0.44854   0.45199
 Alpha virt. eigenvalues --    0.45699   0.46241   0.46502   0.46713   0.47151
 Alpha virt. eigenvalues --    0.47409   0.47646   0.47968   0.48101   0.48212
 Alpha virt. eigenvalues --    0.48359   0.48425   0.48650   0.48842   0.48989
 Alpha virt. eigenvalues --    0.49151   0.49380   0.49532   0.49897   0.49963
 Alpha virt. eigenvalues --    0.50206   0.50572   0.50671   0.50961   0.51188
 Alpha virt. eigenvalues --    0.51670   0.51810   0.51923   0.52338   0.52557
 Alpha virt. eigenvalues --    0.52659   0.52928   0.53037   0.53189   0.53239
 Alpha virt. eigenvalues --    0.53727   0.54091   0.54329   0.54413   0.54652
 Alpha virt. eigenvalues --    0.54997   0.55421   0.55683   0.56433   0.56505
 Alpha virt. eigenvalues --    0.56821   0.57375   0.57725   0.58107   0.58309
 Alpha virt. eigenvalues --    0.58603   0.59128   0.59474   0.60293   0.60806
 Alpha virt. eigenvalues --    0.61441   0.62446   0.62731   0.62754   0.63245
 Alpha virt. eigenvalues --    0.64230   0.65363   0.65645   0.65714   0.65843
 Alpha virt. eigenvalues --    0.66172   0.66812   0.67203   0.67303   0.67513
 Alpha virt. eigenvalues --    0.67844   0.68399   0.69943   0.70495   0.71107
 Alpha virt. eigenvalues --    0.71388   0.71943   0.72049   0.72158   0.72220
 Alpha virt. eigenvalues --    0.72438   0.72592   0.73139   0.73480   0.73971
 Alpha virt. eigenvalues --    0.74620   0.74920   0.75614   0.75722   0.75932
 Alpha virt. eigenvalues --    0.76339   0.76635   0.76846   0.76958   0.77349
 Alpha virt. eigenvalues --    0.77632   0.78461   0.79159   0.79453   0.79606
 Alpha virt. eigenvalues --    0.79803   0.80321   0.80690   0.81040   0.81502
 Alpha virt. eigenvalues --    0.81597   0.81683   0.82047   0.82700   0.83155
 Alpha virt. eigenvalues --    0.84166   0.84333   0.84929   0.85381   0.86108
 Alpha virt. eigenvalues --    0.87126   0.87490   0.88032   0.88123   0.88830
 Alpha virt. eigenvalues --    0.89130   0.89196   0.89544   0.89653   0.90456
 Alpha virt. eigenvalues --    0.90715   0.90827   0.91372   0.91528   0.91685
 Alpha virt. eigenvalues --    0.92681   0.93033   0.93791   0.94033   0.94149
 Alpha virt. eigenvalues --    0.94465   0.94869   0.95980   0.96081   0.96933
 Alpha virt. eigenvalues --    0.96969   0.97248   0.97393   0.97818   0.97970
 Alpha virt. eigenvalues --    0.98245   0.98376   0.98613   0.98656   0.98834
 Alpha virt. eigenvalues --    0.99155   0.99734   1.00148   1.00304   1.00398
 Alpha virt. eigenvalues --    1.00907   1.01435   1.01648   1.01673   1.02136
 Alpha virt. eigenvalues --    1.02204   1.02481   1.02564   1.02658   1.02952
 Alpha virt. eigenvalues --    1.02990   1.03689   1.03979   1.04097   1.04135
 Alpha virt. eigenvalues --    1.04304   1.04415   1.04517   1.04579   1.04808
 Alpha virt. eigenvalues --    1.05010   1.05205   1.05271   1.05545   1.05920
 Alpha virt. eigenvalues --    1.06027   1.06423   1.06683   1.07119   1.07314
 Alpha virt. eigenvalues --    1.07537   1.07957   1.08808   1.09145   1.09352
 Alpha virt. eigenvalues --    1.09389   1.09785   1.10103   1.10228   1.10241
 Alpha virt. eigenvalues --    1.10790   1.10889   1.11069   1.11188   1.11545
 Alpha virt. eigenvalues --    1.11658   1.11698   1.11813   1.12005   1.12635
 Alpha virt. eigenvalues --    1.12901   1.13552   1.13866   1.14443   1.15198
 Alpha virt. eigenvalues --    1.15323   1.15997   1.16297   1.16609   1.17060
 Alpha virt. eigenvalues --    1.17499   1.17698   1.17904   1.18709   1.18951
 Alpha virt. eigenvalues --    1.19802   1.20812   1.21073   1.21283   1.21330
 Alpha virt. eigenvalues --    1.21399   1.22061   1.22151   1.22983   1.23683
 Alpha virt. eigenvalues --    1.25095   1.25825   1.26415   1.26665   1.26811
 Alpha virt. eigenvalues --    1.27197   1.27862   1.28066   1.28580   1.28629
 Alpha virt. eigenvalues --    1.28878   1.29063   1.29091   1.29304   1.29675
 Alpha virt. eigenvalues --    1.30077   1.30190   1.30299   1.30773   1.30940
 Alpha virt. eigenvalues --    1.31060   1.31943   1.32152   1.32945   1.33032
 Alpha virt. eigenvalues --    1.33219   1.33464   1.33675   1.33838   1.33955
 Alpha virt. eigenvalues --    1.34179   1.34316   1.34480   1.34655   1.34822
 Alpha virt. eigenvalues --    1.34881   1.35176   1.35380   1.35654   1.35941
 Alpha virt. eigenvalues --    1.36178   1.36448   1.36560   1.36745   1.36951
 Alpha virt. eigenvalues --    1.37137   1.37305   1.37606   1.37685   1.37823
 Alpha virt. eigenvalues --    1.37917   1.38463   1.38688   1.38942   1.39177
 Alpha virt. eigenvalues --    1.39353   1.39576   1.39711   1.39865   1.40139
 Alpha virt. eigenvalues --    1.40415   1.40599   1.40774   1.40819   1.40987
 Alpha virt. eigenvalues --    1.41195   1.41301   1.41569   1.42057   1.42315
 Alpha virt. eigenvalues --    1.42545   1.43194   1.43253   1.43370   1.43449
 Alpha virt. eigenvalues --    1.43991   1.44151   1.44549   1.45205   1.45630
 Alpha virt. eigenvalues --    1.46422   1.46833   1.47683   1.47849   1.47954
 Alpha virt. eigenvalues --    1.48419   1.48812   1.49311   1.49766   1.50404
 Alpha virt. eigenvalues --    1.50472   1.51027   1.51522   1.51944   1.53324
 Alpha virt. eigenvalues --    1.53575   1.55439   1.55786   1.55822   1.55910
 Alpha virt. eigenvalues --    1.56162   1.56387   1.56692   1.56766   1.57245
 Alpha virt. eigenvalues --    1.57303   1.58164   1.58394   1.59194   1.59252
 Alpha virt. eigenvalues --    1.59711   1.60144   1.60504   1.60576   1.60641
 Alpha virt. eigenvalues --    1.60817   1.61255   1.62253   1.62334   1.62672
 Alpha virt. eigenvalues --    1.64173   1.64371   1.65101   1.65704   1.67108
 Alpha virt. eigenvalues --    1.67749   1.68058   1.69855   1.70607   1.70931
 Alpha virt. eigenvalues --    1.71543   1.71710   1.72549   1.73151   1.74263
 Alpha virt. eigenvalues --    1.75099   1.75183   1.75430   1.75790   1.76593
 Alpha virt. eigenvalues --    1.76714   1.77024   1.77314   1.77721   1.78646
 Alpha virt. eigenvalues --    1.78736   1.79151   1.79433   1.80369   1.80546
 Alpha virt. eigenvalues --    1.81239   1.81504   1.81760   1.82264   1.82730
 Alpha virt. eigenvalues --    1.83054   1.83294   1.83828   1.84331   1.84512
 Alpha virt. eigenvalues --    1.85199   1.85307   1.85683   1.86123   1.86368
 Alpha virt. eigenvalues --    1.86517   1.87227   1.87702   1.88317   1.88666
 Alpha virt. eigenvalues --    1.89365   1.90099   1.90185   1.90476   1.90560
 Alpha virt. eigenvalues --    1.90861   1.91194   1.91573   1.92441   1.93796
 Alpha virt. eigenvalues --    1.94820   1.95277   1.95495   1.95735   1.96189
 Alpha virt. eigenvalues --    1.98478   1.99296   1.99433   1.99598   2.04989
 Alpha virt. eigenvalues --    2.06889   2.07262   2.08148   2.08459   2.08800
 Alpha virt. eigenvalues --    2.09031   2.09441   2.09663   2.10397   2.11102
 Alpha virt. eigenvalues --    2.11546   2.11934   2.12962   2.14873   2.15319
 Alpha virt. eigenvalues --    2.15967   2.16669   2.17170   2.17593   2.17740
 Alpha virt. eigenvalues --    2.20128   2.20530   2.20580   2.20850   2.21241
 Alpha virt. eigenvalues --    2.21537   2.22223   2.24290   2.25401   2.25885
 Alpha virt. eigenvalues --    2.26450   2.26578   2.27411   2.28392   2.28677
 Alpha virt. eigenvalues --    2.29302   2.29718   2.30148   2.33529   2.35688
 Alpha virt. eigenvalues --    2.36501   2.39705   2.40989   2.41091   2.43857
 Alpha virt. eigenvalues --    2.44212   2.50586   2.51813   2.57531   2.64848
 Alpha virt. eigenvalues --    2.64929   2.65072   2.65777   2.66138   2.66536
 Alpha virt. eigenvalues --    2.66803   2.66869   2.66953   2.67063   2.67102
 Alpha virt. eigenvalues --    2.67169   2.67301   2.67380   2.67399   2.67535
 Alpha virt. eigenvalues --    2.67717   2.67782   2.67882   2.67901   2.68007
 Alpha virt. eigenvalues --    2.68918   2.69037   2.69285   2.69397   2.69976
 Alpha virt. eigenvalues --    2.70171   2.70243   2.70433   2.70604   2.70798
 Alpha virt. eigenvalues --    2.70853   2.71412   2.71478   2.71551   2.71614
 Alpha virt. eigenvalues --    2.71719   2.72039   2.72598   2.72885   2.73013
 Alpha virt. eigenvalues --    2.73138   2.73217   2.73288   2.73365   2.73393
 Alpha virt. eigenvalues --    2.73538   2.73793   2.73904   2.73938   2.74057
 Alpha virt. eigenvalues --    2.74134   2.74258   2.74374   2.74630   2.74790
 Alpha virt. eigenvalues --    2.74842   2.75049   2.75292   2.75828   2.76081
 Alpha virt. eigenvalues --    2.76189   2.76294   2.76486   2.76774   2.76973
 Alpha virt. eigenvalues --    2.77124   2.77252   2.77276   2.78416   2.78571
 Alpha virt. eigenvalues --    2.78688   2.78941   2.79965   2.80153   2.80305
 Alpha virt. eigenvalues --    2.81167   2.81727   2.81770   2.82055   2.82223
 Alpha virt. eigenvalues --    2.82279   2.82790   2.83066   2.83302   2.83775
 Alpha virt. eigenvalues --    2.83809   2.83970   2.84096   2.84324   2.85052
 Alpha virt. eigenvalues --    2.85614   2.86141   2.86266   2.86432   2.86593
 Alpha virt. eigenvalues --    2.86693   2.86827   2.86972   2.87982   2.88437
 Alpha virt. eigenvalues --    2.88681   2.89039   2.89579   2.89678   2.89756
 Alpha virt. eigenvalues --    2.89820   2.89924   2.90063   2.90427   2.90512
 Alpha virt. eigenvalues --    2.90661   2.91770   2.91884   2.91918   2.92003
 Alpha virt. eigenvalues --    2.92257   2.92494   2.92697   2.92979   2.93126
 Alpha virt. eigenvalues --    2.93276   2.93582   2.93670   2.94014   2.94127
 Alpha virt. eigenvalues --    2.94207   2.95068   2.95274   2.95494   2.95725
 Alpha virt. eigenvalues --    2.95894   2.95934   2.96379   2.96557   2.96623
 Alpha virt. eigenvalues --    2.96714   2.96917   2.96972   2.97226   2.97500
 Alpha virt. eigenvalues --    2.97573   2.97783   2.98001   2.98436   2.99090
 Alpha virt. eigenvalues --    2.99362   2.99526   2.99771   2.99828   3.00144
 Alpha virt. eigenvalues --    3.00351   3.00581   3.01357   3.01581   3.01761
 Alpha virt. eigenvalues --    3.02689   3.03282   3.03428   3.03810   3.05013
 Alpha virt. eigenvalues --    3.06278   3.06586   3.07036   3.11026   3.11353
 Alpha virt. eigenvalues --    3.11557   3.11608   3.12216   3.12477   3.13688
 Alpha virt. eigenvalues --    3.13814   3.13897   3.16832   3.20160   3.21684
 Alpha virt. eigenvalues --    3.21960   3.23997   3.32692   3.40779   3.41476
 Alpha virt. eigenvalues --    3.42194   3.42682   3.44668   3.44732   3.45584
 Alpha virt. eigenvalues --    3.45843   3.46047   3.46998   3.47234   3.47603
 Alpha virt. eigenvalues --    3.48612   3.50962   3.51670   3.52141   3.53410
 Alpha virt. eigenvalues --    3.53494   3.54320   3.54546   3.54906   3.55032
 Alpha virt. eigenvalues --    3.55180   3.55421   3.55836   3.56396   3.57386
 Alpha virt. eigenvalues --    3.57722   3.58072   3.59280   3.59490   3.60414
 Alpha virt. eigenvalues --    3.60528   3.61133   3.61501   3.61827   3.62365
 Alpha virt. eigenvalues --    3.69713   3.75008  68.64543  68.65598  68.66834
 Alpha virt. eigenvalues --   68.69106  68.72907  68.73810  68.81751  68.82774
 Alpha virt. eigenvalues --   68.83278  68.85960  68.87070  68.88369 576.22972
 Alpha virt. eigenvalues --  576.24002 576.25213 576.27436 576.31250 576.32142
 Alpha virt. eigenvalues --  576.39931 576.40933 576.41420 576.44002 576.45091
 Alpha virt. eigenvalues --  576.46383
          Condensed to atoms (all electrons):
 Mulliken charges:
               1
     1  Cl  -0.931981
     2  C   -0.078507
     3  C    0.040195
     4  C   -0.076123
     5  C   -0.033159
     6  C   -0.030878
     7  C   -0.050168
     8  H    0.028451
     9  H    0.030027
    10  H    0.040464
    11  H    0.036773
    12  H    0.039478
    13  C   -0.090514
    14  C    0.016457
    15  H    0.019825
    16  H    0.040025
    17  H    0.037075
    18  O   -0.663031
    19  O   -0.659560
    20  O   -0.654751
    21  O   -0.661355
    22  W    1.734107
    23  W    1.669822
    24  W    1.679876
    25  W    1.690163
    26  W    1.674964
    27  W    1.726445
    28  W    1.621157
    29  W    1.682922
    30  O   -0.321479
    31  O   -0.366269
    32  O   -0.365992
    33  O   -0.363479
    34  O   -0.664056
    35  O   -0.669968
    36  O   -0.660827
    37  O   -0.662477
    38  O   -0.365980
    39  O   -0.365762
    40  O   -0.293051
    41  O   -0.365536
    42  O   -0.669612
    43  O   -0.662329
    44  O   -0.658491
    45  O   -0.665350
    46  O   -0.366079
    47  O   -0.321262
    48  O   -0.354634
    49  O   -0.364197
    50  W    1.671479
    51  W    1.674465
    52  W    1.677855
    53  W    1.682818
    54  O   -0.722932
    55  O   -0.706294
    56  O   -0.725817
    57  O   -0.721114
    58  O   -0.706509
    59  O   -0.725548
    60  O   -0.724237
    61  O   -0.720095
    62  O   -0.723909
    63  O   -0.708107
    64  O   -0.722628
    65  O   -0.726020
    66  O   -0.801298
    67  O   -0.800747
    68  O   -0.798826
    69  O   -0.809294
    70  K    0.866391
    71  K    0.866256
    72  K    0.862676
    73  V    1.190067
 Sum of Mulliken charges =  -1.00000
 Mulliken charges with hydrogens summed into heavy atoms:
               1
     1  Cl  -0.931981
     2  C   -0.050056
     3  C    0.040195
     4  C   -0.046096
     5  C    0.007306
     6  C    0.005895
     7  C   -0.010690
    13  C   -0.070689
    14  C    0.093557
    18  O   -0.663031
    19  O   -0.659560
    20  O   -0.654751
    21  O   -0.661355
    22  W    1.734107
    23  W    1.669822
    24  W    1.679876
    25  W    1.690163
    26  W    1.674964
    27  W    1.726445
    28  W    1.621157
    29  W    1.682922
    30  O   -0.321479
    31  O   -0.366269
    32  O   -0.365992
    33  O   -0.363479
    34  O   -0.664056
    35  O   -0.669968
    36  O   -0.660827
    37  O   -0.662477
    38  O   -0.365980
    39  O   -0.365762
    40  O   -0.293051
    41  O   -0.365536
    42  O   -0.669612
    43  O   -0.662329
    44  O   -0.658491
    45  O   -0.665350
    46  O   -0.366079
    47  O   -0.321262
    48  O   -0.354634
    49  O   -0.364197
    50  W    1.671479
    51  W    1.674465
    52  W    1.677855
    53  W    1.682818
    54  O   -0.722932
    55  O   -0.706294
    56  O   -0.725817
    57  O   -0.721114
    58  O   -0.706509
    59  O   -0.725548
    60  O   -0.724237
    61  O   -0.720095
    62  O   -0.723909
    63  O   -0.708107
    64  O   -0.722628
    65  O   -0.726020
    66  O   -0.801298
    67  O   -0.800747
    68  O   -0.798826
    69  O   -0.809294
    70  K    0.866391
    71  K    0.866256
    72  K    0.862676
    73  V    1.190067
 Electronic spatial extent (au):  <R**2>=         317415.5773
 Charge=             -1.0000 electrons
 Dipole moment (field-independent basis, Debye):
    X=             51.9637    Y=            -51.0418    Z=            -38.4793  Tot=             82.3781
 Quadrupole moment (field-independent basis, Debye-Ang):
   XX=          -1073.7638   YY=           -874.5530   ZZ=           -909.6467
   XY=            457.1402   XZ=            465.3545   YZ=           -474.7066
 Traceless Quadrupole moment (field-independent basis, Debye-Ang):
   XX=           -121.1093   YY=             78.1015   ZZ=             43.0078
   XY=            457.1402   XZ=            465.3545   YZ=           -474.7066
 Octapole moment (field-independent basis, Debye-Ang**2):
  XXX=          13701.9359  YYY=           -947.0575  ZZZ=         -19064.0551  XYY=           6018.7622
  XXY=          -3752.8858  XXZ=          -9596.6013  XZZ=           7399.7077  YZZ=          -4131.0911
  YYZ=          -8882.0689  XYZ=           4821.9050
 Hexadecapole moment (field-independent basis, Debye-Ang**3):
 XXXX=        -162522.8761 YYYY=         -51434.2958 ZZZZ=        -345184.0627 XXXY=          38506.6621
 XXXZ=         125293.3492 YYYX=          19939.7610 YYYZ=         -11317.8109 ZZZX=         128136.4833
 ZZZY=         -35052.4409 XXYY=         -55732.3352 XXZZ=        -109487.4865 YYZZ=         -97912.4589
 XXYZ=         -43222.3627 YYXZ=          60812.7022 ZZXY=          50538.8227
 N-N= 2.099600148524D+04 E-N=-5.907664522554D+04  KE= 6.765171632891D+03
   1 Symmetry operations used in ECPInt.
 ECPInt:  NShTT=  127765 NPrTT=  468030 LenC2=   96799 LenP2D=  221485.
 LDataN:  DoStor=T MaxTD1= 9 Len=  602
 D1PCM: PCM CHGder 1st derivatives, ID1Alg=3 FixD1E=F DoIter=F DoCFld=F I1PDM=0.
 Calling FoFJK, ICntrl=      2127 FMM=T ISym2X=0 I1Cent= 0 IOpClX= 0 NMat=1 NMatS=1 NMatT=0.
 Defaulting to unpruned grid for atomic number  74.
 Defaulting to unpruned grid for atomic number  74.
 Defaulting to unpruned grid for atomic number  74.
 Defaulting to unpruned grid for atomic number  74.
 Defaulting to unpruned grid for atomic number  74.
 Defaulting to unpruned grid for atomic number  74.
 Defaulting to unpruned grid for atomic number  74.
 Defaulting to unpruned grid for atomic number  74.
 Defaulting to unpruned grid for atomic number  74.
 Defaulting to unpruned grid for atomic number  74.
 Defaulting to unpruned grid for atomic number  74.
 Defaulting to unpruned grid for atomic number  74.
 Defaulting to unpruned grid for atomic number  74.
 Defaulting to unpruned grid for atomic number  74.
 Defaulting to unpruned grid for atomic number  74.
 Defaulting to unpruned grid for atomic number  74.
 Defaulting to unpruned grid for atomic number  74.
 Defaulting to unpruned grid for atomic number  74.
 Defaulting to unpruned grid for atomic number  74.
 Defaulting to unpruned grid for atomic number  74.
 Defaulting to unpruned grid for atomic number  74.
 Defaulting to unpruned grid for atomic number  74.
 Defaulting to unpruned grid for atomic number  74.
 Defaulting to unpruned grid for atomic number  74.
 Defaulting to unpruned grid for atomic number  74.
 Defaulting to unpruned grid for atomic number  74.
 Defaulting to unpruned grid for atomic number  74.
 Defaulting to unpruned grid for atomic number  74.
 Defaulting to unpruned grid for atomic number  74.
 Defaulting to unpruned grid for atomic number  74.
 Defaulting to unpruned grid for atomic number  74.
 Defaulting to unpruned grid for atomic number  74.
 Defaulting to unpruned grid for atomic number  74.
 Defaulting to unpruned grid for atomic number  74.
 Defaulting to unpruned grid for atomic number  74.
 Defaulting to unpruned grid for atomic number  74.
 Defaulting to unpruned grid for atomic number  74.
 Defaulting to unpruned grid for atomic number  74.
 Defaulting to unpruned grid for atomic number  74.
 Defaulting to unpruned grid for atomic number  74.
 Defaulting to unpruned grid for atomic number  74.
 Defaulting to unpruned grid for atomic number  74.
 Defaulting to unpruned grid for atomic number  74.
 Defaulting to unpruned grid for atomic number  74.
 Defaulting to unpruned grid for atomic number  74.
 Defaulting to unpruned grid for atomic number  74.
 Defaulting to unpruned grid for atomic number  74.
 Defaulting to unpruned grid for atomic number  74.
 Defaulting to unpruned grid for atomic number  74.
 Defaulting to unpruned grid for atomic number  74.
 Defaulting to unpruned grid for atomic number  74.
 Defaulting to unpruned grid for atomic number  74.
 Defaulting to unpruned grid for atomic number  74.
 Defaulting to unpruned grid for atomic number  74.
 Defaulting to unpruned grid for atomic number  74.
 Defaulting to unpruned grid for atomic number  74.
 -------------------------------------------------------------------
 Center     Atomic                   Forces (Hartrees/Bohr)
 Number     Number              X              Y              Z
 -------------------------------------------------------------------
      1       17          -0.001879561    0.006415202    0.002128681
      2        6          -0.001346682   -0.000603923   -0.001586953
      3        6          -0.000479860   -0.001576265    0.002770213
      4        6           0.001313213    0.001584555    0.000327320
      5        6           0.000340852    0.000134812    0.001533983
      6        6          -0.000559779    0.000115826    0.000988592
      7        6          -0.001084920   -0.000968472    0.000650214
      8        1          -0.000155117    0.000235972   -0.000104692
      9        1          -0.000199190    0.000223509    0.000085007
     10        1           0.000079361   -0.000444266   -0.000061226
     11        1           0.000094544   -0.000246020    0.000236304
     12        1           0.000375673   -0.000169526    0.000113710
     13        6           0.009443047    0.008940534   -0.007121294
     14        6          -0.005094792   -0.014074226    0.000390417
     15        1          -0.000845370    0.000457427   -0.000049391
     16        1          -0.001262002    0.001235924    0.000405569
     17        1          -0.002089847    0.001613606    0.000244574
     18        8          -0.003103632    0.000097041    0.001197856
     19        8           0.003278696   -0.000655697    0.001227342
     20        8           0.002233378   -0.003069441   -0.000699598
     21        8          -0.002316529    0.002214919   -0.001203978
     22       74           0.001406455    0.009967803   -0.009420986
     23       74          -0.002268004   -0.009797943   -0.010123252
     24       74           0.006191803    0.007993933    0.009700912
     25       74          -0.006694343   -0.007050360    0.010078362
     26       74           0.008468462   -0.007563397   -0.010477738
     27       74          -0.008493546    0.008240038   -0.010228020
     28       74          -0.011482955    0.003097891    0.010267892
     29       74           0.011112188   -0.001962815    0.010326580
     30        8          -0.000893168   -0.002948784    0.003245870
     31        8           0.000829173    0.003239217    0.003648394
     32        8          -0.001827140   -0.002537436   -0.003506781
     33        8           0.001940756    0.002481172   -0.003538699
     34        8          -0.001045456   -0.001089760    0.003025787
     35        8           0.001510544    0.000279142    0.003083961
     36        8           0.000572536   -0.001685298   -0.002978432
     37        8          -0.000272900    0.001374394   -0.003116372
     38        8          -0.004222278   -0.001822164   -0.000797533
     39        8           0.004340573    0.001627518   -0.000871616
     40        8           0.002331273   -0.006059584    0.000562802
     41        8          -0.001320819    0.004627994    0.000924524
     42        8          -0.001984100   -0.002488833    0.001571472
     43        8           0.002471857    0.002198360    0.001157559
     44        8           0.000016711   -0.003580527   -0.000790031
     45        8           0.000451584    0.002970939   -0.001427076
     46        8          -0.002777694    0.002169850    0.003174742
     47        8           0.003174568   -0.001929749    0.003110081
     48        8           0.003760640   -0.001072396   -0.003342241
     49        8          -0.003523627    0.000885537   -0.003207954
     50       74           0.013848638    0.004958982    0.002955822
     51       74          -0.013963536   -0.004087072    0.003360654
     52       74          -0.005437126    0.015842748   -0.003394308
     53       74           0.004447529   -0.014369838   -0.003000336
     54        8          -0.000306711    0.001225429    0.002177954
     55        8           0.000544213   -0.001559246    0.002246126
     56        8           0.001614478   -0.000093378   -0.002293778
     57        8          -0.001151434   -0.000793362   -0.002252820
     58        8           0.000251098   -0.002166121    0.000660287
     59        8           0.000506934    0.002271132    0.001461684
     60        8          -0.001364273   -0.001891020   -0.001508471
     61        8           0.001738157    0.001520972   -0.001420136
     62        8          -0.001229690    0.001790639    0.000857280
     63        8           0.001114137   -0.002392022    0.000368032
     64        8           0.002309067   -0.000258492   -0.001098016
     65        8          -0.002312804   -0.000340689   -0.000833157
     66        8          -0.025930155   -0.005032273    0.016913196
     67        8           0.026429509    0.005517981    0.016840913
     68        8           0.011234858   -0.025166586   -0.017037946
     69        8          -0.010979239    0.023724955   -0.017159464
     70       19           0.000244493   -0.000507124   -0.000436096
     71       19           0.000639253    0.000176746    0.000313127
     72       19          -0.000503580    0.000171204    0.000324096
     73       23          -0.000258394    0.000430201    0.000430494
 -------------------------------------------------------------------
 Cartesian Forces:  Max     0.026429509 RMS     0.005970673

 GradGradGradGradGradGradGradGradGradGradGradGradGradGradGradGradGradGrad
 Berny optimization.
 Search for a local minimum.
 Step number   1 out of a maximum of    2
 All quantities printed in internal units (Hartrees-Bohrs-Radians)
 Second derivative matrix not updated -- first step.
 ITU=  0
     Eigenvalues ---    0.00000   0.00000   0.00000   0.00010   0.00091
     Eigenvalues ---    0.00093   0.00257   0.00568   0.00617   0.01646
     Eigenvalues ---    0.01984   0.02898   0.02948   0.03203   0.03396
     Eigenvalues ---    0.03443   0.03714   0.03722   0.04145   0.04506
     Eigenvalues ---    0.04582   0.04594   0.04605   0.04816   0.04836
     Eigenvalues ---    0.05000   0.05341   0.05544   0.05563   0.06346
     Eigenvalues ---    0.06395   0.06524   0.06784   0.06864   0.07049
     Eigenvalues ---    0.07314   0.07361   0.07614   0.08316   0.08393
     Eigenvalues ---    0.08704   0.08725   0.08899   0.08952   0.09746
     Eigenvalues ---    0.09889   0.10066   0.10354   0.10409   0.10470
     Eigenvalues ---    0.10823   0.10872   0.11498   0.11578   0.11967
     Eigenvalues ---    0.11991   0.12070   0.12447   0.12562   0.12629
     Eigenvalues ---    0.12664   0.12705   0.12866   0.12926   0.13037
     Eigenvalues ---    0.13844   0.13903   0.14222   0.14487   0.14746
     Eigenvalues ---    0.16742   0.16766   0.16975   0.17166   0.17547
     Eigenvalues ---    0.17657   0.18528   0.19685   0.19849   0.20228
     Eigenvalues ---    0.20752   0.21016   0.21706   0.21810   0.22029
     Eigenvalues ---    0.22328   0.22992   0.23302   0.23818   0.23839
     Eigenvalues ---    0.24538   0.24646   0.24798   0.25703   0.25898
     Eigenvalues ---    0.26101   0.26302   0.27482   0.27560   0.27773
     Eigenvalues ---    0.28247   0.28285   0.28729   0.29464   0.30035
     Eigenvalues ---    0.30505   0.30545   0.30612   0.30633   0.30665
     Eigenvalues ---    0.30796   0.31151   0.31284   0.31427   0.32083
     Eigenvalues ---    0.32373   0.32423   0.32583   0.32879   0.33421
     Eigenvalues ---    0.33501   0.35258   0.35418   0.35760   0.36785
     Eigenvalues ---    0.37342   0.37491   0.37547   0.38000   0.38337
     Eigenvalues ---    0.38697   0.39037   0.40116   0.40131   0.41108
     Eigenvalues ---    0.42119   0.42234   0.43591   0.43845   0.44999
     Eigenvalues ---    0.45186   0.45448   0.45761   0.47262   0.47985
     Eigenvalues ---    0.48260   0.48495   0.48682   0.49363   0.49473
     Eigenvalues ---    0.49752   0.50492   0.51335   0.51424   0.51950
     Eigenvalues ---    0.52858   0.53371   0.55309   0.58741   0.64429
     Eigenvalues ---    0.67549   0.76837   0.81656   0.82898   0.96811
     Eigenvalues ---    0.97258   0.98750   0.99636   1.02066   1.04441
     Eigenvalues ---    1.07395   1.11375   1.12055   1.12302   1.15671
     Eigenvalues ---    1.19168   1.19695   1.20639   1.22323   1.22799
     Eigenvalues ---    1.23127   1.25783   1.26493   1.26761   1.27279
     Eigenvalues ---    1.27636   1.28963   1.29382   1.44952   1.45765
     Eigenvalues ---    1.45980   1.48262   1.51185   1.51745   1.52105
     Eigenvalues ---    1.52491   1.55448   1.55580   1.56225   1.58064
     Eigenvalues ---    1.58364   1.59706   1.61360   1.65222   1.66441
     Eigenvalues ---    1.73230   1.77360   1.81624   1.82951   1.86241
     Eigenvalues ---    1.93391   1.96158   3.03850
 Eigenvalue     1 is   2.22D-16 Eigenvector:
                          Y11       Y6        Y12       Y10       Y7
   1                    0.17503   0.17503   0.17503   0.17503   0.17503
                          Y5        Y2        Y4        Y8        Y9
   1                    0.17503   0.17503   0.17503   0.17503   0.17503
 Eigenvalue     2 is   2.96D-07 Eigenvector:
                          Y16       X16       X11       Y11       Y14
   1                    0.33857  -0.26400   0.26181  -0.25113   0.24856
                          Y15       Y17       Y13       X14       X6
   1                    0.23444   0.21268   0.19055  -0.18710   0.18286
 Eigenvalue     3 is   2.89D-06 Eigenvector:
                          X9        X10       Y12       Y9        X12
   1                    0.33117   0.28892   0.27958  -0.25968  -0.25598
                          Y8        Y10       X15       X8        Y17
   1                    0.24898  -0.22917   0.21864  -0.21606   0.20392
 Quadratic step=1.296D+01 exceeds max=3.000D-01 adjusted using Lamda=-6.562D-03.
 Angle between NR and scaled steps=  45.91 degrees.
 Angle between quadratic step and forces=  66.68 degrees.
 Linear search not attempted -- first point.
 B after Tr=     0.004733    0.003079    0.002272
         Rot=    1.000000   -0.000180    0.000078    0.000272 Ang=  -0.04 deg.
 Variable       Old X    -DE/DX   Delta X   Delta X   Delta X     New X
                                 (Linear)    (Quad)   (Total)
    X1      -18.83994  -0.00188   0.00000  -0.00182   0.00806 -18.83188
    Y1       15.10641   0.00642   0.00000   0.00652   0.01270  15.11910
    Z1       19.83083   0.00213   0.00000   0.00229   0.00709  19.83792
    X2      -15.70799  -0.00135   0.00000  -0.01217  -0.00668 -15.71467
    Y2        8.00838  -0.00060   0.00000  -0.01580  -0.01249   7.99589
    Z2       23.11465  -0.00159   0.00000  -0.00909  -0.00638  23.10827
    X3      -17.15573  -0.00048   0.00000   0.00419   0.00968 -17.14606
    Y3        7.40055  -0.00158   0.00000  -0.04112  -0.03626   7.36429
    Z3       20.96939   0.00277   0.00000  -0.01091  -0.00865  20.96073
    X4      -18.91718   0.00131   0.00000  -0.00628  -0.00190 -18.91908
    Y4        5.41997   0.00158   0.00000  -0.02340  -0.01766   5.40232
    Z4       21.16405   0.00033   0.00000   0.02108   0.02235  21.18640
    X5      -19.25439   0.00034   0.00000  -0.01250  -0.00918 -19.26357
    Y5        4.12217   0.00013   0.00000  -0.00212   0.00298   4.12516
    Z5       23.42460   0.00153   0.00000   0.03550   0.03626  23.46086
    X6      -17.82007  -0.00056   0.00000  -0.01594  -0.01258 -17.83265
    Y6        4.76386   0.00012   0.00000   0.01075   0.01431   4.77817
    Z6       25.54192   0.00099   0.00000   0.03235   0.03357  25.57549
    X7      -16.03859  -0.00108   0.00000  -0.01579  -0.01135 -16.04994
    Y7        6.70311  -0.00097   0.00000   0.00699   0.00965   6.71276
    Z7       25.37248   0.00065   0.00000   0.00823   0.01043  25.38290
    X8      -14.30723  -0.00016   0.00000  -0.01292  -0.00659 -14.31382
    Y8        9.52122   0.00024   0.00000  -0.01490  -0.01233   9.50889
    Z8       23.02363  -0.00010   0.00000  -0.02007  -0.01659  23.00704
    X9      -20.03331  -0.00020   0.00000  -0.01128  -0.00693 -20.04024
    Y9        4.90277   0.00022   0.00000  -0.03178  -0.02483   4.87793
    Z9       19.50270   0.00009   0.00000   0.02703   0.02795  19.53064
   X10      -20.64449   0.00008   0.00000  -0.01031  -0.00783 -20.65232
   Y10        2.59995  -0.00044   0.00000  -0.00436   0.00146   2.60142
   Z10       23.53940  -0.00006   0.00000   0.04122   0.04121  23.58061
   X11      -18.07892   0.00009   0.00000  -0.01038  -0.00785 -18.08677
   Y11        3.74720  -0.00025   0.00000   0.01925   0.02231   3.76952
   Z11       27.31857   0.00024   0.00000   0.03856   0.03938  27.35795
   X12      -14.90879   0.00038   0.00000  -0.00750  -0.00304 -14.91183
   Y12        7.21258  -0.00017   0.00000   0.01698   0.01844   7.23101
   Z12       27.02451   0.00011   0.00000   0.00050   0.00306  27.02757
   X13      -16.91301   0.00944   0.00000   0.02500   0.03157 -16.88143
   Y13        8.74820   0.00894   0.00000  -0.08601  -0.08041   8.66778
   Z13       18.56585  -0.00712   0.00000  -0.04733  -0.04455  18.52130
   X14      -15.38147  -0.00509   0.00000  -0.01902  -0.01130 -15.39277
   Y14       10.72174  -0.01407   0.00000  -0.08267  -0.07771  10.64403
   Z14       18.09068   0.00039   0.00000  -0.05388  -0.05017  18.04051
   X15      -18.12422  -0.00085   0.00000   0.02162   0.02804 -18.09618
   Y15        8.04867   0.00046   0.00000  -0.09847  -0.09167   7.95700
   Z15       17.03996  -0.00005   0.00000  -0.03899  -0.03667  17.00329
   X16      -15.29879  -0.00126   0.00000  -0.04716  -0.03868 -15.33747
   Y16       11.55981   0.00124   0.00000  -0.06318  -0.05758  11.50223
   Z16       16.20839   0.00041   0.00000  -0.04634  -0.04231  16.16609
   X17      -14.04356  -0.00209   0.00000  -0.08322  -0.07527 -14.11884
   Y17       11.45539   0.00161   0.00000  -0.00419  -0.00044  11.45495
   Z17       19.48136   0.00024   0.00000  -0.03380  -0.02960  19.45177
   X18       -1.90082  -0.00310   0.00000  -0.01508  -0.01436  -1.91518
   Y18       -3.33169   0.00010   0.00000  -0.00773  -0.00869  -3.34038
   Z18       14.09161   0.00120   0.00000   0.01222   0.01299  14.10460
   X19      -15.89748   0.00328   0.00000   0.01723   0.01841 -15.87908
   Y19       -2.51146  -0.00066   0.00000   0.01623   0.02287  -2.48859
   Z19       14.10016   0.00123   0.00000   0.01333   0.01224  14.11240
   X20      -13.32364   0.00223   0.00000   0.01590   0.01893 -13.30471
   Y20        2.54424  -0.00307   0.00000  -0.00766  -0.00448   2.53976
   Z20       19.81840  -0.00070   0.00000  -0.00739  -0.00628  19.81213
   X21       -4.40728  -0.00232   0.00000  -0.01267  -0.01552  -4.42280
   Y21       -8.23379   0.00221   0.00000   0.01085   0.00914  -8.22465
   Z21       19.95779  -0.00120   0.00000  -0.01315  -0.01453  19.94326
   X22       -6.46301   0.00141   0.00000  -0.00218   0.00141  -6.46160
   Y22        1.38502   0.00997   0.00000   0.01546   0.01764   1.40266
   Z22       12.26341  -0.00942   0.00000  -0.00568  -0.00391  12.25950
   X23      -11.35784  -0.00227   0.00000   0.00556   0.00442 -11.35341
   Y23       -7.23427  -0.00980   0.00000  -0.00050   0.00428  -7.22999
   Z23       12.43520  -0.01012   0.00000  -0.00529  -0.00739  12.42781
   X24       -6.86117   0.00619   0.00000   0.02191   0.02422  -6.83694
   Y24        1.72745   0.00799   0.00000  -0.00254  -0.00352   1.72393
   Z24       21.56612   0.00970   0.00000   0.00671   0.00854  21.57467
   X25      -10.91855  -0.00669   0.00000  -0.01723  -0.01984 -10.93840
   Y25       -7.30602  -0.00705   0.00000   0.00728   0.00849  -7.29753
   Z25       21.67950   0.01008   0.00000   0.00455   0.00249  21.68199
   X26       -4.66255   0.00847   0.00000  -0.00196  -0.00173  -4.66429
   Y26       -4.82242  -0.00756   0.00000  -0.01257  -0.01130  -4.83372
   Z26       12.06572  -0.01048   0.00000  -0.00565  -0.00585  12.05987
   X27      -13.12150  -0.00849   0.00000   0.00127   0.00360 -13.11790
   Y27       -1.01634   0.00824   0.00000   0.02705   0.03295  -0.98339
   Z27       12.00702  -0.01023   0.00000  -0.00601  -0.00613  12.00089
   X28      -12.89794  -0.01148   0.00000  -0.00478  -0.00371 -12.90165
   Y28       -0.47122   0.00310   0.00000  -0.00087   0.00133  -0.46988
   Z28       21.89439   0.01027   0.00000   0.00761   0.00770  21.90209
   X29       -4.86000   0.01111   0.00000   0.01039   0.00893  -4.85107
   Y29       -5.09729  -0.00196   0.00000   0.00556   0.00335  -5.09394
   Z29       21.96819   0.01033   0.00000   0.00451   0.00419  21.97237
   X30       -6.02310  -0.00089   0.00000   0.01406   0.01922  -6.00388
   Y30        3.64834  -0.00295   0.00000   0.00538   0.00810   3.65644
   Z30       10.05827   0.00325   0.00000  -0.00092   0.00174  10.06001
   X31      -11.62108   0.00083   0.00000  -0.00757  -0.00965 -11.63074
   Y31       -9.59403   0.00324   0.00000   0.00684   0.01255  -9.58147
   Z31       10.27303   0.00365   0.00000   0.00098  -0.00202  10.27101
   X32       -5.13681  -0.00183   0.00000   0.01334   0.01620  -5.12061
   Y32        3.34180  -0.00254   0.00000  -0.00099  -0.00368   3.33811
   Z32       23.74223  -0.00351   0.00000   0.00023   0.00290  23.74513
   X33      -12.62621   0.00194   0.00000  -0.00808  -0.01189 -12.63810
   Y33       -8.85382   0.00248   0.00000   0.00520   0.00653  -8.84729
   Z33       23.91514  -0.00354   0.00000  -0.00179  -0.00468  23.91047
   X34       -5.08314  -0.00105   0.00000  -0.00897  -0.00678  -5.08993
   Y34       -1.64868  -0.00109   0.00000  -0.00437  -0.00233  -1.65101
   Z34       10.55309   0.00303   0.00000   0.01269   0.01358  10.56666
   X35      -12.69587   0.00151   0.00000   0.01265   0.01340 -12.68247
   Y35       -4.29272   0.00028   0.00000   0.01717   0.02331  -4.26941
   Z35       10.63392   0.00308   0.00000   0.01293   0.01168  10.64560
   X36      -10.05780   0.00057   0.00000   0.01200   0.01368 -10.04413
   Y36        1.07102  -0.00169   0.00000  -0.01272  -0.01259   1.05842
   Z36       23.37007  -0.00298   0.00000  -0.00840  -0.00731  23.36277
   X37       -7.67974  -0.00027   0.00000  -0.00502  -0.00754  -7.68728
   Y37       -6.64268   0.00137   0.00000   0.01388   0.01270  -6.62998
   Z37       23.45254  -0.00312   0.00000  -0.01241  -0.01373  23.43882
   X38        0.55737  -0.00422   0.00000   0.00867   0.01067   0.56804
   Y38        0.00261  -0.00182   0.00000  -0.01255  -0.01610  -0.01348
   Z38       17.51540  -0.00080   0.00000   0.00071   0.00306  17.51847
   X39      -18.36279   0.00434   0.00000  -0.00489  -0.00600 -18.36879
   Y39       -5.70948   0.00163   0.00000   0.02007   0.02680  -5.68269
   Z39       17.61764  -0.00087   0.00000   0.00131  -0.00132  17.61631
   X40      -12.06307   0.00233   0.00000   0.01809   0.02380 -12.03927
   Y40        6.45817  -0.00606   0.00000   0.01156   0.01530   6.47347
   Z40       16.34146   0.00056   0.00000   0.00373   0.00646  16.34792
   X41       -5.61571  -0.00132   0.00000  -0.00639  -0.01088  -5.62659
   Y41      -12.19929   0.00463   0.00000  -0.00005   0.00012 -12.19917
   Z41       16.54797   0.00092   0.00000  -0.00229  -0.00529  16.54268
   X42       -3.41019  -0.00198   0.00000  -0.00870  -0.00537  -3.41556
   Y42        1.47076  -0.00249   0.00000  -0.00679  -0.00695   1.46380
   Z42       14.13151   0.00157   0.00000   0.01326   0.01553  14.14704
   X43      -14.38774   0.00247   0.00000   0.01242   0.01095 -14.37679
   Y43       -7.32752   0.00220   0.00000   0.01744   0.02319  -7.30432
   Z43       14.27803   0.00116   0.00000   0.01100   0.00840  14.28643
   X44       -8.56133   0.00002   0.00000   0.01648   0.02042  -8.54091
   Y44        4.19517  -0.00358   0.00000  -0.01480  -0.01418   4.18099
   Z44       19.71081  -0.00079   0.00000  -0.00542  -0.00297  19.70784
   X45       -9.19148   0.00045   0.00000  -0.01360  -0.01731  -9.20880
   Y45       -9.85306   0.00297   0.00000   0.01834   0.01927  -9.83379
   Z45       19.89009  -0.00143   0.00000  -0.01346  -0.01617  19.87392
   X46       -3.07886  -0.00278   0.00000  -0.00330  -0.00369  -3.08255
   Y46       -6.57223   0.00217   0.00000  -0.00208  -0.00089  -6.57312
   Z46        9.88708   0.00317   0.00000  -0.00252  -0.00310   9.88398
   X47      -14.80646   0.00317   0.00000   0.00133   0.00482 -14.80164
   Y47        0.49212  -0.00193   0.00000   0.01471   0.02233   0.51446
   Z47        9.75649   0.00311   0.00000  -0.00186  -0.00171   9.75478
   X48      -15.19296   0.00376   0.00000   0.00388   0.00470 -15.18826
   Y48       -0.30196  -0.00107   0.00000   0.00777   0.01042  -0.29154
   Z48       24.12794  -0.00334   0.00000   0.00339   0.00319  24.13113
   X49       -2.52578  -0.00352   0.00000   0.00160  -0.00034  -2.52612
   Y49       -5.33791   0.00089   0.00000  -0.00529  -0.00955  -5.34746
   Z49       24.16030  -0.00321   0.00000   0.00035   0.00031  24.16060
   X50       -2.39216   0.01385   0.00000   0.01025   0.01185  -2.38030
   Y50       -0.97681   0.00496   0.00000  -0.00043  -0.00208  -0.97889
   Z50       16.70614   0.00296   0.00000   0.01288   0.01443  16.72057
   X51      -15.41569  -0.01396   0.00000  -0.00696  -0.00742 -15.42311
   Y51       -4.74890  -0.00409   0.00000   0.00991   0.01533  -4.73357
   Z51       16.77643   0.00336   0.00000   0.01395   0.01212  16.78855
   X52      -11.18413  -0.00544   0.00000   0.00787   0.01186 -11.17227
   Y52        3.49507   0.01584   0.00000   0.01741   0.02041   3.51548
   Z52       17.09638  -0.00339   0.00000  -0.00995  -0.00815  17.08822
   X53       -6.56075   0.00445   0.00000  -0.00611  -0.00910  -6.56985
   Y53       -9.23007  -0.01437   0.00000  -0.00639  -0.00597  -9.23605
   Z53       17.32805  -0.00300   0.00000  -0.01413  -0.01621  17.31184
   X54       -8.00673  -0.00031   0.00000   0.00121   0.00097  -8.00576
   Y54       -5.84343   0.00123   0.00000  -0.00674  -0.00343  -5.84686
   Z54       11.46894   0.00218   0.00000  -0.00675  -0.00784  11.46111
   X55       -9.77492   0.00054   0.00000  -0.00049   0.00246  -9.77246
   Y55       -0.06642  -0.00156   0.00000   0.02196   0.02627  -0.04015
   Z55       11.35284   0.00225   0.00000  -0.00553  -0.00479  11.34805
   X56      -11.68397   0.00161   0.00000  -0.00956  -0.01039 -11.69435
   Y56       -3.77721  -0.00009   0.00000   0.00125   0.00257  -3.77464
   Z56       22.52887  -0.00229   0.00000   0.00649   0.00558  22.53445
   X57       -6.02008  -0.00115   0.00000   0.01618   0.01643  -6.00365
   Y57       -1.80098  -0.00079   0.00000   0.00201   0.00022  -1.80076
   Z57       22.55478  -0.00225   0.00000   0.00614   0.00683  22.56161
   X58       -8.28081   0.00025   0.00000   0.00286   0.00693  -8.27388
   Y58        2.99606  -0.00217   0.00000   0.01757   0.01981   3.01587
   Z58       14.83338   0.00066   0.00000  -0.00938  -0.00731  14.82608
   X59       -9.46304   0.00051   0.00000   0.00017  -0.00223  -9.46527
   Y59       -8.83459   0.00227   0.00000  -0.00374  -0.00091  -8.83550
   Z59       14.97783   0.00146   0.00000  -0.00839  -0.01078  14.96705
   X60       -4.42438  -0.00136   0.00000   0.01863   0.02101  -4.40336
   Y60        1.13343  -0.00189   0.00000  -0.00206  -0.00345   1.12998
   Z60       19.05101  -0.00151   0.00000   0.00831   0.01031  19.06132
   X61      -13.35332   0.00174   0.00000  -0.01425  -0.01621 -13.36953
   Y61       -6.82514   0.00152   0.00000   0.00909   0.01254  -6.81260
   Z61       19.15971  -0.00142   0.00000   0.00749   0.00522  19.16494
   X62       -4.87440  -0.00123   0.00000  -0.00355  -0.00511  -4.87951
   Y62       -7.31865   0.00179   0.00000  -0.00927  -0.00889  -7.32754
   Z62       14.85596   0.00086   0.00000  -0.00983  -0.01096  14.84500
   X63      -12.92133   0.00111   0.00000   0.00397   0.00723 -12.91410
   Y63        1.48163  -0.00239   0.00000   0.02210   0.02690   1.50853
   Z63       14.75106   0.00037   0.00000  -0.00940  -0.00860  14.74246
   X64      -14.81980   0.00231   0.00000  -0.00547  -0.00493 -14.82473
   Y64       -2.21695  -0.00026   0.00000   0.00654   0.01077  -2.20618
   Z64       19.19042  -0.00110   0.00000   0.01061   0.00978  19.20020
   X65       -2.97785  -0.00231   0.00000   0.00949   0.00935  -2.96850
   Y65       -3.47494  -0.00034   0.00000  -0.00022  -0.00244  -3.47738
   Z65       19.17673  -0.00083   0.00000   0.00820   0.00876  19.18549
   X66       -6.38917  -0.02593   0.00000  -0.04510  -0.04390  -6.43307
   Y66       -2.14005  -0.00503   0.00000  -0.00500  -0.00388  -2.14393
   Z66       15.13799   0.01691   0.00000   0.02891   0.02941  15.16740
   X67      -11.40272   0.02643   0.00000   0.04660   0.04697 -11.35575
   Y67       -3.68597   0.00552   0.00000   0.01857   0.02234  -3.66363
   Z67       15.18994   0.01684   0.00000   0.02965   0.02883  15.21877
   X68       -9.70069   0.01123   0.00000   0.02584   0.02743  -9.67326
   Y68       -0.37141  -0.02517   0.00000  -0.03812  -0.03655  -0.40796
   Z68       18.80701  -0.01704   0.00000  -0.02838  -0.02776  18.77925
   X69       -8.03077  -0.01098   0.00000  -0.02220  -0.02328  -8.05406
   Y69       -5.33877   0.02372   0.00000   0.04358   0.04426  -5.29452
   Z69       18.85962  -0.01716   0.00000  -0.02957  -0.03046  18.82915
   X70       -6.10163   0.00024   0.00000  -0.00417  -0.00741  -6.10904
   Y70      -11.58466  -0.00051   0.00000  -0.00560  -0.00305 -11.58771
   Z70       10.69086  -0.00044   0.00000  -0.00826  -0.01112  10.67974
   X71       -0.25785   0.00064   0.00000   0.01542   0.01657  -0.24128
   Y71        0.08847   0.00018   0.00000  -0.00360  -0.00881   0.07966
   Z71       23.35059   0.00031   0.00000   0.00609   0.00835  23.35894
   X72      -17.53681  -0.00050   0.00000  -0.00994  -0.01186 -17.54868
   Y72       -5.52005   0.00017   0.00000   0.01021   0.01437  -5.50568
   Z72       23.47485   0.00032   0.00000   0.00713   0.00468  23.47953
   X73       -8.88632  -0.00026   0.00000   0.00091   0.00144  -8.88488
   Y73       -2.87714   0.00043   0.00000   0.00501   0.00680  -2.87034
   Z73       16.99297   0.00043   0.00000   0.00082   0.00067  16.99364
         Item               Value     Threshold  Converged?
 Maximum Force            0.026430     0.000450     NO 
 RMS     Force            0.005971     0.000300     NO 
 Maximum Displacement     0.091670     0.001800     NO 
 RMS     Displacement     0.020032     0.001200     NO 
 Predicted change in Energy=-5.429206D-03
 GradGradGradGradGradGradGradGradGradGradGradGradGradGradGradGradGradGrad

 Unable to Open any file for archive entry.
 1\1\GINC-X11P1N2\Force\RwB97XD\def2SVP\C8H8Cl1K3O40V1W12(1-)\MAYUMIAO\
 02-Jun-2024\0\\# def2svp wb97xd scrf=(smd,solvent=acetonitrile) g09def
 ault scf=(xqc,maxcycle=64) force guess=read nosymm\\Title Card\\-1,1\C
 l,-9.96966641,7.99396547,10.4940229\C,-8.31230873,4.23785219,12.231746
 89\C,-9.07842263,3.916202,11.09652181\C,-10.010538,2.86812691,11.19953
 276\C,-10.18898609,2.18135899,12.39576625\C,-9.42997273,2.52092605,13.
 51620027\C,-8.48725627,3.547134,13.42653689\H,-7.57105815,5.03841147,1
 2.18358102\H,-10.60117365,2.59443172,10.32038224\H,-10.92459351,1.3758
 3651,12.45651443\H,-9.56695199,1.98293513,14.45636453\H,-7.88939204,3.
 81673086,14.30075625\C,-8.94997756,4.62934625,9.82462559\C,-8.13952149
 ,5.67369966,9.57317532\H,-9.59092501,4.25917171,9.01715739\H,-8.095773
 63,6.11718589,8.5771127\H,-7.43153413,6.06193098,10.30909355\O,-1.0058
 7324,-1.76305465,7.45695958\O,-8.41258587,-1.32900596,7.46148381\O,-7.
 05056523,1.34635125,10.48744757\O,-2.33223336,-4.35713295,10.56120717\
 W,-3.42007891,0.73292185,6.48951585\W,-6.01030828,-3.82821205,6.580424
 5\W,-3.63077309,0.91412752,11.4123012\W,-5.77784896,-3.86617983,11.472
 29587\W,-2.46731718,-2.55191323,6.38490164\W,-6.94359625,-0.53782189,6
 .35384107\W,-6.82529559,-0.24935648,11.58601391\W,-2.5718022,-2.697369
 18,11.62506377\O,-3.18728726,1.93061799,5.32260699\O,-6.14961198,-5.07
 693945,5.43625072\O,-2.71828258,1.7684019,12.56384572\O,-6.68150318,-4
 .68524236,12.65534956\O,-2.68988354,-0.87244335,5.58445317\O,-6.718364
 85,-2.2716101,5.62722591\O,-5.32236036,0.56675755,12.36691005\O,-4.063
 94284,-3.51515432,12.41055084\O,0.29494698,0.00138312,9.26875266\O,-9.
 71717082,-3.02132836,9.32285176\O,-6.38350256,3.41751729,8.64752891\O,
 -2.97170604,-6.45558887,8.75680809\O,-1.8045937,0.77829077,7.47807544\
 O,-7.61366383,-3.87755405,7.5556055\O,-4.5304613,2.21998739,10.4305130
 9\O,-4.86392334,-5.2140136,10.52538108\O,-1.62926361,-3.47787471,5.232
 0159\O,-7.83523866,0.26042077,5.1629112\O,-8.03976875,-0.15978971,12.7
 6795557\O,-1.33658651,-2.82469904,12.78507941\W,-1.26587461,-0.5169042
 7,8.84050887\W,-8.15763369,-2.51301018,8.87770535\W,-5.91838779,1.8495
 1168,9.04701404\W,-3.471799,-4.88434427,9.16960936\O,-4.2369803,-3.092
 2103,6.06910342\O,-5.17266356,-0.03514801,6.00766196\O,-6.18289038,-1.
 99881412,11.92176418\O,-3.18568749,-0.95303657,11.93547755\O,-4.382013
 61,1.58544795,7.84948764\O,-5.0076225,-4.67506147,7.9259277\O,-2.34127
 937,0.5997865,10.08136041\O,-7.06627251,-3.6117083,10.13888286\O,-2.57
 942292,-3.87286344,7.86143576\O,-6.83767144,0.78404324,7.80592631\O,-7
 .84229968,-1.1731571,10.15513356\O,-1.57581234,-1.8388583,10.14788828\
 O,-3.38100564,-1.13246543,8.01067672\O,-6.03405882,-1.95053223,8.03816
 852\O,-5.13338464,-0.19654378,9.95224149\O,-4.24970261,-2.82515706,9.9
 8007905\K,-3.2288456,-6.13033849,5.65735877\K,-0.13645033,0.0468188,12
 .35659846\K,-9.2800827,-2.92108612,12.42235493\V,-4.70243761,-1.522516
 78,8.99229455\\Version=ES64L-G16RevC.01\HF=-7327.7003805\RMSD=5.502e-0
 9\RMSF=5.971e-03\Dipole=10.6582687,-21.8608049,2.5568498\Quadrupole=-9
 0.0418071,58.0665507,31.9752564,339.8725449,345.9796692,-352.9327283\P
 G=C01 [X(C8H8Cl1K3O40V1W12)]\\@
 The archive entry for this job was punched.


          EVOLUTION
 IN THE BEGINNING GOD MADE MAN.
 HE WORKED THE DIRT WITH HIS HANDS.
 THEN GOD DECIDED TO GIVE MAN SCIENCE,
 MAN SHOULD BE USEFUL (LIKE AN APPLIANCE.)
 BUT SOON MAN'S KNOWLEDGE GREW TOO GREAT,
 TO THE HEADING SCIENCE HE COULDN'T RELATE
 SO GOD SAID "LETS HAVE DIFFERENT FIELDS,
 WE'LL DIVIDE THEM UP, SEE WHAT IT YIELDS."
 ENTER PHYSICS, CHEMISTRY, BIO
 THEY SPRANG UP AROUND THE NILE.
 BUT CHEMISTRY SURPASSED THE REST
 FAR AND AWAY IT WAS THE BEST.
 EXPERIMENT WAS GOD'S DECREE
 EXPERIMENT DID CHEMISTS WITH LOTS OF GLEE
 BUT SOON THEIR TESTS BEGAN TO BOG,
 THEY FOUND THEMSELVES DEEP IN A FOG.
 "GIVE US SOME HELP" THEY CRIED TO GOD.
 GOD LOOKED AROUND, THEN GAVE THE NOD.
 ENTER EINSTEIN, HEISENBERG, BOHR,
 REACTION PATHS WERE CLEAR ONCE MORE.
 WITH THEORISTS GOD SEND DIRECTION
 AND THEN HE STOPPED, HE'D MADE PERFECTION.
          -- THOMAS A. HOLME, 1981
 Job cpu time:       0 days  9 hours 14 minutes 31.4 seconds.
 Elapsed time:       0 days  0 hours 10 minutes 29.9 seconds.
 File lengths (MBytes):  RWF=   1253 Int=      0 D2E=      0 Chk=    249 Scr=      1
 Normal termination of Gaussian 16 at Sun Jun  2 02:22:21 2024.
