 Entering Gaussian System, Link 0=g16
 Input=JOBS/26_A.gjf
 Output=JOBS/26_A.log
 Initial command:
 /data/app/gaussian/C01-avx2//g16/l1.exe "/tmp/Gau-626806.inp" -scrdir="/tmp/"
 Entering Link 1 = /data/app/gaussian/C01-avx2//g16/l1.exe PID=    626807.
  
 Copyright (c) 1988-2019, Gaussian, Inc.  All Rights Reserved.
  
 This is part of the Gaussian(R) 16 program.  It is based on
 the Gaussian(R) 09 system (copyright 2009, Gaussian, Inc.),
 the Gaussian(R) 03 system (copyright 2003, Gaussian, Inc.),
 the Gaussian(R) 98 system (copyright 1998, Gaussian, Inc.),
 the Gaussian(R) 94 system (copyright 1995, Gaussian, Inc.),
 the Gaussian 92(TM) system (copyright 1992, Gaussian, Inc.),
 the Gaussian 90(TM) system (copyright 1990, Gaussian, Inc.),
 the Gaussian 88(TM) system (copyright 1988, Gaussian, Inc.),
 the Gaussian 86(TM) system (copyright 1986, Carnegie Mellon
 University), and the Gaussian 82(TM) system (copyright 1983,
 Carnegie Mellon University). Gaussian is a federally registered
 trademark of Gaussian, Inc.
  
 This software contains proprietary and confidential information,
 including trade secrets, belonging to Gaussian, Inc.
  
 This software is provided under written license and may be
 used, copied, transmitted, or stored only in accord with that
 written license.
  
 The following legend is applicable only to US Government
 contracts under FAR:
  
                    RESTRICTED RIGHTS LEGEND
  
 Use, reproduction and disclosure by the US Government is
 subject to restrictions as set forth in subparagraphs (a)
 and (c) of the Commercial Computer Software - Restricted
 Rights clause in FAR 52.227-19.
  
 Gaussian, Inc.
 340 Quinnipiac St., Bldg. 40, Wallingford CT 06492
  
  
 ---------------------------------------------------------------
 Warning -- This program may not be used in any manner that
 competes with the business of Gaussian, Inc. or will provide
 assistance to any competitor of Gaussian, Inc.  The licensee
 of this program is prohibited from giving any competitor of
 Gaussian, Inc. access to this program.  By using this program,
 the user acknowledges that Gaussian, Inc. is engaged in the
 business of creating and licensing software in the field of
 computational chemistry and represents and warrants to the
 licensee that it is not a competitor of Gaussian, Inc. and that
 it will not use this program in any manner prohibited above.
 ---------------------------------------------------------------
  

 Cite this work as:
 Gaussian 16, Revision C.01,
 M. J. Frisch, G. W. Trucks, H. B. Schlegel, G. E. Scuseria, 
 M. A. Robb, J. R. Cheeseman, G. Scalmani, V. Barone, 
 G. A. Petersson, H. Nakatsuji, X. Li, M. Caricato, A. V. Marenich, 
 J. Bloino, B. G. Janesko, R. Gomperts, B. Mennucci, H. P. Hratchian, 
 J. V. Ortiz, A. F. Izmaylov, J. L. Sonnenberg, D. Williams-Young, 
 F. Ding, F. Lipparini, F. Egidi, J. Goings, B. Peng, A. Petrone, 
 T. Henderson, D. Ranasinghe, V. G. Zakrzewski, J. Gao, N. Rega, 
 G. Zheng, W. Liang, M. Hada, M. Ehara, K. Toyota, R. Fukuda, 
 J. Hasegawa, M. Ishida, T. Nakajima, Y. Honda, O. Kitao, H. Nakai, 
 T. Vreven, K. Throssell, J. A. Montgomery, Jr., J. E. Peralta, 
 F. Ogliaro, M. J. Bearpark, J. J. Heyd, E. N. Brothers, K. N. Kudin, 
 V. N. Staroverov, T. A. Keith, R. Kobayashi, J. Normand, 
 K. Raghavachari, A. P. Rendell, J. C. Burant, S. S. Iyengar, 
 J. Tomasi, M. Cossi, J. M. Millam, M. Klene, C. Adamo, R. Cammi, 
 J. W. Ochterski, R. L. Martin, K. Morokuma, O. Farkas, 
 J. B. Foresman, and D. J. Fox, Gaussian, Inc., Wallingford CT, 2019.
 
 ******************************************
 Gaussian 16:  ES64L-G16RevC.01  3-Jul-2019
                 2-Jun-2024 
 ******************************************
 %chk=a.chk
 %nprocshared=56
 Will use up to   56 processors via shared memory.
 %mem=96gb
 ----------------------------------------------------------------------
 # def2svp wb97xd scrf=(smd,solvent=acetonitrile) g09default scf=(xqc,m
 axcycle=64) force guess=read nosymm
 ----------------------------------------------------------------------
 1/10=7,30=1,38=1,158=3,167=1/1,3;
 2/12=2,15=1,17=6,18=5,40=1/2;
 3/5=43,7=101,11=2,25=1,27=10,30=1,70=32201,71=1,72=2,74=-58,75=-4,116=-2,158=3/1,2,3;
 4/5=1,60=-1/1;
 5/5=2,7=64,8=3,13=1,38=6,53=2,87=10/2,8;
 6/7=2,8=2,9=2,10=2,28=1,87=10/1;
 7/29=1,30=1,87=10/1,2,3,16;
 1/10=7,30=1,158=3,167=1/3;
 99//99;
 Using 2006 physical constants.
 ----------
 Title Card
 ----------
 Symbolic Z-matrix:
 Charge = -1 Multiplicity = 1
 17                   -9.96373   8.01032   10.49849 
 6                    -8.31331   4.23756   12.23124 
 6                    -9.0804    3.91623   11.0968 
 6                    -10.0119   2.86731   11.19988 
 6                    -10.18987   2.18094   12.39678 
 6                    -9.43107   2.52174   13.51695 
 6                    -8.48766   3.54735   13.42649 
 1                    -7.57095   5.03695   12.18126 
 1                    -10.60121   2.5922    10.32059 
 1                    -10.92406   1.37427   12.45768 
 1                    -9.56818   1.98444   14.45752 
 1                    -7.8882    3.81605   14.29983 
 6                    -8.95302   4.62993   9.82523 
 6                    -8.14607   5.67729   9.57371 
 1                    -9.59343   4.25875   9.0177 
 1                    -8.10331   6.11906   8.57688 
 1                    -7.44218   6.07145   10.31051 
 8                    -1.00455  -1.76394   7.45713 
 8                    -8.41273  -1.32945   7.46125 
 8                    -7.04971   1.34667   10.48682 
 8                    -2.33197  -4.35836   10.56073 
 74                   -3.41939   0.73043   6.48855 
 74                   -6.00977  -3.8277    6.57951 
 74                   -3.63056   0.91275   11.4129 
 74                   -5.77701  -3.86535   11.47217 
 74                   -2.46604  -2.55339   6.38604 
 74                   -6.94364  -0.53797   6.355 
 74                   -6.82506  -0.24908   11.58413 
 74                   -2.57104  -2.69832   11.62376 
 8                    -3.18557   1.92748   5.32139 
 8                    -6.14973  -5.07572   5.43536 
 8                    -2.71888   1.76686   12.56505 
 8                    -6.67989  -4.68434   12.65558 
 8                    -2.68824  -0.87401   5.58408 
 8                    -6.7183   -2.27162   5.62683 
 8                    -5.3223    0.56662   12.36661 
 8                    -4.0633   -3.51577   12.41015 
 8                     0.29488   0.00173   9.2687 
 8                    -9.71675  -3.02231   9.32216 
 8                    -6.38218   3.41778   8.65055 
 8                    -2.97316  -6.45659   8.75805 
 8                    -1.80347   0.77747   7.47746 
 8                    -7.61364  -3.87801   7.55487 
 8                    -4.52913   2.22006   10.43113 
 8                    -4.86425  -5.21449   10.5253 
 8                    -1.62797  -3.47994   5.23374 
 8                    -7.8358    0.25973   5.16451 
 8                    -8.04002  -0.15846   12.76568 
 8                    -1.33587  -2.8272    12.7835 
 74                   -1.26581  -0.51687   8.84 
 74                   -8.157    -2.51415   8.87705 
 74                   -5.91572   1.84917   9.04752 
 74                   -3.4727   -4.88517   9.16987 
 8                    -4.23617  -3.09266   6.06876 
 8                    -5.17206  -0.03631   6.00727 
 8                    -6.18205  -1.99835   11.92113 
 8                    -3.18483  -0.95392   11.93578 
 8                    -4.38054   1.58431   7.84921 
 8                    -5.00757  -4.675     7.9256 
 8                    -2.34098   0.59906   10.08141 
 8                    -7.06596  -3.6116    10.13857 
 8                    -2.57909  -3.87354   7.86197 
 8                    -6.83632   0.78365   7.8065 
 8                    -7.84161  -1.17303   10.15373 
 8                    -1.57595  -1.83996   10.14679 
 8                    -3.38002  -1.13338   8.00977 
 8                    -6.03395  -1.95064   8.03755 
 8                    -5.1322   -0.19657   9.95219 
 8                    -4.24921  -2.82555   9.97992 
 19                   -3.22796  -6.13164   5.6562 
 19                   -0.13421   0.04787   12.3572 
 19                   -9.28141  -2.91878   12.4239 
 23                   -4.70183  -1.52275   8.99176 
 

 GradGradGradGradGradGradGradGradGradGradGradGradGradGradGradGradGradGrad
 Berny optimization.
 Initialization pass.
 Trust Radius=3.00D-01 FncErr=1.00D-07 GrdErr=1.00D-07 EigMax=2.50D+02 EigMin=1.00D-04
 Number of steps in this run=      2 maximum allowed number of steps=      2.
 GradGradGradGradGradGradGradGradGradGradGradGradGradGradGradGradGradGrad

 Symmetry turned off by external request.
 Stoichiometry    C8H8ClK3O40VW12(1-)
 Framework group  C1[X(C8H8ClK3O40VW12)]
 Deg. of freedom   213
 Full point group                 C1      NOp   1
                          Input orientation:                          
 ---------------------------------------------------------------------
 Center     Atomic      Atomic             Coordinates (Angstroms)
 Number     Number       Type             X           Y           Z
 ---------------------------------------------------------------------
      1         17           0       -9.963726    8.010319   10.498490
      2          6           0       -8.313309    4.237556   12.231243
      3          6           0       -9.080405    3.916227   11.096795
      4          6           0      -10.011898    2.867308   11.199876
      5          6           0      -10.189871    2.180944   12.396780
      6          6           0       -9.431074    2.521738   13.516945
      7          6           0       -8.487660    3.547350   13.426491
      8          1           0       -7.570945    5.036949   12.181258
      9          1           0      -10.601208    2.592204   10.320594
     10          1           0      -10.924059    1.374268   12.457682
     11          1           0       -9.568175    1.984442   14.457522
     12          1           0       -7.888201    3.816054   14.299829
     13          6           0       -8.953024    4.629929    9.825234
     14          6           0       -8.146072    5.677293    9.573709
     15          1           0       -9.593430    4.258747    9.017696
     16          1           0       -8.103313    6.119062    8.576883
     17          1           0       -7.442182    6.071450   10.310510
     18          8           0       -1.004552   -1.763941    7.457134
     19          8           0       -8.412730   -1.329448    7.461248
     20          8           0       -7.049707    1.346667   10.486819
     21          8           0       -2.331966   -4.358361   10.560731
     22         74           0       -3.419386    0.730428    6.488554
     23         74           0       -6.009767   -3.827696    6.579512
     24         74           0       -3.630559    0.912749   11.412896
     25         74           0       -5.777010   -3.865354   11.472174
     26         74           0       -2.466045   -2.553389    6.386038
     27         74           0       -6.943643   -0.537965    6.355002
     28         74           0       -6.825064   -0.249079   11.584130
     29         74           0       -2.571043   -2.698315   11.623758
     30          8           0       -3.185568    1.927485    5.321387
     31          8           0       -6.149733   -5.075725    5.435356
     32          8           0       -2.718882    1.766856   12.565052
     33          8           0       -6.679892   -4.684338   12.655581
     34          8           0       -2.688240   -0.874010    5.584085
     35          8           0       -6.718300   -2.271616    5.626830
     36          8           0       -5.322304    0.566617   12.366614
     37          8           0       -4.063298   -3.515775   12.410151
     38          8           0        0.294877    0.001733    9.268699
     39          8           0       -9.716749   -3.022308    9.322159
     40          8           0       -6.382177    3.417782    8.650550
     41          8           0       -2.973159   -6.456588    8.758050
     42          8           0       -1.803473    0.777466    7.477460
     43          8           0       -7.613638   -3.878009    7.554869
     44          8           0       -4.529130    2.220061   10.431130
     45          8           0       -4.864253   -5.214489   10.525302
     46          8           0       -1.627973   -3.479944    5.233738
     47          8           0       -7.835802    0.259726    5.164509
     48          8           0       -8.040024   -0.158463   12.765681
     49          8           0       -1.335875   -2.827200   12.783504
     50         74           0       -1.265813   -0.516867    8.839998
     51         74           0       -8.156998   -2.514152    8.877046
     52         74           0       -5.915721    1.849168    9.047518
     53         74           0       -3.472704   -4.885166    9.169872
     54          8           0       -4.236172   -3.092660    6.068756
     55          8           0       -5.172062   -0.036311    6.007270
     56          8           0       -6.182050   -1.998348   11.921132
     57          8           0       -3.184829   -0.953916   11.935775
     58          8           0       -4.380542    1.584314    7.849207
     59          8           0       -5.007575   -4.675000    7.925597
     60          8           0       -2.340975    0.599058   10.081411
     61          8           0       -7.065960   -3.611602   10.138574
     62          8           0       -2.579087   -3.873540    7.861971
     63          8           0       -6.836321    0.783650    7.806498
     64          8           0       -7.841607   -1.173033   10.153732
     65          8           0       -1.575953   -1.839963   10.146793
     66          8           0       -3.380017   -1.133381    8.009774
     67          8           0       -6.033949   -1.950641    8.037549
     68          8           0       -5.132203   -0.196568    9.952192
     69          8           0       -4.249214   -2.825554    9.979921
     70         19           0       -3.227960   -6.131641    5.656199
     71         19           0       -0.134214    0.047873   12.357195
     72         19           0       -9.281414   -2.918778   12.423896
     73         23           0       -4.701825   -1.522748    8.991760
 ---------------------------------------------------------------------
 Rotational constants (GHZ):           0.0171902           0.0132888           0.0130754
 Standard basis: def2SVP (5D, 7F)
  1217 basis functions,  2313 primitive gaussians,  1337 cartesian basis functions
   321 alpha electrons      321 beta electrons
       nuclear repulsion energy     20994.9033412346 Hartrees.
 NAtoms=   73 NActive=   73 NUniq=   73 SFac= 1.00D+00 NAtFMM=   60 NAOKFM=T Big=T
 Integral buffers will be    131072 words long.
 Raffenetti 2 integral format.
 Two-electron integral symmetry is turned off.
 Nuclear repulsion after empirical dispersion term =    20994.6256708555 Hartrees.
 Force PCM accuracy= 1.00D-10.
 ------------------------------------------------------------------------------
 Polarizable Continuum Model (PCM)
 =================================
 Model                : PCM (using non-symmetric T matrix).
 Atomic radii         : SMD-Coulomb.
 Polarization charges : Total charges.
 Charge compensation  : None.
 Solution method      : On-the-fly selection.
 Cavity type          : VdW (van der Waals Surface) (Alpha=1.000).
 Cavity algorithm     : GePol (No added spheres)
                        Default sphere list used, NSphG=   73.
                        Lebedev-Laikov grids with approx.  5.0 points / Ang**2.
                        Smoothing algorithm: York/Karplus (Gamma=1.0000).
                        Polarization charges: spherical gaussians, with
                                              point-specific exponents (IZeta= 3).
                        Self-potential: point-specific (ISelfS= 7).
                        Self-field    : sphere-specific E.n sum rule (ISelfD= 2).
 1st derivatives      : Analytical E(r).r(x)/FMM algorithm (CHGder, D1EAlg=3).
                        Cavity 1st derivative terms included.
 Solvent              : Acetonitrile, Eps=  35.688000 Eps(inf)=   1.806874
 ------------------------------------------------------------------------------
 ------------------------------------------------------------------------------
 Atomic radii for non-electrostatic terms: SMD-CDS.
 ------------------------------------------------------------------------------
 Nuclear repulsion after PCM non-electrostatic terms =    20994.6198520681 Hartrees.
 One-electron integrals computed using PRISM.
   1 Symmetry operations used in ECPInt.
 ECPInt:  NShTT=  127765 NPrTT=  468030 LenC2=   96793 LenP2D=  221471.
 LDataN:  DoStor=T MaxTD1= 8 Len=  415
 NBasis=  1217 RedAO= T EigKep=  1.36D-04  NBF=  1217
 NBsUse=  1217 1.00D-06 EigRej= -1.00D+00 NBFU=  1217
 Defaulting to unpruned grid for atomic number  74.
 Defaulting to unpruned grid for atomic number  74.
 Defaulting to unpruned grid for atomic number  74.
 Defaulting to unpruned grid for atomic number  74.
 Defaulting to unpruned grid for atomic number  74.
 Defaulting to unpruned grid for atomic number  74.
 Defaulting to unpruned grid for atomic number  74.
 Defaulting to unpruned grid for atomic number  74.
 Initial guess from the checkpoint file:  "a.chk"
 B after Tr=     0.001626   -0.002523   -0.000141
         Rot=    1.000000    0.000002    0.000004    0.000106 Ang=   0.01 deg.
 Requested convergence on RMS density matrix=1.00D-08 within  64 cycles.
 Requested convergence on MAX density matrix=1.00D-06.
 Requested convergence on             energy=1.00D-06.
 No special actions if energy rises.
 Defaulting to unpruned grid for atomic number  74.
 Defaulting to unpruned grid for atomic number  74.
 Defaulting to unpruned grid for atomic number  74.
 Defaulting to unpruned grid for atomic number  74.
 Defaulting to unpruned grid for atomic number  74.
 Defaulting to unpruned grid for atomic number  74.
 Defaulting to unpruned grid for atomic number  74.
 Defaulting to unpruned grid for atomic number  74.
 Defaulting to unpruned grid for atomic number  74.
 Defaulting to unpruned grid for atomic number  74.
 Defaulting to unpruned grid for atomic number  74.
 Defaulting to unpruned grid for atomic number  74.
 Defaulting to unpruned grid for atomic number  74.
 Defaulting to unpruned grid for atomic number  74.
 Defaulting to unpruned grid for atomic number  74.
 Defaulting to unpruned grid for atomic number  74.
 Defaulting to unpruned grid for atomic number  74.
 Defaulting to unpruned grid for atomic number  74.
 Defaulting to unpruned grid for atomic number  74.
 Defaulting to unpruned grid for atomic number  74.
 Defaulting to unpruned grid for atomic number  74.
 Defaulting to unpruned grid for atomic number  74.
 Defaulting to unpruned grid for atomic number  74.
 Defaulting to unpruned grid for atomic number  74.
 Defaulting to unpruned grid for atomic number  74.
 Defaulting to unpruned grid for atomic number  74.
 Defaulting to unpruned grid for atomic number  74.
 Defaulting to unpruned grid for atomic number  74.
 Defaulting to unpruned grid for atomic number  74.
 Defaulting to unpruned grid for atomic number  74.
 Defaulting to unpruned grid for atomic number  74.
 Defaulting to unpruned grid for atomic number  74.
 Defaulting to unpruned grid for atomic number  74.
 Defaulting to unpruned grid for atomic number  74.
 Defaulting to unpruned grid for atomic number  74.
 Defaulting to unpruned grid for atomic number  74.
 Defaulting to unpruned grid for atomic number  74.
 Defaulting to unpruned grid for atomic number  74.
 Defaulting to unpruned grid for atomic number  74.
 Defaulting to unpruned grid for atomic number  74.
 Defaulting to unpruned grid for atomic number  74.
 Defaulting to unpruned grid for atomic number  74.
 Defaulting to unpruned grid for atomic number  74.
 Defaulting to unpruned grid for atomic number  74.
 Defaulting to unpruned grid for atomic number  74.
 Defaulting to unpruned grid for atomic number  74.
 Defaulting to unpruned grid for atomic number  74.
 Defaulting to unpruned grid for atomic number  74.
 Defaulting to unpruned grid for atomic number  74.
 Defaulting to unpruned grid for atomic number  74.
 Defaulting to unpruned grid for atomic number  74.
 Defaulting to unpruned grid for atomic number  74.
 Defaulting to unpruned grid for atomic number  74.
 Defaulting to unpruned grid for atomic number  74.
 Defaulting to unpruned grid for atomic number  74.
 Defaulting to unpruned grid for atomic number  74.
 Inv3:  Mode=1 IEnd=    86768652.
 Iteration    1 A*A^-1 deviation from unit magnitude is 3.77D-15 for   1460.
 Iteration    1 A*A^-1 deviation from orthogonality  is 4.15D-15 for    901     45.
 Iteration    1 A^-1*A deviation from unit magnitude is 4.00D-15 for   2896.
 Iteration    1 A^-1*A deviation from orthogonality  is 2.93D-07 for    986    941.
 Iteration    2 A*A^-1 deviation from unit magnitude is 4.33D-15 for    183.
 Iteration    2 A*A^-1 deviation from orthogonality  is 4.27D-15 for   3564   3426.
 Iteration    2 A^-1*A deviation from unit magnitude is 1.22D-15 for   1672.
 Iteration    2 A^-1*A deviation from orthogonality  is 6.36D-16 for   5245   5087.
 Error on total polarization charges =  0.01595
 SCF Done:  E(RwB97XD) =  -7327.70040780     A.U. after   11 cycles
            NFock= 11  Conv=0.57D-08     -V/T= 2.0832
 SMD-CDS (non-electrostatic) energy       (kcal/mol) =      -3.65
 (included in total energy above)
 QCSCF skips out because SCF is already converged.

 **********************************************************************

            Population analysis using the SCF Density.

 **********************************************************************

 Alpha  occ. eigenvalues -- -197.29449-130.00173-130.00159-130.00078-101.47619
 Alpha  occ. eigenvalues --  -22.62572 -19.33649 -19.33634 -19.33627 -19.33606
 Alpha  occ. eigenvalues --  -19.30698 -19.30670 -19.30659 -19.30656 -19.30649
 Alpha  occ. eigenvalues --  -19.30643 -19.30619 -19.30586 -19.30499 -19.30311
 Alpha  occ. eigenvalues --  -19.30289 -19.30046 -19.29321 -19.29319 -19.29289
 Alpha  occ. eigenvalues --  -19.29278 -19.29276 -19.29267 -19.29256 -19.29195
 Alpha  occ. eigenvalues --  -19.29185 -19.29166 -19.29142 -19.29130 -19.29109
 Alpha  occ. eigenvalues --  -19.29106 -19.29099 -19.29096 -19.29075 -19.29061
 Alpha  occ. eigenvalues --  -19.29042 -19.28970 -19.28951 -19.28947 -19.28918
 Alpha  occ. eigenvalues --  -19.28754 -19.11530 -19.11521 -19.11512 -13.37577
 Alpha  occ. eigenvalues --  -13.37563 -13.37471 -10.70506 -10.70499 -10.70499
 Alpha  occ. eigenvalues --  -10.70492 -10.70485 -10.70484 -10.70402 -10.70395
 Alpha  occ. eigenvalues --  -10.70392 -10.29813 -10.29329 -10.29272 -10.29077
 Alpha  occ. eigenvalues --  -10.28989 -10.28979 -10.28144 -10.27644  -9.38075
 Alpha  occ. eigenvalues --   -7.12896  -7.12857  -7.12856  -3.23278  -3.23267
 Alpha  occ. eigenvalues --   -3.23256  -3.23254  -3.23246  -3.23240  -3.23182
 Alpha  occ. eigenvalues --   -3.23181  -3.23136  -3.22907  -3.22903  -3.22649
 Alpha  occ. eigenvalues --   -2.91814  -1.94192  -1.94164  -1.94153  -1.87691
 Alpha  occ. eigenvalues --   -1.87633  -1.87607  -1.87549  -1.87459  -1.87444
 Alpha  occ. eigenvalues --   -1.87436  -1.87401  -1.87354  -1.87221  -1.87191
 Alpha  occ. eigenvalues --   -1.86989  -1.86590  -1.86471  -1.86464  -1.86438
 Alpha  occ. eigenvalues --   -1.86418  -1.86374  -1.86302  -1.86288  -1.86265
 Alpha  occ. eigenvalues --   -1.86249  -1.86223  -1.86191  -1.86109  -1.86086
 Alpha  occ. eigenvalues --   -1.86082  -1.86051  -1.86010  -1.85956  -1.85935
 Alpha  occ. eigenvalues --   -1.85875  -1.85841  -1.85748  -1.85616  -1.85552
 Alpha  occ. eigenvalues --   -1.51259  -1.51245  -1.51155  -1.13039  -1.11278
 Alpha  occ. eigenvalues --   -1.11185  -1.11172  -1.08939  -1.08498  -1.08446
 Alpha  occ. eigenvalues --   -1.08264  -1.07538  -1.07482  -1.07457  -1.06870
 Alpha  occ. eigenvalues --   -1.06844  -1.06817  -1.06280  -1.06244  -1.05295
 Alpha  occ. eigenvalues --   -1.05290  -1.04950  -1.04940  -1.04914  -1.04175
 Alpha  occ. eigenvalues --   -1.04171  -1.04140  -1.03997  -1.03978  -1.03963
 Alpha  occ. eigenvalues --   -1.03918  -1.03860  -1.03842  -1.03727  -1.03681
 Alpha  occ. eigenvalues --   -1.03590  -1.03537  -1.03257  -1.03224  -1.03093
 Alpha  occ. eigenvalues --   -1.03076  -1.03015  -1.02892  -0.94400  -0.86722
 Alpha  occ. eigenvalues --   -0.86707  -0.86623  -0.86559  -0.86534  -0.86529
 Alpha  occ. eigenvalues --   -0.86519  -0.86512  -0.86434  -0.86416  -0.82828
 Alpha  occ. eigenvalues --   -0.79803  -0.70773  -0.69795  -0.68045  -0.64550
 Alpha  occ. eigenvalues --   -0.63913  -0.63862  -0.63848  -0.63299  -0.63268
 Alpha  occ. eigenvalues --   -0.63165  -0.63049  -0.62659  -0.62588  -0.61963
 Alpha  occ. eigenvalues --   -0.61583  -0.61563  -0.61472  -0.61190  -0.61171
 Alpha  occ. eigenvalues --   -0.61135  -0.60382  -0.59426  -0.59411  -0.59398
 Alpha  occ. eigenvalues --   -0.59361  -0.59332  -0.58697  -0.57965  -0.57935
 Alpha  occ. eigenvalues --   -0.57868  -0.57057  -0.57021  -0.56986  -0.56257
 Alpha  occ. eigenvalues --   -0.56213  -0.56062  -0.55671  -0.54825  -0.54770
 Alpha  occ. eigenvalues --   -0.54728  -0.54585  -0.54211  -0.54101  -0.54052
 Alpha  occ. eigenvalues --   -0.54012  -0.53927  -0.53225  -0.53173  -0.53056
 Alpha  occ. eigenvalues --   -0.52980  -0.52872  -0.52693  -0.52636  -0.52596
 Alpha  occ. eigenvalues --   -0.52550  -0.52510  -0.52443  -0.52419  -0.51561
 Alpha  occ. eigenvalues --   -0.51538  -0.51361  -0.51316  -0.51292  -0.51233
 Alpha  occ. eigenvalues --   -0.51156  -0.51122  -0.51019  -0.50730  -0.50549
 Alpha  occ. eigenvalues --   -0.50547  -0.50512  -0.49884  -0.49878  -0.49284
 Alpha  occ. eigenvalues --   -0.49251  -0.49228  -0.49173  -0.49131  -0.49034
 Alpha  occ. eigenvalues --   -0.48876  -0.48061  -0.48008  -0.47895  -0.47692
 Alpha  occ. eigenvalues --   -0.47333  -0.47279  -0.47222  -0.46991  -0.46948
 Alpha  occ. eigenvalues --   -0.46823  -0.46545  -0.46510  -0.46423  -0.46200
 Alpha  occ. eigenvalues --   -0.46136  -0.46079  -0.45609  -0.45068  -0.44888
 Alpha  occ. eigenvalues --   -0.44857  -0.44160  -0.44139  -0.44003  -0.43578
 Alpha  occ. eigenvalues --   -0.43286  -0.43226  -0.43100  -0.43079  -0.43036
 Alpha  occ. eigenvalues --   -0.42705  -0.42677  -0.42645  -0.42582  -0.42573
 Alpha  occ. eigenvalues --   -0.42492  -0.42443  -0.42433  -0.42271  -0.42257
 Alpha  occ. eigenvalues --   -0.42225  -0.42004  -0.41885  -0.41829  -0.41813
 Alpha  occ. eigenvalues --   -0.41214  -0.41190  -0.41145  -0.41040  -0.40538
 Alpha  occ. eigenvalues --   -0.40525  -0.40504  -0.40403  -0.39424  -0.39399
 Alpha  occ. eigenvalues --   -0.36875  -0.32544  -0.28806  -0.24523  -0.24494
 Alpha  occ. eigenvalues --   -0.23255
 Alpha virt. eigenvalues --   -0.09457  -0.09258  -0.08353  -0.08302  -0.06928
 Alpha virt. eigenvalues --   -0.06860  -0.06773  -0.04447  -0.04148  -0.04120
 Alpha virt. eigenvalues --   -0.03675  -0.03513  -0.03427  -0.03186  -0.03071
 Alpha virt. eigenvalues --   -0.03013  -0.02983  -0.02171  -0.02138  -0.02099
 Alpha virt. eigenvalues --   -0.01463  -0.01430  -0.01361  -0.01263  -0.01173
 Alpha virt. eigenvalues --   -0.00024  -0.00010   0.00056   0.01452   0.01474
 Alpha virt. eigenvalues --    0.01909   0.01956   0.02042   0.02180   0.02214
 Alpha virt. eigenvalues --    0.02226   0.02256   0.02361   0.02787   0.02861
 Alpha virt. eigenvalues --    0.02951   0.03000   0.03058   0.04245   0.04583
 Alpha virt. eigenvalues --    0.06785   0.07280   0.07508   0.07587   0.07773
 Alpha virt. eigenvalues --    0.08040   0.08444   0.08498   0.08775   0.09157
 Alpha virt. eigenvalues --    0.09335   0.09388   0.09655   0.09881   0.10271
 Alpha virt. eigenvalues --    0.10296   0.10367   0.10425   0.10474   0.10630
 Alpha virt. eigenvalues --    0.10885   0.11071   0.11083   0.11659   0.11743
 Alpha virt. eigenvalues --    0.12294   0.13098   0.13234   0.13345   0.13574
 Alpha virt. eigenvalues --    0.13745   0.14383   0.14556   0.14647   0.14998
 Alpha virt. eigenvalues --    0.15529   0.16129   0.16353   0.16564   0.16749
 Alpha virt. eigenvalues --    0.16773   0.16888   0.17106   0.17246   0.17659
 Alpha virt. eigenvalues --    0.17863   0.18145   0.18204   0.18362   0.18602
 Alpha virt. eigenvalues --    0.18727   0.19005   0.19287   0.19388   0.19512
 Alpha virt. eigenvalues --    0.19632   0.20185   0.20308   0.20431   0.20642
 Alpha virt. eigenvalues --    0.20720   0.20871   0.20919   0.21302   0.21367
 Alpha virt. eigenvalues --    0.21458   0.21600   0.21661   0.21862   0.22115
 Alpha virt. eigenvalues --    0.22420   0.22706   0.22912   0.23163   0.23310
 Alpha virt. eigenvalues --    0.23510   0.23862   0.24020   0.24236   0.24538
 Alpha virt. eigenvalues --    0.24746   0.25189   0.25545   0.25640   0.25903
 Alpha virt. eigenvalues --    0.26046   0.26235   0.26452   0.26579   0.26771
 Alpha virt. eigenvalues --    0.27045   0.27232   0.27409   0.27463   0.27705
 Alpha virt. eigenvalues --    0.28010   0.28272   0.28336   0.28644   0.28720
 Alpha virt. eigenvalues --    0.29273   0.29530   0.29870   0.30158   0.30430
 Alpha virt. eigenvalues --    0.30599   0.30951   0.31147   0.31694   0.31764
 Alpha virt. eigenvalues --    0.32224   0.34789   0.35231   0.35841   0.36303
 Alpha virt. eigenvalues --    0.36671   0.36906   0.37217   0.38104   0.38451
 Alpha virt. eigenvalues --    0.38697   0.39226   0.39545   0.39737   0.40284
 Alpha virt. eigenvalues --    0.40733   0.40889   0.41046   0.41145   0.41750
 Alpha virt. eigenvalues --    0.42122   0.42362   0.42716   0.43307   0.43568
 Alpha virt. eigenvalues --    0.43754   0.44536   0.44740   0.44859   0.45204
 Alpha virt. eigenvalues --    0.45700   0.46244   0.46500   0.46712   0.47156
 Alpha virt. eigenvalues --    0.47409   0.47644   0.47973   0.48105   0.48218
 Alpha virt. eigenvalues --    0.48360   0.48429   0.48656   0.48837   0.48989
 Alpha virt. eigenvalues --    0.49154   0.49387   0.49532   0.49902   0.49959
 Alpha virt. eigenvalues --    0.50207   0.50580   0.50677   0.50963   0.51175
 Alpha virt. eigenvalues --    0.51665   0.51803   0.51924   0.52336   0.52544
 Alpha virt. eigenvalues --    0.52663   0.52914   0.53036   0.53181   0.53239
 Alpha virt. eigenvalues --    0.53723   0.54090   0.54331   0.54409   0.54642
 Alpha virt. eigenvalues --    0.54995   0.55419   0.55678   0.56426   0.56499
 Alpha virt. eigenvalues --    0.56822   0.57377   0.57723   0.58100   0.58301
 Alpha virt. eigenvalues --    0.58599   0.59123   0.59466   0.60283   0.60796
 Alpha virt. eigenvalues --    0.61435   0.62415   0.62719   0.62751   0.63221
 Alpha virt. eigenvalues --    0.64207   0.65355   0.65637   0.65704   0.65836
 Alpha virt. eigenvalues --    0.66158   0.66797   0.67184   0.67294   0.67491
 Alpha virt. eigenvalues --    0.67828   0.68386   0.69921   0.70476   0.71089
 Alpha virt. eigenvalues --    0.71374   0.71927   0.72035   0.72147   0.72208
 Alpha virt. eigenvalues --    0.72429   0.72579   0.73133   0.73465   0.73969
 Alpha virt. eigenvalues --    0.74626   0.74915   0.75594   0.75712   0.75933
 Alpha virt. eigenvalues --    0.76340   0.76618   0.76849   0.76952   0.77341
 Alpha virt. eigenvalues --    0.77623   0.78454   0.79142   0.79443   0.79603
 Alpha virt. eigenvalues --    0.79803   0.80317   0.80693   0.81027   0.81502
 Alpha virt. eigenvalues --    0.81604   0.81674   0.82037   0.82690   0.83146
 Alpha virt. eigenvalues --    0.84159   0.84328   0.84922   0.85373   0.86103
 Alpha virt. eigenvalues --    0.87123   0.87487   0.88023   0.88117   0.88822
 Alpha virt. eigenvalues --    0.89119   0.89189   0.89543   0.89660   0.90444
 Alpha virt. eigenvalues --    0.90714   0.90828   0.91370   0.91517   0.91677
 Alpha virt. eigenvalues --    0.92687   0.93032   0.93783   0.94034   0.94147
 Alpha virt. eigenvalues --    0.94459   0.94862   0.95974   0.96078   0.96920
 Alpha virt. eigenvalues --    0.96960   0.97233   0.97384   0.97807   0.97961
 Alpha virt. eigenvalues --    0.98234   0.98369   0.98605   0.98650   0.98826
 Alpha virt. eigenvalues --    0.99137   0.99723   1.00154   1.00301   1.00382
 Alpha virt. eigenvalues --    1.00910   1.01435   1.01653   1.01680   1.02131
 Alpha virt. eigenvalues --    1.02204   1.02486   1.02564   1.02651   1.02954
 Alpha virt. eigenvalues --    1.02991   1.03688   1.03968   1.04093   1.04125
 Alpha virt. eigenvalues --    1.04298   1.04407   1.04502   1.04575   1.04795
 Alpha virt. eigenvalues --    1.04997   1.05196   1.05269   1.05534   1.05919
 Alpha virt. eigenvalues --    1.06024   1.06420   1.06662   1.07112   1.07313
 Alpha virt. eigenvalues --    1.07537   1.07950   1.08806   1.09148   1.09341
 Alpha virt. eigenvalues --    1.09389   1.09791   1.10107   1.10231   1.10242
 Alpha virt. eigenvalues --    1.10786   1.10890   1.11068   1.11180   1.11528
 Alpha virt. eigenvalues --    1.11650   1.11677   1.11783   1.12004   1.12629
 Alpha virt. eigenvalues --    1.12903   1.13550   1.13872   1.14440   1.15181
 Alpha virt. eigenvalues --    1.15326   1.15997   1.16292   1.16596   1.17054
 Alpha virt. eigenvalues --    1.17471   1.17697   1.17906   1.18708   1.18947
 Alpha virt. eigenvalues --    1.19769   1.20820   1.21074   1.21279   1.21336
 Alpha virt. eigenvalues --    1.21408   1.22065   1.22158   1.22994   1.23675
 Alpha virt. eigenvalues --    1.25106   1.25830   1.26422   1.26669   1.26825
 Alpha virt. eigenvalues --    1.27216   1.27841   1.28079   1.28580   1.28628
 Alpha virt. eigenvalues --    1.28882   1.29070   1.29109   1.29316   1.29665
 Alpha virt. eigenvalues --    1.30076   1.30200   1.30304   1.30781   1.30942
 Alpha virt. eigenvalues --    1.31074   1.31949   1.32147   1.32949   1.33029
 Alpha virt. eigenvalues --    1.33216   1.33457   1.33694   1.33832   1.33954
 Alpha virt. eigenvalues --    1.34185   1.34318   1.34477   1.34662   1.34814
 Alpha virt. eigenvalues --    1.34884   1.35176   1.35369   1.35652   1.35932
 Alpha virt. eigenvalues --    1.36182   1.36429   1.36539   1.36751   1.36945
 Alpha virt. eigenvalues --    1.37134   1.37298   1.37617   1.37679   1.37810
 Alpha virt. eigenvalues --    1.37911   1.38463   1.38686   1.38920   1.39184
 Alpha virt. eigenvalues --    1.39331   1.39576   1.39705   1.39867   1.40154
 Alpha virt. eigenvalues --    1.40416   1.40602   1.40763   1.40830   1.40980
 Alpha virt. eigenvalues --    1.41194   1.41297   1.41563   1.42049   1.42311
 Alpha virt. eigenvalues --    1.42541   1.43200   1.43260   1.43375   1.43460
 Alpha virt. eigenvalues --    1.43996   1.44146   1.44549   1.45203   1.45632
 Alpha virt. eigenvalues --    1.46427   1.46807   1.47691   1.47843   1.47964
 Alpha virt. eigenvalues --    1.48410   1.48810   1.49313   1.49762   1.50402
 Alpha virt. eigenvalues --    1.50452   1.51024   1.51514   1.51948   1.53327
 Alpha virt. eigenvalues --    1.53589   1.55441   1.55787   1.55817   1.55913
 Alpha virt. eigenvalues --    1.56165   1.56387   1.56688   1.56765   1.57248
 Alpha virt. eigenvalues --    1.57304   1.58166   1.58380   1.59191   1.59251
 Alpha virt. eigenvalues --    1.59711   1.60140   1.60501   1.60565   1.60635
 Alpha virt. eigenvalues --    1.60809   1.61245   1.62235   1.62325   1.62667
 Alpha virt. eigenvalues --    1.64165   1.64354   1.65098   1.65688   1.67086
 Alpha virt. eigenvalues --    1.67732   1.68047   1.69874   1.70612   1.70931
 Alpha virt. eigenvalues --    1.71544   1.71709   1.72541   1.73128   1.74247
 Alpha virt. eigenvalues --    1.75089   1.75184   1.75436   1.75788   1.76595
 Alpha virt. eigenvalues --    1.76722   1.77013   1.77316   1.77726   1.78656
 Alpha virt. eigenvalues --    1.78734   1.79149   1.79447   1.80366   1.80555
 Alpha virt. eigenvalues --    1.81233   1.81493   1.81749   1.82254   1.82723
 Alpha virt. eigenvalues --    1.83048   1.83290   1.83823   1.84318   1.84506
 Alpha virt. eigenvalues --    1.85191   1.85287   1.85671   1.86110   1.86366
 Alpha virt. eigenvalues --    1.86508   1.87221   1.87692   1.88310   1.88654
 Alpha virt. eigenvalues --    1.89367   1.90097   1.90197   1.90450   1.90564
 Alpha virt. eigenvalues --    1.90864   1.91194   1.91576   1.92442   1.93776
 Alpha virt. eigenvalues --    1.94820   1.95299   1.95512   1.95750   1.96201
 Alpha virt. eigenvalues --    1.98452   1.99309   1.99448   1.99617   2.04968
 Alpha virt. eigenvalues --    2.06884   2.07235   2.08151   2.08476   2.08816
 Alpha virt. eigenvalues --    2.09035   2.09456   2.09653   2.10399   2.11130
 Alpha virt. eigenvalues --    2.11575   2.11944   2.12962   2.14883   2.15303
 Alpha virt. eigenvalues --    2.15976   2.16662   2.17160   2.17578   2.17728
 Alpha virt. eigenvalues --    2.20118   2.20495   2.20567   2.20830   2.21222
 Alpha virt. eigenvalues --    2.21507   2.22216   2.24336   2.25417   2.25911
 Alpha virt. eigenvalues --    2.26455   2.26588   2.27425   2.28415   2.28717
 Alpha virt. eigenvalues --    2.29295   2.29742   2.30182   2.33530   2.35654
 Alpha virt. eigenvalues --    2.36497   2.39778   2.40986   2.41069   2.43847
 Alpha virt. eigenvalues --    2.44214   2.50554   2.51764   2.57495   2.64841
 Alpha virt. eigenvalues --    2.64922   2.65063   2.65760   2.66128   2.66533
 Alpha virt. eigenvalues --    2.66800   2.66866   2.66952   2.67063   2.67102
 Alpha virt. eigenvalues --    2.67168   2.67299   2.67379   2.67396   2.67525
 Alpha virt. eigenvalues --    2.67715   2.67774   2.67875   2.67892   2.67998
 Alpha virt. eigenvalues --    2.68910   2.69027   2.69290   2.69395   2.69975
 Alpha virt. eigenvalues --    2.70170   2.70242   2.70435   2.70611   2.70802
 Alpha virt. eigenvalues --    2.70861   2.71413   2.71478   2.71550   2.71614
 Alpha virt. eigenvalues --    2.71720   2.72042   2.72605   2.72895   2.73013
 Alpha virt. eigenvalues --    2.73148   2.73224   2.73299   2.73367   2.73398
 Alpha virt. eigenvalues --    2.73540   2.73804   2.73911   2.73943   2.74061
 Alpha virt. eigenvalues --    2.74136   2.74260   2.74375   2.74630   2.74796
 Alpha virt. eigenvalues --    2.74844   2.75053   2.75290   2.75802   2.76091
 Alpha virt. eigenvalues --    2.76199   2.76295   2.76488   2.76777   2.76983
 Alpha virt. eigenvalues --    2.77136   2.77264   2.77288   2.78432   2.78589
 Alpha virt. eigenvalues --    2.78694   2.78954   2.79965   2.80157   2.80309
 Alpha virt. eigenvalues --    2.81179   2.81732   2.81780   2.82059   2.82222
 Alpha virt. eigenvalues --    2.82286   2.82784   2.83057   2.83296   2.83772
 Alpha virt. eigenvalues --    2.83809   2.83971   2.84098   2.84321   2.85049
 Alpha virt. eigenvalues --    2.85606   2.86135   2.86260   2.86435   2.86584
 Alpha virt. eigenvalues --    2.86696   2.86823   2.86965   2.88000   2.88435
 Alpha virt. eigenvalues --    2.88671   2.89037   2.89584   2.89676   2.89755
 Alpha virt. eigenvalues --    2.89814   2.89918   2.90061   2.90440   2.90530
 Alpha virt. eigenvalues --    2.90675   2.91772   2.91884   2.91920   2.92003
 Alpha virt. eigenvalues --    2.92246   2.92487   2.92697   2.92971   2.93125
 Alpha virt. eigenvalues --    2.93275   2.93575   2.93663   2.94009   2.94119
 Alpha virt. eigenvalues --    2.94208   2.95081   2.95275   2.95497   2.95721
 Alpha virt. eigenvalues --    2.95882   2.95929   2.96361   2.96538   2.96608
 Alpha virt. eigenvalues --    2.96702   2.96895   2.96964   2.97232   2.97497
 Alpha virt. eigenvalues --    2.97573   2.97781   2.98002   2.98433   2.99088
 Alpha virt. eigenvalues --    2.99359   2.99521   2.99776   2.99821   3.00138
 Alpha virt. eigenvalues --    3.00335   3.00573   3.01340   3.01564   3.01730
 Alpha virt. eigenvalues --    3.02655   3.03255   3.03413   3.03794   3.05043
 Alpha virt. eigenvalues --    3.06296   3.06602   3.07048   3.11011   3.11363
 Alpha virt. eigenvalues --    3.11563   3.11607   3.12210   3.12474   3.13688
 Alpha virt. eigenvalues --    3.13809   3.13895   3.16820   3.20166   3.21666
 Alpha virt. eigenvalues --    3.21967   3.24001   3.32672   3.40835   3.41527
 Alpha virt. eigenvalues --    3.42240   3.42753   3.44725   3.44793   3.45642
 Alpha virt. eigenvalues --    3.45896   3.46095   3.47051   3.47306   3.47663
 Alpha virt. eigenvalues --    3.48572   3.51002   3.51712   3.52169   3.53460
 Alpha virt. eigenvalues --    3.53546   3.54364   3.54598   3.54944   3.55072
 Alpha virt. eigenvalues --    3.55213   3.55476   3.55891   3.56438   3.57417
 Alpha virt. eigenvalues --    3.57753   3.58104   3.59317   3.59530   3.60438
 Alpha virt. eigenvalues --    3.60562   3.61164   3.61527   3.61858   3.62391
 Alpha virt. eigenvalues --    3.69693   3.74988  68.64538  68.65593  68.66820
 Alpha virt. eigenvalues --   68.69070  68.72908  68.73804  68.81771  68.82789
 Alpha virt. eigenvalues --   68.83295  68.85955  68.87063  68.88366 576.22967
 Alpha virt. eigenvalues --  576.23997 576.25199 576.27400 576.31250 576.32136
 Alpha virt. eigenvalues --  576.39951 576.40948 576.41437 576.43997 576.45084
 Alpha virt. eigenvalues --  576.46380
          Condensed to atoms (all electrons):
 Mulliken charges:
               1
     1  Cl  -0.932108
     2  C   -0.078321
     3  C    0.040371
     4  C   -0.075944
     5  C   -0.033072
     6  C   -0.030857
     7  C   -0.050050
     8  H    0.028569
     9  H    0.030037
    10  H    0.040514
    11  H    0.036835
    12  H    0.039553
    13  C   -0.091650
    14  C    0.016030
    15  H    0.020163
    16  H    0.040308
    17  H    0.036867
    18  O   -0.663093
    19  O   -0.659648
    20  O   -0.654634
    21  O   -0.661380
    22  W    1.734338
    23  W    1.669970
    24  W    1.680036
    25  W    1.690358
    26  W    1.675186
    27  W    1.726671
    28  W    1.621181
    29  W    1.683017
    30  O   -0.321322
    31  O   -0.365820
    32  O   -0.365845
    33  O   -0.363186
    34  O   -0.664216
    35  O   -0.670064
    36  O   -0.660922
    37  O   -0.662614
    38  O   -0.366083
    39  O   -0.365807
    40  O   -0.293400
    41  O   -0.365283
    42  O   -0.669643
    43  O   -0.662487
    44  O   -0.658620
    45  O   -0.665409
    46  O   -0.366110
    47  O   -0.321015
    48  O   -0.354817
    49  O   -0.363980
    50  W    1.671651
    51  W    1.674650
    52  W    1.678509
    53  W    1.682890
    54  O   -0.723097
    55  O   -0.706556
    56  O   -0.725910
    57  O   -0.721244
    58  O   -0.706847
    59  O   -0.725762
    60  O   -0.724402
    61  O   -0.720275
    62  O   -0.724102
    63  O   -0.708365
    64  O   -0.722822
    65  O   -0.726144
    66  O   -0.801681
    67  O   -0.800923
    68  O   -0.799247
    69  O   -0.809422
    70  K    0.866609
    71  K    0.866552
    72  K    0.862966
    73  V    1.190368
 Sum of Mulliken charges =  -1.00000
 Mulliken charges with hydrogens summed into heavy atoms:
               1
     1  Cl  -0.932108
     2  C   -0.049751
     3  C    0.040371
     4  C   -0.045907
     5  C    0.007442
     6  C    0.005979
     7  C   -0.010497
    13  C   -0.071487
    14  C    0.093204
    18  O   -0.663093
    19  O   -0.659648
    20  O   -0.654634
    21  O   -0.661380
    22  W    1.734338
    23  W    1.669970
    24  W    1.680036
    25  W    1.690358
    26  W    1.675186
    27  W    1.726671
    28  W    1.621181
    29  W    1.683017
    30  O   -0.321322
    31  O   -0.365820
    32  O   -0.365845
    33  O   -0.363186
    34  O   -0.664216
    35  O   -0.670064
    36  O   -0.660922
    37  O   -0.662614
    38  O   -0.366083
    39  O   -0.365807
    40  O   -0.293400
    41  O   -0.365283
    42  O   -0.669643
    43  O   -0.662487
    44  O   -0.658620
    45  O   -0.665409
    46  O   -0.366110
    47  O   -0.321015
    48  O   -0.354817
    49  O   -0.363980
    50  W    1.671651
    51  W    1.674650
    52  W    1.678509
    53  W    1.682890
    54  O   -0.723097
    55  O   -0.706556
    56  O   -0.725910
    57  O   -0.721244
    58  O   -0.706847
    59  O   -0.725762
    60  O   -0.724402
    61  O   -0.720275
    62  O   -0.724102
    63  O   -0.708365
    64  O   -0.722822
    65  O   -0.726144
    66  O   -0.801681
    67  O   -0.800923
    68  O   -0.799247
    69  O   -0.809422
    70  K    0.866609
    71  K    0.866552
    72  K    0.862966
    73  V    1.190368
 Electronic spatial extent (au):  <R**2>=         317429.3040
 Charge=             -1.0000 electrons
 Dipole moment (field-independent basis, Debye):
    X=             51.9483    Y=            -51.1379    Z=            -38.4888  Tot=             82.4323
 Quadrupole moment (field-independent basis, Debye-Ang):
   XX=          -1073.2448   YY=           -875.7621   ZZ=           -909.7124
   XY=            457.8399   XZ=            465.3103   YZ=           -475.7686
 Traceless Quadrupole moment (field-independent basis, Debye-Ang):
   XX=           -120.3383   YY=             77.1443   ZZ=             43.1940
   XY=            457.8399   XZ=            465.3103   YZ=           -475.7686
 Octapole moment (field-independent basis, Debye-Ang**2):
  XXX=          13692.9557  YYY=           -962.4332  ZZZ=         -19063.2439  XYY=           6029.2957
  XXY=          -3757.3343  XXZ=          -9591.7352  XZZ=           7399.4305  YZZ=          -4143.3570
  YYZ=          -8896.9881  XYZ=           4830.7698
 Hexadecapole moment (field-independent basis, Debye-Ang**3):
 XXXX=        -162397.6646 YYYY=         -51608.1659 ZZZZ=        -345145.9094 XXXY=          38534.0189
 XXXZ=         125206.2122 YYYX=          20077.5773 YYYZ=         -11486.8782 ZZZX=         128127.9645
 ZZZY=         -35200.6418 XXYY=         -55825.9609 XXZZ=        -109433.9738 YYZZ=         -98091.0320
 XXYZ=         -43288.5251 YYXZ=          60939.4269 ZZXY=          50651.0940
 N-N= 2.099461985207D+04 E-N=-5.907383546640D+04  KE= 6.765171956285D+03
   1 Symmetry operations used in ECPInt.
 ECPInt:  NShTT=  127765 NPrTT=  468030 LenC2=   96793 LenP2D=  221471.
 LDataN:  DoStor=T MaxTD1= 9 Len=  602
 D1PCM: PCM CHGder 1st derivatives, ID1Alg=3 FixD1E=F DoIter=F DoCFld=F I1PDM=0.
 Calling FoFJK, ICntrl=      2127 FMM=T ISym2X=0 I1Cent= 0 IOpClX= 0 NMat=1 NMatS=1 NMatT=0.
 Defaulting to unpruned grid for atomic number  74.
 Defaulting to unpruned grid for atomic number  74.
 Defaulting to unpruned grid for atomic number  74.
 Defaulting to unpruned grid for atomic number  74.
 Defaulting to unpruned grid for atomic number  74.
 Defaulting to unpruned grid for atomic number  74.
 Defaulting to unpruned grid for atomic number  74.
 Defaulting to unpruned grid for atomic number  74.
 Defaulting to unpruned grid for atomic number  74.
 Defaulting to unpruned grid for atomic number  74.
 Defaulting to unpruned grid for atomic number  74.
 Defaulting to unpruned grid for atomic number  74.
 Defaulting to unpruned grid for atomic number  74.
 Defaulting to unpruned grid for atomic number  74.
 Defaulting to unpruned grid for atomic number  74.
 Defaulting to unpruned grid for atomic number  74.
 Defaulting to unpruned grid for atomic number  74.
 Defaulting to unpruned grid for atomic number  74.
 Defaulting to unpruned grid for atomic number  74.
 Defaulting to unpruned grid for atomic number  74.
 Defaulting to unpruned grid for atomic number  74.
 Defaulting to unpruned grid for atomic number  74.
 Defaulting to unpruned grid for atomic number  74.
 Defaulting to unpruned grid for atomic number  74.
 Defaulting to unpruned grid for atomic number  74.
 Defaulting to unpruned grid for atomic number  74.
 Defaulting to unpruned grid for atomic number  74.
 Defaulting to unpruned grid for atomic number  74.
 Defaulting to unpruned grid for atomic number  74.
 Defaulting to unpruned grid for atomic number  74.
 Defaulting to unpruned grid for atomic number  74.
 Defaulting to unpruned grid for atomic number  74.
 Defaulting to unpruned grid for atomic number  74.
 Defaulting to unpruned grid for atomic number  74.
 Defaulting to unpruned grid for atomic number  74.
 Defaulting to unpruned grid for atomic number  74.
 Defaulting to unpruned grid for atomic number  74.
 Defaulting to unpruned grid for atomic number  74.
 Defaulting to unpruned grid for atomic number  74.
 Defaulting to unpruned grid for atomic number  74.
 Defaulting to unpruned grid for atomic number  74.
 Defaulting to unpruned grid for atomic number  74.
 Defaulting to unpruned grid for atomic number  74.
 Defaulting to unpruned grid for atomic number  74.
 Defaulting to unpruned grid for atomic number  74.
 Defaulting to unpruned grid for atomic number  74.
 Defaulting to unpruned grid for atomic number  74.
 Defaulting to unpruned grid for atomic number  74.
 Defaulting to unpruned grid for atomic number  74.
 Defaulting to unpruned grid for atomic number  74.
 Defaulting to unpruned grid for atomic number  74.
 Defaulting to unpruned grid for atomic number  74.
 Defaulting to unpruned grid for atomic number  74.
 Defaulting to unpruned grid for atomic number  74.
 Defaulting to unpruned grid for atomic number  74.
 Defaulting to unpruned grid for atomic number  74.
 -------------------------------------------------------------------
 Center     Atomic                   Forces (Hartrees/Bohr)
 Number     Number              X              Y              Z
 -------------------------------------------------------------------
      1       17          -0.001801914    0.006296296    0.002099169
      2        6          -0.001275243   -0.000616259   -0.001514888
      3        6          -0.000634011   -0.001777493    0.002814204
      4        6           0.001550980    0.001635273    0.000689123
      5        6           0.000437247    0.000312323    0.001240510
      6        6          -0.000487578    0.000115144    0.001042931
      7        6          -0.001144494   -0.001007982    0.000520625
      8        1          -0.000146375    0.000254056   -0.000020180
      9        1          -0.000343398    0.000214732   -0.000022208
     10        1          -0.000006366   -0.000447649   -0.000040777
     11        1           0.000125480   -0.000259013    0.000218466
     12        1           0.000344172   -0.000123784    0.000152827
     13        6           0.009332529    0.009227441   -0.007283019
     14        6          -0.005224318   -0.014106600    0.000565080
     15        1          -0.000697651    0.000353191   -0.000072615
     16        1          -0.001259505    0.001320538    0.000391823
     17        1          -0.002074956    0.001441488    0.000124126
     18        8          -0.003196071    0.000129953    0.001204490
     19        8           0.003368781   -0.000650704    0.001220038
     20        8           0.002305005   -0.003135495   -0.000697222
     21        8          -0.002403632    0.002242744   -0.001195684
     22       74           0.001404056    0.010114982   -0.009509818
     23       74          -0.002267044   -0.009591556   -0.009901311
     24       74           0.006344175    0.008102866    0.009832341
     25       74          -0.006802163   -0.007185989    0.010189889
     26       74           0.008515320   -0.007665252   -0.010644971
     27       74          -0.008397593    0.008166098   -0.010205819
     28       74          -0.011834577    0.003097399    0.010671853
     29       74           0.011273429   -0.002017441    0.010509093
     30        8          -0.000954867   -0.002826239    0.003170241
     31        8           0.000844009    0.002864962    0.003348774
     32        8          -0.001718327   -0.002515224   -0.003493978
     33        8           0.001806381    0.002429102   -0.003445743
     34        8          -0.001100329   -0.001087117    0.003101892
     35        8           0.001543784    0.000299988    0.003163938
     36        8           0.000611206   -0.001722981   -0.003046343
     37        8          -0.000277985    0.001417754   -0.003187008
     38        8          -0.004307677   -0.001884748   -0.000796762
     39        8           0.004506623    0.001688340   -0.000873281
     40        8           0.002515613   -0.006426755    0.000484367
     41        8          -0.001245026    0.004451775    0.000789978
     42        8          -0.002064189   -0.002548920    0.001609381
     43        8           0.002574901    0.002262548    0.001174135
     44        8           0.000001712   -0.003733553   -0.000838537
     45        8           0.000461579    0.003050753   -0.001438734
     46        8          -0.002742116    0.002128091    0.003105234
     47        8           0.003049244   -0.001699498    0.002874394
     48        8           0.003865241   -0.001173923   -0.003428517
     49        8          -0.003458785    0.000974219   -0.003172085
     50       74           0.014214821    0.005031044    0.003064150
     51       74          -0.014333593   -0.004195053    0.003472833
     52       74          -0.005712564    0.016545122   -0.003622784
     53       74           0.004457329   -0.014392816   -0.003019528
     54        8          -0.000305314    0.001240928    0.002223562
     55        8           0.000541368   -0.001534868    0.002304871
     56        8           0.001600197   -0.000101884   -0.002331540
     57        8          -0.001188494   -0.000784414   -0.002299802
     58        8           0.000239983   -0.002169641    0.000644860
     59        8           0.000493449    0.002281284    0.001446892
     60        8          -0.001417227   -0.001904735   -0.001501744
     61        8           0.001816402    0.001505959   -0.001413945
     62        8          -0.001258718    0.001769725    0.000837917
     63        8           0.001130591   -0.002396038    0.000330427
     64        8           0.002366663   -0.000266186   -0.001045056
     65        8          -0.002338408   -0.000298034   -0.000789467
     66        8          -0.026197794   -0.005051445    0.017144608
     67        8           0.026748074    0.005584547    0.017095829
     68        8           0.011252789   -0.025349101   -0.017214723
     69        8          -0.011097992    0.023972874   -0.017383101
     70       19           0.000241302   -0.000483797   -0.000424304
     71       19           0.000611580    0.000153878    0.000294148
     72       19          -0.000492835    0.000175161    0.000304486
     73       23          -0.000286886    0.000279607    0.000401992
 -------------------------------------------------------------------
 Cartesian Forces:  Max     0.026748074 RMS     0.006040957

 GradGradGradGradGradGradGradGradGradGradGradGradGradGradGradGradGradGrad
 Berny optimization.
 Search for a local minimum.
 Step number   1 out of a maximum of    2
 All quantities printed in internal units (Hartrees-Bohrs-Radians)
 Second derivative matrix not updated -- first step.
 ITU=  0
     Eigenvalues ---    0.00000   0.00000   0.00000   0.00010   0.00091
     Eigenvalues ---    0.00093   0.00258   0.00568   0.00617   0.01645
     Eigenvalues ---    0.01984   0.02898   0.02946   0.03203   0.03396
     Eigenvalues ---    0.03442   0.03716   0.03723   0.04145   0.04505
     Eigenvalues ---    0.04583   0.04594   0.04606   0.04816   0.04835
     Eigenvalues ---    0.05000   0.05342   0.05544   0.05564   0.06346
     Eigenvalues ---    0.06394   0.06524   0.06785   0.06864   0.07050
     Eigenvalues ---    0.07313   0.07362   0.07613   0.08315   0.08390
     Eigenvalues ---    0.08702   0.08723   0.08898   0.08950   0.09744
     Eigenvalues ---    0.09889   0.10065   0.10354   0.10409   0.10469
     Eigenvalues ---    0.10820   0.10870   0.11498   0.11579   0.11968
     Eigenvalues ---    0.11992   0.12072   0.12444   0.12564   0.12625
     Eigenvalues ---    0.12661   0.12699   0.12863   0.12922   0.13034
     Eigenvalues ---    0.13850   0.13905   0.14220   0.14486   0.14739
     Eigenvalues ---    0.16749   0.16772   0.16981   0.17164   0.17547
     Eigenvalues ---    0.17657   0.18525   0.19688   0.19852   0.20230
     Eigenvalues ---    0.20754   0.21011   0.21706   0.21815   0.22029
     Eigenvalues ---    0.22321   0.22991   0.23298   0.23823   0.23843
     Eigenvalues ---    0.24538   0.24648   0.24796   0.25695   0.25906
     Eigenvalues ---    0.26108   0.26306   0.27483   0.27560   0.27772
     Eigenvalues ---    0.28239   0.28275   0.28720   0.29452   0.30021
     Eigenvalues ---    0.30488   0.30536   0.30592   0.30613   0.30653
     Eigenvalues ---    0.30785   0.31151   0.31285   0.31422   0.32063
     Eigenvalues ---    0.32355   0.32397   0.32579   0.32874   0.33413
     Eigenvalues ---    0.33491   0.35255   0.35415   0.35759   0.36787
     Eigenvalues ---    0.37340   0.37484   0.37547   0.37997   0.38332
     Eigenvalues ---    0.38692   0.39027   0.40113   0.40122   0.41074
     Eigenvalues ---    0.42105   0.42221   0.43590   0.43841   0.44989
     Eigenvalues ---    0.45172   0.45433   0.45765   0.47263   0.47981
     Eigenvalues ---    0.48257   0.48474   0.48654   0.49335   0.49454
     Eigenvalues ---    0.49751   0.50484   0.51341   0.51422   0.51939
     Eigenvalues ---    0.52845   0.53362   0.55279   0.58712   0.64425
     Eigenvalues ---    0.67571   0.76818   0.81631   0.82878   0.96813
     Eigenvalues ---    0.97258   0.98724   0.99607   1.02043   1.04445
     Eigenvalues ---    1.07355   1.11312   1.11992   1.12302   1.15603
     Eigenvalues ---    1.19108   1.19641   1.20621   1.22313   1.22786
     Eigenvalues ---    1.23112   1.25764   1.26480   1.26737   1.27268
     Eigenvalues ---    1.27626   1.28956   1.29375   1.45039   1.45805
     Eigenvalues ---    1.45922   1.48229   1.51210   1.51779   1.52056
     Eigenvalues ---    1.52506   1.55476   1.55641   1.56238   1.58140
     Eigenvalues ---    1.58346   1.59704   1.61373   1.65150   1.66201
     Eigenvalues ---    1.72782   1.77092   1.81790   1.82667   1.86038
     Eigenvalues ---    1.93622   1.96322   3.00953
 Eigenvalue     1 is   0.00D+00 Eigenvector:
                          Y16       Y14       Y15       Y17       Y13
   1                    0.17500   0.17500   0.17500   0.17500   0.17500
                          Y9        Y3        Y8        Y4        Y2
   1                    0.17500   0.17500   0.17500   0.17500   0.17500
 Eigenvalue     2 is   3.00D-07 Eigenvector:
                          Y16       X16       X11       Y11       Y14
   1                    0.33839  -0.26418   0.26186  -0.25092   0.24852
                          Y15       Y17       Y13       X14       X6
   1                    0.23369   0.21288   0.19026  -0.18746   0.18297
 Eigenvalue     3 is   2.90D-06 Eigenvector:
                          X9        X10       Y12       Y9        X12
   1                    0.33168   0.28840   0.28027  -0.25946  -0.25652
                          Y8        Y10       X15       X8        Y17
   1                    0.24897  -0.22835   0.21949  -0.21551   0.20210
 Quadratic step=1.270D+01 exceeds max=3.000D-01 adjusted using Lamda=-6.541D-03.
 Angle between NR and scaled steps=  46.67 degrees.
 Angle between quadratic step and forces=  66.40 degrees.
 Linear search not attempted -- first point.
 B after Tr=     0.004734    0.003036    0.002282
         Rot=    1.000000   -0.000181    0.000077    0.000272 Ang=  -0.04 deg.
 Variable       Old X    -DE/DX   Delta X   Delta X   Delta X     New X
                                 (Linear)    (Quad)   (Total)
    X1      -18.82871  -0.00180   0.00000  -0.00174   0.00819 -18.82052
    Y1       15.13731   0.00630   0.00000   0.00640   0.01250  15.14981
    Z1       19.83927   0.00210   0.00000   0.00226   0.00713  19.84640
    X2      -15.70988  -0.00128   0.00000  -0.01185  -0.00632 -15.71619
    Y2        8.00782  -0.00062   0.00000  -0.01538  -0.01215   7.99568
    Z2       23.11370  -0.00151   0.00000  -0.00925  -0.00649  23.10721
    X3      -17.15948  -0.00063   0.00000   0.00428   0.00979 -17.14968
    Y3        7.40060  -0.00178   0.00000  -0.04060  -0.03580   7.36479
    Z3       20.96990   0.00281   0.00000  -0.01129  -0.00898  20.96092
    X4      -18.91975   0.00155   0.00000  -0.00612  -0.00171 -18.92146
    Y4        5.41843   0.00164   0.00000  -0.02238  -0.01670   5.40172
    Z4       21.16470   0.00069   0.00000   0.02104   0.02237  21.18706
    X5      -19.25607   0.00044   0.00000  -0.01187  -0.00851 -19.26457
    Y5        4.12139   0.00031   0.00000  -0.00157   0.00347   4.12485
    Z5       23.42652   0.00124   0.00000   0.03460   0.03541  23.46193
    X6      -17.82215  -0.00049   0.00000  -0.01451  -0.01111 -17.83325
    Y6        4.76539   0.00012   0.00000   0.00994   0.01344   4.77883
    Z6       25.54333   0.00104   0.00000   0.03133   0.03259  25.57592
    X7      -16.03935  -0.00114   0.00000  -0.01537  -0.01089 -16.05024
    Y7        6.70352  -0.00101   0.00000   0.00688   0.00948   6.71300
    Z7       25.37239   0.00052   0.00000   0.00760   0.00984  25.38223
    X8      -14.30701  -0.00015   0.00000  -0.01320  -0.00683 -14.31385
    Y8        9.51845   0.00025   0.00000  -0.01381  -0.01130   9.50715
    Z8       23.01924  -0.00002   0.00000  -0.01871  -0.01519  23.00405
    X9      -20.03338  -0.00034   0.00000  -0.01327  -0.00889 -20.04226
    Y9        4.89855   0.00021   0.00000  -0.02945  -0.02256   4.87599
    Z9       19.50310  -0.00002   0.00000   0.02744   0.02840  19.53149
   X10      -20.64348  -0.00001   0.00000  -0.01110  -0.00858 -20.65206
   Y10        2.59699  -0.00045   0.00000  -0.00274   0.00301   2.60000
   Z10       23.54161  -0.00004   0.00000   0.04060   0.04065  23.58225
   X11      -18.08123   0.00013   0.00000  -0.00831  -0.00573 -18.08696
   Y11        3.75005  -0.00026   0.00000   0.01771   0.02070   3.77075
   Z11       27.32076   0.00022   0.00000   0.03717   0.03803  27.35879
   X12      -14.90654   0.00034   0.00000  -0.00827  -0.00376 -14.91030
   Y12        7.21130  -0.00012   0.00000   0.01776   0.01914   7.23044
   Z12       27.02276   0.00015   0.00000   0.00050   0.00310  27.02586
   X13      -16.91876   0.00933   0.00000   0.02380   0.03040 -16.88836
   Y13        8.74930   0.00923   0.00000  -0.08469  -0.07915   8.67015
   Z13       18.56700  -0.00728   0.00000  -0.04785  -0.04503  18.52197
   X14      -15.39384  -0.00522   0.00000  -0.02118  -0.01342 -15.40726
   Y14       10.72853  -0.01411   0.00000  -0.08101  -0.07610  10.65242
   Z14       18.09169   0.00057   0.00000  -0.05363  -0.04987  18.04182
   X15      -18.12895  -0.00070   0.00000   0.02286   0.02931 -18.09965
   Y15        8.04787   0.00035   0.00000  -0.09930  -0.09256   7.95531
   Z15       17.04098  -0.00007   0.00000  -0.04030  -0.03793  17.00305
   X16      -15.31304  -0.00126   0.00000  -0.04995  -0.04144 -15.35448
   Y16       11.56335   0.00132   0.00000  -0.05933  -0.05378  11.50957
   Z16       16.20796   0.00039   0.00000  -0.04529  -0.04121  16.16675
   X17      -14.06369  -0.00207   0.00000  -0.08341  -0.07542 -14.13911
   Y17       11.47338   0.00144   0.00000  -0.00665  -0.00295  11.47043
   Z17       19.48404   0.00012   0.00000  -0.03471  -0.03045  19.45359
   X18       -1.89833  -0.00320   0.00000  -0.01547  -0.01472  -1.91305
   Y18       -3.33337   0.00013   0.00000  -0.00769  -0.00872  -3.34208
   Z18       14.09194   0.00120   0.00000   0.01229   0.01307  14.10501
   X19      -15.89776   0.00337   0.00000   0.01776   0.01897 -15.87879
   Y19       -2.51229  -0.00065   0.00000   0.01636   0.02294  -2.48936
   Z19       14.09972   0.00122   0.00000   0.01364   0.01258  14.11230
   X20      -13.32202   0.00231   0.00000   0.01602   0.01909 -13.30293
   Y20        2.54483  -0.00314   0.00000  -0.00783  -0.00472   2.54011
   Z20       19.81722  -0.00070   0.00000  -0.00735  -0.00620  19.81102
   X21       -4.40678  -0.00240   0.00000  -0.01293  -0.01574  -4.42252
   Y21       -8.23611   0.00224   0.00000   0.01066   0.00889  -8.22722
   Z21       19.95689  -0.00120   0.00000  -0.01302  -0.01440  19.94249
   X22       -6.46170   0.00140   0.00000  -0.00251   0.00110  -6.46061
   Y22        1.38031   0.01011   0.00000   0.01631   0.01843   1.39874
   Z22       12.26159  -0.00951   0.00000  -0.00584  -0.00405  12.25754
   X23      -11.35681  -0.00227   0.00000   0.00583   0.00472 -11.35209
   Y23       -7.23330  -0.00959   0.00000  -0.00080   0.00392  -7.22937
   Z23       12.43348  -0.00990   0.00000  -0.00528  -0.00737  12.42611
   X24       -6.86076   0.00634   0.00000   0.02237   0.02473  -6.83604
   Y24        1.72485   0.00810   0.00000  -0.00256  -0.00360   1.72124
   Z24       21.56725   0.00983   0.00000   0.00692   0.00878  21.57602
   X25      -10.91697  -0.00680   0.00000  -0.01771  -0.02028 -10.93725
   Y25       -7.30446  -0.00719   0.00000   0.00663   0.00777  -7.29669
   Z25       21.67927   0.01019   0.00000   0.00510   0.00306  21.68233
   X26       -4.66015   0.00852   0.00000  -0.00209  -0.00184  -4.66199
   Y26       -4.82521  -0.00767   0.00000  -0.01275  -0.01154  -4.83674
   Z26       12.06786  -0.01064   0.00000  -0.00602  -0.00620  12.06166
   X27      -13.12158  -0.00840   0.00000   0.00143   0.00378 -13.11781
   Y27       -1.01661   0.00817   0.00000   0.02753   0.03337  -0.98324
   Z27       12.00921  -0.01021   0.00000  -0.00637  -0.00646  12.00275
   X28      -12.89750  -0.01183   0.00000  -0.00517  -0.00406 -12.90156
   Y28       -0.47069   0.00310   0.00000  -0.00135   0.00079  -0.46990
   Z28       21.89083   0.01067   0.00000   0.00846   0.00858  21.89941
   X29       -4.85857   0.01127   0.00000   0.01071   0.00929  -4.84927
   Y29       -5.09908  -0.00202   0.00000   0.00555   0.00328  -5.09580
   Z29       21.96572   0.01051   0.00000   0.00504   0.00473  21.97045
   X30       -6.01985  -0.00095   0.00000   0.01337   0.01855  -6.00131
   Y30        3.64242  -0.00283   0.00000   0.00657   0.00924   3.65166
   Z30       10.05596   0.00317   0.00000  -0.00111   0.00157  10.05753
   X31      -11.62131   0.00084   0.00000  -0.00721  -0.00927 -11.63058
   Y31       -9.59173   0.00286   0.00000   0.00589   0.01155  -9.58018
   Z31       10.27133   0.00335   0.00000   0.00041  -0.00257  10.26877
   X32       -5.13794  -0.00172   0.00000   0.01427   0.01717  -5.12077
   Y32        3.33887  -0.00252   0.00000  -0.00090  -0.00367   3.33521
   Z32       23.74451  -0.00349   0.00000   0.00020   0.00290  23.74741
   X33      -12.62317   0.00181   0.00000  -0.00890  -0.01266 -12.63582
   Y33       -8.85212   0.00243   0.00000   0.00440   0.00567  -8.84645
   Z33       23.91558  -0.00345   0.00000  -0.00121  -0.00407  23.91151
   X34       -5.08004  -0.00110   0.00000  -0.00964  -0.00743  -5.08747
   Y34       -1.65164  -0.00109   0.00000  -0.00411  -0.00212  -1.65376
   Z34       10.55239   0.00310   0.00000   0.01289   0.01379  10.56618
   X35      -12.69575   0.00154   0.00000   0.01311   0.01388 -12.68187
   Y35       -4.29273   0.00030   0.00000   0.01732   0.02341  -4.26932
   Z35       10.63317   0.00316   0.00000   0.01326   0.01204  10.64521
   X36      -10.05770   0.00061   0.00000   0.01227   0.01398 -10.04371
   Y36        1.07075  -0.00172   0.00000  -0.01321  -0.01316   1.05759
   Z36       23.36951  -0.00305   0.00000  -0.00818  -0.00707  23.36245
   X37       -7.67852  -0.00028   0.00000  -0.00511  -0.00759  -7.68611
   Y37       -6.64385   0.00142   0.00000   0.01387   0.01261  -6.63124
   Z37       23.45179  -0.00319   0.00000  -0.01221  -0.01351  23.43828
   X38        0.55724  -0.00431   0.00000   0.00894   0.01097   0.56821
   Y38        0.00327  -0.00188   0.00000  -0.01299  -0.01660  -0.01333
   Z38       17.51530  -0.00080   0.00000   0.00104   0.00340  17.51871
   X39      -18.36200   0.00451   0.00000  -0.00476  -0.00583 -18.36783
   Y39       -5.71133   0.00169   0.00000   0.02002   0.02669  -5.68465
   Z39       17.61633  -0.00087   0.00000   0.00177  -0.00084  17.61549
   X40      -12.06057   0.00252   0.00000   0.01892   0.02466 -12.03591
   Y40        6.45867  -0.00643   0.00000   0.01147   0.01514   6.47382
   Z40       16.34717   0.00048   0.00000   0.00172   0.00449  16.35166
   X41       -5.61846  -0.00125   0.00000  -0.00589  -0.01035  -5.62880
   Y41      -12.20118   0.00445   0.00000  -0.00072  -0.00061 -12.20179
   Z41       16.55032   0.00079   0.00000  -0.00325  -0.00625  16.54406
   X42       -3.40807  -0.00206   0.00000  -0.00912  -0.00576  -3.41384
   Y42        1.46920  -0.00255   0.00000  -0.00675  -0.00697   1.46223
   Z42       14.13035   0.00161   0.00000   0.01369   0.01597  14.14632
   X43      -14.38769   0.00257   0.00000   0.01296   0.01152 -14.37617
   Y43       -7.32837   0.00226   0.00000   0.01749   0.02318  -7.30519
   Z43       14.27663   0.00117   0.00000   0.01142   0.00884  14.28548
   X44       -8.55881   0.00000   0.00000   0.01657   0.02055  -8.53827
   Y44        4.19531  -0.00373   0.00000  -0.01531  -0.01475   4.18055
   Z44       19.71198  -0.00084   0.00000  -0.00592  -0.00344  19.70854
   X45       -9.19211   0.00046   0.00000  -0.01369  -0.01737  -9.20947
   Y45       -9.85396   0.00305   0.00000   0.01812   0.01898  -9.83498
   Z45       19.88994  -0.00144   0.00000  -0.01352  -0.01621  19.87373
   X46       -3.07642  -0.00274   0.00000  -0.00333  -0.00370  -3.08012
   Y46       -6.57614   0.00213   0.00000  -0.00204  -0.00090  -6.57704
   Z46        9.89033   0.00311   0.00000  -0.00322  -0.00379   9.88654
   X47      -14.80752   0.00305   0.00000   0.00157   0.00508 -14.80244
   Y47        0.49081  -0.00170   0.00000   0.01575   0.02332   0.51413
   Z47        9.75951   0.00287   0.00000  -0.00280  -0.00261   9.75690
   X48      -15.19344   0.00387   0.00000   0.00387   0.00474 -15.18871
   Y48       -0.29945  -0.00117   0.00000   0.00682   0.00940  -0.29005
   Z48       24.12364  -0.00343   0.00000   0.00428   0.00412  24.12776
   X49       -2.52444  -0.00346   0.00000   0.00203   0.00013  -2.52431
   Y49       -5.34263   0.00097   0.00000  -0.00483  -0.00916  -5.35179
   Z49       24.15732  -0.00317   0.00000   0.00097   0.00093  24.15825
   X50       -2.39204   0.01421   0.00000   0.01056   0.01219  -2.37985
   Y50       -0.97674   0.00503   0.00000  -0.00049  -0.00220  -0.97894
   Z50       16.70517   0.00306   0.00000   0.01333   0.01489  16.72006
   X51      -15.41449  -0.01433   0.00000  -0.00707  -0.00750 -15.42199
   Y51       -4.75106  -0.00420   0.00000   0.00971   0.01506  -4.73599
   Z51       16.77518   0.00347   0.00000   0.01454   0.01273  16.78792
   X52      -11.17909  -0.00571   0.00000   0.00757   0.01159 -11.16750
   Y52        3.49442   0.01655   0.00000   0.01806   0.02099   3.51541
   Z52       17.09733  -0.00362   0.00000  -0.01075  -0.00892  17.08841
   X53       -6.56246   0.00446   0.00000  -0.00600  -0.00896  -6.57141
   Y53       -9.23163  -0.01439   0.00000  -0.00691  -0.00656  -9.23819
   Z53       17.32855  -0.00302   0.00000  -0.01450  -0.01657  17.31198
   X54       -8.00520  -0.00031   0.00000   0.00124   0.00103  -8.00418
   Y54       -5.84428   0.00124   0.00000  -0.00702  -0.00377  -5.84805
   Z54       11.46829   0.00222   0.00000  -0.00692  -0.00799  11.46030
   X55       -9.77378   0.00054   0.00000  -0.00058   0.00238  -9.77140
   Y55       -0.06862  -0.00153   0.00000   0.02286   0.02711  -0.04151
   Z55       11.35210   0.00230   0.00000  -0.00567  -0.00491  11.34719
   X56      -11.68238   0.00160   0.00000  -0.01009  -0.01088 -11.69326
   Y56       -3.77633  -0.00010   0.00000   0.00061   0.00186  -3.77447
   Z56       22.52767  -0.00233   0.00000   0.00713   0.00624  22.53392
   X57       -6.01845  -0.00119   0.00000   0.01650   0.01679  -6.00167
   Y57       -1.80264  -0.00078   0.00000   0.00205   0.00019  -1.80245
   Z57       22.55535  -0.00230   0.00000   0.00644   0.00715  22.56249
   X58       -8.27802   0.00024   0.00000   0.00251   0.00661  -8.27142
   Y58        2.99392  -0.00217   0.00000   0.01837   0.02055   3.01446
   Z58       14.83285   0.00064   0.00000  -0.00987  -0.00777  14.82508
   X59       -9.46294   0.00049   0.00000   0.00035  -0.00203  -9.46498
   Y59       -8.83447   0.00228   0.00000  -0.00428  -0.00151  -8.83598
   Z59       14.97721   0.00145   0.00000  -0.00868  -0.01105  14.96616
   X60       -4.42380  -0.00142   0.00000   0.01898   0.02140  -4.40241
   Y60        1.13206  -0.00190   0.00000  -0.00214  -0.00360   1.12845
   Z60       19.05110  -0.00150   0.00000   0.00865   0.01067  19.06177
   X61      -13.35273   0.00182   0.00000  -0.01446  -0.01639 -13.36912
   Y61       -6.82494   0.00151   0.00000   0.00852   0.01190  -6.81304
   Z61       19.15913  -0.00141   0.00000   0.00802   0.00578  19.16491
   X62       -4.87377  -0.00126   0.00000  -0.00353  -0.00507  -4.87884
   Y62       -7.31993   0.00177   0.00000  -0.00976  -0.00944  -7.32937
   Z62       14.85697   0.00084   0.00000  -0.01031  -0.01144  14.84554
   X63      -12.91877   0.00113   0.00000   0.00376   0.00705 -12.91172
   Y63        1.48088  -0.00240   0.00000   0.02283   0.02756   1.50845
   Z63       14.75214   0.00033   0.00000  -0.01021  -0.00937  14.74277
   X64      -14.81849   0.00237   0.00000  -0.00569  -0.00511 -14.82360
   Y64       -2.21671  -0.00027   0.00000   0.00611   0.01027  -2.20644
   Z64       19.18777  -0.00105   0.00000   0.01154   0.01074  19.19851
   X65       -2.97812  -0.00234   0.00000   0.00983   0.00971  -2.96840
   Y65       -3.47703  -0.00030   0.00000  -0.00015  -0.00243  -3.47946
   Z65       19.17466  -0.00079   0.00000   0.00881   0.00938  19.18404
   X66       -6.38731  -0.02620   0.00000  -0.04572  -0.04448  -6.43179
   Y66       -2.14178  -0.00505   0.00000  -0.00504  -0.00399  -2.14577
   Z66       15.13628   0.01714   0.00000   0.02951   0.03003  15.16631
   X67      -11.40251   0.02675   0.00000   0.04717   0.04757 -11.35494
   Y67       -3.68618   0.00558   0.00000   0.01855   0.02226  -3.66392
   Z67       15.18877   0.01710   0.00000   0.03032   0.02953  15.21829
   X68       -9.69846   0.01125   0.00000   0.02569   0.02731  -9.67115
   Y68       -0.37146  -0.02535   0.00000  -0.03861  -0.03710  -0.40856
   Z68       18.80692  -0.01721   0.00000  -0.02849  -0.02785  18.77907
   X69       -8.02985  -0.01110   0.00000  -0.02250  -0.02354  -8.05339
   Y69       -5.33952   0.02397   0.00000   0.04364   0.04425  -5.29527
   Z69       18.85932  -0.01738   0.00000  -0.02971  -0.03058  18.82874
   X70       -6.09996   0.00024   0.00000  -0.00399  -0.00721  -6.10717
   Y70      -11.58712  -0.00048   0.00000  -0.00591  -0.00341 -11.59053
   Z70       10.68867  -0.00042   0.00000  -0.00877  -0.01163  10.67704
   X71       -0.25363   0.00061   0.00000   0.01578   0.01697  -0.23666
   Y71        0.09047   0.00015   0.00000  -0.00367  -0.00896   0.08151
   Z71       23.35172   0.00029   0.00000   0.00630   0.00858  23.36029
   X72      -17.53933  -0.00049   0.00000  -0.01025  -0.01212 -17.55145
   Y72       -5.51569   0.00018   0.00000   0.00968   0.01377  -5.50192
   Z72       23.47776   0.00030   0.00000   0.00763   0.00522  23.48298
   X73       -8.88516  -0.00029   0.00000   0.00078   0.00133  -8.88383
   Y73       -2.87758   0.00028   0.00000   0.00471   0.00643  -2.87114
   Z73       16.99196   0.00040   0.00000   0.00110   0.00098  16.99294
         Item               Value     Threshold  Converged?
 Maximum Force            0.026748     0.000450     NO 
 RMS     Force            0.006041     0.000300     NO 
 Maximum Displacement     0.092558     0.001800     NO 
 RMS     Displacement     0.020032     0.001200     NO 
 Predicted change in Energy=-5.548642D-03
 GradGradGradGradGradGradGradGradGradGradGradGradGradGradGradGradGradGrad

 Unable to Open any file for archive entry.
 1\1\GINC-X11P1N2\Force\RwB97XD\def2SVP\C8H8Cl1K3O40V1W12(1-)\MAYUMIAO\
 02-Jun-2024\0\\# def2svp wb97xd scrf=(smd,solvent=acetonitrile) g09def
 ault scf=(xqc,maxcycle=64) force guess=read nosymm\\Title Card\\-1,1\C
 l,-9.9637256,8.01031944,10.49848962\C,-8.31330884,4.23755647,12.231243
 06\C,-9.08040451,3.91622667,11.09679509\C,-10.01189843,2.86730849,11.1
 998759\C,-10.18987077,2.18094353,12.39677996\C,-9.43107422,2.52173794,
 13.51694547\C,-8.48766033,3.54734953,13.42649052\H,-7.57094516,5.03694
 911,12.18125793\H,-10.60120754,2.59220364,10.32059443\H,-10.92405909,1
 .37426844,12.45768245\H,-9.56817519,1.98444181,14.45752245\H,-7.888201
 28,3.81605389,14.29982895\C,-8.95302417,4.62992947,9.82523433\C,-8.146
 07178,5.67729332,9.57370852\H,-9.59342956,4.25874728,9.01769623\H,-8.1
 0331291,6.11906207,8.57688312\H,-7.4421818,6.07144973,10.31051026\O,-1
 .004552,-1.76394126,7.4571342\O,-8.4127302,-1.32944785,7.46124828\O,-7
 .04970711,1.34666657,10.48681913\O,-2.3319662,-4.3583607,10.56073092\W
 ,-3.41938629,0.73042821,6.48855355\W,-6.00976654,-3.8276963,6.57951206
 \W,-3.63055913,0.91274887,11.41289593\W,-5.77700954,-3.86535385,11.472
 17395\W,-2.46604458,-2.55338901,6.38603829\W,-6.94364285,-0.5379652,6.
 35500189\W,-6.82506432,-0.24907913,11.58413004\W,-2.57104274,-2.698315
 12,11.62375795\O,-3.18556825,1.92748498,5.32138687\O,-6.1497328,-5.075
 72453,5.43535587\O,-2.71888158,1.76685582,12.56505201\O,-6.67989212,-4
 .68433785,12.65558051\O,-2.68824046,-0.87401021,5.58408456\O,-6.718300
 08,-2.2716157,5.62683008\O,-5.32230402,0.56661682,12.36661381\O,-4.063
 2977,-3.51577466,12.41015124\O,0.29487668,0.00173284,9.26869919\O,-9.7
 1674933,-3.02230762,9.32215903\O,-6.38217719,3.41778181,8.65055028\O,-
 2.97315866,-6.45658788,8.75804996\O,-1.80347324,0.77746578,7.47746\O,-
 7.61363781,-3.87800864,7.55486899\O,-4.52912976,2.22006057,10.4311303\
 O,-4.86425309,-5.21448851,10.52530201\O,-1.62797269,-3.47994361,5.2337
 3816\O,-7.83580232,0.25972588,5.16450943\O,-8.04002369,-0.15846291,12.
 76568064\O,-1.33587484,-2.82719968,12.78350408\W,-1.26581313,-0.516866
 67,8.83999776\W,-8.15699808,-2.51415246,8.87704557\W,-5.91572071,1.849
 16755,9.04751844\W,-3.47270367,-4.88516642,9.1698722\O,-4.23617191,-3.
 09266015,6.06875617\O,-5.17206201,-0.03631103,6.0072705\O,-6.18204989,
 -1.99834803,11.92113162\O,-3.18482914,-0.95391605,11.9357751\O,-4.3805
 4153,1.58431351,7.84920671\O,-5.00757457,-4.67500026,7.92559676\O,-2.3
 4097521,0.59905812,10.08141053\O,-7.06595991,-3.61160169,10.13857362\O
 ,-2.57908693,-3.87353985,7.86197078\O,-6.83632088,0.78364968,7.8064984
 9\O,-7.84160688,-1.17303319,10.15373167\O,-1.57595265,-1.83996301,10.1
 4679252\O,-3.38001703,-1.13338066,8.0097739\O,-6.03394859,-1.95064098,
 8.03754927\O,-5.132203,-0.19656839,9.95219237\O,-4.24921364,-2.8255538
 6,9.97992137\K,-3.2279598,-6.13164066,5.65619924\K,-0.13421387,0.04787
 26,12.35719549\K,-9.28141414,-2.91877787,12.42389638\V,-4.70182526,-1.
 52274797,8.99176006\\Version=ES64L-G16RevC.01\HF=-7327.7004078\RMSD=5.
 707e-09\RMSF=6.041e-03\Dipole=10.6530559,-21.8983725,2.5531646\Quadrup
 ole=-89.4686118,57.354906,32.1137058,340.3927444,345.9468345,-353.7223
 32\PG=C01 [X(C8H8Cl1K3O40V1W12)]\\@
 The archive entry for this job was punched.


 YOU SHOULDN'T LET PEOPLE DRIVE YOU CRAZY
 WHEN YOU KNOW IT'S WITHIN WALKING DISTANCE.
 Job cpu time:       0 days  9 hours  9 minutes 48.4 seconds.
 Elapsed time:       0 days  0 hours 10 minutes 24.8 seconds.
 File lengths (MBytes):  RWF=   1253 Int=      0 D2E=      0 Chk=    249 Scr=      1
 Normal termination of Gaussian 16 at Sun Jun  2 03:01:55 2024.
