 Entering Gaussian System, Link 0=g16
 Input=JOBS/27_A.gjf
 Output=JOBS/27_A.log
 Initial command:
 /data/app/gaussian/C01-avx2//g16/l1.exe "/tmp/Gau-628830.inp" -scrdir="/tmp/"
 Entering Link 1 = /data/app/gaussian/C01-avx2//g16/l1.exe PID=    628831.
  
 Copyright (c) 1988-2019, Gaussian, Inc.  All Rights Reserved.
  
 This is part of the Gaussian(R) 16 program.  It is based on
 the Gaussian(R) 09 system (copyright 2009, Gaussian, Inc.),
 the Gaussian(R) 03 system (copyright 2003, Gaussian, Inc.),
 the Gaussian(R) 98 system (copyright 1998, Gaussian, Inc.),
 the Gaussian(R) 94 system (copyright 1995, Gaussian, Inc.),
 the Gaussian 92(TM) system (copyright 1992, Gaussian, Inc.),
 the Gaussian 90(TM) system (copyright 1990, Gaussian, Inc.),
 the Gaussian 88(TM) system (copyright 1988, Gaussian, Inc.),
 the Gaussian 86(TM) system (copyright 1986, Carnegie Mellon
 University), and the Gaussian 82(TM) system (copyright 1983,
 Carnegie Mellon University). Gaussian is a federally registered
 trademark of Gaussian, Inc.
  
 This software contains proprietary and confidential information,
 including trade secrets, belonging to Gaussian, Inc.
  
 This software is provided under written license and may be
 used, copied, transmitted, or stored only in accord with that
 written license.
  
 The following legend is applicable only to US Government
 contracts under FAR:
  
                    RESTRICTED RIGHTS LEGEND
  
 Use, reproduction and disclosure by the US Government is
 subject to restrictions as set forth in subparagraphs (a)
 and (c) of the Commercial Computer Software - Restricted
 Rights clause in FAR 52.227-19.
  
 Gaussian, Inc.
 340 Quinnipiac St., Bldg. 40, Wallingford CT 06492
  
  
 ---------------------------------------------------------------
 Warning -- This program may not be used in any manner that
 competes with the business of Gaussian, Inc. or will provide
 assistance to any competitor of Gaussian, Inc.  The licensee
 of this program is prohibited from giving any competitor of
 Gaussian, Inc. access to this program.  By using this program,
 the user acknowledges that Gaussian, Inc. is engaged in the
 business of creating and licensing software in the field of
 computational chemistry and represents and warrants to the
 licensee that it is not a competitor of Gaussian, Inc. and that
 it will not use this program in any manner prohibited above.
 ---------------------------------------------------------------
  

 Cite this work as:
 Gaussian 16, Revision C.01,
 M. J. Frisch, G. W. Trucks, H. B. Schlegel, G. E. Scuseria, 
 M. A. Robb, J. R. Cheeseman, G. Scalmani, V. Barone, 
 G. A. Petersson, H. Nakatsuji, X. Li, M. Caricato, A. V. Marenich, 
 J. Bloino, B. G. Janesko, R. Gomperts, B. Mennucci, H. P. Hratchian, 
 J. V. Ortiz, A. F. Izmaylov, J. L. Sonnenberg, D. Williams-Young, 
 F. Ding, F. Lipparini, F. Egidi, J. Goings, B. Peng, A. Petrone, 
 T. Henderson, D. Ranasinghe, V. G. Zakrzewski, J. Gao, N. Rega, 
 G. Zheng, W. Liang, M. Hada, M. Ehara, K. Toyota, R. Fukuda, 
 J. Hasegawa, M. Ishida, T. Nakajima, Y. Honda, O. Kitao, H. Nakai, 
 T. Vreven, K. Throssell, J. A. Montgomery, Jr., J. E. Peralta, 
 F. Ogliaro, M. J. Bearpark, J. J. Heyd, E. N. Brothers, K. N. Kudin, 
 V. N. Staroverov, T. A. Keith, R. Kobayashi, J. Normand, 
 K. Raghavachari, A. P. Rendell, J. C. Burant, S. S. Iyengar, 
 J. Tomasi, M. Cossi, J. M. Millam, M. Klene, C. Adamo, R. Cammi, 
 J. W. Ochterski, R. L. Martin, K. Morokuma, O. Farkas, 
 J. B. Foresman, and D. J. Fox, Gaussian, Inc., Wallingford CT, 2019.
 
 ******************************************
 Gaussian 16:  ES64L-G16RevC.01  3-Jul-2019
                 2-Jun-2024 
 ******************************************
 %chk=a.chk
 %nprocshared=56
 Will use up to   56 processors via shared memory.
 %mem=96gb
 ----------------------------------------------------------------------
 # def2svp wb97xd scrf=(smd,solvent=acetonitrile) g09default scf=(xqc,m
 axcycle=64) force guess=read nosymm
 ----------------------------------------------------------------------
 1/10=7,30=1,38=1,158=3,167=1/1,3;
 2/12=2,15=1,17=6,18=5,40=1/2;
 3/5=43,7=101,11=2,25=1,27=10,30=1,70=32201,71=1,72=2,74=-58,75=-4,116=-2,158=3/1,2,3;
 4/5=1,60=-1/1;
 5/5=2,7=64,8=3,13=1,38=6,53=2,87=10/2,8;
 6/7=2,8=2,9=2,10=2,28=1,87=10/1;
 7/29=1,30=1,87=10/1,2,3,16;
 1/10=7,30=1,158=3,167=1/3;
 99//99;
 Using 2006 physical constants.
 ----------
 Title Card
 ----------
 Symbolic Z-matrix:
 Charge = -1 Multiplicity = 1
 17                   -9.95547   8.02998   10.50384 
 6                    -8.31446   4.23714   12.23066 
 6                    -9.0829    3.91606   11.09708 
 6                    -10.01334   2.86634   11.20068 
 6                    -10.19096   2.18073   12.39784 
 6                    -9.43259   2.5229    13.51798 
 6                    -8.48829   3.54766   13.42638 
 1                    -7.57087   5.03522   12.17854 
 1                    -10.6015   2.58954   10.32083 
 1                    -10.9234   1.37221   12.45907 
 1                    -9.5696    1.98621   14.459 
 1                    -7.88664   3.81519   14.29865 
 6                    -8.95714   4.63087   9.82585 
 6                    -8.15483   5.68235   9.57466 
 1                    -9.59652   4.25828   9.01833 
 1                    -8.11306   6.12175   8.57659 
 1                    -7.45592   6.08335   10.31219 
 8                    -1.00293  -1.76519   7.45753 
 8                    -8.41277  -1.32993   7.46108 
 8                    -7.04869   1.34691   10.48593 
 8                    -2.33171  -4.35985   10.56004 
 74                   -3.41859   0.7273    6.48746 
 74                   -6.00903  -3.82676   6.57857 
 74                   -3.63016   0.91096   11.41369 
 74                   -5.776    -3.86442   11.47211 
 74                   -2.46436  -2.55535   6.38735 
 74                   -6.94364  -0.53817   6.35656 
 74                   -6.82509  -0.2488    11.58211 
 74                   -2.56982  -2.69958   11.62221 
 8                    -3.18364   1.92382   5.31983 
 8                    -6.14961  -5.07462   5.43419 
 8                    -2.71923   1.7648    12.56637 
 8                    -6.67826  -4.68309   12.65583 
 8                    -2.68625  -0.87608   5.58363 
 8                    -6.7181   -2.27153   5.62632 
 8                    -5.32222   0.56627   12.36629 
 8                    -4.06249  -3.51641   12.40964 
 8                     0.2949    0.00203   9.2689 
 8                    -9.7162   -3.02347   9.32157 
 8                    -6.38043   3.41796   8.654 
 8                    -2.97488  -6.45805   8.75926 
 8                    -1.80218   0.77648   7.47689 
 8                    -7.61344  -3.87864   7.55408 
 8                    -4.52737   2.21997   10.43173 
 8                    -4.86485  -5.21514   10.52509 
 8                    -1.62639  -3.4829    5.2357 
 8                    -7.83648   0.25934   5.16608 
 8                    -8.04039  -0.15724   12.76296 
 8                    -1.33477  -2.82996   12.78166 
 74                   -1.26552  -0.51681   8.83947 
 74                   -8.15628  -2.51567   8.87638 
 74                   -5.91262   1.84933   9.0479 
 74                   -3.47391  -4.88631   9.17003 
 8                    -4.23501  -3.09331   6.0684 
 8                    -5.17141  -0.03769   6.00698 
 8                    -6.18112  -1.99777   11.92026 
 8                    -3.18366  -0.95509   11.93601 
 8                    -4.37881   1.58311   7.84864 
 8                    -5.00747  -4.67491   7.92514 
 8                    -2.34061   0.59807   10.08153 
 8                    -7.06545  -3.61145   10.13823 
 8                    -2.5787   -3.87455   7.86261 
 8                    -6.83459   0.78329   7.80714 
 8                    -7.84069  -1.17294   10.15206 
 8                    -1.57609  -1.84128   10.1455 
 8                    -3.37879  -1.13459   8.00876 
 8                    -6.03373  -1.95078   8.03698 
 8                    -5.13084  -0.19658   9.95209 
 8                    -4.24855  -2.82608   9.97966 
 19                   -3.22687  -6.13304   5.65488 
 19                   -0.13159   0.04907   12.35775 
 19                   -9.28288  -2.91571   12.42563 
 23                   -4.70105  -1.52317   8.99104 
 

 GradGradGradGradGradGradGradGradGradGradGradGradGradGradGradGradGradGrad
 Berny optimization.
 Initialization pass.
 Trust Radius=3.00D-01 FncErr=1.00D-07 GrdErr=1.00D-07 EigMax=2.50D+02 EigMin=1.00D-04
 Number of steps in this run=      2 maximum allowed number of steps=      2.
 GradGradGradGradGradGradGradGradGradGradGradGradGradGradGradGradGradGrad

 Symmetry turned off by external request.
 Stoichiometry    C8H8ClK3O40VW12(1-)
 Framework group  C1[X(C8H8ClK3O40VW12)]
 Deg. of freedom   213
 Full point group                 C1      NOp   1
                          Input orientation:                          
 ---------------------------------------------------------------------
 Center     Atomic      Atomic             Coordinates (Angstroms)
 Number     Number       Type             X           Y           Z
 ---------------------------------------------------------------------
      1         17           0       -9.955466    8.029977   10.503845
      2          6           0       -8.314458    4.237143   12.230657
      3          6           0       -9.082897    3.916058   11.097080
      4          6           0      -10.013338    2.866344   11.200677
      5          6           0      -10.190957    2.180728   12.397835
      6          6           0       -9.432587    2.522903   13.517980
      7          6           0       -8.488291    3.547659   13.426378
      8          1           0       -7.570867    5.035223   12.178539
      9          1           0      -10.601501    2.589543   10.320831
     10          1           0      -10.923395    1.372214   12.459073
     11          1           0       -9.569597    1.986212   14.458998
     12          1           0       -7.886637    3.815187   14.298654
     13          6           0       -8.957141    4.630871    9.825847
     14          6           0       -8.154834    5.682352    9.574661
     15          1           0       -9.596524    4.258284    9.018330
     16          1           0       -8.113062    6.121746    8.576590
     17          1           0       -7.455918    6.083350   10.312190
     18          8           0       -1.002931   -1.765192    7.457532
     19          8           0       -8.412775   -1.329926    7.461081
     20          8           0       -7.048691    1.346915   10.485926
     21          8           0       -2.331708   -4.359852   10.560040
     22         74           0       -3.418591    0.727295    6.487455
     23         74           0       -6.009034   -3.826764    6.578573
     24         74           0       -3.630156    0.910960   11.413694
     25         74           0       -5.775999   -3.864423   11.472113
     26         74           0       -2.464361   -2.555355    6.387355
     27         74           0       -6.943640   -0.538174    6.356556
     28         74           0       -6.825087   -0.248801   11.582113
     29         74           0       -2.569824   -2.699576   11.622214
     30          8           0       -3.183640    1.923823    5.319827
     31          8           0       -6.149615   -5.074624    5.434190
     32          8           0       -2.719229    1.764798   12.566366
     33          8           0       -6.678258   -4.683093   12.655832
     34          8           0       -2.686254   -0.876078    5.583630
     35          8           0       -6.718105   -2.271530    5.626316
     36          8           0       -5.322216    0.566270   12.366288
     37          8           0       -4.062491   -3.516405   12.409644
     38          8           0        0.294905    0.002028    9.268901
     39          8           0       -9.716205   -3.023472    9.321571
     40          8           0       -6.380434    3.417959    8.654002
     41          8           0       -2.974885   -6.458051    8.759256
     42          8           0       -1.802178    0.776480    7.476888
     43          8           0       -7.613441   -3.878635    7.554076
     44          8           0       -4.527373    2.219968   10.431727
     45          8           0       -4.864847   -5.215143   10.525085
     46          8           0       -1.626393   -3.482897    5.235699
     47          8           0       -7.836482    0.259336    5.166079
     48          8           0       -8.040386   -0.157240   12.762958
     49          8           0       -1.334766   -2.829956   12.781656
     50         74           0       -1.265516   -0.516805    8.839469
     51         74           0       -8.156278   -2.515669    8.876383
     52         74           0       -5.912616    1.849330    9.047896
     53         74           0       -3.473905   -4.886306    9.170031
     54          8           0       -4.235006   -3.093315    6.068401
     55          8           0       -5.171409   -0.037692    6.006981
     56          8           0       -6.181124   -1.997767   11.920261
     57          8           0       -3.183655   -0.955092   11.936012
     58          8           0       -4.378809    1.583107    7.848639
     59          8           0       -5.007468   -4.674905    7.925142
     60          8           0       -2.340608    0.598071   10.081526
     61          8           0       -7.065453   -3.611452   10.138229
     62          8           0       -2.578702   -3.874546    7.862614
     63          8           0       -6.834590    0.783288    7.807136
     64          8           0       -7.840688   -1.172942   10.152059
     65          8           0       -1.576087   -1.841276   10.145502
     66          8           0       -3.378793   -1.134589    8.008757
     67          8           0       -6.033731   -1.950782    8.036982
     68          8           0       -5.130844   -0.196583    9.952093
     69          8           0       -4.248550   -2.826079    9.979657
     70         19           0       -3.226875   -6.133039    5.654880
     71         19           0       -0.131586    0.049070   12.357746
     72         19           0       -9.282875   -2.915709   12.425626
     73         23           0       -4.701049   -1.523165    8.991043
 ---------------------------------------------------------------------
 Rotational constants (GHZ):           0.0171924           0.0132851           0.0130698
 Standard basis: def2SVP (5D, 7F)
  1217 basis functions,  2313 primitive gaussians,  1337 cartesian basis functions
   321 alpha electrons      321 beta electrons
       nuclear repulsion energy     20993.1811660561 Hartrees.
 NAtoms=   73 NActive=   73 NUniq=   73 SFac= 1.00D+00 NAtFMM=   60 NAOKFM=T Big=T
 Integral buffers will be    131072 words long.
 Raffenetti 2 integral format.
 Two-electron integral symmetry is turned off.
 Nuclear repulsion after empirical dispersion term =    20992.9035484444 Hartrees.
 Force PCM accuracy= 1.00D-10.
 ------------------------------------------------------------------------------
 Polarizable Continuum Model (PCM)
 =================================
 Model                : PCM (using non-symmetric T matrix).
 Atomic radii         : SMD-Coulomb.
 Polarization charges : Total charges.
 Charge compensation  : None.
 Solution method      : On-the-fly selection.
 Cavity type          : VdW (van der Waals Surface) (Alpha=1.000).
 Cavity algorithm     : GePol (No added spheres)
                        Default sphere list used, NSphG=   73.
                        Lebedev-Laikov grids with approx.  5.0 points / Ang**2.
                        Smoothing algorithm: York/Karplus (Gamma=1.0000).
                        Polarization charges: spherical gaussians, with
                                              point-specific exponents (IZeta= 3).
                        Self-potential: point-specific (ISelfS= 7).
                        Self-field    : sphere-specific E.n sum rule (ISelfD= 2).
 1st derivatives      : Analytical E(r).r(x)/FMM algorithm (CHGder, D1EAlg=3).
                        Cavity 1st derivative terms included.
 Solvent              : Acetonitrile, Eps=  35.688000 Eps(inf)=   1.806874
 ------------------------------------------------------------------------------
 ------------------------------------------------------------------------------
 Atomic radii for non-electrostatic terms: SMD-CDS.
 ------------------------------------------------------------------------------
 Nuclear repulsion after PCM non-electrostatic terms =    20992.8977323012 Hartrees.
 One-electron integrals computed using PRISM.
   1 Symmetry operations used in ECPInt.
 ECPInt:  NShTT=  127765 NPrTT=  468030 LenC2=   96781 LenP2D=  221440.
 LDataN:  DoStor=T MaxTD1= 8 Len=  415
 NBasis=  1217 RedAO= T EigKep=  1.36D-04  NBF=  1217
 NBsUse=  1217 1.00D-06 EigRej= -1.00D+00 NBFU=  1217
 Defaulting to unpruned grid for atomic number  74.
 Defaulting to unpruned grid for atomic number  74.
 Defaulting to unpruned grid for atomic number  74.
 Defaulting to unpruned grid for atomic number  74.
 Defaulting to unpruned grid for atomic number  74.
 Defaulting to unpruned grid for atomic number  74.
 Defaulting to unpruned grid for atomic number  74.
 Defaulting to unpruned grid for atomic number  74.
 Initial guess from the checkpoint file:  "a.chk"
 B after Tr=     0.002016   -0.003157   -0.000141
         Rot=    1.000000    0.000001    0.000003    0.000135 Ang=   0.02 deg.
 Requested convergence on RMS density matrix=1.00D-08 within  64 cycles.
 Requested convergence on MAX density matrix=1.00D-06.
 Requested convergence on             energy=1.00D-06.
 No special actions if energy rises.
 Defaulting to unpruned grid for atomic number  74.
 Defaulting to unpruned grid for atomic number  74.
 Defaulting to unpruned grid for atomic number  74.
 Defaulting to unpruned grid for atomic number  74.
 Defaulting to unpruned grid for atomic number  74.
 Defaulting to unpruned grid for atomic number  74.
 Defaulting to unpruned grid for atomic number  74.
 Defaulting to unpruned grid for atomic number  74.
 Defaulting to unpruned grid for atomic number  74.
 Defaulting to unpruned grid for atomic number  74.
 Defaulting to unpruned grid for atomic number  74.
 Defaulting to unpruned grid for atomic number  74.
 Defaulting to unpruned grid for atomic number  74.
 Defaulting to unpruned grid for atomic number  74.
 Defaulting to unpruned grid for atomic number  74.
 Defaulting to unpruned grid for atomic number  74.
 Defaulting to unpruned grid for atomic number  74.
 Defaulting to unpruned grid for atomic number  74.
 Defaulting to unpruned grid for atomic number  74.
 Defaulting to unpruned grid for atomic number  74.
 Defaulting to unpruned grid for atomic number  74.
 Defaulting to unpruned grid for atomic number  74.
 Defaulting to unpruned grid for atomic number  74.
 Defaulting to unpruned grid for atomic number  74.
 Defaulting to unpruned grid for atomic number  74.
 Defaulting to unpruned grid for atomic number  74.
 Defaulting to unpruned grid for atomic number  74.
 Defaulting to unpruned grid for atomic number  74.
 Defaulting to unpruned grid for atomic number  74.
 Defaulting to unpruned grid for atomic number  74.
 Defaulting to unpruned grid for atomic number  74.
 Defaulting to unpruned grid for atomic number  74.
 Defaulting to unpruned grid for atomic number  74.
 Defaulting to unpruned grid for atomic number  74.
 Defaulting to unpruned grid for atomic number  74.
 Defaulting to unpruned grid for atomic number  74.
 Defaulting to unpruned grid for atomic number  74.
 Defaulting to unpruned grid for atomic number  74.
 Defaulting to unpruned grid for atomic number  74.
 Defaulting to unpruned grid for atomic number  74.
 Defaulting to unpruned grid for atomic number  74.
 Defaulting to unpruned grid for atomic number  74.
 Defaulting to unpruned grid for atomic number  74.
 Defaulting to unpruned grid for atomic number  74.
 Defaulting to unpruned grid for atomic number  74.
 Defaulting to unpruned grid for atomic number  74.
 Defaulting to unpruned grid for atomic number  74.
 Defaulting to unpruned grid for atomic number  74.
 Defaulting to unpruned grid for atomic number  74.
 Defaulting to unpruned grid for atomic number  74.
 Defaulting to unpruned grid for atomic number  74.
 Defaulting to unpruned grid for atomic number  74.
 Defaulting to unpruned grid for atomic number  74.
 Defaulting to unpruned grid for atomic number  74.
 Defaulting to unpruned grid for atomic number  74.
 Defaulting to unpruned grid for atomic number  74.
 Inv3:  Mode=1 IEnd=    86865483.
 Iteration    1 A*A^-1 deviation from unit magnitude is 4.00D-15 for   3813.
 Iteration    1 A*A^-1 deviation from orthogonality  is 2.83D-15 for   3403   3048.
 Iteration    1 A^-1*A deviation from unit magnitude is 4.22D-15 for    358.
 Iteration    1 A^-1*A deviation from orthogonality  is 3.77D-10 for    934    929.
 Iteration    2 A*A^-1 deviation from unit magnitude is 6.00D-15 for    172.
 Iteration    2 A*A^-1 deviation from orthogonality  is 4.89D-15 for   3403   3048.
 Iteration    2 A^-1*A deviation from unit magnitude is 1.33D-15 for   4127.
 Iteration    2 A^-1*A deviation from orthogonality  is 6.65D-16 for   4680   4628.
 Error on total polarization charges =  0.01594
 SCF Done:  E(RwB97XD) =  -7327.70046307     A.U. after   12 cycles
            NFock= 12  Conv=0.28D-08     -V/T= 2.0832
 SMD-CDS (non-electrostatic) energy       (kcal/mol) =      -3.65
 (included in total energy above)
 QCSCF skips out because SCF is already converged.

 **********************************************************************

            Population analysis using the SCF Density.

 **********************************************************************

 Alpha  occ. eigenvalues -- -197.29499-130.00179-130.00169-130.00087-101.47636
 Alpha  occ. eigenvalues --  -22.62619 -19.33675 -19.33662 -19.33656 -19.33627
 Alpha  occ. eigenvalues --  -19.30699 -19.30671 -19.30662 -19.30657 -19.30650
 Alpha  occ. eigenvalues --  -19.30644 -19.30622 -19.30587 -19.30503 -19.30313
 Alpha  occ. eigenvalues --  -19.30286 -19.30057 -19.29320 -19.29316 -19.29287
 Alpha  occ. eigenvalues --  -19.29276 -19.29274 -19.29264 -19.29254 -19.29191
 Alpha  occ. eigenvalues --  -19.29188 -19.29164 -19.29140 -19.29126 -19.29107
 Alpha  occ. eigenvalues --  -19.29106 -19.29100 -19.29094 -19.29077 -19.29061
 Alpha  occ. eigenvalues --  -19.29041 -19.28966 -19.28954 -19.28942 -19.28921
 Alpha  occ. eigenvalues --  -19.28760 -19.11576 -19.11568 -19.11559 -13.37582
 Alpha  occ. eigenvalues --  -13.37573 -13.37481 -10.70511 -10.70504 -10.70504
 Alpha  occ. eigenvalues --  -10.70502 -10.70495 -10.70494 -10.70411 -10.70404
 Alpha  occ. eigenvalues --  -10.70401 -10.29821 -10.29335 -10.29279 -10.29085
 Alpha  occ. eigenvalues --  -10.28998 -10.28986 -10.28163 -10.27672  -9.38091
 Alpha  occ. eigenvalues --   -7.12913  -7.12874  -7.12872  -3.23277  -3.23269
 Alpha  occ. eigenvalues --   -3.23256  -3.23252  -3.23249  -3.23240  -3.23185
 Alpha  occ. eigenvalues --   -3.23182  -3.23136  -3.22910  -3.22907  -3.22654
 Alpha  occ. eigenvalues --   -2.91851  -1.94225  -1.94198  -1.94186  -1.87693
 Alpha  occ. eigenvalues --   -1.87635  -1.87610  -1.87553  -1.87460  -1.87447
 Alpha  occ. eigenvalues --   -1.87437  -1.87402  -1.87358  -1.87223  -1.87192
 Alpha  occ. eigenvalues --   -1.86999  -1.86591  -1.86471  -1.86464  -1.86438
 Alpha  occ. eigenvalues --   -1.86419  -1.86374  -1.86303  -1.86290  -1.86267
 Alpha  occ. eigenvalues --   -1.86251  -1.86223  -1.86191  -1.86108  -1.86087
 Alpha  occ. eigenvalues --   -1.86082  -1.86053  -1.86009  -1.85956  -1.85936
 Alpha  occ. eigenvalues --   -1.85877  -1.85844  -1.85750  -1.85618  -1.85556
 Alpha  occ. eigenvalues --   -1.51264  -1.51255  -1.51164  -1.13059  -1.11298
 Alpha  occ. eigenvalues --   -1.11207  -1.11194  -1.08947  -1.08502  -1.08450
 Alpha  occ. eigenvalues --   -1.08265  -1.07546  -1.07491  -1.07465  -1.06873
 Alpha  occ. eigenvalues --   -1.06845  -1.06821  -1.06284  -1.06248  -1.05295
 Alpha  occ. eigenvalues --   -1.05289  -1.04952  -1.04942  -1.04918  -1.04173
 Alpha  occ. eigenvalues --   -1.04170  -1.04140  -1.03997  -1.03979  -1.03964
 Alpha  occ. eigenvalues --   -1.03919  -1.03864  -1.03843  -1.03728  -1.03684
 Alpha  occ. eigenvalues --   -1.03593  -1.03538  -1.03257  -1.03220  -1.03093
 Alpha  occ. eigenvalues --   -1.03076  -1.03014  -1.02901  -0.94409  -0.86726
 Alpha  occ. eigenvalues --   -0.86716  -0.86631  -0.86567  -0.86539  -0.86534
 Alpha  occ. eigenvalues --   -0.86528  -0.86520  -0.86443  -0.86424  -0.82834
 Alpha  occ. eigenvalues --   -0.79813  -0.70788  -0.69801  -0.68052  -0.64552
 Alpha  occ. eigenvalues --   -0.63915  -0.63866  -0.63853  -0.63318  -0.63286
 Alpha  occ. eigenvalues --   -0.63184  -0.63056  -0.62674  -0.62602  -0.61982
 Alpha  occ. eigenvalues --   -0.61591  -0.61571  -0.61482  -0.61191  -0.61172
 Alpha  occ. eigenvalues --   -0.61136  -0.60385  -0.59434  -0.59416  -0.59404
 Alpha  occ. eigenvalues --   -0.59370  -0.59340  -0.58703  -0.57967  -0.57938
 Alpha  occ. eigenvalues --   -0.57871  -0.57070  -0.57034  -0.56999  -0.56265
 Alpha  occ. eigenvalues --   -0.56219  -0.56065  -0.55673  -0.54828  -0.54771
 Alpha  occ. eigenvalues --   -0.54731  -0.54591  -0.54215  -0.54103  -0.54055
 Alpha  occ. eigenvalues --   -0.54018  -0.53935  -0.53220  -0.53172  -0.53053
 Alpha  occ. eigenvalues --   -0.52979  -0.52872  -0.52693  -0.52633  -0.52596
 Alpha  occ. eigenvalues --   -0.52549  -0.52514  -0.52445  -0.52422  -0.51565
 Alpha  occ. eigenvalues --   -0.51543  -0.51366  -0.51321  -0.51297  -0.51237
 Alpha  occ. eigenvalues --   -0.51162  -0.51131  -0.51021  -0.50726  -0.50547
 Alpha  occ. eigenvalues --   -0.50542  -0.50507  -0.49884  -0.49876  -0.49290
 Alpha  occ. eigenvalues --   -0.49254  -0.49230  -0.49173  -0.49133  -0.49035
 Alpha  occ. eigenvalues --   -0.48881  -0.48066  -0.48013  -0.47901  -0.47701
 Alpha  occ. eigenvalues --   -0.47335  -0.47281  -0.47224  -0.46995  -0.46950
 Alpha  occ. eigenvalues --   -0.46822  -0.46544  -0.46504  -0.46425  -0.46208
 Alpha  occ. eigenvalues --   -0.46144  -0.46087  -0.45617  -0.45070  -0.44890
 Alpha  occ. eigenvalues --   -0.44860  -0.44164  -0.44143  -0.44010  -0.43589
 Alpha  occ. eigenvalues --   -0.43286  -0.43227  -0.43102  -0.43079  -0.43039
 Alpha  occ. eigenvalues --   -0.42705  -0.42676  -0.42646  -0.42584  -0.42577
 Alpha  occ. eigenvalues --   -0.42494  -0.42445  -0.42434  -0.42271  -0.42258
 Alpha  occ. eigenvalues --   -0.42227  -0.42005  -0.41886  -0.41833  -0.41815
 Alpha  occ. eigenvalues --   -0.41221  -0.41186  -0.41144  -0.41038  -0.40537
 Alpha  occ. eigenvalues --   -0.40524  -0.40504  -0.40408  -0.39426  -0.39400
 Alpha  occ. eigenvalues --   -0.36889  -0.32551  -0.28816  -0.24534  -0.24507
 Alpha  occ. eigenvalues --   -0.23288
 Alpha virt. eigenvalues --   -0.09497  -0.09298  -0.08361  -0.08311  -0.06936
 Alpha virt. eigenvalues --   -0.06869  -0.06779  -0.04483  -0.04180  -0.04152
 Alpha virt. eigenvalues --   -0.03680  -0.03518  -0.03432  -0.03191  -0.03080
 Alpha virt. eigenvalues --   -0.03020  -0.02991  -0.02170  -0.02137  -0.02100
 Alpha virt. eigenvalues --   -0.01468  -0.01434  -0.01364  -0.01264  -0.01176
 Alpha virt. eigenvalues --   -0.00028  -0.00015   0.00051   0.01451   0.01474
 Alpha virt. eigenvalues --    0.01910   0.01956   0.02041   0.02178   0.02211
 Alpha virt. eigenvalues --    0.02222   0.02254   0.02358   0.02785   0.02861
 Alpha virt. eigenvalues --    0.02949   0.02997   0.03053   0.04232   0.04582
 Alpha virt. eigenvalues --    0.06782   0.07278   0.07515   0.07593   0.07779
 Alpha virt. eigenvalues --    0.08039   0.08440   0.08493   0.08775   0.09158
 Alpha virt. eigenvalues --    0.09337   0.09389   0.09657   0.09882   0.10279
 Alpha virt. eigenvalues --    0.10303   0.10375   0.10433   0.10479   0.10630
 Alpha virt. eigenvalues --    0.10883   0.11073   0.11082   0.11663   0.11746
 Alpha virt. eigenvalues --    0.12290   0.13097   0.13231   0.13342   0.13574
 Alpha virt. eigenvalues --    0.13744   0.14374   0.14553   0.14645   0.14995
 Alpha virt. eigenvalues --    0.15528   0.16131   0.16350   0.16568   0.16750
 Alpha virt. eigenvalues --    0.16776   0.16888   0.17108   0.17246   0.17657
 Alpha virt. eigenvalues --    0.17861   0.18146   0.18204   0.18362   0.18603
 Alpha virt. eigenvalues --    0.18725   0.19013   0.19295   0.19395   0.19516
 Alpha virt. eigenvalues --    0.19639   0.20188   0.20307   0.20438   0.20641
 Alpha virt. eigenvalues --    0.20725   0.20870   0.20920   0.21305   0.21368
 Alpha virt. eigenvalues --    0.21461   0.21605   0.21657   0.21862   0.22103
 Alpha virt. eigenvalues --    0.22411   0.22701   0.22905   0.23158   0.23302
 Alpha virt. eigenvalues --    0.23505   0.23858   0.24013   0.24234   0.24534
 Alpha virt. eigenvalues --    0.24740   0.25188   0.25540   0.25643   0.25898
 Alpha virt. eigenvalues --    0.26043   0.26233   0.26447   0.26580   0.26767
 Alpha virt. eigenvalues --    0.27039   0.27228   0.27400   0.27463   0.27705
 Alpha virt. eigenvalues --    0.28003   0.28268   0.28336   0.28645   0.28722
 Alpha virt. eigenvalues --    0.29267   0.29512   0.29864   0.30149   0.30423
 Alpha virt. eigenvalues --    0.30593   0.30939   0.31141   0.31681   0.31759
 Alpha virt. eigenvalues --    0.32222   0.34777   0.35224   0.35840   0.36299
 Alpha virt. eigenvalues --    0.36672   0.36901   0.37211   0.38101   0.38447
 Alpha virt. eigenvalues --    0.38695   0.39226   0.39548   0.39731   0.40279
 Alpha virt. eigenvalues --    0.40732   0.40886   0.41046   0.41143   0.41750
 Alpha virt. eigenvalues --    0.42118   0.42359   0.42725   0.43307   0.43570
 Alpha virt. eigenvalues --    0.43753   0.44540   0.44747   0.44864   0.45211
 Alpha virt. eigenvalues --    0.45701   0.46248   0.46496   0.46710   0.47163
 Alpha virt. eigenvalues --    0.47409   0.47642   0.47976   0.48107   0.48224
 Alpha virt. eigenvalues --    0.48360   0.48434   0.48663   0.48830   0.48989
 Alpha virt. eigenvalues --    0.49156   0.49394   0.49532   0.49906   0.49954
 Alpha virt. eigenvalues --    0.50209   0.50587   0.50685   0.50962   0.51158
 Alpha virt. eigenvalues --    0.51658   0.51794   0.51923   0.52333   0.52528
 Alpha virt. eigenvalues --    0.52668   0.52898   0.53035   0.53172   0.53239
 Alpha virt. eigenvalues --    0.53716   0.54089   0.54333   0.54400   0.54631
 Alpha virt. eigenvalues --    0.54993   0.55417   0.55671   0.56419   0.56493
 Alpha virt. eigenvalues --    0.56824   0.57379   0.57723   0.58092   0.58294
 Alpha virt. eigenvalues --    0.58596   0.59115   0.59457   0.60270   0.60786
 Alpha virt. eigenvalues --    0.61426   0.62378   0.62703   0.62749   0.63195
 Alpha virt. eigenvalues --    0.64187   0.65346   0.65629   0.65693   0.65828
 Alpha virt. eigenvalues --    0.66143   0.66780   0.67163   0.67286   0.67469
 Alpha virt. eigenvalues --    0.67811   0.68371   0.69897   0.70455   0.71068
 Alpha virt. eigenvalues --    0.71360   0.71910   0.72021   0.72137   0.72196
 Alpha virt. eigenvalues --    0.72419   0.72566   0.73129   0.73448   0.73964
 Alpha virt. eigenvalues --    0.74624   0.74907   0.75575   0.75703   0.75935
 Alpha virt. eigenvalues --    0.76332   0.76609   0.76854   0.76951   0.77330
 Alpha virt. eigenvalues --    0.77611   0.78446   0.79126   0.79435   0.79602
 Alpha virt. eigenvalues --    0.79807   0.80314   0.80698   0.81010   0.81504
 Alpha virt. eigenvalues --    0.81608   0.81663   0.82029   0.82679   0.83136
 Alpha virt. eigenvalues --    0.84151   0.84323   0.84914   0.85364   0.86100
 Alpha virt. eigenvalues --    0.87123   0.87484   0.88017   0.88109   0.88812
 Alpha virt. eigenvalues --    0.89105   0.89184   0.89538   0.89666   0.90426
 Alpha virt. eigenvalues --    0.90714   0.90833   0.91364   0.91507   0.91670
 Alpha virt. eigenvalues --    0.92696   0.93033   0.93770   0.94033   0.94144
 Alpha virt. eigenvalues --    0.94451   0.94851   0.95965   0.96081   0.96905
 Alpha virt. eigenvalues --    0.96947   0.97218   0.97372   0.97794   0.97950
 Alpha virt. eigenvalues --    0.98222   0.98360   0.98596   0.98643   0.98820
 Alpha virt. eigenvalues --    0.99118   0.99709   1.00162   1.00297   1.00369
 Alpha virt. eigenvalues --    1.00913   1.01432   1.01653   1.01691   1.02127
 Alpha virt. eigenvalues --    1.02203   1.02489   1.02564   1.02645   1.02952
 Alpha virt. eigenvalues --    1.02988   1.03688   1.03956   1.04085   1.04110
 Alpha virt. eigenvalues --    1.04290   1.04399   1.04484   1.04568   1.04781
 Alpha virt. eigenvalues --    1.04980   1.05184   1.05266   1.05520   1.05915
 Alpha virt. eigenvalues --    1.06020   1.06414   1.06639   1.07104   1.07312
 Alpha virt. eigenvalues --    1.07536   1.07942   1.08802   1.09147   1.09327
 Alpha virt. eigenvalues --    1.09390   1.09799   1.10110   1.10232   1.10244
 Alpha virt. eigenvalues --    1.10778   1.10893   1.11065   1.11172   1.11493
 Alpha virt. eigenvalues --    1.11632   1.11663   1.11761   1.12003   1.12625
 Alpha virt. eigenvalues --    1.12906   1.13549   1.13874   1.14435   1.15157
 Alpha virt. eigenvalues --    1.15328   1.15997   1.16285   1.16582   1.17038
 Alpha virt. eigenvalues --    1.17424   1.17697   1.17907   1.18705   1.18942
 Alpha virt. eigenvalues --    1.19723   1.20827   1.21071   1.21274   1.21343
 Alpha virt. eigenvalues --    1.21419   1.22065   1.22166   1.23004   1.23663
 Alpha virt. eigenvalues --    1.25117   1.25838   1.26432   1.26672   1.26846
 Alpha virt. eigenvalues --    1.27241   1.27829   1.28096   1.28581   1.28627
 Alpha virt. eigenvalues --    1.28886   1.29083   1.29129   1.29325   1.29654
 Alpha virt. eigenvalues --    1.30075   1.30210   1.30311   1.30790   1.30942
 Alpha virt. eigenvalues --    1.31091   1.31958   1.32141   1.32954   1.33024
 Alpha virt. eigenvalues --    1.33210   1.33450   1.33716   1.33824   1.33955
 Alpha virt. eigenvalues --    1.34191   1.34316   1.34473   1.34670   1.34806
 Alpha virt. eigenvalues --    1.34887   1.35176   1.35354   1.35652   1.35921
 Alpha virt. eigenvalues --    1.36183   1.36403   1.36516   1.36753   1.36934
 Alpha virt. eigenvalues --    1.37127   1.37291   1.37632   1.37661   1.37804
 Alpha virt. eigenvalues --    1.37905   1.38463   1.38684   1.38894   1.39190
 Alpha virt. eigenvalues --    1.39306   1.39570   1.39697   1.39867   1.40171
 Alpha virt. eigenvalues --    1.40414   1.40601   1.40749   1.40844   1.40969
 Alpha virt. eigenvalues --    1.41192   1.41292   1.41556   1.42038   1.42306
 Alpha virt. eigenvalues --    1.42539   1.43203   1.43267   1.43380   1.43473
 Alpha virt. eigenvalues --    1.44000   1.44145   1.44549   1.45197   1.45634
 Alpha virt. eigenvalues --    1.46432   1.46772   1.47697   1.47836   1.47978
 Alpha virt. eigenvalues --    1.48399   1.48805   1.49314   1.49756   1.50382
 Alpha virt. eigenvalues --    1.50445   1.51023   1.51504   1.51952   1.53330
 Alpha virt. eigenvalues --    1.53607   1.55442   1.55787   1.55816   1.55915
 Alpha virt. eigenvalues --    1.56168   1.56385   1.56686   1.56765   1.57249
 Alpha virt. eigenvalues --    1.57304   1.58167   1.58364   1.59191   1.59250
 Alpha virt. eigenvalues --    1.59712   1.60137   1.60498   1.60552   1.60629
 Alpha virt. eigenvalues --    1.60797   1.61236   1.62212   1.62316   1.62660
 Alpha virt. eigenvalues --    1.64155   1.64339   1.65097   1.65669   1.67057
 Alpha virt. eigenvalues --    1.67712   1.68032   1.69893   1.70613   1.70928
 Alpha virt. eigenvalues --    1.71537   1.71708   1.72523   1.73095   1.74219
 Alpha virt. eigenvalues --    1.75080   1.75185   1.75445   1.75787   1.76605
 Alpha virt. eigenvalues --    1.76731   1.77005   1.77322   1.77733   1.78663
 Alpha virt. eigenvalues --    1.78738   1.79149   1.79465   1.80364   1.80568
 Alpha virt. eigenvalues --    1.81225   1.81481   1.81738   1.82242   1.82717
 Alpha virt. eigenvalues --    1.83041   1.83282   1.83820   1.84300   1.84496
 Alpha virt. eigenvalues --    1.85184   1.85264   1.85657   1.86099   1.86361
 Alpha virt. eigenvalues --    1.86501   1.87210   1.87676   1.88298   1.88643
 Alpha virt. eigenvalues --    1.89369   1.90090   1.90208   1.90423   1.90563
 Alpha virt. eigenvalues --    1.90865   1.91195   1.91577   1.92441   1.93748
 Alpha virt. eigenvalues --    1.94822   1.95321   1.95530   1.95766   1.96210
 Alpha virt. eigenvalues --    1.98424   1.99323   1.99462   1.99634   2.04928
 Alpha virt. eigenvalues --    2.06860   2.07213   2.08140   2.08492   2.08833
 Alpha virt. eigenvalues --    2.09034   2.09467   2.09635   2.10399   2.11156
 Alpha virt. eigenvalues --    2.11599   2.11954   2.12957   2.14891   2.15283
 Alpha virt. eigenvalues --    2.15985   2.16659   2.17154   2.17567   2.17719
 Alpha virt. eigenvalues --    2.20095   2.20461   2.20549   2.20808   2.21201
 Alpha virt. eigenvalues --    2.21472   2.22215   2.24384   2.25432   2.25938
 Alpha virt. eigenvalues --    2.26462   2.26603   2.27442   2.28438   2.28759
 Alpha virt. eigenvalues --    2.29283   2.29770   2.30219   2.33522   2.35624
 Alpha virt. eigenvalues --    2.36485   2.39857   2.40976   2.41076   2.43833
 Alpha virt. eigenvalues --    2.44213   2.50504   2.51704   2.57453   2.64832
 Alpha virt. eigenvalues --    2.64914   2.65053   2.65738   2.66115   2.66532
 Alpha virt. eigenvalues --    2.66795   2.66864   2.66952   2.67063   2.67102
 Alpha virt. eigenvalues --    2.67168   2.67296   2.67378   2.67393   2.67512
 Alpha virt. eigenvalues --    2.67712   2.67766   2.67867   2.67882   2.67988
 Alpha virt. eigenvalues --    2.68898   2.69015   2.69294   2.69393   2.69980
 Alpha virt. eigenvalues --    2.70171   2.70244   2.70438   2.70621   2.70805
 Alpha virt. eigenvalues --    2.70870   2.71414   2.71478   2.71549   2.71611
 Alpha virt. eigenvalues --    2.71721   2.72039   2.72608   2.72906   2.73013
 Alpha virt. eigenvalues --    2.73158   2.73232   2.73307   2.73367   2.73401
 Alpha virt. eigenvalues --    2.73539   2.73814   2.73917   2.73948   2.74063
 Alpha virt. eigenvalues --    2.74137   2.74260   2.74375   2.74631   2.74802
 Alpha virt. eigenvalues --    2.74843   2.75054   2.75280   2.75788   2.76101
 Alpha virt. eigenvalues --    2.76207   2.76297   2.76489   2.76781   2.76993
 Alpha virt. eigenvalues --    2.77147   2.77273   2.77300   2.78450   2.78607
 Alpha virt. eigenvalues --    2.78698   2.78966   2.79961   2.80161   2.80310
 Alpha virt. eigenvalues --    2.81191   2.81737   2.81790   2.82047   2.82207
 Alpha virt. eigenvalues --    2.82292   2.82775   2.83045   2.83289   2.83766
 Alpha virt. eigenvalues --    2.83793   2.83970   2.84095   2.84317   2.85033
 Alpha virt. eigenvalues --    2.85591   2.86130   2.86254   2.86435   2.86572
 Alpha virt. eigenvalues --    2.86697   2.86816   2.86957   2.88021   2.88438
 Alpha virt. eigenvalues --    2.88660   2.89049   2.89591   2.89674   2.89757
 Alpha virt. eigenvalues --    2.89808   2.89914   2.90061   2.90455   2.90552
 Alpha virt. eigenvalues --    2.90689   2.91774   2.91885   2.91926   2.92004
 Alpha virt. eigenvalues --    2.92238   2.92481   2.92699   2.92962   2.93125
 Alpha virt. eigenvalues --    2.93275   2.93566   2.93660   2.94002   2.94110
 Alpha virt. eigenvalues --    2.94211   2.95089   2.95266   2.95497   2.95717
 Alpha virt. eigenvalues --    2.95863   2.95923   2.96341   2.96520   2.96596
 Alpha virt. eigenvalues --    2.96690   2.96870   2.96958   2.97237   2.97493
 Alpha virt. eigenvalues --    2.97570   2.97775   2.98009   2.98440   2.99081
 Alpha virt. eigenvalues --    2.99358   2.99514   2.99777   2.99807   3.00130
 Alpha virt. eigenvalues --    3.00317   3.00568   3.01315   3.01541   3.01686
 Alpha virt. eigenvalues --    3.02621   3.03225   3.03395   3.03779   3.05077
 Alpha virt. eigenvalues --    3.06317   3.06621   3.07064   3.10999   3.11377
 Alpha virt. eigenvalues --    3.11569   3.11612   3.12202   3.12479   3.13690
 Alpha virt. eigenvalues --    3.13804   3.13898   3.16777   3.20159   3.21653
 Alpha virt. eigenvalues --    3.21977   3.24000   3.32659   3.40901   3.41576
 Alpha virt. eigenvalues --    3.42281   3.42825   3.44780   3.44851   3.45695
 Alpha virt. eigenvalues --    3.45945   3.46142   3.47107   3.47375   3.47718
 Alpha virt. eigenvalues --    3.48502   3.51041   3.51750   3.52199   3.53504
 Alpha virt. eigenvalues --    3.53600   3.54403   3.54641   3.54978   3.55112
 Alpha virt. eigenvalues --    3.55242   3.55526   3.55949   3.56482   3.57449
 Alpha virt. eigenvalues --    3.57783   3.58145   3.59354   3.59571   3.60458
 Alpha virt. eigenvalues --    3.60604   3.61194   3.61552   3.61888   3.62411
 Alpha virt. eigenvalues --    3.69665   3.74976  68.64525  68.65577  68.66789
 Alpha virt. eigenvalues --   68.69034  68.72899  68.73792  68.81788  68.82801
 Alpha virt. eigenvalues --   68.83311  68.85943  68.87054  68.88361 576.22955
 Alpha virt. eigenvalues --  576.23982 576.25169 576.27366 576.31243 576.32125
 Alpha virt. eigenvalues --  576.39968 576.40960 576.41453 576.43986 576.45075
 Alpha virt. eigenvalues --  576.46376
          Condensed to atoms (all electrons):
 Mulliken charges:
               1
     1  Cl  -0.932037
     2  C   -0.078100
     3  C    0.040539
     4  C   -0.075901
     5  C   -0.033115
     6  C   -0.030966
     7  C   -0.049973
     8  H    0.028714
     9  H    0.030241
    10  H    0.040702
    11  H    0.036940
    12  H    0.039677
    13  C   -0.093055
    14  C    0.015684
    15  H    0.020481
    16  H    0.040687
    17  H    0.036540
    18  O   -0.663181
    19  O   -0.659772
    20  O   -0.654621
    21  O   -0.661449
    22  W    1.734630
    23  W    1.670309
    24  W    1.680261
    25  W    1.690648
    26  W    1.675467
    27  W    1.726960
    28  W    1.621110
    29  W    1.683166
    30  O   -0.321320
    31  O   -0.365751
    32  O   -0.365694
    33  O   -0.362832
    34  O   -0.664405
    35  O   -0.670110
    36  O   -0.661108
    37  O   -0.662818
    38  O   -0.366142
    39  O   -0.365762
    40  O   -0.293284
    41  O   -0.365113
    42  O   -0.669679
    43  O   -0.662610
    44  O   -0.658860
    45  O   -0.665486
    46  O   -0.366243
    47  O   -0.321182
    48  O   -0.354862
    49  O   -0.363704
    50  W    1.671867
    51  W    1.674916
    52  W    1.679203
    53  W    1.683032
    54  O   -0.723252
    55  O   -0.706786
    56  O   -0.726008
    57  O   -0.721391
    58  O   -0.707185
    59  O   -0.725955
    60  O   -0.724571
    61  O   -0.720477
    62  O   -0.724276
    63  O   -0.708664
    64  O   -0.723016
    65  O   -0.726275
    66  O   -0.802117
    67  O   -0.801259
    68  O   -0.799473
    69  O   -0.809509
    70  K    0.866747
    71  K    0.866818
    72  K    0.863232
    73  V    1.190779
 Sum of Mulliken charges =  -1.00000
 Mulliken charges with hydrogens summed into heavy atoms:
               1
     1  Cl  -0.932037
     2  C   -0.049386
     3  C    0.040539
     4  C   -0.045660
     5  C    0.007586
     6  C    0.005974
     7  C   -0.010296
    13  C   -0.072574
    14  C    0.092911
    18  O   -0.663181
    19  O   -0.659772
    20  O   -0.654621
    21  O   -0.661449
    22  W    1.734630
    23  W    1.670309
    24  W    1.680261
    25  W    1.690648
    26  W    1.675467
    27  W    1.726960
    28  W    1.621110
    29  W    1.683166
    30  O   -0.321320
    31  O   -0.365751
    32  O   -0.365694
    33  O   -0.362832
    34  O   -0.664405
    35  O   -0.670110
    36  O   -0.661108
    37  O   -0.662818
    38  O   -0.366142
    39  O   -0.365762
    40  O   -0.293284
    41  O   -0.365113
    42  O   -0.669679
    43  O   -0.662610
    44  O   -0.658860
    45  O   -0.665486
    46  O   -0.366243
    47  O   -0.321182
    48  O   -0.354862
    49  O   -0.363704
    50  W    1.671867
    51  W    1.674916
    52  W    1.679203
    53  W    1.683032
    54  O   -0.723252
    55  O   -0.706786
    56  O   -0.726008
    57  O   -0.721391
    58  O   -0.707185
    59  O   -0.725955
    60  O   -0.724571
    61  O   -0.720477
    62  O   -0.724276
    63  O   -0.708664
    64  O   -0.723016
    65  O   -0.726275
    66  O   -0.802117
    67  O   -0.801259
    68  O   -0.799473
    69  O   -0.809509
    70  K    0.866747
    71  K    0.866818
    72  K    0.863232
    73  V    1.190779
 Electronic spatial extent (au):  <R**2>=         317444.5984
 Charge=             -1.0000 electrons
 Dipole moment (field-independent basis, Debye):
    X=             51.9210    Y=            -51.2317    Z=            -38.4818  Tot=             82.4701
 Quadrupole moment (field-independent basis, Debye-Ang):
   XX=          -1072.4558   YY=           -877.2160   ZZ=           -909.5288
   XY=            458.4956   XZ=            465.0501   YZ=           -476.8946
 Traceless Quadrupole moment (field-independent basis, Debye-Ang):
   XX=           -119.3889   YY=             75.8509   ZZ=             43.5381
   XY=            458.4956   XZ=            465.0501   YZ=           -476.8946
 Octapole moment (field-independent basis, Debye-Ang**2):
  XXX=          13679.8932  YYY=           -979.7538  ZZZ=         -19059.3133  XYY=           6041.2446
  XXY=          -3760.8189  XXZ=          -9583.4696  XZZ=           7396.4456  YZZ=          -4156.9978
  YYZ=          -8914.4602  XYZ=           4839.7927
 Hexadecapole moment (field-independent basis, Debye-Ang**3):
 XXXX=        -162219.5780 YYYY=         -51819.3720 ZZZZ=        -345069.1875 XXXY=          38546.7378
 XXXZ=         125073.6470 YYYX=          20232.9382 YYYZ=         -11681.5993 ZZZX=         128088.0510
 ZZZY=         -35370.7515 XXYY=         -55927.1499 XXZZ=        -109342.1644 YYZZ=         -98298.8570
 XXYZ=         -43349.7137 YYXZ=          61082.5897 ZZXY=          50770.7209
 N-N= 2.099289773230D+04 E-N=-5.907033536042D+04  KE= 6.765170255446D+03
   1 Symmetry operations used in ECPInt.
 ECPInt:  NShTT=  127765 NPrTT=  468030 LenC2=   96781 LenP2D=  221440.
 LDataN:  DoStor=T MaxTD1= 9 Len=  602
 D1PCM: PCM CHGder 1st derivatives, ID1Alg=3 FixD1E=F DoIter=F DoCFld=F I1PDM=0.
 Calling FoFJK, ICntrl=      2127 FMM=T ISym2X=0 I1Cent= 0 IOpClX= 0 NMat=1 NMatS=1 NMatT=0.
 Defaulting to unpruned grid for atomic number  74.
 Defaulting to unpruned grid for atomic number  74.
 Defaulting to unpruned grid for atomic number  74.
 Defaulting to unpruned grid for atomic number  74.
 Defaulting to unpruned grid for atomic number  74.
 Defaulting to unpruned grid for atomic number  74.
 Defaulting to unpruned grid for atomic number  74.
 Defaulting to unpruned grid for atomic number  74.
 Defaulting to unpruned grid for atomic number  74.
 Defaulting to unpruned grid for atomic number  74.
 Defaulting to unpruned grid for atomic number  74.
 Defaulting to unpruned grid for atomic number  74.
 Defaulting to unpruned grid for atomic number  74.
 Defaulting to unpruned grid for atomic number  74.
 Defaulting to unpruned grid for atomic number  74.
 Defaulting to unpruned grid for atomic number  74.
 Defaulting to unpruned grid for atomic number  74.
 Defaulting to unpruned grid for atomic number  74.
 Defaulting to unpruned grid for atomic number  74.
 Defaulting to unpruned grid for atomic number  74.
 Defaulting to unpruned grid for atomic number  74.
 Defaulting to unpruned grid for atomic number  74.
 Defaulting to unpruned grid for atomic number  74.
 Defaulting to unpruned grid for atomic number  74.
 Defaulting to unpruned grid for atomic number  74.
 Defaulting to unpruned grid for atomic number  74.
 Defaulting to unpruned grid for atomic number  74.
 Defaulting to unpruned grid for atomic number  74.
 Defaulting to unpruned grid for atomic number  74.
 Defaulting to unpruned grid for atomic number  74.
 Defaulting to unpruned grid for atomic number  74.
 Defaulting to unpruned grid for atomic number  74.
 Defaulting to unpruned grid for atomic number  74.
 Defaulting to unpruned grid for atomic number  74.
 Defaulting to unpruned grid for atomic number  74.
 Defaulting to unpruned grid for atomic number  74.
 Defaulting to unpruned grid for atomic number  74.
 Defaulting to unpruned grid for atomic number  74.
 Defaulting to unpruned grid for atomic number  74.
 Defaulting to unpruned grid for atomic number  74.
 Defaulting to unpruned grid for atomic number  74.
 Defaulting to unpruned grid for atomic number  74.
 Defaulting to unpruned grid for atomic number  74.
 Defaulting to unpruned grid for atomic number  74.
 Defaulting to unpruned grid for atomic number  74.
 Defaulting to unpruned grid for atomic number  74.
 Defaulting to unpruned grid for atomic number  74.
 Defaulting to unpruned grid for atomic number  74.
 Defaulting to unpruned grid for atomic number  74.
 Defaulting to unpruned grid for atomic number  74.
 Defaulting to unpruned grid for atomic number  74.
 Defaulting to unpruned grid for atomic number  74.
 Defaulting to unpruned grid for atomic number  74.
 Defaulting to unpruned grid for atomic number  74.
 Defaulting to unpruned grid for atomic number  74.
 Defaulting to unpruned grid for atomic number  74.
 -------------------------------------------------------------------
 Center     Atomic                   Forces (Hartrees/Bohr)
 Number     Number              X              Y              Z
 -------------------------------------------------------------------
      1       17          -0.001718245    0.006162004    0.002048542
      2        6          -0.001281790   -0.000609623   -0.001617398
      3        6          -0.000546548   -0.001660740    0.002890551
      4        6           0.001443302    0.001635260    0.000317677
      5        6           0.000416809    0.000102738    0.001458846
      6        6          -0.000420315    0.000060556    0.001014678
      7        6          -0.001106633   -0.001045908    0.000549832
      8        1          -0.000125454    0.000268895    0.000072160
      9        1          -0.000309024    0.000285189    0.000149382
     10        1           0.000015775   -0.000275449   -0.000056804
     11        1           0.000145492   -0.000250571    0.000171133
     12        1           0.000250701   -0.000081989    0.000140282
     13        6           0.009312687    0.009552604   -0.007188216
     14        6          -0.005481159   -0.014285844    0.000481875
     15        1          -0.000609757    0.000190844   -0.000215289
     16        1          -0.001270622    0.001408169    0.000506292
     17        1          -0.001954114    0.001316148    0.000123326
     18        8          -0.003300809    0.000179895    0.001183976
     19        8           0.003470582   -0.000687275    0.001221501
     20        8           0.002397128   -0.003158238   -0.000693842
     21        8          -0.002504644    0.002259349   -0.001171306
     22       74           0.001462258    0.010550968   -0.009794948
     23       74          -0.002310502   -0.009996019   -0.010190750
     24       74           0.006349752    0.008157725    0.009866018
     25       74          -0.006855521   -0.007273285    0.010287547
     26       74           0.008645574   -0.007800514   -0.010876128
     27       74          -0.008721717    0.008529850   -0.010686220
     28       74          -0.011767155    0.003148148    0.010698146
     29       74           0.011311164   -0.002048247    0.010628052
     30        8          -0.001057604   -0.002918152    0.003281211
     31        8           0.000907343    0.002960831    0.003460084
     32        8          -0.001558317   -0.002439382   -0.003405082
     33        8           0.001649625    0.002339230   -0.003304807
     34        8          -0.001156125   -0.001091101    0.003208760
     35        8           0.001591543    0.000301762    0.003281549
     36        8           0.000634518   -0.001755143   -0.003124302
     37        8          -0.000279500    0.001443407   -0.003271958
     38        8          -0.004310146   -0.001919708   -0.000784288
     39        8           0.004624057    0.001725318   -0.000866560
     40        8           0.002460461   -0.006024100    0.000189662
     41        8          -0.001217663    0.004403866    0.000673785
     42        8          -0.002143384   -0.002644725    0.001638980
     43        8           0.002664418    0.002368477    0.001203226
     44        8          -0.000051054   -0.003875675   -0.000901411
     45        8           0.000497420    0.003153781   -0.001433654
     46        8          -0.002753394    0.002161760    0.003113193
     47        8           0.003273649   -0.001788632    0.003115991
     48        8           0.003686333   -0.001245306   -0.003236915
     49        8          -0.003333769    0.001044250   -0.003086675
     50       74           0.014449012    0.005067051    0.003156901
     51       74          -0.014631039   -0.004217596    0.003613493
     52       74          -0.005698903    0.016300394   -0.003511847
     53       74           0.004537909   -0.014547772   -0.003006609
     54        8          -0.000334842    0.001285439    0.002279997
     55        8           0.000581524   -0.001544565    0.002361068
     56        8           0.001576825   -0.000146629   -0.002340766
     57        8          -0.001230563   -0.000783144   -0.002329678
     58        8           0.000212676   -0.002156263    0.000643192
     59        8           0.000472972    0.002306019    0.001463051
     60        8          -0.001416545   -0.001930151   -0.001530608
     61        8           0.001860134    0.001485392   -0.001444414
     62        8          -0.001271926    0.001761867    0.000792256
     63        8           0.001125680   -0.002381584    0.000267116
     64        8           0.002378633   -0.000305242   -0.000994276
     65        8          -0.002330906   -0.000258291   -0.000732006
     66        8          -0.026459782   -0.005053829    0.017344778
     67        8           0.026980158    0.005594557    0.017231822
     68        8           0.011332867   -0.025706858   -0.017503174
     69        8          -0.011239301    0.024217626   -0.017626582
     70       19           0.000229030   -0.000460074   -0.000411748
     71       19           0.000579624    0.000131815    0.000275970
     72       19          -0.000488580    0.000169421    0.000289913
     73       23          -0.000280279    0.000337014    0.000642442
 -------------------------------------------------------------------
 Cartesian Forces:  Max     0.026980158 RMS     0.006111224

 GradGradGradGradGradGradGradGradGradGradGradGradGradGradGradGradGradGrad
 Berny optimization.
 Search for a local minimum.
 Step number   1 out of a maximum of    2
 All quantities printed in internal units (Hartrees-Bohrs-Radians)
 Second derivative matrix not updated -- first step.
 ITU=  0
     Eigenvalues ---    0.00000   0.00000   0.00000   0.00010   0.00091
     Eigenvalues ---    0.00093   0.00257   0.00568   0.00617   0.01645
     Eigenvalues ---    0.01983   0.02899   0.02944   0.03202   0.03397
     Eigenvalues ---    0.03442   0.03717   0.03724   0.04146   0.04503
     Eigenvalues ---    0.04584   0.04595   0.04607   0.04816   0.04835
     Eigenvalues ---    0.04999   0.05342   0.05544   0.05565   0.06347
     Eigenvalues ---    0.06393   0.06523   0.06784   0.06863   0.07048
     Eigenvalues ---    0.07313   0.07362   0.07610   0.08313   0.08388
     Eigenvalues ---    0.08700   0.08720   0.08898   0.08948   0.09744
     Eigenvalues ---    0.09891   0.10065   0.10354   0.10408   0.10468
     Eigenvalues ---    0.10817   0.10867   0.11499   0.11581   0.11970
     Eigenvalues ---    0.11993   0.12076   0.12442   0.12563   0.12622
     Eigenvalues ---    0.12658   0.12694   0.12860   0.12919   0.13031
     Eigenvalues ---    0.13856   0.13909   0.14220   0.14487   0.14735
     Eigenvalues ---    0.16760   0.16779   0.16989   0.17162   0.17547
     Eigenvalues ---    0.17657   0.18524   0.19692   0.19857   0.20233
     Eigenvalues ---    0.20757   0.21009   0.21711   0.21826   0.22031
     Eigenvalues ---    0.22317   0.22994   0.23294   0.23832   0.23849
     Eigenvalues ---    0.24537   0.24653   0.24796   0.25680   0.25920
     Eigenvalues ---    0.26120   0.26314   0.27485   0.27561   0.27773
     Eigenvalues ---    0.28232   0.28266   0.28712   0.29441   0.30025
     Eigenvalues ---    0.30471   0.30528   0.30570   0.30594   0.30639
     Eigenvalues ---    0.30774   0.31149   0.31287   0.31417   0.32045
     Eigenvalues ---    0.32336   0.32371   0.32578   0.32868   0.33404
     Eigenvalues ---    0.33481   0.35243   0.35413   0.35759   0.36790
     Eigenvalues ---    0.37340   0.37481   0.37546   0.37998   0.38329
     Eigenvalues ---    0.38689   0.39018   0.40109   0.40114   0.41041
     Eigenvalues ---    0.42092   0.42205   0.43572   0.43840   0.44988
     Eigenvalues ---    0.45158   0.45419   0.45772   0.47277   0.47978
     Eigenvalues ---    0.48261   0.48460   0.48627   0.49308   0.49437
     Eigenvalues ---    0.49752   0.50478   0.51362   0.51416   0.51934
     Eigenvalues ---    0.52837   0.53357   0.55259   0.58678   0.64421
     Eigenvalues ---    0.67559   0.76809   0.81601   0.82863   0.96796
     Eigenvalues ---    0.97256   0.98700   0.99567   1.02007   1.04431
     Eigenvalues ---    1.07313   1.11245   1.11913   1.12288   1.15531
     Eigenvalues ---    1.19040   1.19575   1.20609   1.22300   1.22768
     Eigenvalues ---    1.23093   1.25747   1.26475   1.26711   1.27256
     Eigenvalues ---    1.27618   1.28955   1.29370   1.45012   1.45825
     Eigenvalues ---    1.45926   1.48308   1.51221   1.51831   1.51993
     Eigenvalues ---    1.52519   1.55499   1.55698   1.56272   1.58150
     Eigenvalues ---    1.58381   1.59690   1.61407   1.65097   1.66032
     Eigenvalues ---    1.72458   1.76833   1.82153   1.82487   1.85841
     Eigenvalues ---    1.94164   1.96806   2.98662
 Eigenvalue     1 is   2.22D-16 Eigenvector:
                          Y16       Y14       Y15       Y17       Y13
   1                    0.17497   0.17497   0.17497   0.17497   0.17497
                          Y9        Y3        Y8        Y4        Y2
   1                    0.17497   0.17497   0.17497   0.17497   0.17497
 Eigenvalue     2 is   3.07D-07 Eigenvector:
                          Y16       X16       X11       Y11       Y14
   1                    0.33813  -0.26443   0.26193  -0.25065   0.24839
                          Y15       Y17       Y13       X14       X6
   1                    0.23283   0.21304   0.18991  -0.18790   0.18308
 Eigenvalue     3 is   2.91D-06 Eigenvector:
                          X9        X10       Y12       Y9        X12
   1                    0.33233   0.28785   0.28104  -0.25915  -0.25712
                          Y8        Y10       X15       X8        X4
   1                    0.24898  -0.22736   0.22052  -0.21483   0.20161
 Quadratic step=1.241D+01 exceeds max=3.000D-01 adjusted using Lamda=-6.513D-03.
 Angle between NR and scaled steps=  47.49 degrees.
 Angle between quadratic step and forces=  66.10 degrees.
 Linear search not attempted -- first point.
 B after Tr=     0.004725    0.002989    0.002286
         Rot=    1.000000   -0.000181    0.000076    0.000271 Ang=  -0.04 deg.
 Variable       Old X    -DE/DX   Delta X   Delta X   Delta X     New X
                                 (Linear)    (Quad)   (Total)
    X1      -18.81310  -0.00172   0.00000  -0.00165   0.00828 -18.80483
    Y1       15.17446   0.00616   0.00000   0.00626   0.01227  15.18673
    Z1       19.84939   0.00205   0.00000   0.00221   0.00711  19.85650
    X2      -15.71205  -0.00128   0.00000  -0.01159  -0.00606 -15.71811
    Y2        8.00704  -0.00061   0.00000  -0.01475  -0.01159   7.99545
    Z2       23.11259  -0.00162   0.00000  -0.00963  -0.00685  23.10574
    X3      -17.16419  -0.00055   0.00000   0.00443   0.00995 -17.15424
    Y3        7.40028  -0.00166   0.00000  -0.03965  -0.03494   7.36534
    Z3       20.97044   0.00289   0.00000  -0.01177  -0.00944  20.96101
    X4      -18.92247   0.00144   0.00000  -0.00636  -0.00194 -18.92441
    Y4        5.41661   0.00164   0.00000  -0.02129  -0.01570   5.40090
    Z4       21.16621   0.00032   0.00000   0.02041   0.02176  21.18797
    X5      -19.25812   0.00042   0.00000  -0.01117  -0.00779 -19.26591
    Y5        4.12098   0.00010   0.00000  -0.00152   0.00343   4.12441
    Z5       23.42851   0.00146   0.00000   0.03391   0.03475  23.46326
    X6      -17.82501  -0.00042   0.00000  -0.01249  -0.00907 -17.83408
    Y6        4.76760   0.00006   0.00000   0.00863   0.01205   4.77964
    Z6       25.54528   0.00101   0.00000   0.03000   0.03129  25.57657
    X7      -16.04054  -0.00111   0.00000  -0.01468  -0.01019 -16.05073
    Y7        6.70410  -0.00105   0.00000   0.00669   0.00921   6.71332
    Z7       25.37218   0.00055   0.00000   0.00683   0.00909  25.38127
    X8      -14.30686  -0.00013   0.00000  -0.01351  -0.00714 -14.31401
    Y8        9.51519   0.00027   0.00000  -0.01250  -0.01006   9.50513
    Z8       23.01410   0.00007   0.00000  -0.01742  -0.01388  23.00022
    X9      -20.03393  -0.00031   0.00000  -0.01534  -0.01095 -20.04488
    Y9        4.89353   0.00029   0.00000  -0.02670  -0.01990   4.87363
    Z9       19.50354   0.00015   0.00000   0.02813   0.02912  19.53266
   X10      -20.64223   0.00002   0.00000  -0.01201  -0.00947 -20.65170
   Y10        2.59311  -0.00028   0.00000  -0.00067   0.00499   2.59810
   Z10       23.54424  -0.00006   0.00000   0.04025   0.04032  23.58456
   X11      -18.08392   0.00015   0.00000  -0.00573  -0.00313 -18.08705
   Y11        3.75340  -0.00025   0.00000   0.01590   0.01881   3.77221
   Z11       27.32355   0.00017   0.00000   0.03549   0.03638  27.35992
   X12      -14.90358   0.00025   0.00000  -0.00935  -0.00483 -14.90841
   Y12        7.20966  -0.00008   0.00000   0.01882   0.02013   7.22979
   Z12       27.02054   0.00014   0.00000   0.00038   0.00300  27.02354
   X13      -16.92654   0.00931   0.00000   0.02296   0.02956 -16.89698
   Y13        8.75108   0.00955   0.00000  -0.08348  -0.07802   8.67305
   Z13       18.56816  -0.00719   0.00000  -0.04829  -0.04545  18.52271
   X14      -15.41040  -0.00548   0.00000  -0.02295  -0.01519 -15.42560
   Y14       10.73809  -0.01429   0.00000  -0.07978  -0.07494  10.66314
   Z14       18.09349   0.00048   0.00000  -0.05333  -0.04955  18.04394
   X15      -18.13480  -0.00061   0.00000   0.02456   0.03100 -18.10380
   Y15        8.04699   0.00019   0.00000  -0.10055  -0.09389   7.95310
   Z15       17.04217  -0.00022   0.00000  -0.04201  -0.03961  17.00257
   X16      -15.33147  -0.00127   0.00000  -0.05282  -0.04432 -15.37578
   Y16       11.56842   0.00141   0.00000  -0.05486  -0.04938  11.51905
   Z16       16.20741   0.00051   0.00000  -0.04342  -0.03932  16.16809
   X17      -14.08964  -0.00195   0.00000  -0.08289  -0.07490 -14.16455
   Y17       11.49587   0.00132   0.00000  -0.00989  -0.00625  11.48962
   Z17       19.48722   0.00012   0.00000  -0.03506  -0.03078  19.45644
   X18       -1.89527  -0.00330   0.00000  -0.01594  -0.01517  -1.91044
   Y18       -3.33573   0.00018   0.00000  -0.00749  -0.00856  -3.34429
   Z18       14.09269   0.00118   0.00000   0.01218   0.01297  14.10566
   X19      -15.89784   0.00347   0.00000   0.01825   0.01947 -15.87837
   Y19       -2.51320  -0.00069   0.00000   0.01635   0.02284  -2.49035
   Z19       14.09940   0.00122   0.00000   0.01381   0.01277  14.11217
   X20      -13.32010   0.00240   0.00000   0.01643   0.01951 -13.30059
   Y20        2.54530  -0.00316   0.00000  -0.00808  -0.00504   2.54026
   Z20       19.81553  -0.00069   0.00000  -0.00726  -0.00609  19.80944
   X21       -4.40629  -0.00250   0.00000  -0.01328  -0.01606  -4.42235
   Y21       -8.23893   0.00226   0.00000   0.01045   0.00863  -8.23029
   Z21       19.95558  -0.00117   0.00000  -0.01271  -0.01407  19.94151
   X22       -6.46020   0.00146   0.00000  -0.00283   0.00078  -6.45942
   Y22        1.37439   0.01055   0.00000   0.01736   0.01943   1.39382
   Z22       12.25951  -0.00979   0.00000  -0.00600  -0.00420  12.25532
   X23      -11.35543  -0.00231   0.00000   0.00605   0.00497 -11.35046
   Y23       -7.23154  -0.01000   0.00000  -0.00134   0.00331  -7.22823
   Z23       12.43170  -0.01019   0.00000  -0.00548  -0.00754  12.42416
   X24       -6.86000   0.00635   0.00000   0.02272   0.02509  -6.83491
   Y24        1.72146   0.00816   0.00000  -0.00268  -0.00378   1.71768
   Z24       21.56876   0.00987   0.00000   0.00694   0.00881  21.57756
   X25      -10.91506  -0.00686   0.00000  -0.01817  -0.02070 -10.93576
   Y25       -7.30270  -0.00727   0.00000   0.00596   0.00704  -7.29566
   Z25       21.67915   0.01029   0.00000   0.00571   0.00369  21.68285
   X26       -4.65697   0.00865   0.00000  -0.00226  -0.00200  -4.65897
   Y26       -4.82892  -0.00780   0.00000  -0.01272  -0.01157  -4.84049
   Z26       12.07035  -0.01088   0.00000  -0.00637  -0.00655  12.06380
   X27      -13.12158  -0.00872   0.00000   0.00143   0.00379 -13.11778
   Y27       -1.01700   0.00853   0.00000   0.02813   0.03390  -0.98310
   Z27       12.01215  -0.01069   0.00000  -0.00694  -0.00701  12.00514
   X28      -12.89755  -0.01177   0.00000  -0.00526  -0.00413 -12.90168
   Y28       -0.47017   0.00315   0.00000  -0.00185   0.00022  -0.46994
   Z28       21.88702   0.01070   0.00000   0.00908   0.00923  21.89625
   X29       -4.85626   0.01131   0.00000   0.01088   0.00950  -4.84677
   Y29       -5.10146  -0.00205   0.00000   0.00554   0.00322  -5.09824
   Z29       21.96280   0.01063   0.00000   0.00561   0.00531  21.96811
   X30       -6.01621  -0.00106   0.00000   0.01261   0.01777  -5.99844
   Y30        3.63550  -0.00292   0.00000   0.00750   0.01011   3.64561
   Z30       10.05302   0.00328   0.00000  -0.00103   0.00166  10.05467
   X31      -11.62109   0.00091   0.00000  -0.00684  -0.00887 -11.62996
   Y31       -9.58965   0.00296   0.00000   0.00557   0.01115  -9.57850
   Z31       10.26913   0.00346   0.00000   0.00036  -0.00258  10.26655
   X32       -5.13860  -0.00156   0.00000   0.01510   0.01801  -5.12059
   Y32        3.33499  -0.00244   0.00000  -0.00070  -0.00351   3.33147
   Z32       23.74699  -0.00341   0.00000   0.00009   0.00280  23.74979
   X33      -12.62008   0.00165   0.00000  -0.00971  -0.01342 -12.63350
   Y33       -8.84976   0.00234   0.00000   0.00346   0.00465  -8.84511
   Z33       23.91606  -0.00330   0.00000  -0.00051  -0.00334  23.91271
   X34       -5.07628  -0.00116   0.00000  -0.01033  -0.00812  -5.08440
   Y34       -1.65555  -0.00109   0.00000  -0.00365  -0.00172  -1.65727
   Z34       10.55153   0.00321   0.00000   0.01319   0.01410  10.56563
   X35      -12.69538   0.00159   0.00000   0.01351   0.01430 -12.68108
   Y35       -4.29257   0.00030   0.00000   0.01737   0.02339  -4.26918
   Z35       10.63220   0.00328   0.00000   0.01353   0.01234  10.64453
   X36      -10.05753   0.00063   0.00000   0.01260   0.01434 -10.04319
   Y36        1.07009  -0.00176   0.00000  -0.01372  -0.01372   1.05637
   Z36       23.36890  -0.00312   0.00000  -0.00821  -0.00707  23.36183
   X37       -7.67700  -0.00028   0.00000  -0.00525  -0.00769  -7.68469
   Y37       -6.64504   0.00144   0.00000   0.01376   0.01244  -6.63260
   Z37       23.45083  -0.00327   0.00000  -0.01200  -0.01328  23.43755
   X38        0.55729  -0.00431   0.00000   0.00933   0.01138   0.56867
   Y38        0.00383  -0.00192   0.00000  -0.01350  -0.01714  -0.01331
   Z38       17.51569  -0.00078   0.00000   0.00129   0.00366  17.51935
   X39      -18.36097   0.00462   0.00000  -0.00474  -0.00579 -18.36675
   Y39       -5.71353   0.00173   0.00000   0.01993   0.02651  -5.68702
   Z39       17.61522  -0.00087   0.00000   0.00221  -0.00036  17.61485
   X40      -12.05727   0.00246   0.00000   0.01923   0.02496 -12.03231
   Y40        6.45901  -0.00602   0.00000   0.01219   0.01580   6.47480
   Z40       16.35369   0.00019   0.00000  -0.00069   0.00210  16.35579
   X41       -5.62172  -0.00122   0.00000  -0.00539  -0.00980  -5.63152
   Y41      -12.20395   0.00440   0.00000  -0.00104  -0.00098 -12.20493
   Z41       16.55259   0.00067   0.00000  -0.00414  -0.00712  16.54547
   X42       -3.40562  -0.00214   0.00000  -0.00949  -0.00613  -3.41175
   Y42        1.46733  -0.00264   0.00000  -0.00679  -0.00706   1.46027
   Z42       14.12927   0.00164   0.00000   0.01402   0.01631  14.14558
   X43      -14.38732   0.00266   0.00000   0.01339   0.01197 -14.37534
   Y43       -7.32956   0.00237   0.00000   0.01756   0.02317  -7.30638
   Z43       14.27514   0.00120   0.00000   0.01171   0.00917  14.28430
   X44       -8.55550  -0.00005   0.00000   0.01649   0.02047  -8.53502
   Y44        4.19513  -0.00388   0.00000  -0.01605  -0.01556   4.17958
   Z44       19.71311  -0.00090   0.00000  -0.00656  -0.00406  19.70904
   X45       -9.19323   0.00050   0.00000  -0.01358  -0.01721  -9.21044
   Y45       -9.85519   0.00315   0.00000   0.01796   0.01876  -9.83643
   Z45       19.88953  -0.00143   0.00000  -0.01339  -0.01606  19.87347
   X46       -3.07344  -0.00275   0.00000  -0.00346  -0.00381  -3.07725
   Y46       -6.58172   0.00216   0.00000  -0.00160  -0.00052  -6.58224
   Z46        9.89404   0.00311   0.00000  -0.00380  -0.00436   9.88968
   X47      -14.80881   0.00327   0.00000   0.00230   0.00581 -14.80300
   Y47        0.49007  -0.00179   0.00000   0.01636   0.02385   0.51392
   Z47        9.76248   0.00312   0.00000  -0.00302  -0.00280   9.75967
   X48      -15.19413   0.00369   0.00000   0.00363   0.00453 -15.18960
   Y48       -0.29714  -0.00125   0.00000   0.00602   0.00852  -0.28862
   Z48       24.11850  -0.00324   0.00000   0.00544   0.00530  24.12380
   X49       -2.52234  -0.00333   0.00000   0.00241   0.00055  -2.52179
   Y49       -5.34784   0.00104   0.00000  -0.00445  -0.00882  -5.35666
   Z49       24.15383  -0.00309   0.00000   0.00171   0.00167  24.15550
   X50       -2.39148   0.01445   0.00000   0.01081   0.01245  -2.37903
   Y50       -0.97662   0.00507   0.00000  -0.00058  -0.00234  -0.97896
   Z50       16.70418   0.00316   0.00000   0.01371   0.01528  16.71945
   X51      -15.41313  -0.01463   0.00000  -0.00721  -0.00761 -15.42075
   Y51       -4.75392  -0.00422   0.00000   0.00952   0.01480  -4.73912
   Z51       16.77393   0.00361   0.00000   0.01506   0.01329  16.78722
   X52      -11.17322  -0.00570   0.00000   0.00734   0.01136 -11.16186
   Y52        3.49473   0.01630   0.00000   0.01818   0.02104   3.51577
   Z52       17.09805  -0.00351   0.00000  -0.01145  -0.00959  17.08845
   X53       -6.56473   0.00454   0.00000  -0.00584  -0.00876  -6.57349
   Y53       -9.23378  -0.01455   0.00000  -0.00735  -0.00706  -9.24084
   Z53       17.32885  -0.00301   0.00000  -0.01476  -0.01681  17.31204
   X54       -8.00300  -0.00033   0.00000   0.00116   0.00096  -8.00204
   Y54       -5.84552   0.00129   0.00000  -0.00721  -0.00402  -5.84954
   Z54       11.46762   0.00228   0.00000  -0.00708  -0.00813  11.45948
   X55       -9.77255   0.00058   0.00000  -0.00061   0.00236  -9.77019
   Y55       -0.07123  -0.00154   0.00000   0.02372   0.02791  -0.04332
   Z55       11.35155   0.00236   0.00000  -0.00592  -0.00514  11.34641
   X56      -11.68063   0.00158   0.00000  -0.01058  -0.01133 -11.69196
   Y56       -3.77523  -0.00015   0.00000  -0.00013   0.00105  -3.77418
   Z56       22.52603  -0.00234   0.00000   0.00782   0.00696  22.53299
   X57       -6.01624  -0.00123   0.00000   0.01669   0.01699  -5.99924
   Y57       -1.80486  -0.00078   0.00000   0.00205   0.00014  -1.80472
   Z57       22.55579  -0.00233   0.00000   0.00677   0.00748  22.56328
   X58       -8.27475   0.00021   0.00000   0.00217   0.00627  -8.26848
   Y58        2.99164  -0.00216   0.00000   0.01912   0.02124   3.01288
   Z58       14.83178   0.00064   0.00000  -0.01025  -0.00814  14.82364
   X59       -9.46274   0.00047   0.00000   0.00047  -0.00187  -9.46461
   Y59       -8.83429   0.00231   0.00000  -0.00482  -0.00210  -8.83639
   Z59       14.97635   0.00146   0.00000  -0.00890  -0.01125  14.96510
   X60       -4.42311  -0.00142   0.00000   0.01940   0.02183  -4.40128
   Y60        1.13019  -0.00193   0.00000  -0.00229  -0.00381   1.12639
   Z60       19.05132  -0.00153   0.00000   0.00884   0.01086  19.06219
   X61      -13.35177   0.00186   0.00000  -0.01474  -0.01663 -13.36840
   Y61       -6.82466   0.00149   0.00000   0.00789   0.01120  -6.81345
   Z61       19.15848  -0.00144   0.00000   0.00848   0.00626  19.16474
   X62       -4.87304  -0.00127   0.00000  -0.00350  -0.00501  -4.87805
   Y62       -7.32183   0.00176   0.00000  -0.01009  -0.00982  -7.33165
   Z62       14.85819   0.00079   0.00000  -0.01080  -0.01190  14.84628
   X63      -12.91550   0.00113   0.00000   0.00345   0.00675 -12.90875
   Y63        1.48020  -0.00238   0.00000   0.02343   0.02809   1.50829
   Z63       14.75335   0.00027   0.00000  -0.01113  -0.01027  14.74308
   X64      -14.81675   0.00238   0.00000  -0.00594  -0.00533 -14.82209
   Y64       -2.21654  -0.00031   0.00000   0.00563   0.00971  -2.20683
   Z64       19.18461  -0.00099   0.00000   0.01238   0.01161  19.19622
   X65       -2.97837  -0.00233   0.00000   0.01016   0.01008  -2.96829
   Y65       -3.47951  -0.00026   0.00000  -0.00011  -0.00244  -3.48194
   Z65       19.17222  -0.00073   0.00000   0.00946   0.01003  19.18225
   X66       -6.38499  -0.02646   0.00000  -0.04635  -0.04510  -6.43009
   Y66       -2.14406  -0.00505   0.00000  -0.00492  -0.00393  -2.14799
   Z66       15.13436   0.01734   0.00000   0.03016   0.03069  15.16504
   X67      -11.40210   0.02698   0.00000   0.04761   0.04802 -11.35408
   Y67       -3.68644   0.00559   0.00000   0.01848   0.02212  -3.66432
   Z67       15.18770   0.01723   0.00000   0.03079   0.03002  15.21772
   X68       -9.69589   0.01133   0.00000   0.02570   0.02734  -9.66854
   Y68       -0.37149  -0.02571   0.00000  -0.03945  -0.03800  -0.40949
   Z68       18.80673  -0.01750   0.00000  -0.02873  -0.02807  18.77867
   X69       -8.02860  -0.01124   0.00000  -0.02285  -0.02386  -8.05246
   Y69       -5.34052   0.02422   0.00000   0.04377   0.04432  -5.29620
   Z69       18.85882  -0.01763   0.00000  -0.02974  -0.03060  18.82822
   X70       -6.09791   0.00023   0.00000  -0.00389  -0.00707  -6.10498
   Y70      -11.58976  -0.00046   0.00000  -0.00601  -0.00357 -11.59333
   Z70       10.68617  -0.00041   0.00000  -0.00921  -0.01205  10.67413
   X71       -0.24866   0.00058   0.00000   0.01609   0.01730  -0.23136
   Y71        0.09273   0.00013   0.00000  -0.00374  -0.00906   0.08367
   Z71       23.35276   0.00028   0.00000   0.00652   0.00880  23.36155
   X72      -17.54209  -0.00049   0.00000  -0.01063  -0.01247 -17.55456
   Y72       -5.50989   0.00017   0.00000   0.00908   0.01310  -5.49679
   Z72       23.48103   0.00029   0.00000   0.00818   0.00581  23.48684
   X73       -8.88370  -0.00028   0.00000   0.00066   0.00123  -8.88246
   Y73       -2.87837   0.00034   0.00000   0.00455   0.00621  -2.87215
   Z73       16.99061   0.00064   0.00000   0.00161   0.00150  16.99211
         Item               Value     Threshold  Converged?
 Maximum Force            0.026980     0.000450     NO 
 RMS     Force            0.006111     0.000300     NO 
 Maximum Displacement     0.093886     0.001800     NO 
 RMS     Displacement     0.020034     0.001200     NO 
 Predicted change in Energy=-5.675520D-03
 GradGradGradGradGradGradGradGradGradGradGradGradGradGradGradGradGradGrad

 Unable to Open any file for archive entry.
 1\1\GINC-X11P1N2\Force\RwB97XD\def2SVP\C8H8Cl1K3O40V1W12(1-)\MAYUMIAO\
 02-Jun-2024\0\\# def2svp wb97xd scrf=(smd,solvent=acetonitrile) g09def
 ault scf=(xqc,maxcycle=64) force guess=read nosymm\\Title Card\\-1,1\C
 l,-9.95546571,8.02997682,10.5038449\C,-8.31445837,4.23714278,12.230657
 39\C,-9.08289652,3.9160583,11.09708014\C,-10.01333845,2.86634448,11.20
 067661\C,-10.19095731,2.18072809,12.39783549\C,-9.43258688,2.52290274,
 13.51798011\C,-8.4882906,3.54765883,13.42637842\H,-7.57086679,5.035222
 75,12.1785393\H,-10.60150118,2.58954346,10.32083113\H,-10.92339542,1.3
 7221359,12.45907341\H,-9.56959728,1.98621204,14.45899752\H,-7.88663676
 ,3.81518723,14.29865396\C,-8.95714095,4.63087066,9.82584676\C,-8.15483
 375,5.68235157,9.57466078\H,-9.59652424,4.25828354,9.0183305\H,-8.1130
 6196,6.12174553,8.57659041\H,-7.45591758,6.08334981,10.31219032\O,-1.0
 0293145,-1.7651917,7.45753162\O,-8.41277483,-1.32992583,7.46108125\O,-
 7.04869149,1.34691481,10.48592624\O,-2.33170775,-4.35985197,10.5600400
 3\W,-3.41859059,0.72729527,6.48745528\W,-6.00903416,-3.82676433,6.5785
 7326\W,-3.63015643,0.91095975,11.41369414\W,-5.77599872,-3.86442297,11
 .47211328\W,-2.46436069,-2.55535497,6.38735494\W,-6.94363991,-0.538173
 78,6.35655636\W,-6.82508713,-0.24880101,11.58211296\W,-2.5698243,-2.69
 957589,11.62221435\O,-3.18364005,1.92382339,5.31982732\O,-6.14961468,-
 5.07462407,5.43418979\O,-2.71922948,1.76479819,12.566366\O,-6.67825773
 ,-4.68309322,12.65583186\O,-2.68625393,-0.87607821,5.58362997\O,-6.718
 10474,-2.27153011,5.62631614\O,-5.32221569,0.5662698,12.36628811\O,-4.
 06249082,-3.51640509,12.40964411\O,0.29490498,0.00202824,9.26890142\O,
 -9.71620463,-3.02347188,9.32157122\O,-6.38043389,3.41795916,8.65400201
 \O,-2.97488487,-6.45805066,8.75925584\O,-1.80217791,0.77648023,7.47688
 759\O,-7.61344145,-3.87863514,7.55407639\O,-4.52737309,2.21996803,10.4
 3172687\O,-4.8648468,-5.21514334,10.52508532\O,-1.62639336,-3.4828971,
 5.23569915\O,-7.83648232,0.25933553,5.16607942\O,-8.0403859,-0.1572401
 2,12.76295804\O,-1.33476555,-2.82995577,12.78165582\W,-1.26551632,-0.5
 168051,8.83946916\W,-8.15627766,-2.51566855,8.87638315\W,-5.91261567,1
 .8493302,9.04789603\W,-3.47390528,-4.88630615,9.17003077\O,-4.23500632
 ,-3.09331483,6.06840056\O,-5.17140932,-0.03769181,6.00698098\O,-6.1811
 2409,-1.99776654,11.92026081\O,-3.18365544,-0.95509232,11.93601212\O,-
 4.37880909,1.58310741,7.84863929\O,-5.0074683,-4.67490518,7.92514179\O
 ,-2.34060774,0.59807101,10.08152611\O,-7.06545263,-3.61145201,10.13822
 936\O,-2.57870219,-3.87454626,7.86261368\O,-6.83458984,0.78328769,7.80
 713568\O,-7.8406884,-1.17294216,10.15205887\O,-1.57608671,-1.84127641,
 10.14550215\O,-3.37879288,-1.13458873,8.00875652\O,-6.03373141,-1.9507
 8208,8.03698225\O,-5.1308436,-0.19658274,9.95209347\O,-4.24855042,-2.8
 2607887,9.97965745\K,-3.22687463,-6.13303889,5.65487953\K,-0.13158609,
 0.04907031,12.35774603\K,-9.28287542,-2.91570898,12.4256261\V,-4.70104
 948,-1.52316548,8.99104295\\Version=ES64L-G16RevC.01\HF=-7327.7004631\
 RMSD=2.844e-09\RMSF=6.111e-03\Dipole=10.6434632,-21.9350516,2.5559832\
 Quadrupole=-88.7627337,56.3932567,32.369477,340.8802436,345.7533461,-3
 54.5594719\PG=C01 [X(C8H8Cl1K3O40V1W12)]\\@
 The archive entry for this job was punched.


          EVOLUTION
 IN THE BEGINNING GOD MADE MAN.
 HE WORKED THE DIRT WITH HIS HANDS.
 THEN GOD DECIDED TO GIVE MAN SCIENCE,
 MAN SHOULD BE USEFUL (LIKE AN APPLIANCE.)
 BUT SOON MAN'S KNOWLEDGE GREW TOO GREAT,
 TO THE HEADING SCIENCE HE COULDN'T RELATE
 SO GOD SAID "LETS HAVE DIFFERENT FIELDS,
 WE'LL DIVIDE THEM UP, SEE WHAT IT YIELDS."
 ENTER PHYSICS, CHEMISTRY, BIO
 THEY SPRANG UP AROUND THE NILE.
 BUT CHEMISTRY SURPASSED THE REST
 FAR AND AWAY IT WAS THE BEST.
 EXPERIMENT WAS GOD'S DECREE
 EXPERIMENT DID CHEMISTS WITH LOTS OF GLEE
 BUT SOON THEIR TESTS BEGAN TO BOG,
 THEY FOUND THEMSELVES DEEP IN A FOG.
 "GIVE US SOME HELP" THEY CRIED TO GOD.
 GOD LOOKED AROUND, THEN GAVE THE NOD.
 ENTER EINSTEIN, HEISENBERG, BOHR,
 REACTION PATHS WERE CLEAR ONCE MORE.
 WITH THEORISTS GOD SEND DIRECTION
 AND THEN HE STOPPED, HE'D MADE PERFECTION.
          -- THOMAS A. HOLME, 1981
 Job cpu time:       0 days  9 hours 35 minutes 56.8 seconds.
 Elapsed time:       0 days  0 hours 10 minutes 54.8 seconds.
 File lengths (MBytes):  RWF=   1254 Int=      0 D2E=      0 Chk=    249 Scr=      1
 Normal termination of Gaussian 16 at Sun Jun  2 03:40:15 2024.
