 Entering Gaussian System, Link 0=g16
 Input=JOBS/28_A.gjf
 Output=JOBS/28_A.log
 Initial command:
 /data/app/gaussian/C01-avx2//g16/l1.exe "/tmp/Gau-630864.inp" -scrdir="/tmp/"
 Entering Link 1 = /data/app/gaussian/C01-avx2//g16/l1.exe PID=    630865.
  
 Copyright (c) 1988-2019, Gaussian, Inc.  All Rights Reserved.
  
 This is part of the Gaussian(R) 16 program.  It is based on
 the Gaussian(R) 09 system (copyright 2009, Gaussian, Inc.),
 the Gaussian(R) 03 system (copyright 2003, Gaussian, Inc.),
 the Gaussian(R) 98 system (copyright 1998, Gaussian, Inc.),
 the Gaussian(R) 94 system (copyright 1995, Gaussian, Inc.),
 the Gaussian 92(TM) system (copyright 1992, Gaussian, Inc.),
 the Gaussian 90(TM) system (copyright 1990, Gaussian, Inc.),
 the Gaussian 88(TM) system (copyright 1988, Gaussian, Inc.),
 the Gaussian 86(TM) system (copyright 1986, Carnegie Mellon
 University), and the Gaussian 82(TM) system (copyright 1983,
 Carnegie Mellon University). Gaussian is a federally registered
 trademark of Gaussian, Inc.
  
 This software contains proprietary and confidential information,
 including trade secrets, belonging to Gaussian, Inc.
  
 This software is provided under written license and may be
 used, copied, transmitted, or stored only in accord with that
 written license.
  
 The following legend is applicable only to US Government
 contracts under FAR:
  
                    RESTRICTED RIGHTS LEGEND
  
 Use, reproduction and disclosure by the US Government is
 subject to restrictions as set forth in subparagraphs (a)
 and (c) of the Commercial Computer Software - Restricted
 Rights clause in FAR 52.227-19.
  
 Gaussian, Inc.
 340 Quinnipiac St., Bldg. 40, Wallingford CT 06492
  
  
 ---------------------------------------------------------------
 Warning -- This program may not be used in any manner that
 competes with the business of Gaussian, Inc. or will provide
 assistance to any competitor of Gaussian, Inc.  The licensee
 of this program is prohibited from giving any competitor of
 Gaussian, Inc. access to this program.  By using this program,
 the user acknowledges that Gaussian, Inc. is engaged in the
 business of creating and licensing software in the field of
 computational chemistry and represents and warrants to the
 licensee that it is not a competitor of Gaussian, Inc. and that
 it will not use this program in any manner prohibited above.
 ---------------------------------------------------------------
  

 Cite this work as:
 Gaussian 16, Revision C.01,
 M. J. Frisch, G. W. Trucks, H. B. Schlegel, G. E. Scuseria, 
 M. A. Robb, J. R. Cheeseman, G. Scalmani, V. Barone, 
 G. A. Petersson, H. Nakatsuji, X. Li, M. Caricato, A. V. Marenich, 
 J. Bloino, B. G. Janesko, R. Gomperts, B. Mennucci, H. P. Hratchian, 
 J. V. Ortiz, A. F. Izmaylov, J. L. Sonnenberg, D. Williams-Young, 
 F. Ding, F. Lipparini, F. Egidi, J. Goings, B. Peng, A. Petrone, 
 T. Henderson, D. Ranasinghe, V. G. Zakrzewski, J. Gao, N. Rega, 
 G. Zheng, W. Liang, M. Hada, M. Ehara, K. Toyota, R. Fukuda, 
 J. Hasegawa, M. Ishida, T. Nakajima, Y. Honda, O. Kitao, H. Nakai, 
 T. Vreven, K. Throssell, J. A. Montgomery, Jr., J. E. Peralta, 
 F. Ogliaro, M. J. Bearpark, J. J. Heyd, E. N. Brothers, K. N. Kudin, 
 V. N. Staroverov, T. A. Keith, R. Kobayashi, J. Normand, 
 K. Raghavachari, A. P. Rendell, J. C. Burant, S. S. Iyengar, 
 J. Tomasi, M. Cossi, J. M. Millam, M. Klene, C. Adamo, R. Cammi, 
 J. W. Ochterski, R. L. Martin, K. Morokuma, O. Farkas, 
 J. B. Foresman, and D. J. Fox, Gaussian, Inc., Wallingford CT, 2019.
 
 ******************************************
 Gaussian 16:  ES64L-G16RevC.01  3-Jul-2019
                 2-Jun-2024 
 ******************************************
 %chk=a.chk
 %nprocshared=56
 Will use up to   56 processors via shared memory.
 %mem=96gb
 ----------------------------------------------------------------------
 # def2svp wb97xd scrf=(smd,solvent=acetonitrile) g09default scf=(xqc,m
 axcycle=64) force guess=read nosymm
 ----------------------------------------------------------------------
 1/10=7,30=1,38=1,158=3,167=1/1,3;
 2/12=2,15=1,17=6,18=5,40=1/2;
 3/5=43,7=101,11=2,25=1,27=10,30=1,70=32201,71=1,72=2,74=-58,75=-4,116=-2,158=3/1,2,3;
 4/5=1,60=-1/1;
 5/5=2,7=64,8=3,13=1,38=6,53=2,87=10/2,8;
 6/7=2,8=2,9=2,10=2,28=1,87=10/1;
 7/29=1,30=1,87=10/1,2,3,16;
 1/10=7,30=1,158=3,167=1/3;
 99//99;
 Using 2006 physical constants.
 ----------
 Title Card
 ----------
 Symbolic Z-matrix:
 Charge = -1 Multiplicity = 1
 17                   -9.94483   8.05209   10.50983 
 6                    -8.31573   4.23666   12.22991 
 6                    -9.08565   3.91597   11.09733 
 6                    -10.01509   2.86521   11.20132 
 6                    -10.19235   2.18041   12.39926 
 6                    -9.43444   2.52437   13.5193 
 6                    -8.48908   3.54806   13.42628 
 1                    -7.57084   5.03329   12.17558 
 1                    -10.60195   2.58665   10.32137 
 1                    -10.92252   1.36991   12.4606 
 1                    -9.57116   1.98821   14.4607 
 1                    -7.88479   3.81416   14.29722 
 6                    -8.96214   4.63235   9.8267 
 6                    -8.16603   5.68869   9.57579 
 1                    -9.60017   4.25772   9.01888 
 1                    -8.12488   6.1253    8.57641 
 1                    -7.47234   6.09736   10.31421 
 8                    -1.00109  -1.76679   7.45815 
 8                    -8.41265  -1.33044   7.46101 
 8                    -7.04753   1.34709   10.48478 
 8                    -2.33152  -4.36158   10.55915 
 74                   -3.41768   0.72396   6.48604 
 74                   -6.00814  -3.82577   6.57739 
 74                   -3.62976   0.9087    11.41451 
 74                   -5.77471  -3.86336   11.47203 
 74                   -2.46223  -2.55781   6.38873 
 74                   -6.94394  -0.53806   6.35803 
 74                   -6.82505  -0.24849   11.5798 
 74                   -2.5683   -2.70115   11.6204 
 8                    -3.18168   1.91956   5.31817 
 8                    -6.14914  -5.07351   5.43301 
 8                    -2.71907   1.76235   12.56784 
 8                    -6.67686  -4.68161   12.65624 
 8                    -2.684    -0.87863   5.58316 
 8                    -6.71773  -2.27135   5.62575 
 8                    -5.32209   0.56568   12.36593 
 8                    -4.06153  -3.517     12.40901 
 8                     0.29506   0.00221   9.26943 
 8                    -9.71541  -3.02474   9.32116 
 8                    -6.37849   3.41866   8.65747 
 8                    -2.97681  -6.46003   8.76024 
 8                    -1.80078   0.77532   7.47642 
 8                    -7.61302  -3.87938   7.55328 
 8                    -4.52525   2.21963   10.43223 
 8                    -4.8657   -5.21594   10.52473 
 8                    -1.6246   -3.48671   5.23784 
 8                    -7.83693   0.25914   5.16788 
 8                    -8.04112  -0.15627   12.76015 
 8                    -1.3331   -2.83279   12.77971 
 74                   -1.26493  -0.51673   8.83899 
 74                   -8.15565  -2.51753   8.87587 
 74                   -5.90899   1.84937   9.04838 
 74                   -3.47538  -4.88772   9.17015 
 8                    -4.23352  -3.09416   6.06808 
 8                    -5.1707   -0.03926   6.00686 
 8                    -6.18019  -1.99713   11.91919 
 8                    -3.18219  -0.95654   11.93616 
 8                    -4.37691   1.58194   7.84775 
 8                    -5.00731  -4.67477   7.92458 
 8                    -2.34013   0.59681   10.08168 
 8                    -7.06476  -3.61127   10.13783 
 8                    -2.57826  -3.8759    7.86328 
 8                    -6.83256   0.78302   7.80774 
 8                    -7.8396   -1.17293   10.15021 
 8                    -1.57615  -1.84274   10.14411 
 8                    -3.37735  -1.13604   8.00765 
 8                    -6.03347  -1.951     8.03643 
 8                    -5.12932  -0.19677   9.95181 
 8                    -4.24775  -2.8267    9.97923 
 19                   -3.22564  -6.13441   5.65348 
 19                   -0.12871   0.05034   12.35816 
 19                   -9.28437  -2.91191   12.42743 
 23                   -4.70011  -1.52364   8.99046 
 

 GradGradGradGradGradGradGradGradGradGradGradGradGradGradGradGradGradGrad
 Berny optimization.
 Initialization pass.
 Trust Radius=3.00D-01 FncErr=1.00D-07 GrdErr=1.00D-07 EigMax=2.50D+02 EigMin=1.00D-04
 Number of steps in this run=      2 maximum allowed number of steps=      2.
 GradGradGradGradGradGradGradGradGradGradGradGradGradGradGradGradGradGrad

 Symmetry turned off by external request.
 Stoichiometry    C8H8ClK3O40VW12(1-)
 Framework group  C1[X(C8H8ClK3O40VW12)]
 Deg. of freedom   213
 Full point group                 C1      NOp   1
                          Input orientation:                          
 ---------------------------------------------------------------------
 Center     Atomic      Atomic             Coordinates (Angstroms)
 Number     Number       Type             X           Y           Z
 ---------------------------------------------------------------------
      1         17           0       -9.944827    8.052087   10.509830
      2          6           0       -8.315729    4.236659   12.229912
      3          6           0       -9.085651    3.915970   11.097333
      4          6           0      -10.015090    2.865210   11.201323
      5          6           0      -10.192348    2.180406   12.399261
      6          6           0       -9.434444    2.524365   13.519299
      7          6           0       -8.489083    3.548056   13.426280
      8          1           0       -7.570837    5.033294   12.175581
      9          1           0      -10.601953    2.586648   10.321365
     10          1           0      -10.922517    1.369911   12.460597
     11          1           0       -9.571159    1.988205   14.460696
     12          1           0       -7.884793    3.814161   14.297222
     13          6           0       -8.962135    4.632351    9.826697
     14          6           0       -8.166025    5.688688    9.575791
     15          1           0       -9.600171    4.257718    9.018876
     16          1           0       -8.124882    6.125301    8.576409
     17          1           0       -7.472337    6.097357   10.314215
     18          8           0       -1.001091   -1.766786    7.458149
     19          8           0       -8.412650   -1.330439    7.461008
     20          8           0       -7.047528    1.347085   10.484782
     21          8           0       -2.331518   -4.361580   10.559154
     22         74           0       -3.417678    0.723965    6.486042
     23         74           0       -6.008140   -3.825772    6.577387
     24         74           0       -3.629756    0.908697   11.414511
     25         74           0       -5.774711   -3.863361   11.472034
     26         74           0       -2.462226   -2.557808    6.388733
     27         74           0       -6.943935   -0.538057    6.358034
     28         74           0       -6.825054   -0.248486   11.579798
     29         74           0       -2.568299   -2.701153   11.620402
     30          8           0       -3.181682    1.919565    5.318174
     31          8           0       -6.149144   -5.073514    5.433007
     32          8           0       -2.719073    1.762350   12.567839
     33          8           0       -6.676865   -4.681611   12.656236
     34          8           0       -2.683999   -0.878631    5.583158
     35          8           0       -6.717735   -2.271353    5.625750
     36          8           0       -5.322094    0.565685   12.365929
     37          8           0       -4.061534   -3.517005   12.409015
     38          8           0        0.295057    0.002209    9.269428
     39          8           0       -9.715412   -3.024739    9.321158
     40          8           0       -6.378491    3.418662    8.657467
     41          8           0       -2.976811   -6.460029    8.760241
     42          8           0       -1.800783    0.775316    7.476422
     43          8           0       -7.613017   -3.879376    7.553279
     44          8           0       -4.525251    2.219632   10.432227
     45          8           0       -4.865703   -5.215938   10.524732
     46          8           0       -1.624604   -3.486709    5.237841
     47          8           0       -7.836931    0.259136    5.167880
     48          8           0       -8.041123   -0.156274   12.760155
     49          8           0       -1.333103   -2.832792   12.779712
     50         74           0       -1.264927   -0.516730    8.838988
     51         74           0       -8.155650   -2.517532    8.875873
     52         74           0       -5.908986    1.849367    9.048375
     53         74           0       -3.475375   -4.887721    9.170146
     54          8           0       -4.233515   -3.094158    6.068080
     55          8           0       -5.170696   -0.039264    6.006862
     56          8           0       -6.180191   -1.997134   11.919186
     57          8           0       -3.182191   -0.956541   11.936162
     58          8           0       -4.376908    1.581945    7.847751
     59          8           0       -5.007309   -4.674773    7.924579
     60          8           0       -2.340131    0.596813   10.081678
     61          8           0       -7.064759   -3.611272   10.137829
     62          8           0       -2.578256   -3.875900    7.863283
     63          8           0       -6.832555    0.783021    7.807737
     64          8           0       -7.839597   -1.172926   10.150206
     65          8           0       -1.576148   -1.842741   10.144109
     66          8           0       -3.377352   -1.136043    8.007651
     67          8           0       -6.033470   -1.951003    8.036429
     68          8           0       -5.129324   -0.196769    9.951811
     69          8           0       -4.247754   -2.826696    9.979230
     70         19           0       -3.225635   -6.134414    5.653482
     71         19           0       -0.128706    0.050337   12.358164
     72         19           0       -9.284365   -2.911913   12.427431
     73         23           0       -4.700111   -1.523637    8.990460
 ---------------------------------------------------------------------
 Rotational constants (GHZ):           0.0171943           0.0132805           0.0130631
 Standard basis: def2SVP (5D, 7F)
  1217 basis functions,  2313 primitive gaussians,  1337 cartesian basis functions
   321 alpha electrons      321 beta electrons
       nuclear repulsion energy     20991.1692709779 Hartrees.
 NAtoms=   73 NActive=   73 NUniq=   73 SFac= 1.00D+00 NAtFMM=   60 NAOKFM=T Big=T
 Integral buffers will be    131072 words long.
 Raffenetti 2 integral format.
 Two-electron integral symmetry is turned off.
 Nuclear repulsion after empirical dispersion term =    20990.8917168451 Hartrees.
 Force PCM accuracy= 1.00D-10.
 ------------------------------------------------------------------------------
 Polarizable Continuum Model (PCM)
 =================================
 Model                : PCM (using non-symmetric T matrix).
 Atomic radii         : SMD-Coulomb.
 Polarization charges : Total charges.
 Charge compensation  : None.
 Solution method      : On-the-fly selection.
 Cavity type          : VdW (van der Waals Surface) (Alpha=1.000).
 Cavity algorithm     : GePol (No added spheres)
                        Default sphere list used, NSphG=   73.
                        Lebedev-Laikov grids with approx.  5.0 points / Ang**2.
                        Smoothing algorithm: York/Karplus (Gamma=1.0000).
                        Polarization charges: spherical gaussians, with
                                              point-specific exponents (IZeta= 3).
                        Self-potential: point-specific (ISelfS= 7).
                        Self-field    : sphere-specific E.n sum rule (ISelfD= 2).
 1st derivatives      : Analytical E(r).r(x)/FMM algorithm (CHGder, D1EAlg=3).
                        Cavity 1st derivative terms included.
 Solvent              : Acetonitrile, Eps=  35.688000 Eps(inf)=   1.806874
 ------------------------------------------------------------------------------
 ------------------------------------------------------------------------------
 Atomic radii for non-electrostatic terms: SMD-CDS.
 ------------------------------------------------------------------------------
 Nuclear repulsion after PCM non-electrostatic terms =    20990.8859036930 Hartrees.
 One-electron integrals computed using PRISM.
   1 Symmetry operations used in ECPInt.
 ECPInt:  NShTT=  127765 NPrTT=  468030 LenC2=   96764 LenP2D=  221408.
 LDataN:  DoStor=T MaxTD1= 8 Len=  415
 NBasis=  1217 RedAO= T EigKep=  1.36D-04  NBF=  1217
 NBsUse=  1217 1.00D-06 EigRej= -1.00D+00 NBFU=  1217
 Defaulting to unpruned grid for atomic number  74.
 Defaulting to unpruned grid for atomic number  74.
 Defaulting to unpruned grid for atomic number  74.
 Defaulting to unpruned grid for atomic number  74.
 Defaulting to unpruned grid for atomic number  74.
 Defaulting to unpruned grid for atomic number  74.
 Defaulting to unpruned grid for atomic number  74.
 Defaulting to unpruned grid for atomic number  74.
 Initial guess from the checkpoint file:  "a.chk"
 B after Tr=     0.002320   -0.003674   -0.000239
         Rot=    1.000000   -0.000002    0.000002    0.000160 Ang=  -0.02 deg.
 Requested convergence on RMS density matrix=1.00D-08 within  64 cycles.
 Requested convergence on MAX density matrix=1.00D-06.
 Requested convergence on             energy=1.00D-06.
 No special actions if energy rises.
 Defaulting to unpruned grid for atomic number  74.
 Defaulting to unpruned grid for atomic number  74.
 Defaulting to unpruned grid for atomic number  74.
 Defaulting to unpruned grid for atomic number  74.
 Defaulting to unpruned grid for atomic number  74.
 Defaulting to unpruned grid for atomic number  74.
 Defaulting to unpruned grid for atomic number  74.
 Defaulting to unpruned grid for atomic number  74.
 Defaulting to unpruned grid for atomic number  74.
 Defaulting to unpruned grid for atomic number  74.
 Defaulting to unpruned grid for atomic number  74.
 Defaulting to unpruned grid for atomic number  74.
 Defaulting to unpruned grid for atomic number  74.
 Defaulting to unpruned grid for atomic number  74.
 Defaulting to unpruned grid for atomic number  74.
 Defaulting to unpruned grid for atomic number  74.
 Defaulting to unpruned grid for atomic number  74.
 Defaulting to unpruned grid for atomic number  74.
 Defaulting to unpruned grid for atomic number  74.
 Defaulting to unpruned grid for atomic number  74.
 Defaulting to unpruned grid for atomic number  74.
 Defaulting to unpruned grid for atomic number  74.
 Defaulting to unpruned grid for atomic number  74.
 Defaulting to unpruned grid for atomic number  74.
 Defaulting to unpruned grid for atomic number  74.
 Defaulting to unpruned grid for atomic number  74.
 Defaulting to unpruned grid for atomic number  74.
 Defaulting to unpruned grid for atomic number  74.
 Defaulting to unpruned grid for atomic number  74.
 Defaulting to unpruned grid for atomic number  74.
 Defaulting to unpruned grid for atomic number  74.
 Defaulting to unpruned grid for atomic number  74.
 Defaulting to unpruned grid for atomic number  74.
 Defaulting to unpruned grid for atomic number  74.
 Defaulting to unpruned grid for atomic number  74.
 Defaulting to unpruned grid for atomic number  74.
 Defaulting to unpruned grid for atomic number  74.
 Defaulting to unpruned grid for atomic number  74.
 Defaulting to unpruned grid for atomic number  74.
 Defaulting to unpruned grid for atomic number  74.
 Defaulting to unpruned grid for atomic number  74.
 Defaulting to unpruned grid for atomic number  74.
 Defaulting to unpruned grid for atomic number  74.
 Defaulting to unpruned grid for atomic number  74.
 Defaulting to unpruned grid for atomic number  74.
 Defaulting to unpruned grid for atomic number  74.
 Defaulting to unpruned grid for atomic number  74.
 Defaulting to unpruned grid for atomic number  74.
 Defaulting to unpruned grid for atomic number  74.
 Defaulting to unpruned grid for atomic number  74.
 Defaulting to unpruned grid for atomic number  74.
 Defaulting to unpruned grid for atomic number  74.
 Defaulting to unpruned grid for atomic number  74.
 Defaulting to unpruned grid for atomic number  74.
 Defaulting to unpruned grid for atomic number  74.
 Defaulting to unpruned grid for atomic number  74.
 Inv3:  Mode=1 IEnd=    86639628.
 Iteration    1 A*A^-1 deviation from unit magnitude is 4.00D-15 for   5222.
 Iteration    1 A*A^-1 deviation from orthogonality  is 4.22D-15 for   5311   1886.
 Iteration    1 A^-1*A deviation from unit magnitude is 3.22D-15 for     93.
 Iteration    1 A^-1*A deviation from orthogonality  is 1.68D-09 for    931    926.
 Iteration    2 A*A^-1 deviation from unit magnitude is 4.44D-15 for    720.
 Iteration    2 A*A^-1 deviation from orthogonality  is 3.89D-15 for    907     32.
 Iteration    2 A^-1*A deviation from unit magnitude is 1.33D-15 for   3045.
 Iteration    2 A^-1*A deviation from orthogonality  is 6.46D-16 for    887     25.
 Error on total polarization charges =  0.01594
 SCF Done:  E(RwB97XD) =  -7327.70055105     A.U. after   11 cycles
            NFock= 11  Conv=0.72D-08     -V/T= 2.0832
 SMD-CDS (non-electrostatic) energy       (kcal/mol) =      -3.65
 (included in total energy above)
 QCSCF skips out because SCF is already converged.

 **********************************************************************

            Population analysis using the SCF Density.

 **********************************************************************

 Alpha  occ. eigenvalues -- -197.29544-130.00181-130.00176-130.00094-101.47657
 Alpha  occ. eigenvalues --  -22.62660 -19.33701 -19.33682 -19.33674 -19.33654
 Alpha  occ. eigenvalues --  -19.30699 -19.30668 -19.30662 -19.30655 -19.30652
 Alpha  occ. eigenvalues --  -19.30643 -19.30623 -19.30593 -19.30504 -19.30323
 Alpha  occ. eigenvalues --  -19.30292 -19.30060 -19.29316 -19.29315 -19.29286
 Alpha  occ. eigenvalues --  -19.29273 -19.29272 -19.29263 -19.29250 -19.29187
 Alpha  occ. eigenvalues --  -19.29186 -19.29166 -19.29136 -19.29129 -19.29111
 Alpha  occ. eigenvalues --  -19.29105 -19.29102 -19.29096 -19.29076 -19.29058
 Alpha  occ. eigenvalues --  -19.29046 -19.28962 -19.28954 -19.28938 -19.28918
 Alpha  occ. eigenvalues --  -19.28772 -19.11618 -19.11610 -19.11600 -13.37585
 Alpha  occ. eigenvalues --  -13.37581 -13.37488 -10.70514 -10.70510 -10.70507
 Alpha  occ. eigenvalues --  -10.70507 -10.70503 -10.70502 -10.70418 -10.70411
 Alpha  occ. eigenvalues --  -10.70408 -10.29832 -10.29343 -10.29289 -10.29094
 Alpha  occ. eigenvalues --  -10.29010 -10.28992 -10.28179 -10.27698  -9.38112
 Alpha  occ. eigenvalues --   -7.12934  -7.12894  -7.12893  -3.23277  -3.23270
 Alpha  occ. eigenvalues --   -3.23257  -3.23254  -3.23250  -3.23244  -3.23188
 Alpha  occ. eigenvalues --   -3.23187  -3.23140  -3.22914  -3.22911  -3.22663
 Alpha  occ. eigenvalues --   -2.91883  -1.94255  -1.94227  -1.94217  -1.87694
 Alpha  occ. eigenvalues --   -1.87637  -1.87613  -1.87556  -1.87460  -1.87449
 Alpha  occ. eigenvalues --   -1.87438  -1.87407  -1.87360  -1.87232  -1.87199
 Alpha  occ. eigenvalues --   -1.87003  -1.86592  -1.86472  -1.86465  -1.86440
 Alpha  occ. eigenvalues --   -1.86420  -1.86378  -1.86304  -1.86291  -1.86269
 Alpha  occ. eigenvalues --   -1.86252  -1.86227  -1.86196  -1.86110  -1.86087
 Alpha  occ. eigenvalues --   -1.86085  -1.86055  -1.86012  -1.85959  -1.85938
 Alpha  occ. eigenvalues --   -1.85879  -1.85846  -1.85752  -1.85624  -1.85564
 Alpha  occ. eigenvalues --   -1.51267  -1.51262  -1.51171  -1.13077  -1.11319
 Alpha  occ. eigenvalues --   -1.11227  -1.11211  -1.08955  -1.08505  -1.08455
 Alpha  occ. eigenvalues --   -1.08264  -1.07554  -1.07497  -1.07475  -1.06876
 Alpha  occ. eigenvalues --   -1.06847  -1.06825  -1.06289  -1.06254  -1.05294
 Alpha  occ. eigenvalues --   -1.05288  -1.04955  -1.04944  -1.04922  -1.04171
 Alpha  occ. eigenvalues --   -1.04168  -1.04141  -1.03998  -1.03977  -1.03963
 Alpha  occ. eigenvalues --   -1.03920  -1.03866  -1.03845  -1.03730  -1.03686
 Alpha  occ. eigenvalues --   -1.03591  -1.03539  -1.03266  -1.03226  -1.03091
 Alpha  occ. eigenvalues --   -1.03074  -1.03014  -1.02904  -0.94413  -0.86728
 Alpha  occ. eigenvalues --   -0.86722  -0.86637  -0.86576  -0.86540  -0.86537
 Alpha  occ. eigenvalues --   -0.86535  -0.86527  -0.86450  -0.86430  -0.82838
 Alpha  occ. eigenvalues --   -0.79826  -0.70807  -0.69804  -0.68063  -0.64555
 Alpha  occ. eigenvalues --   -0.63916  -0.63872  -0.63858  -0.63335  -0.63302
 Alpha  occ. eigenvalues --   -0.63200  -0.63060  -0.62687  -0.62613  -0.62000
 Alpha  occ. eigenvalues --   -0.61599  -0.61580  -0.61490  -0.61193  -0.61172
 Alpha  occ. eigenvalues --   -0.61139  -0.60388  -0.59443  -0.59422  -0.59408
 Alpha  occ. eigenvalues --   -0.59380  -0.59349  -0.58706  -0.57969  -0.57940
 Alpha  occ. eigenvalues --   -0.57874  -0.57081  -0.57045  -0.57011  -0.56271
 Alpha  occ. eigenvalues --   -0.56225  -0.56069  -0.55676  -0.54830  -0.54771
 Alpha  occ. eigenvalues --   -0.54732  -0.54595  -0.54217  -0.54105  -0.54059
 Alpha  occ. eigenvalues --   -0.54020  -0.53941  -0.53215  -0.53169  -0.53050
 Alpha  occ. eigenvalues --   -0.52979  -0.52871  -0.52692  -0.52630  -0.52596
 Alpha  occ. eigenvalues --   -0.52550  -0.52520  -0.52449  -0.52425  -0.51569
 Alpha  occ. eigenvalues --   -0.51546  -0.51368  -0.51324  -0.51300  -0.51241
 Alpha  occ. eigenvalues --   -0.51163  -0.51136  -0.51025  -0.50722  -0.50543
 Alpha  occ. eigenvalues --   -0.50542  -0.50501  -0.49883  -0.49873  -0.49297
 Alpha  occ. eigenvalues --   -0.49255  -0.49233  -0.49175  -0.49134  -0.49037
 Alpha  occ. eigenvalues --   -0.48886  -0.48069  -0.48016  -0.47906  -0.47712
 Alpha  occ. eigenvalues --   -0.47337  -0.47283  -0.47226  -0.46999  -0.46951
 Alpha  occ. eigenvalues --   -0.46822  -0.46544  -0.46499  -0.46428  -0.46214
 Alpha  occ. eigenvalues --   -0.46150  -0.46094  -0.45622  -0.45073  -0.44891
 Alpha  occ. eigenvalues --   -0.44863  -0.44167  -0.44147  -0.44017  -0.43595
 Alpha  occ. eigenvalues --   -0.43285  -0.43227  -0.43102  -0.43081  -0.43039
 Alpha  occ. eigenvalues --   -0.42705  -0.42675  -0.42648  -0.42588  -0.42579
 Alpha  occ. eigenvalues --   -0.42495  -0.42448  -0.42435  -0.42272  -0.42256
 Alpha  occ. eigenvalues --   -0.42226  -0.42005  -0.41889  -0.41835  -0.41817
 Alpha  occ. eigenvalues --   -0.41228  -0.41181  -0.41142  -0.41034  -0.40536
 Alpha  occ. eigenvalues --   -0.40522  -0.40505  -0.40412  -0.39428  -0.39403
 Alpha  occ. eigenvalues --   -0.36905  -0.32554  -0.28831  -0.24549  -0.24523
 Alpha  occ. eigenvalues --   -0.23323
 Alpha virt. eigenvalues --   -0.09534  -0.09334  -0.08372  -0.08323  -0.06945
 Alpha virt. eigenvalues --   -0.06881  -0.06787  -0.04515  -0.04209  -0.04182
 Alpha virt. eigenvalues --   -0.03685  -0.03524  -0.03437  -0.03197  -0.03090
 Alpha virt. eigenvalues --   -0.03031  -0.03001  -0.02171  -0.02137  -0.02100
 Alpha virt. eigenvalues --   -0.01472  -0.01439  -0.01373  -0.01266  -0.01183
 Alpha virt. eigenvalues --   -0.00034  -0.00021   0.00045   0.01450   0.01472
 Alpha virt. eigenvalues --    0.01910   0.01954   0.02040   0.02175   0.02204
 Alpha virt. eigenvalues --    0.02217   0.02252   0.02352   0.02784   0.02859
 Alpha virt. eigenvalues --    0.02945   0.02994   0.03047   0.04221   0.04580
 Alpha virt. eigenvalues --    0.06774   0.07275   0.07521   0.07597   0.07783
 Alpha virt. eigenvalues --    0.08037   0.08437   0.08490   0.08775   0.09158
 Alpha virt. eigenvalues --    0.09338   0.09389   0.09658   0.09884   0.10286
 Alpha virt. eigenvalues --    0.10308   0.10380   0.10439   0.10482   0.10631
 Alpha virt. eigenvalues --    0.10881   0.11072   0.11082   0.11666   0.11749
 Alpha virt. eigenvalues --    0.12283   0.13095   0.13229   0.13338   0.13573
 Alpha virt. eigenvalues --    0.13743   0.14369   0.14550   0.14644   0.14992
 Alpha virt. eigenvalues --    0.15529   0.16132   0.16346   0.16570   0.16752
 Alpha virt. eigenvalues --    0.16778   0.16887   0.17105   0.17245   0.17655
 Alpha virt. eigenvalues --    0.17858   0.18147   0.18203   0.18361   0.18603
 Alpha virt. eigenvalues --    0.18723   0.19017   0.19301   0.19402   0.19519
 Alpha virt. eigenvalues --    0.19645   0.20190   0.20306   0.20446   0.20638
 Alpha virt. eigenvalues --    0.20730   0.20868   0.20922   0.21309   0.21369
 Alpha virt. eigenvalues --    0.21465   0.21612   0.21654   0.21863   0.22091
 Alpha virt. eigenvalues --    0.22404   0.22697   0.22898   0.23153   0.23293
 Alpha virt. eigenvalues --    0.23500   0.23853   0.24006   0.24234   0.24532
 Alpha virt. eigenvalues --    0.24735   0.25188   0.25534   0.25645   0.25892
 Alpha virt. eigenvalues --    0.26040   0.26231   0.26442   0.26581   0.26759
 Alpha virt. eigenvalues --    0.27032   0.27224   0.27389   0.27462   0.27705
 Alpha virt. eigenvalues --    0.27996   0.28265   0.28335   0.28648   0.28724
 Alpha virt. eigenvalues --    0.29260   0.29495   0.29859   0.30138   0.30417
 Alpha virt. eigenvalues --    0.30589   0.30928   0.31138   0.31666   0.31754
 Alpha virt. eigenvalues --    0.32221   0.34768   0.35219   0.35838   0.36297
 Alpha virt. eigenvalues --    0.36672   0.36898   0.37204   0.38092   0.38440
 Alpha virt. eigenvalues --    0.38691   0.39226   0.39550   0.39723   0.40272
 Alpha virt. eigenvalues --    0.40731   0.40882   0.41043   0.41140   0.41749
 Alpha virt. eigenvalues --    0.42114   0.42357   0.42734   0.43305   0.43570
 Alpha virt. eigenvalues --    0.43751   0.44543   0.44754   0.44869   0.45218
 Alpha virt. eigenvalues --    0.45703   0.46254   0.46493   0.46710   0.47171
 Alpha virt. eigenvalues --    0.47407   0.47639   0.47981   0.48107   0.48230
 Alpha virt. eigenvalues --    0.48361   0.48436   0.48670   0.48819   0.48987
 Alpha virt. eigenvalues --    0.49158   0.49402   0.49530   0.49906   0.49948
 Alpha virt. eigenvalues --    0.50211   0.50592   0.50693   0.50959   0.51139
 Alpha virt. eigenvalues --    0.51651   0.51782   0.51922   0.52330   0.52512
 Alpha virt. eigenvalues --    0.52672   0.52883   0.53035   0.53163   0.53241
 Alpha virt. eigenvalues --    0.53708   0.54086   0.54333   0.54390   0.54617
 Alpha virt. eigenvalues --    0.54989   0.55415   0.55666   0.56412   0.56485
 Alpha virt. eigenvalues --    0.56826   0.57382   0.57723   0.58084   0.58286
 Alpha virt. eigenvalues --    0.58593   0.59108   0.59447   0.60257   0.60776
 Alpha virt. eigenvalues --    0.61417   0.62339   0.62684   0.62747   0.63173
 Alpha virt. eigenvalues --    0.64160   0.65339   0.65622   0.65684   0.65822
 Alpha virt. eigenvalues --    0.66127   0.66764   0.67140   0.67279   0.67445
 Alpha virt. eigenvalues --    0.67794   0.68357   0.69872   0.70431   0.71049
 Alpha virt. eigenvalues --    0.71348   0.71893   0.72010   0.72128   0.72185
 Alpha virt. eigenvalues --    0.72410   0.72557   0.73126   0.73430   0.73961
 Alpha virt. eigenvalues --    0.74627   0.74900   0.75558   0.75694   0.75936
 Alpha virt. eigenvalues --    0.76314   0.76611   0.76863   0.76959   0.77321
 Alpha virt. eigenvalues --    0.77599   0.78440   0.79104   0.79426   0.79598
 Alpha virt. eigenvalues --    0.79809   0.80309   0.80701   0.80989   0.81507
 Alpha virt. eigenvalues --    0.81613   0.81654   0.82020   0.82668   0.83127
 Alpha virt. eigenvalues --    0.84140   0.84317   0.84905   0.85354   0.86091
 Alpha virt. eigenvalues --    0.87127   0.87485   0.88009   0.88102   0.88803
 Alpha virt. eigenvalues --    0.89088   0.89175   0.89532   0.89672   0.90406
 Alpha virt. eigenvalues --    0.90715   0.90839   0.91357   0.91497   0.91666
 Alpha virt. eigenvalues --    0.92708   0.93032   0.93761   0.94030   0.94138
 Alpha virt. eigenvalues --    0.94440   0.94837   0.95956   0.96077   0.96892
 Alpha virt. eigenvalues --    0.96934   0.97196   0.97362   0.97781   0.97937
 Alpha virt. eigenvalues --    0.98208   0.98351   0.98584   0.98635   0.98814
 Alpha virt. eigenvalues --    0.99092   0.99693   1.00175   1.00289   1.00366
 Alpha virt. eigenvalues --    1.00914   1.01428   1.01650   1.01702   1.02121
 Alpha virt. eigenvalues --    1.02203   1.02489   1.02565   1.02640   1.02938
 Alpha virt. eigenvalues --    1.02986   1.03686   1.03940   1.04075   1.04090
 Alpha virt. eigenvalues --    1.04281   1.04390   1.04464   1.04559   1.04768
 Alpha virt. eigenvalues --    1.04959   1.05170   1.05261   1.05506   1.05909
 Alpha virt. eigenvalues --    1.06015   1.06408   1.06614   1.07096   1.07308
 Alpha virt. eigenvalues --    1.07535   1.07932   1.08794   1.09143   1.09312
 Alpha virt. eigenvalues --    1.09389   1.09807   1.10111   1.10229   1.10246
 Alpha virt. eigenvalues --    1.10766   1.10892   1.11058   1.11163   1.11440
 Alpha virt. eigenvalues --    1.11614   1.11654   1.11748   1.12002   1.12619
 Alpha virt. eigenvalues --    1.12908   1.13546   1.13873   1.14429   1.15125
 Alpha virt. eigenvalues --    1.15328   1.15994   1.16272   1.16567   1.17018
 Alpha virt. eigenvalues --    1.17362   1.17696   1.17906   1.18701   1.18935
 Alpha virt. eigenvalues --    1.19663   1.20832   1.21063   1.21270   1.21349
 Alpha virt. eigenvalues --    1.21430   1.22061   1.22174   1.23014   1.23648
 Alpha virt. eigenvalues --    1.25125   1.25848   1.26447   1.26679   1.26873
 Alpha virt. eigenvalues --    1.27272   1.27829   1.28114   1.28580   1.28622
 Alpha virt. eigenvalues --    1.28890   1.29103   1.29148   1.29333   1.29644
 Alpha virt. eigenvalues --    1.30073   1.30220   1.30319   1.30798   1.30941
 Alpha virt. eigenvalues --    1.31112   1.31974   1.32139   1.32959   1.33027
 Alpha virt. eigenvalues --    1.33206   1.33437   1.33742   1.33810   1.33956
 Alpha virt. eigenvalues --    1.34197   1.34316   1.34470   1.34682   1.34800
 Alpha virt. eigenvalues --    1.34889   1.35179   1.35332   1.35653   1.35904
 Alpha virt. eigenvalues --    1.36181   1.36370   1.36492   1.36757   1.36920
 Alpha virt. eigenvalues --    1.37119   1.37279   1.37628   1.37647   1.37807
 Alpha virt. eigenvalues --    1.37899   1.38460   1.38681   1.38863   1.39195
 Alpha virt. eigenvalues --    1.39278   1.39561   1.39688   1.39863   1.40187
 Alpha virt. eigenvalues --    1.40409   1.40596   1.40730   1.40856   1.40962
 Alpha virt. eigenvalues --    1.41189   1.41282   1.41545   1.42024   1.42303
 Alpha virt. eigenvalues --    1.42536   1.43200   1.43274   1.43387   1.43487
 Alpha virt. eigenvalues --    1.44005   1.44148   1.44549   1.45187   1.45637
 Alpha virt. eigenvalues --    1.46434   1.46739   1.47702   1.47828   1.47992
 Alpha virt. eigenvalues --    1.48384   1.48802   1.49309   1.49747   1.50344
 Alpha virt. eigenvalues --    1.50451   1.51023   1.51491   1.51957   1.53337
 Alpha virt. eigenvalues --    1.53629   1.55441   1.55785   1.55816   1.55918
 Alpha virt. eigenvalues --    1.56169   1.56383   1.56685   1.56764   1.57250
 Alpha virt. eigenvalues --    1.57304   1.58165   1.58348   1.59194   1.59249
 Alpha virt. eigenvalues --    1.59716   1.60137   1.60491   1.60537   1.60618
 Alpha virt. eigenvalues --    1.60785   1.61225   1.62185   1.62302   1.62652
 Alpha virt. eigenvalues --    1.64137   1.64326   1.65091   1.65652   1.67027
 Alpha virt. eigenvalues --    1.67688   1.68015   1.69910   1.70611   1.70922
 Alpha virt. eigenvalues --    1.71529   1.71699   1.72506   1.73062   1.74193
 Alpha virt. eigenvalues --    1.75073   1.75194   1.75454   1.75788   1.76621
 Alpha virt. eigenvalues --    1.76745   1.76992   1.77333   1.77743   1.78667
 Alpha virt. eigenvalues --    1.78745   1.79147   1.79487   1.80364   1.80584
 Alpha virt. eigenvalues --    1.81213   1.81465   1.81725   1.82227   1.82713
 Alpha virt. eigenvalues --    1.83031   1.83278   1.83816   1.84280   1.84483
 Alpha virt. eigenvalues --    1.85179   1.85246   1.85645   1.86087   1.86362
 Alpha virt. eigenvalues --    1.86495   1.87199   1.87655   1.88284   1.88628
 Alpha virt. eigenvalues --    1.89368   1.90078   1.90217   1.90395   1.90558
 Alpha virt. eigenvalues --    1.90867   1.91192   1.91569   1.92434   1.93715
 Alpha virt. eigenvalues --    1.94826   1.95340   1.95542   1.95779   1.96212
 Alpha virt. eigenvalues --    1.98388   1.99336   1.99476   1.99649   2.04890
 Alpha virt. eigenvalues --    2.06817   2.07206   2.08143   2.08509   2.08850
 Alpha virt. eigenvalues --    2.09034   2.09477   2.09613   2.10398   2.11178
 Alpha virt. eigenvalues --    2.11614   2.11962   2.12951   2.14896   2.15251
 Alpha virt. eigenvalues --    2.15989   2.16669   2.17153   2.17556   2.17712
 Alpha virt. eigenvalues --    2.20076   2.20425   2.20531   2.20791   2.21186
 Alpha virt. eigenvalues --    2.21430   2.22209   2.24431   2.25435   2.25961
 Alpha virt. eigenvalues --    2.26461   2.26622   2.27456   2.28458   2.28802
 Alpha virt. eigenvalues --    2.29268   2.29796   2.30247   2.33495   2.35598
 Alpha virt. eigenvalues --    2.36482   2.39934   2.40973   2.41063   2.43815
 Alpha virt. eigenvalues --    2.44213   2.50450   2.51649   2.57431   2.64822
 Alpha virt. eigenvalues --    2.64903   2.65041   2.65711   2.66099   2.66534
 Alpha virt. eigenvalues --    2.66791   2.66861   2.66951   2.67064   2.67103
 Alpha virt. eigenvalues --    2.67167   2.67285   2.67376   2.67387   2.67494
 Alpha virt. eigenvalues --    2.67708   2.67755   2.67857   2.67874   2.67977
 Alpha virt. eigenvalues --    2.68882   2.69005   2.69299   2.69391   2.69986
 Alpha virt. eigenvalues --    2.70172   2.70248   2.70441   2.70631   2.70809
 Alpha virt. eigenvalues --    2.70879   2.71414   2.71478   2.71548   2.71608
 Alpha virt. eigenvalues --    2.71719   2.72038   2.72613   2.72916   2.73012
 Alpha virt. eigenvalues --    2.73167   2.73239   2.73311   2.73367   2.73403
 Alpha virt. eigenvalues --    2.73539   2.73822   2.73922   2.73952   2.74062
 Alpha virt. eigenvalues --    2.74137   2.74260   2.74375   2.74628   2.74806
 Alpha virt. eigenvalues --    2.74840   2.75054   2.75270   2.75759   2.76108
 Alpha virt. eigenvalues --    2.76215   2.76298   2.76488   2.76784   2.77000
 Alpha virt. eigenvalues --    2.77155   2.77279   2.77310   2.78465   2.78623
 Alpha virt. eigenvalues --    2.78699   2.78977   2.79956   2.80162   2.80307
 Alpha virt. eigenvalues --    2.81204   2.81744   2.81799   2.82049   2.82208
 Alpha virt. eigenvalues --    2.82302   2.82767   2.83035   2.83280   2.83758
 Alpha virt. eigenvalues --    2.83785   2.83966   2.84090   2.84311   2.85031
 Alpha virt. eigenvalues --    2.85580   2.86125   2.86248   2.86429   2.86556
 Alpha virt. eigenvalues --    2.86692   2.86809   2.86948   2.88042   2.88436
 Alpha virt. eigenvalues --    2.88650   2.89044   2.89601   2.89673   2.89759
 Alpha virt. eigenvalues --    2.89804   2.89914   2.90060   2.90471   2.90576
 Alpha virt. eigenvalues --    2.90703   2.91774   2.91885   2.91933   2.92007
 Alpha virt. eigenvalues --    2.92229   2.92476   2.92702   2.92954   2.93124
 Alpha virt. eigenvalues --    2.93277   2.93549   2.93663   2.93994   2.94101
 Alpha virt. eigenvalues --    2.94210   2.95088   2.95263   2.95492   2.95711
 Alpha virt. eigenvalues --    2.95843   2.95912   2.96323   2.96502   2.96580
 Alpha virt. eigenvalues --    2.96682   2.96845   2.96949   2.97237   2.97485
 Alpha virt. eigenvalues --    2.97570   2.97770   2.98008   2.98432   2.99077
 Alpha virt. eigenvalues --    2.99353   2.99495   2.99774   2.99794   3.00122
 Alpha virt. eigenvalues --    3.00295   3.00553   3.01290   3.01513   3.01641
 Alpha virt. eigenvalues --    3.02593   3.03191   3.03379   3.03763   3.05109
 Alpha virt. eigenvalues --    3.06341   3.06641   3.07079   3.10985   3.11398
 Alpha virt. eigenvalues --    3.11581   3.11616   3.12193   3.12488   3.13695
 Alpha virt. eigenvalues --    3.13798   3.13904   3.16739   3.20156   3.21637
 Alpha virt. eigenvalues --    3.21978   3.23999   3.32651   3.40943   3.41614
 Alpha virt. eigenvalues --    3.42317   3.42891   3.44826   3.44902   3.45746
 Alpha virt. eigenvalues --    3.45985   3.46184   3.47163   3.47440   3.47772
 Alpha virt. eigenvalues --    3.48432   3.51079   3.51784   3.52229   3.53550
 Alpha virt. eigenvalues --    3.53646   3.54438   3.54681   3.54996   3.55145
 Alpha virt. eigenvalues --    3.55263   3.55563   3.55994   3.56523   3.57480
 Alpha virt. eigenvalues --    3.57803   3.58190   3.59389   3.59606   3.60471
 Alpha virt. eigenvalues --    3.60643   3.61222   3.61578   3.61919   3.62433
 Alpha virt. eigenvalues --    3.69635   3.74949  68.64502  68.65560  68.66757
 Alpha virt. eigenvalues --   68.68973  68.72884  68.73774  68.81801  68.82810
 Alpha virt. eigenvalues --   68.83324  68.85923  68.87031  68.88342 576.22932
 Alpha virt. eigenvalues --  576.23965 576.25138 576.27305 576.31228 576.32108
 Alpha virt. eigenvalues --  576.39981 576.40969 576.41466 576.43967 576.45052
 Alpha virt. eigenvalues --  576.46357
          Condensed to atoms (all electrons):
 Mulliken charges:
               1
     1  Cl  -0.931732
     2  C   -0.077886
     3  C    0.040808
     4  C   -0.075749
     5  C   -0.033112
     6  C   -0.031019
     7  C   -0.049895
     8  H    0.028859
     9  H    0.030289
    10  H    0.040812
    11  H    0.037039
    12  H    0.039811
    13  C   -0.094730
    14  C    0.015312
    15  H    0.020870
    16  H    0.041028
    17  H    0.036139
    18  O   -0.663310
    19  O   -0.660028
    20  O   -0.654526
    21  O   -0.661509
    22  W    1.734941
    23  W    1.670717
    24  W    1.680660
    25  W    1.691110
    26  W    1.675748
    27  W    1.727248
    28  W    1.621127
    29  W    1.683451
    30  O   -0.320973
    31  O   -0.365638
    32  O   -0.365817
    33  O   -0.362699
    34  O   -0.664657
    35  O   -0.670252
    36  O   -0.661237
    37  O   -0.663001
    38  O   -0.366141
    39  O   -0.365445
    40  O   -0.293707
    41  O   -0.365144
    42  O   -0.669776
    43  O   -0.662791
    44  O   -0.659057
    45  O   -0.665516
    46  O   -0.366458
    47  O   -0.320929
    48  O   -0.355259
    49  O   -0.363600
    50  W    1.672105
    51  W    1.675196
    52  W    1.680029
    53  W    1.683275
    54  O   -0.723405
    55  O   -0.707082
    56  O   -0.726075
    57  O   -0.721542
    58  O   -0.707509
    59  O   -0.726165
    60  O   -0.724709
    61  O   -0.720660
    62  O   -0.724431
    63  O   -0.708923
    64  O   -0.723211
    65  O   -0.726404
    66  O   -0.802431
    67  O   -0.801382
    68  O   -0.799864
    69  O   -0.809665
    70  K    0.866788
    71  K    0.866995
    72  K    0.863418
    73  V    1.191275
 Sum of Mulliken charges =  -1.00000
 Mulliken charges with hydrogens summed into heavy atoms:
               1
     1  Cl  -0.931732
     2  C   -0.049028
     3  C    0.040808
     4  C   -0.045460
     5  C    0.007700
     6  C    0.006020
     7  C   -0.010084
    13  C   -0.073860
    14  C    0.092480
    18  O   -0.663310
    19  O   -0.660028
    20  O   -0.654526
    21  O   -0.661509
    22  W    1.734941
    23  W    1.670717
    24  W    1.680660
    25  W    1.691110
    26  W    1.675748
    27  W    1.727248
    28  W    1.621127
    29  W    1.683451
    30  O   -0.320973
    31  O   -0.365638
    32  O   -0.365817
    33  O   -0.362699
    34  O   -0.664657
    35  O   -0.670252
    36  O   -0.661237
    37  O   -0.663001
    38  O   -0.366141
    39  O   -0.365445
    40  O   -0.293707
    41  O   -0.365144
    42  O   -0.669776
    43  O   -0.662791
    44  O   -0.659057
    45  O   -0.665516
    46  O   -0.366458
    47  O   -0.320929
    48  O   -0.355259
    49  O   -0.363600
    50  W    1.672105
    51  W    1.675196
    52  W    1.680029
    53  W    1.683275
    54  O   -0.723405
    55  O   -0.707082
    56  O   -0.726075
    57  O   -0.721542
    58  O   -0.707509
    59  O   -0.726165
    60  O   -0.724709
    61  O   -0.720660
    62  O   -0.724431
    63  O   -0.708923
    64  O   -0.723211
    65  O   -0.726404
    66  O   -0.802431
    67  O   -0.801382
    68  O   -0.799864
    69  O   -0.809665
    70  K    0.866788
    71  K    0.866995
    72  K    0.863418
    73  V    1.191275
 Electronic spatial extent (au):  <R**2>=         317460.6189
 Charge=             -1.0000 electrons
 Dipole moment (field-independent basis, Debye):
    X=             51.8773    Y=            -51.3276    Z=            -38.4952  Tot=             82.5085
 Quadrupole moment (field-independent basis, Debye-Ang):
   XX=          -1071.3567   YY=           -878.9029   ZZ=           -909.7140
   XY=            459.1447   XZ=            464.7632   YZ=           -478.0897
 Traceless Quadrupole moment (field-independent basis, Debye-Ang):
   XX=           -118.0322   YY=             74.4216   ZZ=             43.6106
   XY=            459.1447   XZ=            464.7632   YZ=           -478.0897
 Octapole moment (field-independent basis, Debye-Ang**2):
  XXX=          13662.2729  YYY=           -998.5435  ZZZ=         -19060.8398  XYY=           6054.2301
  XXY=          -3763.4771  XXZ=          -9573.3077  XZZ=           7394.1879  YZZ=          -4171.6325
  YYZ=          -8934.4738  XYZ=           4848.8858
 Hexadecapole moment (field-independent basis, Debye-Ang**3):
 XXXX=        -161982.6417 YYYY=         -52060.3341 ZZZZ=        -345069.6223 XXXY=          38544.1192
 XXXZ=         124906.6760 YYYX=          20400.2478 YYYZ=         -11894.8620 ZZZX=         128065.3813
 ZZZY=         -35553.3906 XXYY=         -56030.6557 XXZZ=        -109240.4562 YYZZ=         -98535.9101
 XXYZ=         -43403.0723 YYXZ=          61238.8807 ZZXY=          50892.2818
 N-N= 2.099088590369D+04 E-N=-5.906625111245D+04  KE= 6.765165194683D+03
   1 Symmetry operations used in ECPInt.
 ECPInt:  NShTT=  127765 NPrTT=  468030 LenC2=   96764 LenP2D=  221408.
 LDataN:  DoStor=T MaxTD1= 9 Len=  602
 D1PCM: PCM CHGder 1st derivatives, ID1Alg=3 FixD1E=F DoIter=F DoCFld=F I1PDM=0.
 Calling FoFJK, ICntrl=      2127 FMM=T ISym2X=0 I1Cent= 0 IOpClX= 0 NMat=1 NMatS=1 NMatT=0.
 Defaulting to unpruned grid for atomic number  74.
 Defaulting to unpruned grid for atomic number  74.
 Defaulting to unpruned grid for atomic number  74.
 Defaulting to unpruned grid for atomic number  74.
 Defaulting to unpruned grid for atomic number  74.
 Defaulting to unpruned grid for atomic number  74.
 Defaulting to unpruned grid for atomic number  74.
 Defaulting to unpruned grid for atomic number  74.
 Defaulting to unpruned grid for atomic number  74.
 Defaulting to unpruned grid for atomic number  74.
 Defaulting to unpruned grid for atomic number  74.
 Defaulting to unpruned grid for atomic number  74.
 Defaulting to unpruned grid for atomic number  74.
 Defaulting to unpruned grid for atomic number  74.
 Defaulting to unpruned grid for atomic number  74.
 Defaulting to unpruned grid for atomic number  74.
 Defaulting to unpruned grid for atomic number  74.
 Defaulting to unpruned grid for atomic number  74.
 Defaulting to unpruned grid for atomic number  74.
 Defaulting to unpruned grid for atomic number  74.
 Defaulting to unpruned grid for atomic number  74.
 Defaulting to unpruned grid for atomic number  74.
 Defaulting to unpruned grid for atomic number  74.
 Defaulting to unpruned grid for atomic number  74.
 Defaulting to unpruned grid for atomic number  74.
 Defaulting to unpruned grid for atomic number  74.
 Defaulting to unpruned grid for atomic number  74.
 Defaulting to unpruned grid for atomic number  74.
 Defaulting to unpruned grid for atomic number  74.
 Defaulting to unpruned grid for atomic number  74.
 Defaulting to unpruned grid for atomic number  74.
 Defaulting to unpruned grid for atomic number  74.
 Defaulting to unpruned grid for atomic number  74.
 Defaulting to unpruned grid for atomic number  74.
 Defaulting to unpruned grid for atomic number  74.
 Defaulting to unpruned grid for atomic number  74.
 Defaulting to unpruned grid for atomic number  74.
 Defaulting to unpruned grid for atomic number  74.
 Defaulting to unpruned grid for atomic number  74.
 Defaulting to unpruned grid for atomic number  74.
 Defaulting to unpruned grid for atomic number  74.
 Defaulting to unpruned grid for atomic number  74.
 Defaulting to unpruned grid for atomic number  74.
 Defaulting to unpruned grid for atomic number  74.
 Defaulting to unpruned grid for atomic number  74.
 Defaulting to unpruned grid for atomic number  74.
 Defaulting to unpruned grid for atomic number  74.
 Defaulting to unpruned grid for atomic number  74.
 Defaulting to unpruned grid for atomic number  74.
 Defaulting to unpruned grid for atomic number  74.
 Defaulting to unpruned grid for atomic number  74.
 Defaulting to unpruned grid for atomic number  74.
 Defaulting to unpruned grid for atomic number  74.
 Defaulting to unpruned grid for atomic number  74.
 Defaulting to unpruned grid for atomic number  74.
 Defaulting to unpruned grid for atomic number  74.
 -------------------------------------------------------------------
 Center     Atomic                   Forces (Hartrees/Bohr)
 Number     Number              X              Y              Z
 -------------------------------------------------------------------
      1       17          -0.001642126    0.006017853    0.001974801
      2        6          -0.001305612   -0.000629172   -0.001621661
      3        6          -0.000643027   -0.001671827    0.002976803
      4        6           0.001566797    0.001676805    0.000531514
      5        6           0.000585731    0.000200585    0.001316126
      6        6          -0.000350642   -0.000042944    0.000927096
      7        6          -0.001050722   -0.001065046    0.000498711
      8        1          -0.000079202    0.000301460    0.000155526
      9        1          -0.000417079    0.000290297    0.000088408
     10        1          -0.000088006   -0.000216301   -0.000033125
     11        1           0.000159611   -0.000241438    0.000159261
     12        1           0.000149720   -0.000023632    0.000148979
     13        6           0.008936851    0.009570831   -0.007271279
     14        6          -0.005250660   -0.014174122    0.000607615
     15        1          -0.000422819    0.000067485   -0.000221578
     16        1          -0.001326309    0.001536452    0.000574749
     17        1          -0.001982372    0.001108151   -0.000027990
     18        8          -0.003382868    0.000253826    0.001155621
     19        8           0.003538760   -0.000731467    0.001209537
     20        8           0.002504485   -0.003191209   -0.000648793
     21        8          -0.002594817    0.002278199   -0.001099707
     22       74           0.001417269    0.010469530   -0.009668776
     23       74          -0.002343674   -0.010182997   -0.010349056
     24       74           0.006756848    0.008445947    0.010238164
     25       74          -0.007230134   -0.007559432    0.010661404
     26       74           0.008679173   -0.007857964   -0.011040298
     27       74          -0.008559871    0.008407640   -0.010578970
     28       74          -0.012139439    0.003136784    0.011085696
     29       74           0.011629047   -0.002045713    0.010953835
     30        8          -0.001075521   -0.002638273    0.003031762
     31        8           0.000940228    0.002944844    0.003448999
     32        8          -0.001663552   -0.002587030   -0.003613437
     33        8           0.001720674    0.002427073   -0.003422872
     34        8          -0.001201942   -0.001048838    0.003321093
     35        8           0.001608451    0.000331595    0.003398075
     36        8           0.000675791   -0.001765284   -0.003215889
     37        8          -0.000292473    0.001443250   -0.003350326
     38        8          -0.004178277   -0.001905860   -0.000749884
     39        8           0.004359205    0.001635767   -0.000758064
     40        8           0.002652730   -0.006420308    0.000113356
     41        8          -0.001288385    0.004641133    0.000639460
     42        8          -0.002207035   -0.002733903    0.001634233
     43        8           0.002708419    0.002483554    0.001234640
     44        8          -0.000124421   -0.004025855   -0.000948024
     45        8           0.000565790    0.003266296   -0.001402357
     46        8          -0.002735555    0.002202060    0.003101929
     47        8           0.003130192   -0.001562085    0.002889662
     48        8           0.003860800   -0.001322183   -0.003385691
     49        8          -0.003447768    0.001111995   -0.003219739
     50       74           0.014465246    0.005026890    0.003127316
     51       74          -0.014400396   -0.004076012    0.003503923
     52       74          -0.005967989    0.016920988   -0.003783048
     53       74           0.004721990   -0.014977138   -0.003193663
     54        8          -0.000372128    0.001320660    0.002320112
     55        8           0.000631907   -0.001518303    0.002370784
     56        8           0.001593008   -0.000175028   -0.002356025
     57        8          -0.001325041   -0.000787985   -0.002367953
     58        8           0.000187487   -0.002139938    0.000680749
     59        8           0.000471955    0.002300119    0.001522986
     60        8          -0.001440807   -0.001949298   -0.001551265
     61        8           0.001900114    0.001456213   -0.001465682
     62        8          -0.001281039    0.001736785    0.000778842
     63        8           0.001105989   -0.002350213    0.000225735
     64        8           0.002377770   -0.000320049   -0.000913559
     65        8          -0.002312272   -0.000243831   -0.000646734
     66        8          -0.026793219   -0.005064605    0.017624614
     67        8           0.027345626    0.005640452    0.017465267
     68        8           0.011355675   -0.025857741   -0.017621459
     69        8          -0.011355792    0.024360083   -0.017753759
     70       19           0.000217468   -0.000439982   -0.000394902
     71       19           0.000538327    0.000110777    0.000261232
     72       19          -0.000480850    0.000160685    0.000287606
     73       23          -0.000305294    0.000259944    0.000429343
 -------------------------------------------------------------------
 Cartesian Forces:  Max     0.027345626 RMS     0.006180006

 GradGradGradGradGradGradGradGradGradGradGradGradGradGradGradGradGradGrad
 Berny optimization.
 Search for a local minimum.
 Step number   1 out of a maximum of    2
 All quantities printed in internal units (Hartrees-Bohrs-Radians)
 Second derivative matrix not updated -- first step.
 ITU=  0
     Eigenvalues ---   -0.00000   0.00000   0.00000   0.00010   0.00091
     Eigenvalues ---    0.00093   0.00257   0.00567   0.00617   0.01644
     Eigenvalues ---    0.01983   0.02900   0.02943   0.03203   0.03398
     Eigenvalues ---    0.03441   0.03719   0.03724   0.04148   0.04502
     Eigenvalues ---    0.04586   0.04595   0.04608   0.04816   0.04835
     Eigenvalues ---    0.04997   0.05343   0.05545   0.05567   0.06348
     Eigenvalues ---    0.06392   0.06523   0.06784   0.06862   0.07048
     Eigenvalues ---    0.07312   0.07363   0.07608   0.08312   0.08385
     Eigenvalues ---    0.08699   0.08719   0.08897   0.08945   0.09742
     Eigenvalues ---    0.09894   0.10066   0.10355   0.10408   0.10467
     Eigenvalues ---    0.10814   0.10864   0.11502   0.11585   0.11973
     Eigenvalues ---    0.11995   0.12081   0.12440   0.12563   0.12620
     Eigenvalues ---    0.12653   0.12693   0.12855   0.12919   0.13030
     Eigenvalues ---    0.13861   0.13914   0.14222   0.14489   0.14729
     Eigenvalues ---    0.16773   0.16788   0.17000   0.17161   0.17548
     Eigenvalues ---    0.17657   0.18523   0.19698   0.19865   0.20237
     Eigenvalues ---    0.20764   0.21000   0.21722   0.21844   0.22033
     Eigenvalues ---    0.22316   0.22999   0.23294   0.23843   0.23858
     Eigenvalues ---    0.24538   0.24661   0.24800   0.25669   0.25937
     Eigenvalues ---    0.26138   0.26325   0.27490   0.27564   0.27778
     Eigenvalues ---    0.28224   0.28257   0.28705   0.29432   0.30012
     Eigenvalues ---    0.30455   0.30521   0.30547   0.30580   0.30626
     Eigenvalues ---    0.30766   0.31149   0.31290   0.31414   0.32032
     Eigenvalues ---    0.32318   0.32348   0.32581   0.32862   0.33396
     Eigenvalues ---    0.33473   0.35244   0.35417   0.35759   0.36798
     Eigenvalues ---    0.37341   0.37480   0.37549   0.38000   0.38332
     Eigenvalues ---    0.38691   0.39008   0.40100   0.40113   0.41011
     Eigenvalues ---    0.42081   0.42193   0.43566   0.43846   0.44976
     Eigenvalues ---    0.45147   0.45408   0.45780   0.47305   0.47983
     Eigenvalues ---    0.48273   0.48450   0.48608   0.49284   0.49421
     Eigenvalues ---    0.49754   0.50474   0.51393   0.51414   0.51938
     Eigenvalues ---    0.52835   0.53365   0.55263   0.58644   0.64411
     Eigenvalues ---    0.67570   0.76776   0.81571   0.82835   0.96780
     Eigenvalues ---    0.97255   0.98665   0.99523   1.01961   1.04426
     Eigenvalues ---    1.07264   1.11169   1.11836   1.12272   1.15473
     Eigenvalues ---    1.18966   1.19507   1.20591   1.22285   1.22744
     Eigenvalues ---    1.23069   1.25730   1.26476   1.26689   1.27228
     Eigenvalues ---    1.27616   1.28967   1.29366   1.45149   1.45876
     Eigenvalues ---    1.45879   1.48284   1.51203   1.51806   1.51967
     Eigenvalues ---    1.52525   1.55534   1.55704   1.56256   1.58166
     Eigenvalues ---    1.58382   1.59663   1.61398   1.65061   1.65925
     Eigenvalues ---    1.72256   1.76801   1.82440   1.82832   1.85769
     Eigenvalues ---    1.95047   1.97647   2.97363
 Eigenvalue     1 is  -1.11D-16 should be greater than     0.000000 Eigenvector:
                          Y11       Y6        Y12       Y10       Y7
   1                    0.17493   0.17493   0.17493   0.17493   0.17493
                          Y5        Y2        Y4        Y8        Y9
   1                    0.17493   0.17493   0.17493   0.17493   0.17493
 Eigenvalue     2 is   3.14D-07 Eigenvector:
                          Y16       X16       X11       Y11       Y14
   1                    0.33779  -0.26472   0.26200  -0.25030   0.24819
                          Y15       Y17       Y13       X14       X6
   1                    0.23180   0.21322   0.18947  -0.18843   0.18321
 Eigenvalue     3 is   2.94D-06 Eigenvector:
                          X9        X10       Y12       Y9        X12
   1                    0.33304   0.28718   0.28195  -0.25877  -0.25782
                          Y8        Y10       X15       X8        X4
   1                    0.24898  -0.22616   0.22179  -0.21406   0.20175
 Quadratic step=1.208D+01 exceeds max=3.000D-01 adjusted using Lamda=-6.454D-03.
 Angle between NR and scaled steps=  48.28 degrees.
 Angle between quadratic step and forces=  65.82 degrees.
 Linear search not attempted -- first point.
 B after Tr=     0.004695    0.002937    0.002276
         Rot=    1.000000   -0.000180    0.000075    0.000269 Ang=  -0.04 deg.
 Variable       Old X    -DE/DX   Delta X   Delta X   Delta X     New X
                                 (Linear)    (Quad)   (Total)
    X1      -18.79300  -0.00164   0.00000  -0.00157   0.00832 -18.78468
    Y1       15.21624   0.00602   0.00000   0.00612   0.01202  15.22826
    Z1       19.86070   0.00197   0.00000   0.00213   0.00705  19.86775
    X2      -15.71445  -0.00131   0.00000  -0.01157  -0.00605 -15.72050
    Y2        8.00613  -0.00063   0.00000  -0.01401  -0.01091   7.99521
    Z2       23.11119  -0.00162   0.00000  -0.00993  -0.00714  23.10404
    X3      -17.16939  -0.00064   0.00000   0.00411   0.00962 -17.15978
    Y3        7.40011  -0.00167   0.00000  -0.03879  -0.03416   7.36595
    Z3       20.97092   0.00298   0.00000  -0.01203  -0.00969  20.96123
    X4      -18.92578   0.00157   0.00000  -0.00675  -0.00234 -18.92812
    Y4        5.41446   0.00168   0.00000  -0.02000  -0.01449   5.39997
    Z4       21.16743   0.00053   0.00000   0.02033   0.02170  21.18913
    X5      -19.26075   0.00059   0.00000  -0.01026  -0.00688 -19.26763
    Y5        4.12037   0.00020   0.00000  -0.00123   0.00364   4.12401
    Z5       23.43121   0.00132   0.00000   0.03294   0.03380  23.46501
    X6      -17.82852  -0.00035   0.00000  -0.01006  -0.00664 -17.83516
    Y6        4.77036  -0.00004   0.00000   0.00704   0.01039   4.78074
    Z6       25.54777   0.00093   0.00000   0.02834   0.02965  25.57742
    X7      -16.04204  -0.00105   0.00000  -0.01387  -0.00938 -16.05142
    Y7        6.70485  -0.00107   0.00000   0.00650   0.00895   6.71381
    Z7       25.37199   0.00050   0.00000   0.00594   0.00821  25.38021
    X8      -14.30681  -0.00008   0.00000  -0.01398  -0.00764 -14.31444
    Y8        9.51155   0.00030   0.00000  -0.01104  -0.00866   9.50289
    Z8       23.00851   0.00016   0.00000  -0.01628  -0.01274  22.99577
    X9      -20.03479  -0.00042   0.00000  -0.01805  -0.01367 -20.04846
    Y9        4.88806   0.00029   0.00000  -0.02382  -0.01712   4.87094
    Z9       19.50455   0.00009   0.00000   0.02872   0.02974  19.53429
   X10      -20.64057  -0.00009   0.00000  -0.01340  -0.01086 -20.65143
   Y10        2.58876  -0.00022   0.00000   0.00162   0.00718   2.59594
   Z10       23.54712  -0.00003   0.00000   0.03999   0.04009  23.58721
   X11      -18.08687   0.00016   0.00000  -0.00288  -0.00027 -18.08714
   Y11        3.75716  -0.00024   0.00000   0.01391   0.01674   3.77390
   Z11       27.32676   0.00016   0.00000   0.03362   0.03453  27.36129
   X12      -14.90010   0.00015   0.00000  -0.01064  -0.00612 -14.90622
   Y12        7.20772  -0.00002   0.00000   0.02019   0.02144   7.22916
   Z12       27.01783   0.00015   0.00000   0.00035   0.00298  27.02082
   X13      -16.93598   0.00894   0.00000   0.02211   0.02868 -16.90730
   Y13        8.75387   0.00957   0.00000  -0.08281  -0.07743   8.67644
   Z13       18.56977  -0.00727   0.00000  -0.04885  -0.04600  18.52377
   X14      -15.43155  -0.00525   0.00000  -0.02348  -0.01576 -15.44731
   Y14       10.75006  -0.01417   0.00000  -0.07914  -0.07438  10.67569
   Z14       18.09562   0.00061   0.00000  -0.05273  -0.04894  18.04668
   X15      -18.14169  -0.00042   0.00000   0.02643   0.03284 -18.10885
   Y15        8.04592   0.00007   0.00000  -0.10201  -0.09544   7.95048
   Z15       17.04321  -0.00022   0.00000  -0.04344  -0.04103  17.00218
   X16      -15.35380  -0.00133   0.00000  -0.05516  -0.04670 -15.40050
   Y16       11.57514   0.00154   0.00000  -0.05002  -0.04461  11.53053
   Z16       16.20706   0.00057   0.00000  -0.04107  -0.03697  16.17009
   X17      -14.12067  -0.00198   0.00000  -0.08153  -0.07357 -14.19424
   Y17       11.52233   0.00111   0.00000  -0.01441  -0.01083  11.51151
   Z17       19.49104  -0.00003   0.00000  -0.03532  -0.03105  19.45999
   X18       -1.89179  -0.00338   0.00000  -0.01657  -0.01579  -1.90758
   Y18       -3.33874   0.00025   0.00000  -0.00712  -0.00822  -3.34697
   Z18       14.09386   0.00116   0.00000   0.01196   0.01274  14.10660
   X19      -15.89760   0.00354   0.00000   0.01902   0.02026 -15.87735
   Y19       -2.51417  -0.00073   0.00000   0.01626   0.02266  -2.49150
   Z19       14.09926   0.00121   0.00000   0.01386   0.01286  14.11212
   X20      -13.31790   0.00250   0.00000   0.01681   0.01989 -13.29800
   Y20        2.54562  -0.00319   0.00000  -0.00812  -0.00514   2.54048
   Z20       19.81337  -0.00065   0.00000  -0.00699  -0.00580  19.80756
   X21       -4.40593  -0.00259   0.00000  -0.01358  -0.01631  -4.42224
   Y21       -8.24219   0.00228   0.00000   0.01017   0.00833  -8.23387
   Z21       19.95391  -0.00110   0.00000  -0.01218  -0.01353  19.94038
   X22       -6.45847   0.00142   0.00000  -0.00327   0.00033  -6.45815
   Y22        1.36810   0.01047   0.00000   0.01817   0.02018   1.38828
   Z22       12.25684  -0.00967   0.00000  -0.00599  -0.00419  12.25265
   X23      -11.35374  -0.00234   0.00000   0.00632   0.00527 -11.34847
   Y23       -7.22966  -0.01018   0.00000  -0.00174   0.00284  -7.22682
   Z23       12.42946  -0.01035   0.00000  -0.00556  -0.00758  12.42187
   X24       -6.85924   0.00676   0.00000   0.02315   0.02552  -6.83373
   Y24        1.71719   0.00845   0.00000  -0.00263  -0.00376   1.71343
   Z24       21.57030   0.01024   0.00000   0.00708   0.00894  21.57924
   X25      -10.91262  -0.00723   0.00000  -0.01874  -0.02123 -10.93385
   Y25       -7.30069  -0.00756   0.00000   0.00518   0.00621  -7.29449
   Z25       21.67900   0.01066   0.00000   0.00645   0.00447  21.68347
   X26       -4.65293   0.00868   0.00000  -0.00265  -0.00237  -4.65530
   Y26       -4.83356  -0.00786   0.00000  -0.01250  -0.01139  -4.84495
   Z26       12.07296  -0.01104   0.00000  -0.00663  -0.00679  12.06616
   X27      -13.12214  -0.00856   0.00000   0.00183   0.00419 -13.11794
   Y27       -1.01678   0.00841   0.00000   0.02840   0.03407  -0.98271
   Z27       12.01494  -0.01058   0.00000  -0.00726  -0.00731  12.00764
   X28      -12.89748  -0.01214   0.00000  -0.00548  -0.00433 -12.90181
   Y28       -0.46957   0.00314   0.00000  -0.00228  -0.00027  -0.46984
   Z28       21.88265   0.01109   0.00000   0.00985   0.01002  21.89266
   X29       -4.85338   0.01163   0.00000   0.01101   0.00966  -4.84372
   Y29       -5.10444  -0.00205   0.00000   0.00553   0.00318  -5.10126
   Z29       21.95938   0.01095   0.00000   0.00628   0.00599  21.96537
   X30       -6.01251  -0.00108   0.00000   0.01197   0.01711  -5.99540
   Y30        3.62745  -0.00264   0.00000   0.00893   0.01148   3.63893
   Z30       10.04989   0.00303   0.00000  -0.00139   0.00129  10.05119
   X31      -11.62020   0.00094   0.00000  -0.00659  -0.00858 -11.62878
   Y31       -9.58755   0.00294   0.00000   0.00522   0.01072  -9.57683
   Z31       10.26690   0.00345   0.00000   0.00022  -0.00269  10.26420
   X32       -5.13830  -0.00166   0.00000   0.01548   0.01840  -5.11991
   Y32        3.33036  -0.00259   0.00000  -0.00078  -0.00362   3.32674
   Z32       23.74977  -0.00361   0.00000  -0.00037   0.00233  23.75211
   X33      -12.61745   0.00172   0.00000  -0.01015  -0.01380 -12.63125
   Y33       -8.84696   0.00243   0.00000   0.00276   0.00390  -8.84306
   Z33       23.91682  -0.00342   0.00000  -0.00008  -0.00288  23.91394
   X34       -5.07202  -0.00120   0.00000  -0.01112  -0.00891  -5.08093
   Y34       -1.66037  -0.00105   0.00000  -0.00304  -0.00117  -1.66154
   Z34       10.55064   0.00332   0.00000   0.01361   0.01453  10.56517
   X35      -12.69468   0.00161   0.00000   0.01396   0.01476 -12.67992
   Y35       -4.29224   0.00033   0.00000   0.01736   0.02329  -4.26894
   Z35       10.63113   0.00340   0.00000   0.01395   0.01278  10.64391
   X36      -10.05730   0.00068   0.00000   0.01292   0.01468 -10.04262
   Y36        1.06899  -0.00177   0.00000  -0.01398  -0.01404   1.05495
   Z36       23.36822  -0.00322   0.00000  -0.00815  -0.00700  23.36122
   X37       -7.67519  -0.00029   0.00000  -0.00547  -0.00786  -7.68305
   Y37       -6.64618   0.00144   0.00000   0.01349   0.01214  -6.63403
   Z37       23.44964  -0.00335   0.00000  -0.01164  -0.01290  23.43674
   X38        0.55758  -0.00418   0.00000   0.00965   0.01171   0.56928
   Y38        0.00417  -0.00191   0.00000  -0.01394  -0.01760  -0.01343
   Z38       17.51668  -0.00075   0.00000   0.00140   0.00375  17.52043
   X39      -18.35947   0.00436   0.00000  -0.00505  -0.00606 -18.36553
   Y39       -5.71593   0.00164   0.00000   0.01983   0.02631  -5.68961
   Z39       17.61444  -0.00076   0.00000   0.00259   0.00007  17.61450
   X40      -12.05360   0.00265   0.00000   0.01991   0.02563 -12.02797
   Y40        6.46033  -0.00642   0.00000   0.01172   0.01525   6.47559
   Z40       16.36024   0.00011   0.00000  -0.00294  -0.00015  16.36009
   X41       -5.62536  -0.00129   0.00000  -0.00493  -0.00928  -5.63464
   Y41      -12.20769   0.00464   0.00000  -0.00091  -0.00088 -12.20857
   Z41       16.55446   0.00064   0.00000  -0.00488  -0.00783  16.54662
   X42       -3.40299  -0.00221   0.00000  -0.00996  -0.00661  -3.40959
   Y42        1.46513  -0.00273   0.00000  -0.00700  -0.00730   1.45783
   Z42       14.12839   0.00163   0.00000   0.01419   0.01648  14.14487
   X43      -14.38652   0.00271   0.00000   0.01385   0.01247 -14.37405
   Y43       -7.33096   0.00248   0.00000   0.01780   0.02333  -7.30763
   Z43       14.27363   0.00123   0.00000   0.01196   0.00945  14.28308
   X44       -8.55148  -0.00012   0.00000   0.01627   0.02025  -8.53124
   Y44        4.19450  -0.00403   0.00000  -0.01658  -0.01613   4.17836
   Z44       19.71405  -0.00095   0.00000  -0.00709  -0.00460  19.70945
   X45       -9.19485   0.00057   0.00000  -0.01328  -0.01686  -9.21171
   Y45       -9.85669   0.00327   0.00000   0.01772   0.01847  -9.83822
   Z45       19.88886  -0.00140   0.00000  -0.01301  -0.01565  19.87321
   X46       -3.07006  -0.00274   0.00000  -0.00363  -0.00396  -3.07402
   Y46       -6.58893   0.00220   0.00000  -0.00083   0.00020  -6.58872
   Z46        9.89808   0.00310   0.00000  -0.00434  -0.00489   9.89319
   X47      -14.80965   0.00313   0.00000   0.00262   0.00612 -14.80353
   Y47        0.48970  -0.00156   0.00000   0.01715   0.02454   0.51423
   Z47        9.76588   0.00289   0.00000  -0.00382  -0.00358   9.76229
   X48      -15.19552   0.00386   0.00000   0.00393   0.00484 -15.19068
   Y48       -0.29532  -0.00132   0.00000   0.00532   0.00776  -0.28755
   Z48       24.11320  -0.00339   0.00000   0.00615   0.00604  24.11924
   X49       -2.51920  -0.00345   0.00000   0.00230   0.00048  -2.51872
   Y49       -5.35320   0.00111   0.00000  -0.00409  -0.00847  -5.36167
   Z49       24.15016  -0.00322   0.00000   0.00216   0.00213  24.15229
   X50       -2.39036   0.01447   0.00000   0.01073   0.01239  -2.37798
   Y50       -0.97648   0.00503   0.00000  -0.00074  -0.00252  -0.97900
   Z50       16.70327   0.00313   0.00000   0.01394   0.01551  16.71877
   X51      -15.41195  -0.01440   0.00000  -0.00694  -0.00731 -15.41926
   Y51       -4.75745  -0.00408   0.00000   0.00947   0.01467  -4.74278
   Z51       16.77297   0.00350   0.00000   0.01539   0.01365  16.78661
   X52      -11.16637  -0.00597   0.00000   0.00696   0.01098 -11.15539
   Y52        3.49480   0.01692   0.00000   0.01856   0.02136   3.51615
   Z52       17.09895  -0.00378   0.00000  -0.01230  -0.01044  17.08851
   X53       -6.56751   0.00472   0.00000  -0.00558  -0.00846  -6.57597
   Y53       -9.23645  -0.01498   0.00000  -0.00787  -0.00761  -9.24407
   Z53       17.32906  -0.00319   0.00000  -0.01501  -0.01704  17.31202
   X54       -8.00018  -0.00037   0.00000   0.00097   0.00080  -7.99938
   Y54       -5.84711   0.00132   0.00000  -0.00730  -0.00418  -5.85129
   Z54       11.46701   0.00232   0.00000  -0.00722  -0.00825  11.45876
   X55       -9.77120   0.00063   0.00000  -0.00049   0.00248  -9.76872
   Y55       -0.07420  -0.00152   0.00000   0.02446   0.02858  -0.04562
   Z55       11.35132   0.00237   0.00000  -0.00622  -0.00543  11.34589
   X56      -11.67887   0.00159   0.00000  -0.01101  -0.01173 -11.69059
   Y56       -3.77404  -0.00018   0.00000  -0.00083   0.00030  -3.77373
   Z56       22.52400  -0.00236   0.00000   0.00856   0.00773  22.53172
   X57       -6.01347  -0.00133   0.00000   0.01665   0.01698  -5.99648
   Y57       -1.80760  -0.00079   0.00000   0.00208   0.00014  -1.80746
   Z57       22.55608  -0.00237   0.00000   0.00709   0.00781  22.56389
   X58       -8.27116   0.00019   0.00000   0.00178   0.00586  -8.26529
   Y58        2.98944  -0.00214   0.00000   0.01980   0.02186   3.01130
   Z58       14.83010   0.00068   0.00000  -0.01047  -0.00835  14.82174
   X59       -9.46244   0.00047   0.00000   0.00067  -0.00164  -9.46408
   Y59       -8.83404   0.00230   0.00000  -0.00540  -0.00275  -8.83679
   Z59       14.97528   0.00152   0.00000  -0.00897  -0.01129  14.96399
   X60       -4.42221  -0.00144   0.00000   0.01962   0.02205  -4.40015
   Y60        1.12781  -0.00195   0.00000  -0.00241  -0.00395   1.12387
   Z60       19.05161  -0.00155   0.00000   0.00899   0.01101  19.06262
   X61      -13.35046   0.00190   0.00000  -0.01492  -0.01676 -13.36722
   Y61       -6.82431   0.00146   0.00000   0.00724   0.01048  -6.81384
   Z61       19.15772  -0.00147   0.00000   0.00892   0.00674  19.16446
   X62       -4.87220  -0.00128   0.00000  -0.00348  -0.00496  -4.87716
   Y62       -7.32439   0.00174   0.00000  -0.01035  -0.01012  -7.33451
   Z62       14.85945   0.00078   0.00000  -0.01116  -0.01225  14.84720
   X63      -12.91166   0.00111   0.00000   0.00315   0.00643 -12.90522
   Y63        1.47970  -0.00235   0.00000   0.02398   0.02856   1.50826
   Z63       14.75448   0.00023   0.00000  -0.01194  -0.01106  14.74342
   X64      -14.81469   0.00238   0.00000  -0.00607  -0.00544 -14.82013
   Y64       -2.21651  -0.00032   0.00000   0.00526   0.00927  -2.20724
   Z64       19.18111  -0.00091   0.00000   0.01324   0.01250  19.19361
   X65       -2.97849  -0.00231   0.00000   0.01035   0.01030  -2.96819
   Y65       -3.48228  -0.00024   0.00000  -0.00014  -0.00249  -3.48476
   Z65       19.16959  -0.00065   0.00000   0.01013   0.01071  19.18029
   X66       -6.38227  -0.02679   0.00000  -0.04722  -0.04596  -6.42823
   Y66       -2.14681  -0.00506   0.00000  -0.00491  -0.00396  -2.15077
   Z66       15.13227   0.01762   0.00000   0.03079   0.03133  15.16360
   X67      -11.40161   0.02735   0.00000   0.04839   0.04883 -11.35277
   Y67       -3.68686   0.00564   0.00000   0.01836   0.02194  -3.66492
   Z67       15.18665   0.01747   0.00000   0.03128   0.03053  15.21718
   X68       -9.69302   0.01136   0.00000   0.02557   0.02723  -9.66579
   Y68       -0.37184  -0.02586   0.00000  -0.03994  -0.03855  -0.41039
   Z68       18.80620  -0.01762   0.00000  -0.02883  -0.02816  18.77804
   X69       -8.02709  -0.01136   0.00000  -0.02319  -0.02417  -8.05126
   Y69       -5.34168   0.02436   0.00000   0.04364   0.04415  -5.29753
   Z69       18.85801  -0.01775   0.00000  -0.02969  -0.03052  18.82749
   X70       -6.09557   0.00022   0.00000  -0.00378  -0.00692  -6.10248
   Y70      -11.59236  -0.00044   0.00000  -0.00601  -0.00362 -11.59599
   Z70       10.68353  -0.00039   0.00000  -0.00957  -0.01238  10.67115
   X71       -0.24322   0.00054   0.00000   0.01614   0.01737  -0.22584
   Y71        0.09512   0.00011   0.00000  -0.00381  -0.00914   0.08599
   Z71       23.35355   0.00026   0.00000   0.00668   0.00895  23.36250
   X72      -17.54491  -0.00048   0.00000  -0.01087  -0.01265 -17.55756
   Y72       -5.50272   0.00016   0.00000   0.00857   0.01251  -5.49021
   Z72       23.48444   0.00029   0.00000   0.00874   0.00640  23.49085
   X73       -8.88192  -0.00031   0.00000   0.00050   0.00110  -8.88083
   Y73       -2.87926   0.00026   0.00000   0.00423   0.00585  -2.87341
   Z73       16.98951   0.00043   0.00000   0.00173   0.00164  16.99115
         Item               Value     Threshold  Converged?
 Maximum Force            0.027346     0.000450     NO 
 RMS     Force            0.006180     0.000300     NO 
 Maximum Displacement     0.095441     0.001800     NO 
 RMS     Displacement     0.020037     0.001200     NO 
 Predicted change in Energy=-5.797922D-03
 GradGradGradGradGradGradGradGradGradGradGradGradGradGradGradGradGradGrad

 Unable to Open any file for archive entry.
 1\1\GINC-X11P1N2\Force\RwB97XD\def2SVP\C8H8Cl1K3O40V1W12(1-)\MAYUMIAO\
 02-Jun-2024\0\\# def2svp wb97xd scrf=(smd,solvent=acetonitrile) g09def
 ault scf=(xqc,maxcycle=64) force guess=read nosymm\\Title Card\\-1,1\C
 l,-9.94482681,8.05208712,10.50983007\C,-8.31572889,4.2366593,12.229912
 5\C,-9.08565077,3.91597039,11.09733346\C,-10.01508951,2.86521027,11.20
 132318\C,-10.19234844,2.18040617,12.39926069\C,-9.43444411,2.52436509,
 13.51929944\C,-8.48908258,3.54805559,13.42627984\H,-7.57083705,5.03329
 417,12.17558129\H,-10.60195336,2.58664804,10.32136514\H,-10.92251691,1
 .36991082,12.46059706\H,-9.57115898,1.98820513,14.46069644\H,-7.884793
 08,3.81416058,14.29722239\C,-8.96213509,4.63235052,9.82669745\C,-8.166
 02549,5.68868841,9.57579138\H,-9.6001713,4.25771798,9.01887616\H,-8.12
 488191,6.12530115,8.57640913\H,-7.47233669,6.09735702,10.31421492\O,-1
 .00109118,-1.76678598,7.45814929\O,-8.41265022,-1.33043899,7.46100817\
 O,-7.04752847,1.34708519,10.4847817\O,-2.33151804,-4.36158036,10.55915
 368\W,-3.4176777,0.72396486,6.48604232\W,-6.00814008,-3.82577206,6.577
 38684\W,-3.62975586,0.90869694,11.41451054\W,-5.774711,-3.86336124,11.
 47203419\W,-2.46222634,-2.5578081,6.38873331\W,-6.9439351,-0.53805673,
 6.35803437\W,-6.82505436,-0.24848617,11.57979788\W,-2.56829922,-2.7011
 5339,11.62040232\O,-3.18168192,1.91956484,5.31817364\O,-6.14914431,-5.
 07351359,5.4330074\O,-2.7190728,1.76235039,12.56783928\O,-6.67686496,-
 4.68161147,12.65623587\O,-2.68399906,-0.87863141,5.58315802\O,-6.71773
 468,-2.27135294,5.62574984\O,-5.32209389,0.56568494,12.36592921\O,-4.0
 6153391,-3.51700469,12.40901496\O,0.29505678,0.00220927,9.26942821\O,-
 9.7154118,-3.02473875,9.32115834\O,-6.37849051,3.4186619,8.65746723\O,
 -2.97681122,-6.46002875,8.76024065\O,-1.80078299,0.77531604,7.47642244
 \O,-7.61301706,-3.87937631,7.5532791\O,-4.5252508,2.21963151,10.432227
 47\O,-4.86570273,-5.21593754,10.52473156\O,-1.62460403,-3.48670921,5.2
 3784075\O,-7.83693076,0.2591355,5.16788007\O,-8.04112334,-0.15627445,1
 2.76015453\O,-1.33310281,-2.83279224,12.77971194\W,-1.26492655,-0.5167
 3016,8.83898761\W,-8.15565011,-2.51753165,8.87587276\W,-5.9089864,1.84
 936684,9.04837524\W,-3.47537545,-4.88772077,9.17014555\O,-4.23351546,-
 3.09415816,6.0680798\O,-5.17069633,-0.03926412,6.0068615\O,-6.18019114
 ,-1.99713355,11.91918644\O,-3.18219078,-0.95654062,11.93616237\O,-4.37
 690804,1.58194485,7.84775065\O,-5.00730934,-4.67477279,7.92457944\O,-2
 .34013128,0.59681331,10.08167803\O,-7.06475894,-3.61127192,10.1378292\
 O,-2.57825631,-3.87589992,7.86328311\O,-6.83255519,0.78302114,7.807736
 69\O,-7.83959669,-1.17292646,10.1502059\O,-1.57614825,-1.84274096,10.1
 441088\O,-3.37735202,-1.13604339,8.00765104\O,-6.03346964,-1.95100262,
 8.03642907\O,-5.12932377,-0.19676878,9.95181099\O,-4.24775414,-2.82669
 597,9.9792303\K,-3.22563518,-6.13441415,5.65348241\K,-0.12870601,0.050
 33657,12.35816432\K,-9.28436516,-2.91191304,12.42743134\V,-4.70011054,
 -1.52363743,8.99045982\\Version=ES64L-G16RevC.01\HF=-7327.700551\RMSD=
 7.242e-09\RMSF=6.180e-03\Dipole=10.6276566,-21.9725528,2.5507203\Quadr
 upole=-87.7540416,55.3306489,32.4233927,341.3628355,345.5400875,-355.4
 479614\PG=C01 [X(C8H8Cl1K3O40V1W12)]\\@
 The archive entry for this job was punched.


 THE WHOLE OF SCIENCE IS NOTHING MORE THAN A REFINEMENT OF EVERYDAY THINKING.
                                                              -- A. EINSTEIN
 Job cpu time:       0 days  9 hours  9 minutes 17.5 seconds.
 Elapsed time:       0 days  0 hours 10 minutes 24.3 seconds.
 File lengths (MBytes):  RWF=   1252 Int=      0 D2E=      0 Chk=    249 Scr=      1
 Normal termination of Gaussian 16 at Sun Jun  2 04:16:38 2024.
