 Entering Gaussian System, Link 0=g16
 Input=JOBS/29_A.gjf
 Output=JOBS/29_A.log
 Initial command:
 /data/app/gaussian/C01-avx2//g16/l1.exe "/tmp/Gau-632852.inp" -scrdir="/tmp/"
 Entering Link 1 = /data/app/gaussian/C01-avx2//g16/l1.exe PID=    632853.
  
 Copyright (c) 1988-2019, Gaussian, Inc.  All Rights Reserved.
  
 This is part of the Gaussian(R) 16 program.  It is based on
 the Gaussian(R) 09 system (copyright 2009, Gaussian, Inc.),
 the Gaussian(R) 03 system (copyright 2003, Gaussian, Inc.),
 the Gaussian(R) 98 system (copyright 1998, Gaussian, Inc.),
 the Gaussian(R) 94 system (copyright 1995, Gaussian, Inc.),
 the Gaussian 92(TM) system (copyright 1992, Gaussian, Inc.),
 the Gaussian 90(TM) system (copyright 1990, Gaussian, Inc.),
 the Gaussian 88(TM) system (copyright 1988, Gaussian, Inc.),
 the Gaussian 86(TM) system (copyright 1986, Carnegie Mellon
 University), and the Gaussian 82(TM) system (copyright 1983,
 Carnegie Mellon University). Gaussian is a federally registered
 trademark of Gaussian, Inc.
  
 This software contains proprietary and confidential information,
 including trade secrets, belonging to Gaussian, Inc.
  
 This software is provided under written license and may be
 used, copied, transmitted, or stored only in accord with that
 written license.
  
 The following legend is applicable only to US Government
 contracts under FAR:
  
                    RESTRICTED RIGHTS LEGEND
  
 Use, reproduction and disclosure by the US Government is
 subject to restrictions as set forth in subparagraphs (a)
 and (c) of the Commercial Computer Software - Restricted
 Rights clause in FAR 52.227-19.
  
 Gaussian, Inc.
 340 Quinnipiac St., Bldg. 40, Wallingford CT 06492
  
  
 ---------------------------------------------------------------
 Warning -- This program may not be used in any manner that
 competes with the business of Gaussian, Inc. or will provide
 assistance to any competitor of Gaussian, Inc.  The licensee
 of this program is prohibited from giving any competitor of
 Gaussian, Inc. access to this program.  By using this program,
 the user acknowledges that Gaussian, Inc. is engaged in the
 business of creating and licensing software in the field of
 computational chemistry and represents and warrants to the
 licensee that it is not a competitor of Gaussian, Inc. and that
 it will not use this program in any manner prohibited above.
 ---------------------------------------------------------------
  

 Cite this work as:
 Gaussian 16, Revision C.01,
 M. J. Frisch, G. W. Trucks, H. B. Schlegel, G. E. Scuseria, 
 M. A. Robb, J. R. Cheeseman, G. Scalmani, V. Barone, 
 G. A. Petersson, H. Nakatsuji, X. Li, M. Caricato, A. V. Marenich, 
 J. Bloino, B. G. Janesko, R. Gomperts, B. Mennucci, H. P. Hratchian, 
 J. V. Ortiz, A. F. Izmaylov, J. L. Sonnenberg, D. Williams-Young, 
 F. Ding, F. Lipparini, F. Egidi, J. Goings, B. Peng, A. Petrone, 
 T. Henderson, D. Ranasinghe, V. G. Zakrzewski, J. Gao, N. Rega, 
 G. Zheng, W. Liang, M. Hada, M. Ehara, K. Toyota, R. Fukuda, 
 J. Hasegawa, M. Ishida, T. Nakajima, Y. Honda, O. Kitao, H. Nakai, 
 T. Vreven, K. Throssell, J. A. Montgomery, Jr., J. E. Peralta, 
 F. Ogliaro, M. J. Bearpark, J. J. Heyd, E. N. Brothers, K. N. Kudin, 
 V. N. Staroverov, T. A. Keith, R. Kobayashi, J. Normand, 
 K. Raghavachari, A. P. Rendell, J. C. Burant, S. S. Iyengar, 
 J. Tomasi, M. Cossi, J. M. Millam, M. Klene, C. Adamo, R. Cammi, 
 J. W. Ochterski, R. L. Martin, K. Morokuma, O. Farkas, 
 J. B. Foresman, and D. J. Fox, Gaussian, Inc., Wallingford CT, 2019.
 
 ******************************************
 Gaussian 16:  ES64L-G16RevC.01  3-Jul-2019
                 2-Jun-2024 
 ******************************************
 %chk=a.chk
 %nprocshared=56
 Will use up to   56 processors via shared memory.
 %mem=96gb
 ----------------------------------------------------------------------
 # def2svp wb97xd scrf=(smd,solvent=acetonitrile) g09default scf=(xqc,m
 axcycle=64) force guess=read nosymm
 ----------------------------------------------------------------------
 1/10=7,30=1,38=1,158=3,167=1/1,3;
 2/12=2,15=1,17=6,18=5,40=1/2;
 3/5=43,7=101,11=2,25=1,27=10,30=1,70=32201,71=1,72=2,74=-58,75=-4,116=-2,158=3/1,2,3;
 4/5=1,60=-1/1;
 5/5=2,7=64,8=3,13=1,38=6,53=2,87=10/2,8;
 6/7=2,8=2,9=2,10=2,28=1,87=10/1;
 7/29=1,30=1,87=10/1,2,3,16;
 1/10=7,30=1,158=3,167=1/3;
 99//99;
 Using 2006 physical constants.
 ----------
 Title Card
 ----------
 Symbolic Z-matrix:
 Charge = -1 Multiplicity = 1
 17                   -9.93169   8.07633   10.51632 
 6                    -8.31715   4.23607   12.22907 
 6                    -9.08875   3.91598   11.09755 
 6                    -10.017    2.86393   11.20215 
 6                    -10.19387   2.18016   12.40085 
 6                    -9.43662   2.52603   13.5208 
 6                    -8.48996   3.54857   13.42614 
 1                    -7.57082   5.03122   12.17248 
 1                    -10.60271   2.58354   10.3221 
 1                    -10.92153   1.36738   12.46226 
 1                    -9.57284   1.99041   14.46262 
 1                    -7.88275   3.81302   14.29554 
 6                    -8.96838   4.63416   9.82771 
 6                    -8.1794    5.69665   9.57729 
 1                    -9.60421   4.257     9.01936 
 1                    -8.13886   6.12989   8.57638 
 1                    -7.49152   6.11326   10.31643 
 8                    -0.99906  -1.76869   7.45898 
 8                    -8.41233  -1.33101   7.46104 
 8                    -7.04617   1.34715   10.48343 
 8                    -2.33144  -4.36354   10.55814 
 74                   -3.41676   0.72006   6.48471 
 74                   -6.00708  -3.82482   6.57584 
 74                   -3.62891   0.90619   11.41569 
 74                   -5.77351  -3.86239   11.47225 
 74                   -2.45969  -2.56072   6.39012 
 74                   -6.94421  -0.53789   6.35978 
 74                   -6.82529  -0.24821   11.57749 
 74                   -2.5662   -2.70299   11.61854 
 8                    -3.1797    1.91514   5.31607 
 8                    -6.14825  -5.07238   5.43188 
 8                    -2.71854   1.75929   12.56915 
 8                    -6.67564  -4.67974   12.6566 
 8                    -2.68151  -0.88162   5.58273 
 8                    -6.71718  -2.27104   5.62519 
 8                    -5.32191   0.56485   12.36551 
 8                    -4.06044  -3.51758   12.40824 
 8                     0.2956    0.00231   9.27039 
 8                    -9.71489  -3.02626   9.32114 
 8                    -6.37615   3.41941   8.66088 
 8                    -2.97903  -6.46221   8.76097 
 8                    -1.79933   0.77394   7.47607 
 8                    -7.61237  -3.88017   7.55253 
 8                    -4.52282   2.21896   10.43258 
 8                    -4.86679  -5.21683   10.52427 
 8                    -1.62261  -3.49139   5.24013 
 8                    -7.83735   0.25945   5.16955 
 8                    -8.04205  -0.15569   12.75713 
 8                    -1.331    -2.8356    12.77755 
 74                   -1.26431  -0.51677   8.83845 
 74                   -8.15444  -2.51948   8.8753 
 74                   -5.90508   1.84986   9.04862 
 74                   -3.47695  -4.88981   9.16995 
 8                    -4.23171  -3.09519   6.06781 
 8                    -5.16989  -0.04097   6.00691 
 8                    -6.17926  -1.99648   11.91791 
 8                    -3.1805   -0.95828   11.93619 
 8                    -4.37489   1.58091   7.84654 
 8                    -5.00708  -4.67464   7.92397 
 8                    -2.33954   0.59527   10.08187 
 8                    -7.06387  -3.6111    10.13737 
 8                    -2.57775  -3.87767   7.86397 
 8                    -6.83025   0.78293   7.80826 
 8                    -7.83837  -1.173     10.14827 
 8                    -1.57608  -1.84435   10.14272 
 8                    -3.37574  -1.13773   8.00654 
 8                    -6.03309  -1.95132   8.03594 
 8                    -5.12775  -0.19692   9.9515 
 8                    -4.24679  -2.8276    9.97878 
 19                   -3.22426  -6.1357    5.65205 
 19                   -0.12565   0.05163   12.3584 
 19                   -9.28583  -2.90738   12.42927 
 23                   -4.69902  -1.52424   8.98967 
 

 GradGradGradGradGradGradGradGradGradGradGradGradGradGradGradGradGradGrad
 Berny optimization.
 Initialization pass.
 Trust Radius=3.00D-01 FncErr=1.00D-07 GrdErr=1.00D-07 EigMax=2.50D+02 EigMin=1.00D-04
 Number of steps in this run=      2 maximum allowed number of steps=      2.
 GradGradGradGradGradGradGradGradGradGradGradGradGradGradGradGradGradGrad

 Symmetry turned off by external request.
 Stoichiometry    C8H8ClK3O40VW12(1-)
 Framework group  C1[X(C8H8ClK3O40VW12)]
 Deg. of freedom   213
 Full point group                 C1      NOp   1
                          Input orientation:                          
 ---------------------------------------------------------------------
 Center     Atomic      Atomic             Coordinates (Angstroms)
 Number     Number       Type             X           Y           Z
 ---------------------------------------------------------------------
      1         17           0       -9.931690    8.076334   10.516323
      2          6           0       -8.317152    4.236070   12.229067
      3          6           0       -9.088748    3.915978   11.097552
      4          6           0      -10.017005    2.863933   11.202152
      5          6           0      -10.193868    2.180158   12.400851
      6          6           0       -9.436623    2.526030   13.520805
      7          6           0       -8.489963    3.548570   13.426139
      8          1           0       -7.570816    5.031222   12.172478
      9          1           0      -10.602705    2.583539   10.322099
     10          1           0      -10.921529    1.367379   12.462262
     11          1           0       -9.572835    1.990409   14.462623
     12          1           0       -7.882750    3.813016   14.295536
     13          6           0       -8.968375    4.634162    9.827709
     14          6           0       -8.179396    5.696645    9.577285
     15          1           0       -9.604211    4.257003    9.019365
     16          1           0       -8.138861    6.129892    8.576376
     17          1           0       -7.491517    6.113262   10.316425
     18          8           0       -0.999057   -1.768687    7.458984
     19          8           0       -8.412332   -1.331014    7.461037
     20          8           0       -7.046173    1.347155   10.483432
     21          8           0       -2.331445   -4.363538   10.558144
     22         74           0       -3.416764    0.720063    6.484714
     23         74           0       -6.007083   -3.824818    6.575843
     24         74           0       -3.628912    0.906190   11.415690
     25         74           0       -5.773510   -3.862392   11.472252
     26         74           0       -2.459691   -2.560722    6.390123
     27         74           0       -6.944205   -0.537894    6.359781
     28         74           0       -6.825287   -0.248213   11.577490
     29         74           0       -2.566200   -2.702989   11.618537
     30          8           0       -3.179701    1.915143    5.316069
     31          8           0       -6.148253   -5.072380    5.431876
     32          8           0       -2.718541    1.759292   12.569150
     33          8           0       -6.675638   -4.679744   12.656598
     34          8           0       -2.681510   -0.881621    5.582729
     35          8           0       -6.717182   -2.271038    5.625188
     36          8           0       -5.321909    0.564851   12.365506
     37          8           0       -4.060444   -3.517578   12.408244
     38          8           0        0.295599    0.002312    9.270386
     39          8           0       -9.714888   -3.026263    9.321136
     40          8           0       -6.376155    3.419412    8.660878
     41          8           0       -2.979030   -6.462208    8.760969
     42          8           0       -1.799326    0.773944    7.476067
     43          8           0       -7.612366   -3.880167    7.552529
     44          8           0       -4.522821    2.218956   10.432575
     45          8           0       -4.866788   -5.216825   10.524267
     46          8           0       -1.622605   -3.491390    5.240126
     47          8           0       -7.837347    0.259448    5.169547
     48          8           0       -8.042050   -0.155689   12.757133
     49          8           0       -1.331003   -2.835604   12.777546
     50         74           0       -1.264312   -0.516765    8.838453
     51         74           0       -8.154441   -2.519480    8.875296
     52         74           0       -5.905081    1.849857    9.048622
     53         74           0       -3.476954   -4.889806    9.169955
     54          8           0       -4.231710   -3.095192    6.067812
     55          8           0       -5.169890   -0.040965    6.006907
     56          8           0       -6.179263   -1.996476   11.917913
     57          8           0       -3.180500   -0.958279   11.936193
     58          8           0       -4.374887    1.580912    7.846544
     59          8           0       -5.007076   -4.674639    7.923974
     60          8           0       -2.339545    0.595274   10.081868
     61          8           0       -7.063869   -3.611096   10.137374
     62          8           0       -2.577747   -3.877666    7.863971
     63          8           0       -6.830252    0.782932    7.808257
     64          8           0       -7.838373   -1.173004   10.148271
     65          8           0       -1.576076   -1.844348   10.142718
     66          8           0       -3.375738   -1.137730    8.006537
     67          8           0       -6.033094   -1.951320    8.035936
     68          8           0       -5.127754   -0.196922    9.951502
     69          8           0       -4.246793   -2.827598    9.978781
     70         19           0       -3.224261   -6.135701    5.652054
     71         19           0       -0.125654    0.051631   12.358401
     72         19           0       -9.285830   -2.907376   12.429274
     73         23           0       -4.699021   -1.524244    8.989672
 ---------------------------------------------------------------------
 Rotational constants (GHZ):           0.0171961           0.0132747           0.0130553
 Standard basis: def2SVP (5D, 7F)
  1217 basis functions,  2313 primitive gaussians,  1337 cartesian basis functions
   321 alpha electrons      321 beta electrons
       nuclear repulsion energy     20988.8597821717 Hartrees.
 NAtoms=   73 NActive=   73 NUniq=   73 SFac= 1.00D+00 NAtFMM=   60 NAOKFM=T Big=T
 Integral buffers will be    131072 words long.
 Raffenetti 2 integral format.
 Two-electron integral symmetry is turned off.
 Nuclear repulsion after empirical dispersion term =    20988.5823010170 Hartrees.
 Force PCM accuracy= 1.00D-10.
 ------------------------------------------------------------------------------
 Polarizable Continuum Model (PCM)
 =================================
 Model                : PCM (using non-symmetric T matrix).
 Atomic radii         : SMD-Coulomb.
 Polarization charges : Total charges.
 Charge compensation  : None.
 Solution method      : On-the-fly selection.
 Cavity type          : VdW (van der Waals Surface) (Alpha=1.000).
 Cavity algorithm     : GePol (No added spheres)
                        Default sphere list used, NSphG=   73.
                        Lebedev-Laikov grids with approx.  5.0 points / Ang**2.
                        Smoothing algorithm: York/Karplus (Gamma=1.0000).
                        Polarization charges: spherical gaussians, with
                                              point-specific exponents (IZeta= 3).
                        Self-potential: point-specific (ISelfS= 7).
                        Self-field    : sphere-specific E.n sum rule (ISelfD= 2).
 1st derivatives      : Analytical E(r).r(x)/FMM algorithm (CHGder, D1EAlg=3).
                        Cavity 1st derivative terms included.
 Solvent              : Acetonitrile, Eps=  35.688000 Eps(inf)=   1.806874
 ------------------------------------------------------------------------------
 ------------------------------------------------------------------------------
 Atomic radii for non-electrostatic terms: SMD-CDS.
 ------------------------------------------------------------------------------
 Nuclear repulsion after PCM non-electrostatic terms =    20988.5764916216 Hartrees.
 One-electron integrals computed using PRISM.
   1 Symmetry operations used in ECPInt.
 ECPInt:  NShTT=  127765 NPrTT=  468030 LenC2=   96751 LenP2D=  221360.
 LDataN:  DoStor=T MaxTD1= 8 Len=  415
 NBasis=  1217 RedAO= T EigKep=  1.36D-04  NBF=  1217
 NBsUse=  1217 1.00D-06 EigRej= -1.00D+00 NBFU=  1217
 Defaulting to unpruned grid for atomic number  74.
 Defaulting to unpruned grid for atomic number  74.
 Defaulting to unpruned grid for atomic number  74.
 Defaulting to unpruned grid for atomic number  74.
 Defaulting to unpruned grid for atomic number  74.
 Defaulting to unpruned grid for atomic number  74.
 Defaulting to unpruned grid for atomic number  74.
 Defaulting to unpruned grid for atomic number  74.
 Initial guess from the checkpoint file:  "a.chk"
 B after Tr=     0.002737   -0.004272   -0.000239
         Rot=    1.000000   -0.000004    0.000002    0.000187 Ang=  -0.02 deg.
 Requested convergence on RMS density matrix=1.00D-08 within  64 cycles.
 Requested convergence on MAX density matrix=1.00D-06.
 Requested convergence on             energy=1.00D-06.
 No special actions if energy rises.
 Defaulting to unpruned grid for atomic number  74.
 Defaulting to unpruned grid for atomic number  74.
 Defaulting to unpruned grid for atomic number  74.
 Defaulting to unpruned grid for atomic number  74.
 Defaulting to unpruned grid for atomic number  74.
 Defaulting to unpruned grid for atomic number  74.
 Defaulting to unpruned grid for atomic number  74.
 Defaulting to unpruned grid for atomic number  74.
 Defaulting to unpruned grid for atomic number  74.
 Defaulting to unpruned grid for atomic number  74.
 Defaulting to unpruned grid for atomic number  74.
 Defaulting to unpruned grid for atomic number  74.
 Defaulting to unpruned grid for atomic number  74.
 Defaulting to unpruned grid for atomic number  74.
 Defaulting to unpruned grid for atomic number  74.
 Defaulting to unpruned grid for atomic number  74.
 Defaulting to unpruned grid for atomic number  74.
 Defaulting to unpruned grid for atomic number  74.
 Defaulting to unpruned grid for atomic number  74.
 Defaulting to unpruned grid for atomic number  74.
 Defaulting to unpruned grid for atomic number  74.
 Defaulting to unpruned grid for atomic number  74.
 Defaulting to unpruned grid for atomic number  74.
 Defaulting to unpruned grid for atomic number  74.
 Defaulting to unpruned grid for atomic number  74.
 Defaulting to unpruned grid for atomic number  74.
 Defaulting to unpruned grid for atomic number  74.
 Defaulting to unpruned grid for atomic number  74.
 Defaulting to unpruned grid for atomic number  74.
 Defaulting to unpruned grid for atomic number  74.
 Defaulting to unpruned grid for atomic number  74.
 Defaulting to unpruned grid for atomic number  74.
 Defaulting to unpruned grid for atomic number  74.
 Defaulting to unpruned grid for atomic number  74.
 Defaulting to unpruned grid for atomic number  74.
 Defaulting to unpruned grid for atomic number  74.
 Defaulting to unpruned grid for atomic number  74.
 Defaulting to unpruned grid for atomic number  74.
 Defaulting to unpruned grid for atomic number  74.
 Defaulting to unpruned grid for atomic number  74.
 Defaulting to unpruned grid for atomic number  74.
 Defaulting to unpruned grid for atomic number  74.
 Defaulting to unpruned grid for atomic number  74.
 Defaulting to unpruned grid for atomic number  74.
 Defaulting to unpruned grid for atomic number  74.
 Defaulting to unpruned grid for atomic number  74.
 Defaulting to unpruned grid for atomic number  74.
 Defaulting to unpruned grid for atomic number  74.
 Defaulting to unpruned grid for atomic number  74.
 Defaulting to unpruned grid for atomic number  74.
 Defaulting to unpruned grid for atomic number  74.
 Defaulting to unpruned grid for atomic number  74.
 Defaulting to unpruned grid for atomic number  74.
 Defaulting to unpruned grid for atomic number  74.
 Defaulting to unpruned grid for atomic number  74.
 Defaulting to unpruned grid for atomic number  74.
 Inv3:  Mode=1 IEnd=    86704128.
 Iteration    1 A*A^-1 deviation from unit magnitude is 3.77D-15 for   1152.
 Iteration    1 A*A^-1 deviation from orthogonality  is 3.11D-15 for    909     33.
 Iteration    1 A^-1*A deviation from unit magnitude is 3.89D-15 for   5232.
 Iteration    1 A^-1*A deviation from orthogonality  is 1.16D-05 for    933    928.
 Iteration    2 A*A^-1 deviation from unit magnitude is 4.88D-15 for   1818.
 Iteration    2 A*A^-1 deviation from orthogonality  is 4.47D-15 for    972    648.
 Iteration    2 A^-1*A deviation from unit magnitude is 1.67D-15 for   1293.
 Iteration    2 A^-1*A deviation from orthogonality  is 7.14D-16 for   4133   4048.
 Error on total polarization charges =  0.01594
 SCF Done:  E(RwB97XD) =  -7327.70065662     A.U. after   11 cycles
            NFock= 11  Conv=0.79D-08     -V/T= 2.0832
 SMD-CDS (non-electrostatic) energy       (kcal/mol) =      -3.65
 (included in total energy above)
 QCSCF skips out because SCF is already converged.

 **********************************************************************

            Population analysis using the SCF Density.

 **********************************************************************

 Alpha  occ. eigenvalues -- -197.29583-130.00185-130.00183-130.00096-101.47684
 Alpha  occ. eigenvalues --  -22.62696 -19.33713 -19.33702 -19.33692 -19.33665
 Alpha  occ. eigenvalues --  -19.30709 -19.30672 -19.30666 -19.30654 -19.30647
 Alpha  occ. eigenvalues --  -19.30643 -19.30631 -19.30583 -19.30506 -19.30323
 Alpha  occ. eigenvalues --  -19.30293 -19.30069 -19.29314 -19.29311 -19.29280
 Alpha  occ. eigenvalues --  -19.29270 -19.29269 -19.29260 -19.29246 -19.29187
 Alpha  occ. eigenvalues --  -19.29182 -19.29161 -19.29134 -19.29126 -19.29110
 Alpha  occ. eigenvalues --  -19.29104 -19.29100 -19.29090 -19.29079 -19.29058
 Alpha  occ. eigenvalues --  -19.29044 -19.28961 -19.28958 -19.28935 -19.28920
 Alpha  occ. eigenvalues --  -19.28779 -19.11654 -19.11646 -19.11636 -13.37589
 Alpha  occ. eigenvalues --  -13.37588 -13.37491 -10.70518 -10.70517 -10.70511
 Alpha  occ. eigenvalues --  -10.70511 -10.70510 -10.70509 -10.70421 -10.70414
 Alpha  occ. eigenvalues --  -10.70411 -10.29843 -10.29350 -10.29297 -10.29103
 Alpha  occ. eigenvalues --  -10.29021 -10.28998 -10.28200 -10.27726  -9.38139
 Alpha  occ. eigenvalues --   -7.12961  -7.12921  -7.12920  -3.23276  -3.23273
 Alpha  occ. eigenvalues --   -3.23258  -3.23254  -3.23253  -3.23243  -3.23192
 Alpha  occ. eigenvalues --   -3.23189  -3.23142  -3.22921  -3.22919  -3.22671
 Alpha  occ. eigenvalues --   -2.91909  -1.94277  -1.94250  -1.94239  -1.87697
 Alpha  occ. eigenvalues --   -1.87638  -1.87617  -1.87562  -1.87461  -1.87451
 Alpha  occ. eigenvalues --   -1.87438  -1.87405  -1.87364  -1.87234  -1.87201
 Alpha  occ. eigenvalues --   -1.87011  -1.86592  -1.86472  -1.86465  -1.86440
 Alpha  occ. eigenvalues --   -1.86421  -1.86379  -1.86306  -1.86294  -1.86271
 Alpha  occ. eigenvalues --   -1.86254  -1.86229  -1.86198  -1.86109  -1.86089
 Alpha  occ. eigenvalues --   -1.86085  -1.86057  -1.86011  -1.85961  -1.85942
 Alpha  occ. eigenvalues --   -1.85883  -1.85851  -1.85758  -1.85629  -1.85571
 Alpha  occ. eigenvalues --   -1.51270  -1.51268  -1.51174  -1.13088  -1.11329
 Alpha  occ. eigenvalues --   -1.11242  -1.11225  -1.08959  -1.08508  -1.08458
 Alpha  occ. eigenvalues --   -1.08265  -1.07557  -1.07503  -1.07480  -1.06878
 Alpha  occ. eigenvalues --   -1.06848  -1.06828  -1.06291  -1.06259  -1.05293
 Alpha  occ. eigenvalues --   -1.05285  -1.04956  -1.04946  -1.04926  -1.04169
 Alpha  occ. eigenvalues --   -1.04167  -1.04141  -1.04001  -1.03980  -1.03962
 Alpha  occ. eigenvalues --   -1.03923  -1.03869  -1.03846  -1.03731  -1.03685
 Alpha  occ. eigenvalues --   -1.03593  -1.03539  -1.03263  -1.03225  -1.03090
 Alpha  occ. eigenvalues --   -1.03073  -1.03014  -1.02910  -0.94417  -0.86731
 Alpha  occ. eigenvalues --   -0.86728  -0.86640  -0.86582  -0.86543  -0.86541
 Alpha  occ. eigenvalues --   -0.86541  -0.86532  -0.86453  -0.86432  -0.82841
 Alpha  occ. eigenvalues --   -0.79835  -0.70833  -0.69808  -0.68073  -0.64557
 Alpha  occ. eigenvalues --   -0.63917  -0.63875  -0.63864  -0.63345  -0.63311
 Alpha  occ. eigenvalues --   -0.63208  -0.63065  -0.62695  -0.62618  -0.62012
 Alpha  occ. eigenvalues --   -0.61604  -0.61585  -0.61496  -0.61195  -0.61174
 Alpha  occ. eigenvalues --   -0.61141  -0.60390  -0.59450  -0.59424  -0.59413
 Alpha  occ. eigenvalues --   -0.59388  -0.59354  -0.58709  -0.57969  -0.57943
 Alpha  occ. eigenvalues --   -0.57875  -0.57088  -0.57053  -0.57019  -0.56276
 Alpha  occ. eigenvalues --   -0.56231  -0.56071  -0.55677  -0.54833  -0.54772
 Alpha  occ. eigenvalues --   -0.54732  -0.54598  -0.54219  -0.54105  -0.54060
 Alpha  occ. eigenvalues --   -0.54023  -0.53944  -0.53213  -0.53169  -0.53047
 Alpha  occ. eigenvalues --   -0.52977  -0.52869  -0.52692  -0.52629  -0.52599
 Alpha  occ. eigenvalues --   -0.52553  -0.52524  -0.52452  -0.52427  -0.51569
 Alpha  occ. eigenvalues --   -0.51547  -0.51370  -0.51327  -0.51300  -0.51241
 Alpha  occ. eigenvalues --   -0.51169  -0.51142  -0.51028  -0.50718  -0.50541
 Alpha  occ. eigenvalues --   -0.50534  -0.50501  -0.49881  -0.49870  -0.49302
 Alpha  occ. eigenvalues --   -0.49259  -0.49232  -0.49177  -0.49137  -0.49036
 Alpha  occ. eigenvalues --   -0.48887  -0.48073  -0.48018  -0.47909  -0.47718
 Alpha  occ. eigenvalues --   -0.47339  -0.47281  -0.47226  -0.47001  -0.46949
 Alpha  occ. eigenvalues --   -0.46821  -0.46544  -0.46493  -0.46430  -0.46218
 Alpha  occ. eigenvalues --   -0.46153  -0.46097  -0.45627  -0.45073  -0.44894
 Alpha  occ. eigenvalues --   -0.44863  -0.44169  -0.44147  -0.44021  -0.43606
 Alpha  occ. eigenvalues --   -0.43286  -0.43227  -0.43103  -0.43079  -0.43040
 Alpha  occ. eigenvalues --   -0.42703  -0.42674  -0.42648  -0.42586  -0.42581
 Alpha  occ. eigenvalues --   -0.42496  -0.42447  -0.42435  -0.42271  -0.42257
 Alpha  occ. eigenvalues --   -0.42228  -0.42005  -0.41888  -0.41836  -0.41818
 Alpha  occ. eigenvalues --   -0.41234  -0.41175  -0.41139  -0.41029  -0.40533
 Alpha  occ. eigenvalues --   -0.40519  -0.40503  -0.40419  -0.39429  -0.39404
 Alpha  occ. eigenvalues --   -0.36921  -0.32558  -0.28847  -0.24569  -0.24544
 Alpha  occ. eigenvalues --   -0.23359
 Alpha virt. eigenvalues --   -0.09565  -0.09363  -0.08385  -0.08336  -0.06955
 Alpha virt. eigenvalues --   -0.06894  -0.06796  -0.04544  -0.04232  -0.04206
 Alpha virt. eigenvalues --   -0.03689  -0.03527  -0.03440  -0.03201  -0.03101
 Alpha virt. eigenvalues --   -0.03040  -0.03008  -0.02172  -0.02138  -0.02102
 Alpha virt. eigenvalues --   -0.01478  -0.01445  -0.01378  -0.01268  -0.01187
 Alpha virt. eigenvalues --   -0.00038  -0.00027   0.00039   0.01449   0.01472
 Alpha virt. eigenvalues --    0.01913   0.01955   0.02039   0.02173   0.02201
 Alpha virt. eigenvalues --    0.02214   0.02250   0.02348   0.02780   0.02858
 Alpha virt. eigenvalues --    0.02942   0.02990   0.03040   0.04207   0.04578
 Alpha virt. eigenvalues --    0.06767   0.07273   0.07526   0.07599   0.07788
 Alpha virt. eigenvalues --    0.08035   0.08434   0.08487   0.08775   0.09158
 Alpha virt. eigenvalues --    0.09339   0.09388   0.09660   0.09884   0.10291
 Alpha virt. eigenvalues --    0.10313   0.10386   0.10444   0.10482   0.10633
 Alpha virt. eigenvalues --    0.10879   0.11071   0.11080   0.11667   0.11750
 Alpha virt. eigenvalues --    0.12278   0.13093   0.13227   0.13335   0.13572
 Alpha virt. eigenvalues --    0.13742   0.14362   0.14547   0.14643   0.14988
 Alpha virt. eigenvalues --    0.15529   0.16135   0.16344   0.16575   0.16748
 Alpha virt. eigenvalues --    0.16780   0.16888   0.17104   0.17244   0.17654
 Alpha virt. eigenvalues --    0.17857   0.18148   0.18203   0.18361   0.18603
 Alpha virt. eigenvalues --    0.18721   0.19024   0.19308   0.19405   0.19522
 Alpha virt. eigenvalues --    0.19650   0.20192   0.20304   0.20453   0.20635
 Alpha virt. eigenvalues --    0.20736   0.20866   0.20924   0.21312   0.21371
 Alpha virt. eigenvalues --    0.21471   0.21620   0.21650   0.21865   0.22079
 Alpha virt. eigenvalues --    0.22397   0.22694   0.22893   0.23149   0.23284
 Alpha virt. eigenvalues --    0.23495   0.23850   0.23999   0.24233   0.24529
 Alpha virt. eigenvalues --    0.24728   0.25189   0.25526   0.25648   0.25885
 Alpha virt. eigenvalues --    0.26036   0.26230   0.26435   0.26583   0.26750
 Alpha virt. eigenvalues --    0.27024   0.27220   0.27378   0.27463   0.27707
 Alpha virt. eigenvalues --    0.27990   0.28261   0.28335   0.28652   0.28726
 Alpha virt. eigenvalues --    0.29253   0.29478   0.29854   0.30128   0.30413
 Alpha virt. eigenvalues --    0.30589   0.30917   0.31137   0.31650   0.31751
 Alpha virt. eigenvalues --    0.32221   0.34758   0.35214   0.35834   0.36295
 Alpha virt. eigenvalues --    0.36673   0.36894   0.37196   0.38083   0.38434
 Alpha virt. eigenvalues --    0.38688   0.39225   0.39553   0.39714   0.40262
 Alpha virt. eigenvalues --    0.40729   0.40878   0.41040   0.41135   0.41749
 Alpha virt. eigenvalues --    0.42112   0.42355   0.42745   0.43304   0.43571
 Alpha virt. eigenvalues --    0.43747   0.44544   0.44761   0.44874   0.45226
 Alpha virt. eigenvalues --    0.45707   0.46261   0.46490   0.46709   0.47182
 Alpha virt. eigenvalues --    0.47404   0.47639   0.47984   0.48105   0.48234
 Alpha virt. eigenvalues --    0.48362   0.48440   0.48676   0.48805   0.48984
 Alpha virt. eigenvalues --    0.49159   0.49408   0.49527   0.49902   0.49940
 Alpha virt. eigenvalues --    0.50213   0.50596   0.50702   0.50953   0.51117
 Alpha virt. eigenvalues --    0.51645   0.51770   0.51920   0.52324   0.52493
 Alpha virt. eigenvalues --    0.52677   0.52871   0.53035   0.53155   0.53244
 Alpha virt. eigenvalues --    0.53702   0.54084   0.54335   0.54379   0.54603
 Alpha virt. eigenvalues --    0.54985   0.55412   0.55660   0.56405   0.56479
 Alpha virt. eigenvalues --    0.56832   0.57387   0.57725   0.58076   0.58282
 Alpha virt. eigenvalues --    0.58591   0.59100   0.59438   0.60242   0.60767
 Alpha virt. eigenvalues --    0.61407   0.62295   0.62663   0.62747   0.63151
 Alpha virt. eigenvalues --    0.64130   0.65334   0.65616   0.65675   0.65818
 Alpha virt. eigenvalues --    0.66113   0.66748   0.67117   0.67274   0.67424
 Alpha virt. eigenvalues --    0.67778   0.68343   0.69848   0.70408   0.71031
 Alpha virt. eigenvalues --    0.71338   0.71875   0.72001   0.72121   0.72175
 Alpha virt. eigenvalues --    0.72404   0.72548   0.73126   0.73411   0.73956
 Alpha virt. eigenvalues --    0.74629   0.74893   0.75544   0.75691   0.75935
 Alpha virt. eigenvalues --    0.76286   0.76625   0.76871   0.76985   0.77314
 Alpha virt. eigenvalues --    0.77585   0.78432   0.79086   0.79423   0.79597
 Alpha virt. eigenvalues --    0.79811   0.80306   0.80705   0.80966   0.81511
 Alpha virt. eigenvalues --    0.81616   0.81650   0.82014   0.82655   0.83115
 Alpha virt. eigenvalues --    0.84131   0.84310   0.84896   0.85348   0.86078
 Alpha virt. eigenvalues --    0.87135   0.87491   0.88003   0.88097   0.88791
 Alpha virt. eigenvalues --    0.89066   0.89166   0.89526   0.89676   0.90382
 Alpha virt. eigenvalues --    0.90718   0.90848   0.91347   0.91489   0.91661
 Alpha virt. eigenvalues --    0.92724   0.93034   0.93746   0.94025   0.94134
 Alpha virt. eigenvalues --    0.94428   0.94823   0.95944   0.96077   0.96877
 Alpha virt. eigenvalues --    0.96921   0.97178   0.97352   0.97770   0.97923
 Alpha virt. eigenvalues --    0.98194   0.98343   0.98572   0.98629   0.98810
 Alpha virt. eigenvalues --    0.99067   0.99675   1.00187   1.00274   1.00375
 Alpha virt. eigenvalues --    1.00915   1.01424   1.01648   1.01714   1.02119
 Alpha virt. eigenvalues --    1.02204   1.02487   1.02565   1.02637   1.02907
 Alpha virt. eigenvalues --    1.02985   1.03684   1.03926   1.04059   1.04067
 Alpha virt. eigenvalues --    1.04269   1.04378   1.04446   1.04552   1.04756
 Alpha virt. eigenvalues --    1.04936   1.05154   1.05256   1.05490   1.05899
 Alpha virt. eigenvalues --    1.06008   1.06399   1.06588   1.07086   1.07302
 Alpha virt. eigenvalues --    1.07535   1.07925   1.08785   1.09133   1.09294
 Alpha virt. eigenvalues --    1.09392   1.09813   1.10107   1.10223   1.10245
 Alpha virt. eigenvalues --    1.10752   1.10892   1.11045   1.11154   1.11383
 Alpha virt. eigenvalues --    1.11596   1.11649   1.11744   1.11998   1.12614
 Alpha virt. eigenvalues --    1.12910   1.13543   1.13870   1.14422   1.15084
 Alpha virt. eigenvalues --    1.15325   1.15991   1.16252   1.16553   1.16987
 Alpha virt. eigenvalues --    1.17284   1.17693   1.17903   1.18694   1.18924
 Alpha virt. eigenvalues --    1.19588   1.20833   1.21053   1.21263   1.21352
 Alpha virt. eigenvalues --    1.21441   1.22056   1.22181   1.23022   1.23633
 Alpha virt. eigenvalues --    1.25132   1.25862   1.26466   1.26687   1.26907
 Alpha virt. eigenvalues --    1.27307   1.27842   1.28136   1.28576   1.28615
 Alpha virt. eigenvalues --    1.28898   1.29123   1.29163   1.29338   1.29634
 Alpha virt. eigenvalues --    1.30068   1.30232   1.30330   1.30808   1.30937
 Alpha virt. eigenvalues --    1.31137   1.31996   1.32139   1.32964   1.33033
 Alpha virt. eigenvalues --    1.33202   1.33426   1.33770   1.33799   1.33961
 Alpha virt. eigenvalues --    1.34204   1.34311   1.34469   1.34697   1.34793
 Alpha virt. eigenvalues --    1.34895   1.35183   1.35301   1.35657   1.35884
 Alpha virt. eigenvalues --    1.36178   1.36321   1.36476   1.36763   1.36903
 Alpha virt. eigenvalues --    1.37112   1.37274   1.37586   1.37660   1.37816
 Alpha virt. eigenvalues --    1.37897   1.38460   1.38678   1.38835   1.39196
 Alpha virt. eigenvalues --    1.39253   1.39550   1.39677   1.39856   1.40203
 Alpha virt. eigenvalues --    1.40402   1.40585   1.40713   1.40861   1.40957
 Alpha virt. eigenvalues --    1.41181   1.41272   1.41535   1.42010   1.42299
 Alpha virt. eigenvalues --    1.42534   1.43194   1.43280   1.43396   1.43501
 Alpha virt. eigenvalues --    1.44003   1.44156   1.44551   1.45166   1.45641
 Alpha virt. eigenvalues --    1.46436   1.46706   1.47705   1.47819   1.48007
 Alpha virt. eigenvalues --    1.48370   1.48799   1.49307   1.49737   1.50300
 Alpha virt. eigenvalues --    1.50461   1.51022   1.51477   1.51961   1.53343
 Alpha virt. eigenvalues --    1.53654   1.55437   1.55782   1.55818   1.55923
 Alpha virt. eigenvalues --    1.56171   1.56380   1.56686   1.56761   1.57251
 Alpha virt. eigenvalues --    1.57304   1.58162   1.58331   1.59198   1.59249
 Alpha virt. eigenvalues --    1.59724   1.60137   1.60484   1.60525   1.60611
 Alpha virt. eigenvalues --    1.60774   1.61215   1.62159   1.62292   1.62640
 Alpha virt. eigenvalues --    1.64112   1.64319   1.65094   1.65636   1.66994
 Alpha virt. eigenvalues --    1.67664   1.67995   1.69929   1.70604   1.70916
 Alpha virt. eigenvalues --    1.71511   1.71695   1.72485   1.73024   1.74168
 Alpha virt. eigenvalues --    1.75075   1.75207   1.75464   1.75794   1.76646
 Alpha virt. eigenvalues --    1.76764   1.76980   1.77349   1.77756   1.78668
 Alpha virt. eigenvalues --    1.78760   1.79150   1.79523   1.80365   1.80601
 Alpha virt. eigenvalues --    1.81199   1.81448   1.81718   1.82212   1.82710
 Alpha virt. eigenvalues --    1.83020   1.83271   1.83822   1.84259   1.84471
 Alpha virt. eigenvalues --    1.85175   1.85234   1.85637   1.86080   1.86361
 Alpha virt. eigenvalues --    1.86491   1.87187   1.87632   1.88271   1.88614
 Alpha virt. eigenvalues --    1.89370   1.90064   1.90222   1.90368   1.90547
 Alpha virt. eigenvalues --    1.90867   1.91185   1.91555   1.92427   1.93674
 Alpha virt. eigenvalues --    1.94832   1.95358   1.95553   1.95792   1.96211
 Alpha virt. eigenvalues --    1.98345   1.99347   1.99488   1.99658   2.04841
 Alpha virt. eigenvalues --    2.06757   2.07219   2.08144   2.08527   2.08866
 Alpha virt. eigenvalues --    2.09035   2.09485   2.09586   2.10395   2.11196
 Alpha virt. eigenvalues --    2.11630   2.11963   2.12933   2.14896   2.15238
 Alpha virt. eigenvalues --    2.15993   2.16686   2.17161   2.17555   2.17712
 Alpha virt. eigenvalues --    2.20055   2.20391   2.20516   2.20776   2.21169
 Alpha virt. eigenvalues --    2.21380   2.22207   2.24469   2.25429   2.25980
 Alpha virt. eigenvalues --    2.26459   2.26643   2.27473   2.28477   2.28841
 Alpha virt. eigenvalues --    2.29251   2.29821   2.30272   2.33461   2.35589
 Alpha virt. eigenvalues --    2.36468   2.40004   2.40961   2.41061   2.43802
 Alpha virt. eigenvalues --    2.44214   2.50381   2.51586   2.57390   2.64813
 Alpha virt. eigenvalues --    2.64893   2.65028   2.65680   2.66086   2.66539
 Alpha virt. eigenvalues --    2.66788   2.66860   2.66951   2.67065   2.67102
 Alpha virt. eigenvalues --    2.67168   2.67271   2.67374   2.67382   2.67476
 Alpha virt. eigenvalues --    2.67705   2.67745   2.67848   2.67866   2.67965
 Alpha virt. eigenvalues --    2.68864   2.68995   2.69299   2.69391   2.69991
 Alpha virt. eigenvalues --    2.70176   2.70253   2.70446   2.70642   2.70813
 Alpha virt. eigenvalues --    2.70888   2.71414   2.71474   2.71545   2.71607
 Alpha virt. eigenvalues --    2.71717   2.72036   2.72619   2.72925   2.73007
 Alpha virt. eigenvalues --    2.73174   2.73243   2.73317   2.73365   2.73403
 Alpha virt. eigenvalues --    2.73537   2.73828   2.73925   2.73953   2.74060
 Alpha virt. eigenvalues --    2.74136   2.74256   2.74375   2.74624   2.74806
 Alpha virt. eigenvalues --    2.74839   2.75050   2.75257   2.75728   2.76110
 Alpha virt. eigenvalues --    2.76220   2.76301   2.76486   2.76785   2.77004
 Alpha virt. eigenvalues --    2.77160   2.77280   2.77317   2.78478   2.78637
 Alpha virt. eigenvalues --    2.78698   2.78987   2.79945   2.80160   2.80300
 Alpha virt. eigenvalues --    2.81217   2.81751   2.81809   2.82036   2.82205
 Alpha virt. eigenvalues --    2.82311   2.82755   2.83026   2.83272   2.83748
 Alpha virt. eigenvalues --    2.83778   2.83961   2.84082   2.84305   2.85027
 Alpha virt. eigenvalues --    2.85569   2.86121   2.86246   2.86419   2.86540
 Alpha virt. eigenvalues --    2.86686   2.86802   2.86939   2.88066   2.88440
 Alpha virt. eigenvalues --    2.88641   2.89056   2.89613   2.89674   2.89766
 Alpha virt. eigenvalues --    2.89806   2.89918   2.90063   2.90489   2.90600
 Alpha virt. eigenvalues --    2.90716   2.91773   2.91886   2.91943   2.92012
 Alpha virt. eigenvalues --    2.92225   2.92475   2.92708   2.92947   2.93126
 Alpha virt. eigenvalues --    2.93284   2.93530   2.93671   2.93984   2.94096
 Alpha virt. eigenvalues --    2.94212   2.95091   2.95248   2.95488   2.95706
 Alpha virt. eigenvalues --    2.95823   2.95904   2.96300   2.96487   2.96569
 Alpha virt. eigenvalues --    2.96667   2.96824   2.96944   2.97238   2.97478
 Alpha virt. eigenvalues --    2.97564   2.97765   2.98012   2.98425   2.99073
 Alpha virt. eigenvalues --    2.99350   2.99489   2.99762   2.99783   3.00110
 Alpha virt. eigenvalues --    3.00274   3.00541   3.01255   3.01482   3.01594
 Alpha virt. eigenvalues --    3.02566   3.03157   3.03359   3.03742   3.05139
 Alpha virt. eigenvalues --    3.06369   3.06661   3.07098   3.10970   3.11425
 Alpha virt. eigenvalues --    3.11595   3.11636   3.12189   3.12508   3.13702
 Alpha virt. eigenvalues --    3.13796   3.13918   3.16709   3.20146   3.21632
 Alpha virt. eigenvalues --    3.21994   3.23995   3.32620   3.40994   3.41642
 Alpha virt. eigenvalues --    3.42342   3.42946   3.44866   3.44947   3.45786
 Alpha virt. eigenvalues --    3.46024   3.46204   3.47196   3.47496   3.47809
 Alpha virt. eigenvalues --    3.48349   3.51120   3.51805   3.52252   3.53588
 Alpha virt. eigenvalues --    3.53695   3.54461   3.54718   3.55005   3.55159
 Alpha virt. eigenvalues --    3.55279   3.55594   3.56030   3.56559   3.57507
 Alpha virt. eigenvalues --    3.57814   3.58227   3.59415   3.59638   3.60475
 Alpha virt. eigenvalues --    3.60666   3.61238   3.61588   3.61948   3.62443
 Alpha virt. eigenvalues --    3.69595   3.74916  68.64476  68.65531  68.66712
 Alpha virt. eigenvalues --   68.68921  68.72861  68.73745  68.81804  68.82814
 Alpha virt. eigenvalues --   68.83331  68.85897  68.87006  68.88320 576.22907
 Alpha virt. eigenvalues --  576.23937 576.25094 576.27255 576.31206 576.32080
 Alpha virt. eigenvalues --  576.39985 576.40974 576.41474 576.43941 576.45027
 Alpha virt. eigenvalues --  576.46336
          Condensed to atoms (all electrons):
 Mulliken charges:
               1
     1  Cl  -0.931081
     2  C   -0.077728
     3  C    0.041229
     4  C   -0.075642
     5  C   -0.033122
     6  C   -0.031164
     7  C   -0.049806
     8  H    0.029055
     9  H    0.030361
    10  H    0.040954
    11  H    0.037147
    12  H    0.039930
    13  C   -0.096912
    14  C    0.015189
    15  H    0.021261
    16  H    0.041395
    17  H    0.035601
    18  O   -0.663409
    19  O   -0.660222
    20  O   -0.654533
    21  O   -0.661712
    22  W    1.735328
    23  W    1.671238
    24  W    1.681082
    25  W    1.691608
    26  W    1.676078
    27  W    1.727619
    28  W    1.621073
    29  W    1.683772
    30  O   -0.321106
    31  O   -0.365224
    32  O   -0.365564
    33  O   -0.362299
    34  O   -0.664896
    35  O   -0.670383
    36  O   -0.661467
    37  O   -0.663297
    38  O   -0.366524
    39  O   -0.365886
    40  O   -0.293847
    41  O   -0.364843
    42  O   -0.669815
    43  O   -0.662971
    44  O   -0.659412
    45  O   -0.665647
    46  O   -0.366702
    47  O   -0.321017
    48  O   -0.355618
    49  O   -0.363383
    50  W    1.672473
    51  W    1.675676
    52  W    1.680860
    53  W    1.683503
    54  O   -0.723563
    55  O   -0.707325
    56  O   -0.726140
    57  O   -0.721719
    58  O   -0.707744
    59  O   -0.726399
    60  O   -0.724853
    61  O   -0.720836
    62  O   -0.724595
    63  O   -0.709183
    64  O   -0.723324
    65  O   -0.726495
    66  O   -0.802880
    67  O   -0.801656
    68  O   -0.799967
    69  O   -0.809551
    70  K    0.866771
    71  K    0.867088
    72  K    0.863493
    73  V    1.191679
 Sum of Mulliken charges =  -1.00000
 Mulliken charges with hydrogens summed into heavy atoms:
               1
     1  Cl  -0.931081
     2  C   -0.048674
     3  C    0.041229
     4  C   -0.045281
     5  C    0.007831
     6  C    0.005983
     7  C   -0.009876
    13  C   -0.075650
    14  C    0.092185
    18  O   -0.663409
    19  O   -0.660222
    20  O   -0.654533
    21  O   -0.661712
    22  W    1.735328
    23  W    1.671238
    24  W    1.681082
    25  W    1.691608
    26  W    1.676078
    27  W    1.727619
    28  W    1.621073
    29  W    1.683772
    30  O   -0.321106
    31  O   -0.365224
    32  O   -0.365564
    33  O   -0.362299
    34  O   -0.664896
    35  O   -0.670383
    36  O   -0.661467
    37  O   -0.663297
    38  O   -0.366524
    39  O   -0.365886
    40  O   -0.293847
    41  O   -0.364843
    42  O   -0.669815
    43  O   -0.662971
    44  O   -0.659412
    45  O   -0.665647
    46  O   -0.366702
    47  O   -0.321017
    48  O   -0.355618
    49  O   -0.363383
    50  W    1.672473
    51  W    1.675676
    52  W    1.680860
    53  W    1.683503
    54  O   -0.723563
    55  O   -0.707325
    56  O   -0.726140
    57  O   -0.721719
    58  O   -0.707744
    59  O   -0.726399
    60  O   -0.724853
    61  O   -0.720836
    62  O   -0.724595
    63  O   -0.709183
    64  O   -0.723324
    65  O   -0.726495
    66  O   -0.802880
    67  O   -0.801656
    68  O   -0.799967
    69  O   -0.809551
    70  K    0.866771
    71  K    0.867088
    72  K    0.863493
    73  V    1.191679
 Electronic spatial extent (au):  <R**2>=         317476.4758
 Charge=             -1.0000 electrons
 Dipole moment (field-independent basis, Debye):
    X=             51.8337    Y=            -51.4337    Z=            -38.5024  Tot=             82.5506
 Quadrupole moment (field-independent basis, Debye-Ang):
   XX=          -1070.2491   YY=           -880.5746   ZZ=           -909.7549
   XY=            459.6849   XZ=            464.4632   YZ=           -479.3295
 Traceless Quadrupole moment (field-independent basis, Debye-Ang):
   XX=           -116.7229   YY=             72.9516   ZZ=             43.7713
   XY=            459.6849   XZ=            464.4632   YZ=           -479.3295
 Octapole moment (field-independent basis, Debye-Ang**2):
  XXX=          13643.7679  YYY=          -1019.0678  ZZZ=         -19059.6682  XYY=           6066.9565
  XXY=          -3763.6825  XXZ=          -9562.9835  XZZ=           7391.4929  YZZ=          -4186.5848
  YYZ=          -8954.6825  XYZ=           4856.6797
 Hexadecapole moment (field-independent basis, Debye-Ang**3):
 XXXX=        -161728.3445 YYYY=         -52318.4518 ZZZZ=        -345024.6757 XXXY=          38506.8930
 XXXZ=         124730.2726 YYYX=          20575.5968 YYYZ=         -12127.3164 ZZZX=         128033.1431
 ZZZY=         -35741.2536 XXYY=         -56128.0815 XXZZ=        -109135.4814 YYZZ=         -98778.4310
 XXYZ=         -43431.2018 YYXZ=          61395.5976 ZZXY=          51001.5621
 N-N= 2.098857649162D+04 E-N=-5.906157393195D+04  KE= 6.765157349688D+03
   1 Symmetry operations used in ECPInt.
 ECPInt:  NShTT=  127765 NPrTT=  468030 LenC2=   96751 LenP2D=  221360.
 LDataN:  DoStor=T MaxTD1= 9 Len=  602
 D1PCM: PCM CHGder 1st derivatives, ID1Alg=3 FixD1E=F DoIter=F DoCFld=F I1PDM=0.
 Calling FoFJK, ICntrl=      2127 FMM=T ISym2X=0 I1Cent= 0 IOpClX= 0 NMat=1 NMatS=1 NMatT=0.
 Defaulting to unpruned grid for atomic number  74.
 Defaulting to unpruned grid for atomic number  74.
 Defaulting to unpruned grid for atomic number  74.
 Defaulting to unpruned grid for atomic number  74.
 Defaulting to unpruned grid for atomic number  74.
 Defaulting to unpruned grid for atomic number  74.
 Defaulting to unpruned grid for atomic number  74.
 Defaulting to unpruned grid for atomic number  74.
 Defaulting to unpruned grid for atomic number  74.
 Defaulting to unpruned grid for atomic number  74.
 Defaulting to unpruned grid for atomic number  74.
 Defaulting to unpruned grid for atomic number  74.
 Defaulting to unpruned grid for atomic number  74.
 Defaulting to unpruned grid for atomic number  74.
 Defaulting to unpruned grid for atomic number  74.
 Defaulting to unpruned grid for atomic number  74.
 Defaulting to unpruned grid for atomic number  74.
 Defaulting to unpruned grid for atomic number  74.
 Defaulting to unpruned grid for atomic number  74.
 Defaulting to unpruned grid for atomic number  74.
 Defaulting to unpruned grid for atomic number  74.
 Defaulting to unpruned grid for atomic number  74.
 Defaulting to unpruned grid for atomic number  74.
 Defaulting to unpruned grid for atomic number  74.
 Defaulting to unpruned grid for atomic number  74.
 Defaulting to unpruned grid for atomic number  74.
 Defaulting to unpruned grid for atomic number  74.
 Defaulting to unpruned grid for atomic number  74.
 Defaulting to unpruned grid for atomic number  74.
 Defaulting to unpruned grid for atomic number  74.
 Defaulting to unpruned grid for atomic number  74.
 Defaulting to unpruned grid for atomic number  74.
 Defaulting to unpruned grid for atomic number  74.
 Defaulting to unpruned grid for atomic number  74.
 Defaulting to unpruned grid for atomic number  74.
 Defaulting to unpruned grid for atomic number  74.
 Defaulting to unpruned grid for atomic number  74.
 Defaulting to unpruned grid for atomic number  74.
 Defaulting to unpruned grid for atomic number  74.
 Defaulting to unpruned grid for atomic number  74.
 Defaulting to unpruned grid for atomic number  74.
 Defaulting to unpruned grid for atomic number  74.
 Defaulting to unpruned grid for atomic number  74.
 Defaulting to unpruned grid for atomic number  74.
 Defaulting to unpruned grid for atomic number  74.
 Defaulting to unpruned grid for atomic number  74.
 Defaulting to unpruned grid for atomic number  74.
 Defaulting to unpruned grid for atomic number  74.
 Defaulting to unpruned grid for atomic number  74.
 Defaulting to unpruned grid for atomic number  74.
 Defaulting to unpruned grid for atomic number  74.
 Defaulting to unpruned grid for atomic number  74.
 Defaulting to unpruned grid for atomic number  74.
 Defaulting to unpruned grid for atomic number  74.
 Defaulting to unpruned grid for atomic number  74.
 Defaulting to unpruned grid for atomic number  74.
 -------------------------------------------------------------------
 Center     Atomic                   Forces (Hartrees/Bohr)
 Number     Number              X              Y              Z
 -------------------------------------------------------------------
      1       17          -0.001566309    0.005863156    0.001879582
      2        6          -0.001262137   -0.000522273   -0.001670124
      3        6          -0.000841316   -0.001776830    0.003128667
      4        6           0.001677169    0.001805661    0.000599336
      5        6           0.000688513    0.000167818    0.001233978
      6        6          -0.000151913   -0.000080345    0.000859286
      7        6          -0.001086324   -0.001211265    0.000458710
      8        1          -0.000063720    0.000301429    0.000226842
      9        1          -0.000493522    0.000303164    0.000070473
     10        1          -0.000173128   -0.000111531   -0.000009627
     11        1           0.000160921   -0.000227923    0.000141481
     12        1           0.000061534    0.000057414    0.000189622
     13        6           0.008952638    0.010045819   -0.007398090
     14        6          -0.005335930   -0.014597007    0.000695302
     15        1          -0.000312104   -0.000097857   -0.000288895
     16        1          -0.001394419    0.001711378    0.000642789
     17        1          -0.001915318    0.000991781   -0.000043411
     18        8          -0.003475878    0.000304144    0.001072392
     19        8           0.003632110   -0.000719699    0.001128903
     20        8           0.002603490   -0.003177917   -0.000615761
     21        8          -0.002667250    0.002251595   -0.001042890
     22       74           0.001500302    0.011068717   -0.010140521
     23       74          -0.002312614   -0.010075602   -0.010142548
     24       74           0.006584981    0.008322874    0.010037087
     25       74          -0.007160083   -0.007543644    0.010583247
     26       74           0.008701125   -0.007939105   -0.011145977
     27       74          -0.008735235    0.008620561   -0.010913026
     28       74          -0.012094255    0.003173493    0.011161010
     29       74           0.011541576   -0.002099222    0.010990828
     30        8          -0.001189324   -0.002937154    0.003316168
     31        8           0.000916538    0.002677285    0.003176581
     32        8          -0.001444156   -0.002397500   -0.003378052
     33        8           0.001553220    0.002263651   -0.003198448
     34        8          -0.001235689   -0.001026613    0.003438710
     35        8           0.001631487    0.000308337    0.003509288
     36        8           0.000725082   -0.001749708   -0.003292096
     37        8          -0.000299751    0.001423090   -0.003399604
     38        8          -0.004496540   -0.002029160   -0.000864892
     39        8           0.005017561    0.001831188   -0.000926526
     40        8           0.002660859   -0.006286718   -0.000089777
     41        8          -0.001199177    0.004357384    0.000478445
     42        8          -0.002269101   -0.002833662    0.001613733
     43        8           0.002800555    0.002575603    0.001176462
     44        8          -0.000182805   -0.004143607   -0.000960288
     45        8           0.000654255    0.003351688   -0.001349108
     46        8          -0.002723465    0.002290787    0.003108603
     47        8           0.003291959   -0.001637681    0.003091161
     48        8           0.003824601   -0.001355465   -0.003327324
     49        8          -0.003357871    0.001131031   -0.003155915
     50       74           0.014965898    0.005133101    0.003321698
     51       74          -0.015226437   -0.004315708    0.003789194
     52       74          -0.006002829    0.016865371   -0.003691788
     53       74           0.004671030   -0.014700914   -0.003032837
     54        8          -0.000443979    0.001347016    0.002337619
     55        8           0.000693057   -0.001542774    0.002380177
     56        8           0.001584194   -0.000227551   -0.002326566
     57        8          -0.001403023   -0.000739449   -0.002362960
     58        8           0.000172359   -0.002139786    0.000731873
     59        8           0.000438525    0.002266442    0.001516380
     60        8          -0.001429002   -0.001957569   -0.001578970
     61        8           0.001932059    0.001419528   -0.001484908
     62        8          -0.001248478    0.001724082    0.000705397
     63        8           0.001049088   -0.002339530    0.000145679
     64        8           0.002383027   -0.000302844   -0.000839422
     65        8          -0.002267426   -0.000231646   -0.000581775
     66        8          -0.027027691   -0.005024280    0.017803565
     67        8           0.027603683    0.005676434    0.017596377
     68        8           0.011442700   -0.026210065   -0.017889157
     69        8          -0.011534313    0.024694342   -0.018022186
     70       19           0.000212200   -0.000431763   -0.000390745
     71       19           0.000507476    0.000088457    0.000237401
     72       19          -0.000486711    0.000145306    0.000270379
     73       23          -0.000326547    0.000182241    0.000709789
 -------------------------------------------------------------------
 Cartesian Forces:  Max     0.027603683 RMS     0.006248757

 GradGradGradGradGradGradGradGradGradGradGradGradGradGradGradGradGradGrad
 Berny optimization.
 Search for a local minimum.
 Step number   1 out of a maximum of    2
 All quantities printed in internal units (Hartrees-Bohrs-Radians)
 Second derivative matrix not updated -- first step.
 ITU=  0
     Eigenvalues ---    0.00000   0.00000   0.00000   0.00010   0.00091
     Eigenvalues ---    0.00093   0.00257   0.00566   0.00618   0.01643
     Eigenvalues ---    0.01981   0.02901   0.02940   0.03202   0.03399
     Eigenvalues ---    0.03441   0.03721   0.03725   0.04149   0.04499
     Eigenvalues ---    0.04589   0.04596   0.04609   0.04817   0.04835
     Eigenvalues ---    0.04997   0.05344   0.05546   0.05569   0.06349
     Eigenvalues ---    0.06391   0.06523   0.06784   0.06861   0.07048
     Eigenvalues ---    0.07310   0.07364   0.07606   0.08312   0.08382
     Eigenvalues ---    0.08698   0.08717   0.08896   0.08940   0.09740
     Eigenvalues ---    0.09898   0.10068   0.10357   0.10407   0.10468
     Eigenvalues ---    0.10811   0.10862   0.11506   0.11592   0.11977
     Eigenvalues ---    0.12000   0.12087   0.12440   0.12560   0.12619
     Eigenvalues ---    0.12649   0.12696   0.12850   0.12922   0.13033
     Eigenvalues ---    0.13861   0.13919   0.14227   0.14492   0.14727
     Eigenvalues ---    0.16787   0.16800   0.17011   0.17158   0.17549
     Eigenvalues ---    0.17657   0.18524   0.19707   0.19875   0.20240
     Eigenvalues ---    0.20774   0.20995   0.21741   0.21865   0.22037
     Eigenvalues ---    0.22324   0.23008   0.23296   0.23859   0.23869
     Eigenvalues ---    0.24541   0.24668   0.24807   0.25641   0.25961
     Eigenvalues ---    0.26160   0.26342   0.27495   0.27569   0.27786
     Eigenvalues ---    0.28219   0.28250   0.28701   0.29427   0.30001
     Eigenvalues ---    0.30442   0.30515   0.30529   0.30572   0.30615
     Eigenvalues ---    0.30761   0.31150   0.31296   0.31413   0.32026
     Eigenvalues ---    0.32304   0.32332   0.32586   0.32857   0.33390
     Eigenvalues ---    0.33465   0.35227   0.35421   0.35764   0.36804
     Eigenvalues ---    0.37342   0.37488   0.37555   0.38006   0.38336
     Eigenvalues ---    0.38699   0.39005   0.40093   0.40116   0.40986
     Eigenvalues ---    0.42072   0.42179   0.43560   0.43860   0.44961
     Eigenvalues ---    0.45138   0.45399   0.45794   0.47353   0.47989
     Eigenvalues ---    0.48294   0.48455   0.48595   0.49264   0.49415
     Eigenvalues ---    0.49768   0.50475   0.51406   0.51436   0.51953
     Eigenvalues ---    0.52840   0.53383   0.55282   0.58599   0.64410
     Eigenvalues ---    0.67576   0.76763   0.81539   0.82816   0.96774
     Eigenvalues ---    0.97254   0.98635   0.99472   1.01907   1.04423
     Eigenvalues ---    1.07219   1.11094   1.11749   1.12263   1.15390
     Eigenvalues ---    1.18889   1.19430   1.20558   1.22270   1.22715
     Eigenvalues ---    1.23035   1.25718   1.26470   1.26669   1.27216
     Eigenvalues ---    1.27618   1.28978   1.29372   1.45087   1.45821
     Eigenvalues ---    1.45864   1.48296   1.51248   1.51857   1.51877
     Eigenvalues ---    1.52512   1.55523   1.55784   1.56338   1.58250
     Eigenvalues ---    1.58359   1.59643   1.61430   1.64945   1.65988
     Eigenvalues ---    1.72251   1.77101   1.82683   1.83771   1.85917
     Eigenvalues ---    1.95794   1.98715   2.97104
 Eigenvalue     1 is   2.22D-16 Eigenvector:
                          Y16       Y14       Y17       Y15       Y13
   1                    0.17489   0.17489   0.17489   0.17489   0.17489
                          Y3        Y8        Y9        Y2        Y4
   1                    0.17489   0.17489   0.17489   0.17489   0.17489
 Eigenvalue     2 is   3.23D-07 Eigenvector:
                          Y16       X16       X11       Y11       Y14
   1                    0.33736  -0.26505   0.26206  -0.24986   0.24793
                          Y15       Y17       X14       Y13       X6
   1                    0.23058   0.21347  -0.18908   0.18892   0.18336
 Eigenvalue     3 is   2.96D-06 Eigenvector:
                          X9        X10       Y12       X12       Y9
   1                    0.33382   0.28631   0.28300  -0.25868  -0.25834
                          Y8        Y10       X15       X8        X4
   1                    0.24896  -0.22471   0.22338  -0.21318   0.20190
 Quadratic step=1.172D+01 exceeds max=3.000D-01 adjusted using Lamda=-6.389D-03.
 Angle between NR and scaled steps=  49.15 degrees.
 Angle between quadratic step and forces=  65.49 degrees.
 Linear search not attempted -- first point.
 B after Tr=     0.004617    0.002869    0.002237
         Rot=    1.000000   -0.000177    0.000073    0.000265 Ang=  -0.04 deg.
 Variable       Old X    -DE/DX   Delta X   Delta X   Delta X     New X
                                 (Linear)    (Quad)   (Total)
    X1      -18.76817  -0.00157   0.00000  -0.00150   0.00828 -18.75989
    Y1       15.26206   0.00586   0.00000   0.00596   0.01174  15.27380
    Z1       19.87297   0.00188   0.00000   0.00202   0.00690  19.87987
    X2      -15.71714  -0.00126   0.00000  -0.01164  -0.00618 -15.72332
    Y2        8.00501  -0.00052   0.00000  -0.01300  -0.00997   7.99504
    Z2       23.10959  -0.00167   0.00000  -0.01026  -0.00751  23.10208
    X3      -17.17524  -0.00084   0.00000   0.00374   0.00918 -17.16606
    Y3        7.40013  -0.00178   0.00000  -0.03793  -0.03338   7.36674
    Z3       20.97133   0.00313   0.00000  -0.01231  -0.00999  20.96134
    X4      -18.92940   0.00168   0.00000  -0.00731  -0.00295 -18.93235
    Y4        5.41205   0.00181   0.00000  -0.01850  -0.01310   5.39895
    Z4       21.16900   0.00060   0.00000   0.02006   0.02143  21.19043
    X5      -19.26362   0.00069   0.00000  -0.00930  -0.00595 -19.26957
    Y5        4.11990   0.00017   0.00000  -0.00110   0.00368   4.12358
    Z5       23.43421   0.00123   0.00000   0.03188   0.03274  23.46696
    X6      -17.83263  -0.00015   0.00000  -0.00716  -0.00376 -17.83640
    Y6        4.77350  -0.00008   0.00000   0.00521   0.00848   4.78198
    Z6       25.55062   0.00086   0.00000   0.02647   0.02778  25.57839
    X7      -16.04370  -0.00109   0.00000  -0.01301  -0.00856 -16.05227
    Y7        6.70583  -0.00121   0.00000   0.00623   0.00862   6.71445
    Z7       25.37173   0.00046   0.00000   0.00496   0.00722  25.37894
    X8      -14.30677  -0.00006   0.00000  -0.01472  -0.00845 -14.31522
    Y8        9.50763   0.00030   0.00000  -0.00932  -0.00700   9.50063
    Z8       23.00265   0.00023   0.00000  -0.01534  -0.01185  22.99080
    X9      -20.03621  -0.00049   0.00000  -0.02085  -0.01652 -20.05273
    Y9        4.88218   0.00030   0.00000  -0.02067  -0.01409   4.86809
    Z9       19.50594   0.00007   0.00000   0.02924   0.03025  19.53619
   X10      -20.63870  -0.00017   0.00000  -0.01495  -0.01243 -20.65112
   Y10        2.58397  -0.00011   0.00000   0.00410   0.00956   2.59353
   Z10       23.55026  -0.00001   0.00000   0.03976   0.03988  23.59014
   X11      -18.09004   0.00016   0.00000   0.00036   0.00296 -18.08708
   Y11        3.76133  -0.00023   0.00000   0.01170   0.01447   3.77580
   Z11       27.33040   0.00014   0.00000   0.03153   0.03244  27.36284
   X12      -14.89624   0.00006   0.00000  -0.01208  -0.00760 -14.90384
   Y12        7.20556   0.00006   0.00000   0.02181   0.02302   7.22858
   Z12       27.01465   0.00019   0.00000   0.00043   0.00303  27.01768
   X13      -16.94777   0.00895   0.00000   0.02227   0.02876 -16.91902
   Y13        8.75730   0.01005   0.00000  -0.08228  -0.07701   8.68029
   Z13       18.57168  -0.00740   0.00000  -0.04955  -0.04673  18.52494
   X14      -15.45682  -0.00534   0.00000  -0.02314  -0.01552 -15.47234
   Y14       10.76510  -0.01460   0.00000  -0.07958  -0.07490  10.69020
   Z14       18.09845   0.00070   0.00000  -0.05172  -0.04798  18.05047
   X15      -18.14933  -0.00031   0.00000   0.02901   0.03533 -18.11399
   Y15        8.04457  -0.00010   0.00000  -0.10346  -0.09701   7.94756
   Z15       17.04413  -0.00029   0.00000  -0.04522  -0.04283  17.00130
   X16      -15.38022  -0.00139   0.00000  -0.05684  -0.04849 -15.42871
   Y16       11.58382   0.00171   0.00000  -0.04520  -0.03987  11.54394
   Z16       16.20700   0.00064   0.00000  -0.03798  -0.03393  16.17307
   X17      -14.15691  -0.00192   0.00000  -0.07972  -0.07186 -14.22877
   Y17       11.55239   0.00099   0.00000  -0.01951  -0.01599  11.53640
   Z17       19.49522  -0.00004   0.00000  -0.03423  -0.03000  19.46522
   X18       -1.88794  -0.00348   0.00000  -0.01718  -0.01641  -1.90435
   Y18       -3.34233   0.00030   0.00000  -0.00664  -0.00774  -3.35008
   Z18       14.09544   0.00107   0.00000   0.01155   0.01232  14.10776
   X19      -15.89700   0.00363   0.00000   0.01955   0.02078 -15.87623
   Y19       -2.51525  -0.00072   0.00000   0.01620   0.02248  -2.49277
   Z19       14.09932   0.00113   0.00000   0.01372   0.01275  14.11207
   X20      -13.31534   0.00260   0.00000   0.01731   0.02037 -13.29497
   Y20        2.54575  -0.00318   0.00000  -0.00823  -0.00533   2.54043
   Z20       19.81082  -0.00062   0.00000  -0.00665  -0.00546  19.80535
   X21       -4.40579  -0.00267   0.00000  -0.01407  -0.01674  -4.42253
   Y21       -8.24589   0.00225   0.00000   0.01011   0.00828  -8.23762
   Z21       19.95200  -0.00104   0.00000  -0.01160  -0.01292  19.93908
   X22       -6.45675   0.00150   0.00000  -0.00363  -0.00008  -6.45683
   Y22        1.36072   0.01107   0.00000   0.01920   0.02116   1.38188
   Z22       12.25433  -0.01014   0.00000  -0.00614  -0.00436  12.24997
   X23      -11.35174  -0.00231   0.00000   0.00648   0.00545 -11.34630
   Y23       -7.22786  -0.01008   0.00000  -0.00205   0.00244  -7.22542
   Z23       12.42654  -0.01014   0.00000  -0.00550  -0.00748  12.41907
   X24       -6.85765   0.00658   0.00000   0.02314   0.02549  -6.83216
   Y24        1.71245   0.00832   0.00000  -0.00274  -0.00388   1.70857
   Z24       21.57253   0.01004   0.00000   0.00687   0.00871  21.58124
   X25      -10.91035  -0.00716   0.00000  -0.01901  -0.02143 -10.93178
   Y25       -7.29886  -0.00754   0.00000   0.00465   0.00565  -7.29322
   Z25       21.67942   0.01058   0.00000   0.00696   0.00502  21.68443
   X26       -4.64814   0.00870   0.00000  -0.00311  -0.00283  -4.65097
   Y26       -4.83906  -0.00794   0.00000  -0.01207  -0.01100  -4.85006
   Z26       12.07558  -0.01115   0.00000  -0.00683  -0.00699  12.06860
   X27      -13.12265  -0.00874   0.00000   0.00210   0.00443 -13.11822
   Y27       -1.01647   0.00862   0.00000   0.02857   0.03414  -0.98233
   Z27       12.01824  -0.01091   0.00000  -0.00770  -0.00774  12.01050
   X28      -12.89792  -0.01209   0.00000  -0.00535  -0.00419 -12.90212
   Y28       -0.46905   0.00317   0.00000  -0.00267  -0.00070  -0.46976
   Z28       21.87829   0.01116   0.00000   0.01037   0.01055  21.88884
   X29       -4.84942   0.01154   0.00000   0.01069   0.00938  -4.84003
   Y29       -5.10791  -0.00210   0.00000   0.00557   0.00324  -5.10467
   Z29       21.95585   0.01099   0.00000   0.00675   0.00647  21.96232
   X30       -6.00876  -0.00119   0.00000   0.01123   0.01629  -5.99248
   Y30        3.61910  -0.00294   0.00000   0.00936   0.01186   3.63095
   Z30       10.04591   0.00332   0.00000  -0.00105   0.00159  10.04750
   X31      -11.61851   0.00092   0.00000  -0.00648  -0.00844 -11.62696
   Y31       -9.58541   0.00268   0.00000   0.00453   0.00993  -9.57548
   Z31       10.26476   0.00318   0.00000  -0.00032  -0.00317  10.26159
   X32       -5.13730  -0.00144   0.00000   0.01596   0.01885  -5.11845
   Y32        3.32458  -0.00240   0.00000  -0.00027  -0.00309   3.32149
   Z32       23.75225  -0.00338   0.00000  -0.00042   0.00224  23.75449
   X33      -12.61513   0.00155   0.00000  -0.01065  -0.01423 -12.62935
   Y33       -8.84344   0.00226   0.00000   0.00169   0.00280  -8.84064
   Z33       23.91750  -0.00320   0.00000   0.00067  -0.00207  23.91543
   X34       -5.06732  -0.00124   0.00000  -0.01183  -0.00964  -5.07696
   Y34       -1.66602  -0.00103   0.00000  -0.00229  -0.00046  -1.66649
   Z34       10.54983   0.00344   0.00000   0.01401   0.01491  10.56474
   X35      -12.69363   0.00163   0.00000   0.01426   0.01506 -12.67858
   Y35       -4.29164   0.00031   0.00000   0.01716   0.02298  -4.26866
   Z35       10.63006   0.00351   0.00000   0.01436   0.01323  10.64329
   X36      -10.05695   0.00073   0.00000   0.01327   0.01501 -10.04194
   Y36        1.06741  -0.00175   0.00000  -0.01418  -0.01425   1.05317
   Z36       23.36742  -0.00329   0.00000  -0.00829  -0.00716  23.36026
   X37       -7.67313  -0.00030   0.00000  -0.00579  -0.00812  -7.68125
   Y37       -6.64726   0.00142   0.00000   0.01328   0.01194  -6.63532
   Z37       23.44818  -0.00340   0.00000  -0.01136  -0.01260  23.43558
   X38        0.55860  -0.00450   0.00000   0.00933   0.01137   0.56997
   Y38        0.00437  -0.00203   0.00000  -0.01453  -0.01815  -0.01378
   Z38       17.51849  -0.00086   0.00000   0.00109   0.00341  17.52190
   X39      -18.35848   0.00502   0.00000  -0.00409  -0.00508 -18.36356
   Y39       -5.71881   0.00183   0.00000   0.01993   0.02629  -5.69251
   Z39       17.61439  -0.00093   0.00000   0.00240  -0.00007  17.61433
   X40      -12.04919   0.00266   0.00000   0.02003   0.02567 -12.02351
   Y40        6.46175  -0.00629   0.00000   0.01166   0.01511   6.47686
   Z40       16.36669  -0.00009   0.00000  -0.00498  -0.00222  16.36447
   X41       -5.62955  -0.00120   0.00000  -0.00428  -0.00855  -5.63810
   Y41      -12.21180   0.00436   0.00000  -0.00113  -0.00113 -12.21293
   Z41       16.55583   0.00048   0.00000  -0.00551  -0.00842  16.54741
   X42       -3.40023  -0.00227   0.00000  -0.01026  -0.00695  -3.40718
   Y42        1.46254  -0.00283   0.00000  -0.00709  -0.00741   1.45513
   Z42       14.12772   0.00161   0.00000   0.01418   0.01643  14.14415
   X43      -14.38529   0.00280   0.00000   0.01412   0.01277 -14.37252
   Y43       -7.33245   0.00258   0.00000   0.01795   0.02338  -7.30907
   Z43       14.27221   0.00118   0.00000   0.01194   0.00949  14.28170
   X44       -8.54689  -0.00018   0.00000   0.01582   0.01976  -8.52714
   Y44        4.19322  -0.00414   0.00000  -0.01723  -0.01682   4.17640
   Z44       19.71471  -0.00096   0.00000  -0.00758  -0.00512  19.70959
   X45       -9.19690   0.00065   0.00000  -0.01273  -0.01623  -9.21313
   Y45       -9.85837   0.00335   0.00000   0.01775   0.01848  -9.83990
   Z45       19.88798  -0.00135   0.00000  -0.01248  -0.01508  19.87291
   X46       -3.06628  -0.00272   0.00000  -0.00386  -0.00419  -3.07047
   Y46       -6.59777   0.00229   0.00000   0.00027   0.00127  -6.59650
   Z46        9.90240   0.00311   0.00000  -0.00483  -0.00537   9.89703
   X47      -14.81044   0.00329   0.00000   0.00338   0.00684 -14.80360
   Y47        0.49029  -0.00164   0.00000   0.01720   0.02445   0.51474
   Z47        9.76903   0.00309   0.00000  -0.00403  -0.00379   9.76524
   X48      -15.19727   0.00382   0.00000   0.00420   0.00513 -15.19215
   Y48       -0.29421  -0.00136   0.00000   0.00489   0.00727  -0.28693
   Z48       24.10749  -0.00333   0.00000   0.00701   0.00691  24.11440
   X49       -2.51523  -0.00336   0.00000   0.00209   0.00032  -2.51491
   Y49       -5.35851   0.00113   0.00000  -0.00393  -0.00826  -5.36678
   Z49       24.14606  -0.00316   0.00000   0.00279   0.00276  24.14883
   X50       -2.38920   0.01497   0.00000   0.01079   0.01243  -2.37677
   Y50       -0.97654   0.00513   0.00000  -0.00077  -0.00255  -0.97910
   Z50       16.70225   0.00332   0.00000   0.01416   0.01571  16.71796
   X51      -15.40966  -0.01523   0.00000  -0.00709  -0.00745 -15.41711
   Y51       -4.76113  -0.00432   0.00000   0.00924   0.01434  -4.74679
   Z51       16.77188   0.00379   0.00000   0.01577   0.01407  16.78595
   X52      -11.15899  -0.00600   0.00000   0.00662   0.01059 -11.14839
   Y52        3.49572   0.01687   0.00000   0.01841   0.02115   3.51687
   Z52       17.09942  -0.00369   0.00000  -0.01282  -0.01097  17.08844
   X53       -6.57049   0.00467   0.00000  -0.00550  -0.00831  -6.57880
   Y53       -9.24039  -0.01470   0.00000  -0.00778  -0.00755  -9.24794
   Z53       17.32870  -0.00303   0.00000  -0.01498  -0.01698  17.31172
   X54       -7.99677  -0.00044   0.00000   0.00061   0.00045  -7.99632
   Y54       -5.84907   0.00135   0.00000  -0.00723  -0.00418  -5.85325
   Z54       11.46650   0.00234   0.00000  -0.00728  -0.00829  11.45821
   X55       -9.76968   0.00069   0.00000  -0.00031   0.00261  -9.76706
   Y55       -0.07741  -0.00154   0.00000   0.02494   0.02897  -0.04844
   Z55       11.35141   0.00238   0.00000  -0.00659  -0.00581  11.34560
   X56      -11.67711   0.00158   0.00000  -0.01127  -0.01195 -11.68907
   Y56       -3.77279  -0.00023   0.00000  -0.00147  -0.00038  -3.77317
   Z56       22.52159  -0.00233   0.00000   0.00929   0.00847  22.53007
   X57       -6.01027  -0.00140   0.00000   0.01632   0.01666  -5.99361
   Y57       -1.81089  -0.00074   0.00000   0.00221   0.00028  -1.81061
   Z57       22.55613  -0.00236   0.00000   0.00737   0.00808  22.56422
   X58       -8.26734   0.00017   0.00000   0.00148   0.00552  -8.26182
   Y58        2.98749  -0.00214   0.00000   0.02032   0.02232   3.00981
   Z58       14.82782   0.00073   0.00000  -0.01053  -0.00844  14.81938
   X59       -9.46200   0.00044   0.00000   0.00066  -0.00160  -9.46360
   Y59       -8.83379   0.00227   0.00000  -0.00582  -0.00323  -8.83701
   Z59       14.97414   0.00152   0.00000  -0.00898  -0.01126  14.96288
   X60       -4.42110  -0.00143   0.00000   0.01978   0.02220  -4.39890
   Y60        1.12490  -0.00196   0.00000  -0.00248  -0.00402   1.12089
   Z60       19.05197  -0.00158   0.00000   0.00900   0.01099  19.06296
   X61      -13.34878   0.00193   0.00000  -0.01510  -0.01691 -13.36568
   Y61       -6.82398   0.00142   0.00000   0.00660   0.00977  -6.81421
   Z61       19.15686  -0.00148   0.00000   0.00930   0.00717  19.16403
   X62       -4.87124  -0.00125   0.00000  -0.00349  -0.00493  -4.87617
   Y62       -7.32773   0.00172   0.00000  -0.01023  -0.01003  -7.33776
   Z62       14.86075   0.00071   0.00000  -0.01150  -0.01257  14.84818
   X63      -12.90731   0.00105   0.00000   0.00273   0.00598 -12.90133
   Y63        1.47953  -0.00234   0.00000   0.02423   0.02871   1.50824
   Z63       14.75547   0.00015   0.00000  -0.01274  -0.01187  14.74360
   X64      -14.81238   0.00238   0.00000  -0.00624  -0.00561 -14.81798
   Y64       -2.21666  -0.00030   0.00000   0.00493   0.00886  -2.20780
   Z64       19.17745  -0.00084   0.00000   0.01399   0.01328  19.19073
   X65       -2.97835  -0.00227   0.00000   0.01048   0.01043  -2.96792
   Y65       -3.48531  -0.00023   0.00000  -0.00012  -0.00245  -3.48777
   Z65       19.16696  -0.00058   0.00000   0.01067   0.01124  19.17820
   X66       -6.37922  -0.02703   0.00000  -0.04797  -0.04672  -6.42594
   Y66       -2.15000  -0.00502   0.00000  -0.00466  -0.00375  -2.15374
   Z66       15.13016   0.01780   0.00000   0.03147   0.03200  15.16216
   X67      -11.40090   0.02760   0.00000   0.04885   0.04929 -11.35160
   Y67       -3.68746   0.00568   0.00000   0.01826   0.02176  -3.66570
   Z67       15.18572   0.01760   0.00000   0.03184   0.03111  15.21683
   X68       -9.69005   0.01144   0.00000   0.02553   0.02717  -9.66288
   Y68       -0.37213  -0.02621   0.00000  -0.04082  -0.03947  -0.41160
   Z68       18.80561  -0.01789   0.00000  -0.02903  -0.02836  18.77725
   X69       -8.02528  -0.01153   0.00000  -0.02372  -0.02467  -8.04994
   Y69       -5.34339   0.02469   0.00000   0.04404   0.04452  -5.29887
   Z69       18.85716  -0.01802   0.00000  -0.02968  -0.03050  18.82666
   X70       -6.09297   0.00021   0.00000  -0.00364  -0.00672  -6.09969
   Y70      -11.59480  -0.00043   0.00000  -0.00594  -0.00362 -11.59841
   Z70       10.68083  -0.00039   0.00000  -0.00996  -0.01272  10.66812
   X71       -0.23745   0.00051   0.00000   0.01614   0.01738  -0.22007
   Y71        0.09757   0.00009   0.00000  -0.00384  -0.00910   0.08847
   Z71       23.35399   0.00024   0.00000   0.00673   0.00896  23.36296
   X72      -17.54768  -0.00049   0.00000  -0.01108  -0.01281 -17.56049
   Y72       -5.49414   0.00015   0.00000   0.00803   0.01189  -5.48225
   Z72       23.48792   0.00027   0.00000   0.00910   0.00682  23.49474
   X73       -8.87986  -0.00033   0.00000   0.00027   0.00087  -8.87899
   Y73       -2.88040   0.00018   0.00000   0.00401   0.00558  -2.87482
   Z73       16.98802   0.00071   0.00000   0.00232   0.00224  16.99026
         Item               Value     Threshold  Converged?
 Maximum Force            0.027604     0.000450     NO 
 RMS     Force            0.006249     0.000300     NO 
 Maximum Displacement     0.097010     0.001800     NO 
 RMS     Displacement     0.020044     0.001200     NO 
 Predicted change in Energy=-5.932909D-03
 GradGradGradGradGradGradGradGradGradGradGradGradGradGradGradGradGradGrad

 Unable to Open any file for archive entry.
 1\1\GINC-X11P1N2\Force\RwB97XD\def2SVP\C8H8Cl1K3O40V1W12(1-)\MAYUMIAO\
 02-Jun-2024\0\\# def2svp wb97xd scrf=(smd,solvent=acetonitrile) g09def
 ault scf=(xqc,maxcycle=64) force guess=read nosymm\\Title Card\\-1,1\C
 l,-9.93168971,8.0763335,10.5163234\C,-8.31715166,4.2360697,12.22906748
 \C,-9.08874817,3.91597784,11.09755167\C,-10.01700488,2.86393318,11.202
 15188\C,-10.19386823,2.18015799,12.40085132\C,-9.43662265,2.52602968,1
 3.52080493\C,-8.48996254,3.54857045,13.42613927\H,-7.5708164,5.0312220
 3,12.17247779\H,-10.60270531,2.58353888,10.32209854\H,-10.9215291,1.36
 73787,12.46226155\H,-9.57283534,1.9904092,14.462623\H,-7.88274972,3.81
 301622,14.29553553\C,-8.96837532,4.63416169,9.82770937\C,-8.17939558,5
 .69664542,9.5772852\H,-9.60421086,4.25700333,9.01936456\H,-8.13886148,
 6.12989214,8.57637603\H,-7.49151662,6.11326192,10.31642536\O,-0.999057
 35,-1.76868674,7.45898427\O,-8.4123316,-1.33101365,7.46103724\O,-7.046
 17302,1.34715472,10.48343209\O,-2.33144468,-4.36353847,10.55814422\W,-
 3.41676391,0.72006291,6.48471442\W,-6.00708304,-3.82481776,6.57584344\
 W,-3.62891198,0.90618988,11.41569049\W,-5.77351033,-3.862392,11.472252
 33\W,-2.45969068,-2.5607217,6.39012312\W,-6.94420531,-0.5378936,6.3597
 8052\W,-6.82528658,-0.24821296,11.57748999\W,-2.56620023,-2.70298895,1
 1.61853677\O,-3.17970141,1.91514338,5.31606869\O,-6.148253,-5.07238043
 ,5.43187637\O,-2.71854104,1.75929199,12.56914983\O,-6.67563759,-4.6797
 4435,12.65659753\O,-2.6815096,-0.88162097,5.58272948\O,-6.71718232,-2.
 27103805,5.62518798\O,-5.32190865,0.56485133,12.36550561\O,-4.06044367
 ,-3.51757825,12.40824377\O,0.29559913,0.00231231,9.27038619\O,-9.71488
 85,-3.02626335,9.32113625\O,-6.3761546,3.41941169,8.66087774\O,-2.9790
 2973,-6.46220779,8.76096859\O,-1.7993256,0.77394367,7.47606713\O,-7.61
 236566,-3.88016719,7.55252889\O,-4.52282136,2.21895558,10.43257528\O,-
 4.86678782,-5.21682506,10.52426738\O,-1.62260518,-3.49139028,5.2401260
 9\O,-7.83734714,0.25944849,5.16954701\O,-8.04205012,-0.15568855,12.757
 13289\O,-1.33100345,-2.83560354,12.77754631\W,-1.26431152,-0.51676504,
 8.8384526\W,-8.15444066,-2.51947973,8.87529611\W,-5.90508113,1.8498573
 1,9.0486221\W,-3.4769539,-4.88980607,9.16995471\O,-4.2317096,-3.095192
 33,6.06781162\O,-5.16988955,-0.04096537,6.00690665\O,-6.17926281,-1.99
 647558,11.91791269\O,-3.1804997,-0.95827948,11.93619253\O,-4.37488678,
 1.58091165,7.84654399\O,-5.00707559,-4.67463937,7.92397419\O,-2.339544
 63,0.5952739,10.0818681\O,-7.06386878,-3.61109571,10.13737431\O,-2.577
 747,-3.87766642,7.86397134\O,-6.83025245,0.78293177,7.80825683\O,-7.83
 837282,-1.17300416,10.14827092\O,-1.57607576,-1.84434782,10.14271789\O
 ,-3.37573848,-1.13773026,8.00653733\O,-6.03309424,-1.95132035,8.035936
 14\O,-5.12775407,-0.19692202,9.95150174\O,-4.24679332,-2.82759789,9.97
 878088\K,-3.22426057,-6.1357015,5.65205414\K,-0.12565368,0.05163127,12
 .35840102\K,-9.28583011,-2.90737614,12.42927375\V,-4.69902136,-1.52424
 388,8.98967167\\Version=ES64L-G16RevC.01\HF=-7327.7006566\RMSD=7.921e-
 09\RMSF=6.249e-03\Dipole=10.6121543,-22.014104,2.5479018\Quadrupole=-8
 6.7805946,54.2377235,32.5428711,341.7644537,345.3170304,-356.3697689\P
 G=C01 [X(C8H8Cl1K3O40V1W12)]\\@
 The archive entry for this job was punched.


 The best way to pay for a lovely moment is to enjoy it.
 -- Richard Bach
 Job cpu time:       0 days  9 hours 16 minutes 18.0 seconds.
 Elapsed time:       0 days  0 hours 10 minutes 32.1 seconds.
 File lengths (MBytes):  RWF=   1253 Int=      0 D2E=      0 Chk=    249 Scr=      1
 Normal termination of Gaussian 16 at Sun Jun  2 04:53:05 2024.
