 Entering Gaussian System, Link 0=g16
 Input=JOBS/30_B.gjf
 Output=JOBS/30_B.log
 Initial command:
 /data/app/gaussian/C01-avx2//g16/l1.exe "/tmp/Gau-633826.inp" -scrdir="/tmp/"
 Entering Link 1 = /data/app/gaussian/C01-avx2//g16/l1.exe PID=    633827.
  
 Copyright (c) 1988-2019, Gaussian, Inc.  All Rights Reserved.
  
 This is part of the Gaussian(R) 16 program.  It is based on
 the Gaussian(R) 09 system (copyright 2009, Gaussian, Inc.),
 the Gaussian(R) 03 system (copyright 2003, Gaussian, Inc.),
 the Gaussian(R) 98 system (copyright 1998, Gaussian, Inc.),
 the Gaussian(R) 94 system (copyright 1995, Gaussian, Inc.),
 the Gaussian 92(TM) system (copyright 1992, Gaussian, Inc.),
 the Gaussian 90(TM) system (copyright 1990, Gaussian, Inc.),
 the Gaussian 88(TM) system (copyright 1988, Gaussian, Inc.),
 the Gaussian 86(TM) system (copyright 1986, Carnegie Mellon
 University), and the Gaussian 82(TM) system (copyright 1983,
 Carnegie Mellon University). Gaussian is a federally registered
 trademark of Gaussian, Inc.
  
 This software contains proprietary and confidential information,
 including trade secrets, belonging to Gaussian, Inc.
  
 This software is provided under written license and may be
 used, copied, transmitted, or stored only in accord with that
 written license.
  
 The following legend is applicable only to US Government
 contracts under FAR:
  
                    RESTRICTED RIGHTS LEGEND
  
 Use, reproduction and disclosure by the US Government is
 subject to restrictions as set forth in subparagraphs (a)
 and (c) of the Commercial Computer Software - Restricted
 Rights clause in FAR 52.227-19.
  
 Gaussian, Inc.
 340 Quinnipiac St., Bldg. 40, Wallingford CT 06492
  
  
 ---------------------------------------------------------------
 Warning -- This program may not be used in any manner that
 competes with the business of Gaussian, Inc. or will provide
 assistance to any competitor of Gaussian, Inc.  The licensee
 of this program is prohibited from giving any competitor of
 Gaussian, Inc. access to this program.  By using this program,
 the user acknowledges that Gaussian, Inc. is engaged in the
 business of creating and licensing software in the field of
 computational chemistry and represents and warrants to the
 licensee that it is not a competitor of Gaussian, Inc. and that
 it will not use this program in any manner prohibited above.
 ---------------------------------------------------------------
  

 Cite this work as:
 Gaussian 16, Revision C.01,
 M. J. Frisch, G. W. Trucks, H. B. Schlegel, G. E. Scuseria, 
 M. A. Robb, J. R. Cheeseman, G. Scalmani, V. Barone, 
 G. A. Petersson, H. Nakatsuji, X. Li, M. Caricato, A. V. Marenich, 
 J. Bloino, B. G. Janesko, R. Gomperts, B. Mennucci, H. P. Hratchian, 
 J. V. Ortiz, A. F. Izmaylov, J. L. Sonnenberg, D. Williams-Young, 
 F. Ding, F. Lipparini, F. Egidi, J. Goings, B. Peng, A. Petrone, 
 T. Henderson, D. Ranasinghe, V. G. Zakrzewski, J. Gao, N. Rega, 
 G. Zheng, W. Liang, M. Hada, M. Ehara, K. Toyota, R. Fukuda, 
 J. Hasegawa, M. Ishida, T. Nakajima, Y. Honda, O. Kitao, H. Nakai, 
 T. Vreven, K. Throssell, J. A. Montgomery, Jr., J. E. Peralta, 
 F. Ogliaro, M. J. Bearpark, J. J. Heyd, E. N. Brothers, K. N. Kudin, 
 V. N. Staroverov, T. A. Keith, R. Kobayashi, J. Normand, 
 K. Raghavachari, A. P. Rendell, J. C. Burant, S. S. Iyengar, 
 J. Tomasi, M. Cossi, J. M. Millam, M. Klene, C. Adamo, R. Cammi, 
 J. W. Ochterski, R. L. Martin, K. Morokuma, O. Farkas, 
 J. B. Foresman, and D. J. Fox, Gaussian, Inc., Wallingford CT, 2019.
 
 ******************************************
 Gaussian 16:  ES64L-G16RevC.01  3-Jul-2019
                 2-Jun-2024 
 ******************************************
 %chk=b.chk
 %nprocshared=56
 Will use up to   56 processors via shared memory.
 %mem=96gb
 ----------------------------------------------------------------------
 # def2svp wb97xd scrf=(smd,solvent=acetonitrile) g09default scf=(xqc,m
 axcycle=64) force guess=read nosymm
 ----------------------------------------------------------------------
 1/10=7,30=1,38=1,158=3,167=1/1,3;
 2/12=2,15=1,17=6,18=5,40=1/2;
 3/5=43,7=101,11=2,25=1,27=10,30=1,70=32201,71=1,72=2,74=-58,75=-4,116=-2,158=3/1,2,3;
 4/5=1,60=-1/1;
 5/5=2,7=64,8=3,13=1,38=6,53=2,87=10/2,8;
 6/7=2,8=2,9=2,10=2,28=1,87=10/1;
 7/29=1,30=1,87=10/1,2,3,16;
 1/10=7,30=1,158=3,167=1/3;
 99//99;
 Using 2006 physical constants.
 ----------
 Title Card
 ----------
 Symbolic Z-matrix:
 Charge = -1 Multiplicity = 1
 17                   -9.91607   8.10314   10.52341 
 6                    -8.31868   4.23553   12.22809 
 6                    -9.09249   3.91593   11.09785 
 6                    -10.01899   2.86261   11.20332 
 6                    -10.19545   2.17998   12.40248 
 6                    -9.43894   2.52793   13.52243 
 6                    -8.49101   3.54903   13.42593 
 1                    -7.5708    5.02892   12.16916 
 1                    -10.6038   2.58011   10.32294 
 1                    -10.92051   1.36461   12.46414 
 1                    -9.57469   1.99288   14.46481 
 1                    -7.88052   3.8118    14.29363 
 6                    -8.97572   4.63659   9.82877 
 6                    -8.19514   5.7059    9.57921 
 1                    -9.60865   4.25604   9.01983 
 1                    -8.15515   6.1356    8.57649 
 1                    -7.51354   6.13124   10.31889 
 8                    -0.99682  -1.77088   7.45992 
 8                    -8.41182  -1.33162   7.46104 
 8                    -7.04458   1.3472    10.48192 
 8                    -2.33147  -4.36582   10.55705 
 74                   -3.41574   0.71607   6.48298 
 74                   -6.00578  -3.82341   6.57447 
 74                   -3.62807   0.90311   11.41676 
 74                   -5.77208  -3.8613    11.47242 
 74                   -2.45684  -2.56405   6.39167 
 74                   -6.9445   -0.53762   6.36167 
 74                   -6.82554  -0.24793   11.57503 
 74                   -2.56383  -2.70515   11.61643 
 8                    -3.1777    1.91003   5.31386 
 8                    -6.14707  -5.0716    5.4303 
 8                    -2.71744   1.7559    12.57074 
 8                    -6.67465  -4.6777    12.65721 
 8                    -2.67873  -0.88506   5.58236 
 8                    -6.71647  -2.27065   5.62464 
 8                    -5.32163   0.56384   12.365 
 8                    -4.0592   -3.5182    12.40734 
 8                     0.29607   0.00223   9.27157 
 8                    -9.71371  -3.0278    9.32117 
 8                    -6.37343   3.42033   8.66429 
 8                    -2.98144  -6.46507   8.76138 
 8                    -1.79776   0.7723    7.47574 
 8                    -7.61146  -3.881     7.55168 
 8                    -4.52007   2.21796   10.43286 
 8                    -4.86802  -5.21781   10.52376 
 8                    -1.62031  -3.4969    5.24258 
 8                    -7.83766   0.26009   5.17134 
 8                    -8.0432   -0.15535   12.75385 
 8                    -1.32838  -2.83855   12.7752 
 74                   -1.26321  -0.51679   8.83802 
 74                   -8.15365  -2.52188   8.87495 
 74                   -5.90076   1.85054   9.04884 
 74                   -3.47885  -4.89189   9.16979 
 8                    -4.22965  -3.09642   6.06755 
 8                    -5.16893  -0.04286   6.00705 
 8                    -6.17831  -1.99581   11.91649 
 8                    -3.17862  -0.96025   11.93617 
 8                    -4.37268   1.57993   7.84509 
 8                    -5.00681  -4.67456   7.92327 
 8                    -2.33882   0.59347   10.08209 
 8                    -7.06278  -3.61095   10.13686 
 8                    -2.57711  -3.87984   7.86463 
 8                    -6.82772   0.78298   7.80866 
 8                    -7.837    -1.17311   10.14625 
 8                    -1.57584  -1.84614   10.14131 
 8                    -3.37386  -1.1396    8.00534 
 8                    -6.03266  -1.95171   8.03542 
 8                    -5.12609  -0.19716   9.95107 
 8                    -4.24572  -2.82864   9.97821 
 19                   -3.22272  -6.13698   5.65054 
 19                   -0.12236   0.05299   12.35849 
 19                   -9.28735  -2.90209   12.43121 
 23                   -4.69779  -1.52505   8.98898 
 

 GradGradGradGradGradGradGradGradGradGradGradGradGradGradGradGradGradGrad
 Berny optimization.
 Initialization pass.
 Trust Radius=3.00D-01 FncErr=1.00D-07 GrdErr=1.00D-07 EigMax=2.50D+02 EigMin=1.00D-04
 Number of steps in this run=      2 maximum allowed number of steps=      2.
 GradGradGradGradGradGradGradGradGradGradGradGradGradGradGradGradGradGrad

 Symmetry turned off by external request.
 Stoichiometry    C8H8ClK3O40VW12(1-)
 Framework group  C1[X(C8H8ClK3O40VW12)]
 Deg. of freedom   213
 Full point group                 C1      NOp   1
                          Input orientation:                          
 ---------------------------------------------------------------------
 Center     Atomic      Atomic             Coordinates (Angstroms)
 Number     Number       Type             X           Y           Z
 ---------------------------------------------------------------------
      1         17           0       -9.916074    8.103139   10.523413
      2          6           0       -8.318676    4.235533   12.228091
      3          6           0       -9.092485    3.915931   11.097853
      4          6           0      -10.018995    2.862613   11.203320
      5          6           0      -10.195452    2.179980   12.402483
      6          6           0       -9.438939    2.527928   13.522434
      7          6           0       -8.491010    3.549032   13.425925
      8          1           0       -7.570804    5.028924   12.169165
      9          1           0      -10.603800    2.580112   10.322942
     10          1           0      -10.920511    1.364607   12.464137
     11          1           0       -9.574686    1.992884   14.464813
     12          1           0       -7.880517    3.811803   14.293628
     13          6           0       -8.975720    4.636594    9.828768
     14          6           0       -8.195136    5.705903    9.579207
     15          1           0       -9.608654    4.256042    9.019825
     16          1           0       -8.155147    6.135596    8.576486
     17          1           0       -7.513540    6.131244   10.318894
     18          8           0       -0.996815   -1.770879    7.459924
     19          8           0       -8.411821   -1.331617    7.461036
     20          8           0       -7.044576    1.347198   10.481917
     21          8           0       -2.331469   -4.365825   10.557048
     22         74           0       -3.415736    0.716066    6.482977
     23         74           0       -6.005783   -3.823408    6.574473
     24         74           0       -3.628070    0.903108   11.416765
     25         74           0       -5.772082   -3.861303   11.472423
     26         74           0       -2.456842   -2.564053    6.391666
     27         74           0       -6.944505   -0.537623    6.361668
     28         74           0       -6.825543   -0.247931   11.575031
     29         74           0       -2.563831   -2.705153   11.616426
     30          8           0       -3.177701    1.910029    5.313860
     31          8           0       -6.147074   -5.071604    5.430298
     32          8           0       -2.717444    1.755898   12.570739
     33          8           0       -6.674652   -4.677699   12.657214
     34          8           0       -2.678727   -0.885060    5.582364
     35          8           0       -6.716473   -2.270650    5.624641
     36          8           0       -5.321629    0.563839   12.364997
     37          8           0       -4.059204   -3.518201   12.407344
     38          8           0        0.296066    0.002230    9.271571
     39          8           0       -9.713709   -3.027801    9.321169
     40          8           0       -6.373428    3.420329    8.664292
     41          8           0       -2.981440   -6.465066    8.761382
     42          8           0       -1.797764    0.772303    7.475739
     43          8           0       -7.611460   -3.881004    7.551679
     44          8           0       -4.520072    2.217960   10.432859
     45          8           0       -4.868021   -5.217807   10.523763
     46          8           0       -1.620306   -3.496897    5.242583
     47          8           0       -7.837660    0.260090    5.171338
     48          8           0       -8.043196   -0.155353   12.753852
     49          8           0       -1.328379   -2.838546   12.775198
     50         74           0       -1.263212   -0.516791    8.838024
     51         74           0       -8.153645   -2.521883    8.874947
     52         74           0       -5.900757    1.850539    9.048842
     53         74           0       -3.478847   -4.891888    9.169790
     54          8           0       -4.229652   -3.096419    6.067548
     55          8           0       -5.168933   -0.042862    6.007053
     56          8           0       -6.178312   -1.995813   11.916487
     57          8           0       -3.178616   -0.960248   11.936173
     58          8           0       -4.372678    1.579930    7.845087
     59          8           0       -5.006814   -4.674563    7.923268
     60          8           0       -2.338819    0.593467   10.082086
     61          8           0       -7.062783   -3.610954   10.136856
     62          8           0       -2.577111   -3.879842    7.864625
     63          8           0       -6.827717    0.782977    7.808658
     64          8           0       -7.837002   -1.173114   10.146247
     65          8           0       -1.575839   -1.846135   10.141310
     66          8           0       -3.373863   -1.139601    8.005341
     67          8           0       -6.032661   -1.951715    8.035423
     68          8           0       -5.126086   -0.197162    9.951069
     69          8           0       -4.245722   -2.828636    9.978208
     70         19           0       -3.222723   -6.136977    5.650540
     71         19           0       -0.122357    0.052989   12.358489
     72         19           0       -9.287346   -2.902091   12.431207
     73         23           0       -4.697793   -1.525051    8.988978
 ---------------------------------------------------------------------
 Rotational constants (GHZ):           0.0171976           0.0132683           0.0130466
 Standard basis: def2SVP (5D, 7F)
  1217 basis functions,  2313 primitive gaussians,  1337 cartesian basis functions
   321 alpha electrons      321 beta electrons
       nuclear repulsion energy     20986.2772263685 Hartrees.
 NAtoms=   73 NActive=   73 NUniq=   73 SFac= 1.00D+00 NAtFMM=   60 NAOKFM=T Big=T
 Integral buffers will be    131072 words long.
 Raffenetti 2 integral format.
 Two-electron integral symmetry is turned off.
 Nuclear repulsion after empirical dispersion term =    20985.9998289742 Hartrees.
 Force PCM accuracy= 1.00D-10.
 ------------------------------------------------------------------------------
 Polarizable Continuum Model (PCM)
 =================================
 Model                : PCM (using non-symmetric T matrix).
 Atomic radii         : SMD-Coulomb.
 Polarization charges : Total charges.
 Charge compensation  : None.
 Solution method      : On-the-fly selection.
 Cavity type          : VdW (van der Waals Surface) (Alpha=1.000).
 Cavity algorithm     : GePol (No added spheres)
                        Default sphere list used, NSphG=   73.
                        Lebedev-Laikov grids with approx.  5.0 points / Ang**2.
                        Smoothing algorithm: York/Karplus (Gamma=1.0000).
                        Polarization charges: spherical gaussians, with
                                              point-specific exponents (IZeta= 3).
                        Self-potential: point-specific (ISelfS= 7).
                        Self-field    : sphere-specific E.n sum rule (ISelfD= 2).
 1st derivatives      : Analytical E(r).r(x)/FMM algorithm (CHGder, D1EAlg=3).
                        Cavity 1st derivative terms included.
 Solvent              : Acetonitrile, Eps=  35.688000 Eps(inf)=   1.806874
 ------------------------------------------------------------------------------
 ------------------------------------------------------------------------------
 Atomic radii for non-electrostatic terms: SMD-CDS.
 ------------------------------------------------------------------------------
 Nuclear repulsion after PCM non-electrostatic terms =    20985.9940234389 Hartrees.
 One-electron integrals computed using PRISM.
   1 Symmetry operations used in ECPInt.
 ECPInt:  NShTT=  127765 NPrTT=  468030 LenC2=   96724 LenP2D=  221291.
 LDataN:  DoStor=T MaxTD1= 8 Len=  415
 NBasis=  1217 RedAO= T EigKep=  1.36D-04  NBF=  1217
 NBsUse=  1217 1.00D-06 EigRej= -1.00D+00 NBFU=  1217
 Defaulting to unpruned grid for atomic number  74.
 Defaulting to unpruned grid for atomic number  74.
 Defaulting to unpruned grid for atomic number  74.
 Defaulting to unpruned grid for atomic number  74.
 Defaulting to unpruned grid for atomic number  74.
 Defaulting to unpruned grid for atomic number  74.
 Defaulting to unpruned grid for atomic number  74.
 Defaulting to unpruned grid for atomic number  74.
 Initial guess from the checkpoint file:  "b.chk"
 B after Tr=     0.003016   -0.004807   -0.000288
         Rot=    1.000000   -0.000005   -0.000000    0.000213 Ang=  -0.02 deg.
 Initial guess <Sx>= 0.0000 <Sy>= 0.0000 <Sz>= 0.0000 <S**2>= 1.0145 S= 0.6245
 Requested convergence on RMS density matrix=1.00D-08 within  64 cycles.
 Requested convergence on MAX density matrix=1.00D-06.
 Requested convergence on             energy=1.00D-06.
 No special actions if energy rises.
 Defaulting to unpruned grid for atomic number  74.
 Defaulting to unpruned grid for atomic number  74.
 Defaulting to unpruned grid for atomic number  74.
 Defaulting to unpruned grid for atomic number  74.
 Defaulting to unpruned grid for atomic number  74.
 Defaulting to unpruned grid for atomic number  74.
 Defaulting to unpruned grid for atomic number  74.
 Defaulting to unpruned grid for atomic number  74.
 Defaulting to unpruned grid for atomic number  74.
 Defaulting to unpruned grid for atomic number  74.
 Defaulting to unpruned grid for atomic number  74.
 Defaulting to unpruned grid for atomic number  74.
 Defaulting to unpruned grid for atomic number  74.
 Defaulting to unpruned grid for atomic number  74.
 Defaulting to unpruned grid for atomic number  74.
 Defaulting to unpruned grid for atomic number  74.
 Defaulting to unpruned grid for atomic number  74.
 Defaulting to unpruned grid for atomic number  74.
 Defaulting to unpruned grid for atomic number  74.
 Defaulting to unpruned grid for atomic number  74.
 Defaulting to unpruned grid for atomic number  74.
 Defaulting to unpruned grid for atomic number  74.
 Defaulting to unpruned grid for atomic number  74.
 Defaulting to unpruned grid for atomic number  74.
 Defaulting to unpruned grid for atomic number  74.
 Defaulting to unpruned grid for atomic number  74.
 Defaulting to unpruned grid for atomic number  74.
 Defaulting to unpruned grid for atomic number  74.
 Defaulting to unpruned grid for atomic number  74.
 Defaulting to unpruned grid for atomic number  74.
 Defaulting to unpruned grid for atomic number  74.
 Defaulting to unpruned grid for atomic number  74.
 Defaulting to unpruned grid for atomic number  74.
 Defaulting to unpruned grid for atomic number  74.
 Defaulting to unpruned grid for atomic number  74.
 Defaulting to unpruned grid for atomic number  74.
 Defaulting to unpruned grid for atomic number  74.
 Defaulting to unpruned grid for atomic number  74.
 Defaulting to unpruned grid for atomic number  74.
 Defaulting to unpruned grid for atomic number  74.
 Defaulting to unpruned grid for atomic number  74.
 Defaulting to unpruned grid for atomic number  74.
 Defaulting to unpruned grid for atomic number  74.
 Defaulting to unpruned grid for atomic number  74.
 Defaulting to unpruned grid for atomic number  74.
 Defaulting to unpruned grid for atomic number  74.
 Defaulting to unpruned grid for atomic number  74.
 Defaulting to unpruned grid for atomic number  74.
 Defaulting to unpruned grid for atomic number  74.
 Defaulting to unpruned grid for atomic number  74.
 Defaulting to unpruned grid for atomic number  74.
 Defaulting to unpruned grid for atomic number  74.
 Defaulting to unpruned grid for atomic number  74.
 Defaulting to unpruned grid for atomic number  74.
 Defaulting to unpruned grid for atomic number  74.
 Defaulting to unpruned grid for atomic number  74.
 Inv3:  Mode=1 IEnd=    86768652.
 Iteration    1 A*A^-1 deviation from unit magnitude is 3.77D-15 for   4159.
 Iteration    1 A*A^-1 deviation from orthogonality  is 3.33D-15 for    914     33.
 Iteration    1 A^-1*A deviation from unit magnitude is 3.55D-15 for   2330.
 Iteration    1 A^-1*A deviation from orthogonality  is 2.69D-10 for   3417   3368.
 Iteration    2 A*A^-1 deviation from unit magnitude is 4.33D-15 for    178.
 Iteration    2 A*A^-1 deviation from orthogonality  is 3.77D-15 for   4702   1815.
 Iteration    2 A^-1*A deviation from unit magnitude is 1.33D-15 for   5202.
 Iteration    2 A^-1*A deviation from orthogonality  is 7.02D-16 for   2628   2337.
 Restarting incremental Fock formation.
 Error on total polarization charges =  0.01562
 SCF Done:  E(UwB97XD) =  -7327.70092183     A.U. after   38 cycles
            NFock= 38  Conv=0.64D-09     -V/T= 2.0831
 <Sx>= 0.0000 <Sy>= 0.0000 <Sz>= 0.0000 <S**2>= 1.0148 S= 0.6246
 <L.S>=  0.00000000000    
 SMD-CDS (non-electrostatic) energy       (kcal/mol) =      -3.64
 (included in total energy above)
 Annihilation of the first spin contaminant:
 S**2 before annihilation     1.0148,   after     0.1189
 QCSCF skips out because SCF is already converged.

 **********************************************************************

            Population analysis using the SCF Density.

 **********************************************************************

 Alpha  occ. eigenvalues -- -197.11141-129.99221-129.99172-129.99169-101.62473
 Alpha  occ. eigenvalues --  -22.44789 -19.28500 -19.28483 -19.28453 -19.28379
 Alpha  occ. eigenvalues --  -19.28373 -19.28355 -19.28343 -19.28340 -19.28322
 Alpha  occ. eigenvalues --  -19.28245 -19.28195 -19.28117 -19.26927 -19.26896
 Alpha  occ. eigenvalues --  -19.26880 -19.26875 -19.26861 -19.26859 -19.26839
 Alpha  occ. eigenvalues --  -19.26835 -19.26814 -19.26787 -19.26783 -19.26774
 Alpha  occ. eigenvalues --  -19.26771 -19.26765 -19.26763 -19.26760 -19.26743
 Alpha  occ. eigenvalues --  -19.26733 -19.26729 -19.26725 -19.26718 -19.26717
 Alpha  occ. eigenvalues --  -19.26651 -19.26600 -19.24881 -19.24830 -19.24805
 Alpha  occ. eigenvalues --  -19.24786 -18.94367 -18.93277 -18.93244 -13.36632
 Alpha  occ. eigenvalues --  -13.36579 -13.36573 -10.69559 -10.69555 -10.69554
 Alpha  occ. eigenvalues --  -10.69506 -10.69502 -10.69501 -10.69501 -10.69497
 Alpha  occ. eigenvalues --  -10.69493 -10.32779 -10.32070 -10.31776 -10.30863
 Alpha  occ. eigenvalues --  -10.30857 -10.30841 -10.30472 -10.30399  -9.52883
 Alpha  occ. eigenvalues --   -7.27772  -7.27415  -7.27411  -3.21064  -3.21033
 Alpha  occ. eigenvalues --   -3.21031  -3.21027  -3.21003  -3.20985  -3.20977
 Alpha  occ. eigenvalues --   -3.20975  -3.20968  -3.20844  -3.20809  -3.20790
 Alpha  occ. eigenvalues --   -2.79016  -1.85307  -1.85275  -1.85252  -1.85228
 Alpha  occ. eigenvalues --   -1.85100  -1.85056  -1.85038  -1.85016  -1.85001
 Alpha  occ. eigenvalues --   -1.84995  -1.84975  -1.84907  -1.84357  -1.84245
 Alpha  occ. eigenvalues --   -1.84232  -1.84225  -1.84187  -1.84181  -1.84111
 Alpha  occ. eigenvalues --   -1.84097  -1.84075  -1.84065  -1.84044  -1.84030
 Alpha  occ. eigenvalues --   -1.83908  -1.83881  -1.83863  -1.83858  -1.83821
 Alpha  occ. eigenvalues --   -1.83790  -1.83770  -1.83766  -1.83751  -1.83651
 Alpha  occ. eigenvalues --   -1.83644  -1.83634  -1.82155  -1.81824  -1.81798
 Alpha  occ. eigenvalues --   -1.50326  -1.50275  -1.50270  -1.08620  -1.06989
 Alpha  occ. eigenvalues --   -1.06945  -1.06921  -1.06002  -1.05981  -1.05942
 Alpha  occ. eigenvalues --   -1.04563  -1.04545  -1.04540  -1.03965  -1.03951
 Alpha  occ. eigenvalues --   -1.03766  -1.03363  -1.03333  -1.03305  -1.03021
 Alpha  occ. eigenvalues --   -1.02989  -1.02262  -1.02248  -1.02217  -1.02050
 Alpha  occ. eigenvalues --   -1.01994  -1.01962  -1.01897  -1.01869  -1.01767
 Alpha  occ. eigenvalues --   -1.01730  -1.01719  -1.01608  -1.01567  -1.01538
 Alpha  occ. eigenvalues --   -1.01281  -1.00823  -1.00736  -1.00693  -1.00683
 Alpha  occ. eigenvalues --   -1.00066  -0.99994  -0.99941  -0.96071  -0.89131
 Alpha  occ. eigenvalues --   -0.85760  -0.85711  -0.85711  -0.85613  -0.85601
 Alpha  occ. eigenvalues --   -0.85564  -0.85560  -0.85559  -0.85539  -0.84169
 Alpha  occ. eigenvalues --   -0.82268  -0.81184  -0.71808  -0.69533  -0.64950
 Alpha  occ. eigenvalues --   -0.62292  -0.61666  -0.61640  -0.61607  -0.60503
 Alpha  occ. eigenvalues --   -0.58952  -0.58930  -0.58914  -0.58862  -0.58803
 Alpha  occ. eigenvalues --   -0.58763  -0.58739  -0.58695  -0.58537  -0.57402
 Alpha  occ. eigenvalues --   -0.57370  -0.57340  -0.57055  -0.56638  -0.56491
 Alpha  occ. eigenvalues --   -0.56446  -0.56406  -0.56041  -0.55889  -0.55364
 Alpha  occ. eigenvalues --   -0.55351  -0.55324  -0.54328  -0.54170  -0.54147
 Alpha  occ. eigenvalues --   -0.53950  -0.53708  -0.53661  -0.53637  -0.52680
 Alpha  occ. eigenvalues --   -0.52584  -0.52572  -0.52473  -0.52429  -0.51466
 Alpha  occ. eigenvalues --   -0.51456  -0.51450  -0.51370  -0.51304  -0.50668
 Alpha  occ. eigenvalues --   -0.50525  -0.50519  -0.50459  -0.50362  -0.50251
 Alpha  occ. eigenvalues --   -0.50214  -0.50053  -0.49996  -0.49984  -0.49716
 Alpha  occ. eigenvalues --   -0.49630  -0.49590  -0.49485  -0.49450  -0.49297
 Alpha  occ. eigenvalues --   -0.49265  -0.49201  -0.49114  -0.49075  -0.48996
 Alpha  occ. eigenvalues --   -0.48657  -0.48508  -0.48464  -0.48425  -0.47671
 Alpha  occ. eigenvalues --   -0.47639  -0.47124  -0.46479  -0.46043  -0.46012
 Alpha  occ. eigenvalues --   -0.45869  -0.45758  -0.45678  -0.45585  -0.45188
 Alpha  occ. eigenvalues --   -0.45145  -0.45130  -0.44800  -0.44601  -0.44485
 Alpha  occ. eigenvalues --   -0.44470  -0.44445  -0.44282  -0.44204  -0.44186
 Alpha  occ. eigenvalues --   -0.43474  -0.42989  -0.42560  -0.42510  -0.42451
 Alpha  occ. eigenvalues --   -0.42326  -0.42185  -0.42174  -0.42046  -0.41635
 Alpha  occ. eigenvalues --   -0.41619  -0.41570  -0.41016  -0.40974  -0.40784
 Alpha  occ. eigenvalues --   -0.40744  -0.40738  -0.40385  -0.40371  -0.40318
 Alpha  occ. eigenvalues --   -0.40198  -0.40171  -0.40142  -0.40115  -0.39847
 Alpha  occ. eigenvalues --   -0.39355  -0.39282  -0.39270  -0.39145  -0.39082
 Alpha  occ. eigenvalues --   -0.38922  -0.38895  -0.38835  -0.38794  -0.38716
 Alpha  occ. eigenvalues --   -0.38296  -0.38267  -0.38234  -0.37833  -0.37190
 Alpha  occ. eigenvalues --   -0.37179  -0.34936  -0.34922  -0.33564  -0.29848
 Alpha  occ. eigenvalues --   -0.25997
 Alpha virt. eigenvalues --   -0.12404  -0.06278  -0.06239  -0.04822  -0.04750
 Alpha virt. eigenvalues --   -0.04635  -0.01510  -0.01398  -0.01330  -0.01097
 Alpha virt. eigenvalues --   -0.00911  -0.00890  -0.00839  -0.00121  -0.00060
 Alpha virt. eigenvalues --   -0.00021   0.00697   0.00717   0.00754   0.00893
 Alpha virt. eigenvalues --    0.01018   0.01030   0.01781   0.01832   0.01889
 Alpha virt. eigenvalues --    0.02467   0.02690   0.02758   0.02827   0.03510
 Alpha virt. eigenvalues --    0.03570   0.03721   0.03875   0.03919   0.04316
 Alpha virt. eigenvalues --    0.04349   0.04362   0.04396   0.04611   0.05036
 Alpha virt. eigenvalues --    0.05113   0.06076   0.06463   0.07785   0.08020
 Alpha virt. eigenvalues --    0.08437   0.08541   0.08743   0.08813   0.09221
 Alpha virt. eigenvalues --    0.09695   0.09863   0.09884   0.09907   0.10025
 Alpha virt. eigenvalues --    0.10037   0.10167   0.10356   0.10924   0.10933
 Alpha virt. eigenvalues --    0.11542   0.11605   0.11951   0.12273   0.12309
 Alpha virt. eigenvalues --    0.12490   0.12492   0.12537   0.12883   0.13322
 Alpha virt. eigenvalues --    0.13437   0.13615   0.14045   0.14295   0.14769
 Alpha virt. eigenvalues --    0.14910   0.14935   0.15193   0.15365   0.15865
 Alpha virt. eigenvalues --    0.16082   0.16749   0.17031   0.17741   0.17833
 Alpha virt. eigenvalues --    0.18302   0.18431   0.18580   0.18782   0.18930
 Alpha virt. eigenvalues --    0.19286   0.19390   0.19489   0.19579   0.19660
 Alpha virt. eigenvalues --    0.19730   0.19871   0.20087   0.20713   0.20949
 Alpha virt. eigenvalues --    0.21167   0.21341   0.21377   0.21585   0.21659
 Alpha virt. eigenvalues --    0.21738   0.21978   0.21983   0.22234   0.22249
 Alpha virt. eigenvalues --    0.22385   0.22804   0.23219   0.23244   0.23341
 Alpha virt. eigenvalues --    0.23373   0.23571   0.23823   0.24015   0.24233
 Alpha virt. eigenvalues --    0.24334   0.24594   0.24658   0.24998   0.25155
 Alpha virt. eigenvalues --    0.25399   0.25439   0.25572   0.26370   0.26747
 Alpha virt. eigenvalues --    0.26844   0.27161   0.27369   0.27679   0.27907
 Alpha virt. eigenvalues --    0.27995   0.28428   0.28747   0.28813   0.29108
 Alpha virt. eigenvalues --    0.29309   0.29346   0.29472   0.29587   0.29733
 Alpha virt. eigenvalues --    0.30039   0.30420   0.30824   0.31199   0.31495
 Alpha virt. eigenvalues --    0.31675   0.32239   0.32448   0.32682   0.33191
 Alpha virt. eigenvalues --    0.33723   0.34452   0.35550   0.36968   0.37157
 Alpha virt. eigenvalues --    0.38281   0.38668   0.38998   0.39340   0.39670
 Alpha virt. eigenvalues --    0.40477   0.41388   0.41793   0.41925   0.42034
 Alpha virt. eigenvalues --    0.42258   0.42529   0.42687   0.43365   0.43875
 Alpha virt. eigenvalues --    0.44214   0.44393   0.44881   0.45272   0.45542
 Alpha virt. eigenvalues --    0.45665   0.45768   0.45960   0.46544   0.46740
 Alpha virt. eigenvalues --    0.47046   0.47268   0.47900   0.47980   0.48266
 Alpha virt. eigenvalues --    0.48347   0.48426   0.48760   0.49106   0.49161
 Alpha virt. eigenvalues --    0.49418   0.49795   0.49961   0.49973   0.50051
 Alpha virt. eigenvalues --    0.50191   0.50484   0.50614   0.50775   0.50870
 Alpha virt. eigenvalues --    0.51300   0.51388   0.51660   0.51925   0.52224
 Alpha virt. eigenvalues --    0.52592   0.52818   0.52922   0.53175   0.53464
 Alpha virt. eigenvalues --    0.53811   0.54083   0.54354   0.54426   0.54715
 Alpha virt. eigenvalues --    0.54798   0.55435   0.55883   0.56021   0.56466
 Alpha virt. eigenvalues --    0.56658   0.57113   0.57180   0.57310   0.57762
 Alpha virt. eigenvalues --    0.58450   0.58743   0.58986   0.59410   0.59514
 Alpha virt. eigenvalues --    0.60024   0.60483   0.60864   0.61161   0.61658
 Alpha virt. eigenvalues --    0.61934   0.62873   0.63593   0.63846   0.64704
 Alpha virt. eigenvalues --    0.65044   0.66122   0.66427   0.66489   0.66626
 Alpha virt. eigenvalues --    0.68041   0.68146   0.68516   0.68731   0.69273
 Alpha virt. eigenvalues --    0.69443   0.70038   0.70805   0.71296   0.71646
 Alpha virt. eigenvalues --    0.72067   0.72264   0.72737   0.72857   0.72965
 Alpha virt. eigenvalues --    0.73033   0.73211   0.73352   0.73677   0.73822
 Alpha virt. eigenvalues --    0.74188   0.74301   0.75268   0.75628   0.75947
 Alpha virt. eigenvalues --    0.76227   0.77069   0.77178   0.78049   0.78552
 Alpha virt. eigenvalues --    0.79040   0.79465   0.79940   0.80245   0.80629
 Alpha virt. eigenvalues --    0.80893   0.81127   0.82087   0.82174   0.82524
 Alpha virt. eigenvalues --    0.83065   0.83481   0.83979   0.84161   0.84535
 Alpha virt. eigenvalues --    0.84653   0.85176   0.85581   0.86542   0.87298
 Alpha virt. eigenvalues --    0.88143   0.88569   0.89308   0.89847   0.90102
 Alpha virt. eigenvalues --    0.90353   0.90655   0.91050   0.91650   0.91805
 Alpha virt. eigenvalues --    0.91915   0.92324   0.92500   0.92584   0.92657
 Alpha virt. eigenvalues --    0.92978   0.93157   0.93377   0.93681   0.93960
 Alpha virt. eigenvalues --    0.95092   0.95380   0.95898   0.96343   0.96695
 Alpha virt. eigenvalues --    0.97115   0.97172   0.97623   0.97832   0.98748
 Alpha virt. eigenvalues --    0.99216   0.99416   0.99568   0.99909   1.00166
 Alpha virt. eigenvalues --    1.00361   1.00568   1.00704   1.00985   1.01022
 Alpha virt. eigenvalues --    1.01168   1.01285   1.01740   1.01929   1.02298
 Alpha virt. eigenvalues --    1.02669   1.02752   1.03470   1.03819   1.03871
 Alpha virt. eigenvalues --    1.04034   1.04291   1.04828   1.04931   1.05055
 Alpha virt. eigenvalues --    1.05158   1.05383   1.05601   1.06112   1.06541
 Alpha virt. eigenvalues --    1.06967   1.07010   1.07244   1.07443   1.07521
 Alpha virt. eigenvalues --    1.07827   1.08027   1.08300   1.08629   1.08870
 Alpha virt. eigenvalues --    1.08999   1.09311   1.09582   1.10219   1.10941
 Alpha virt. eigenvalues --    1.11249   1.11383   1.11954   1.12215   1.12423
 Alpha virt. eigenvalues --    1.12495   1.12933   1.13143   1.13250   1.13352
 Alpha virt. eigenvalues --    1.13498   1.13778   1.13924   1.14107   1.14223
 Alpha virt. eigenvalues --    1.14560   1.14938   1.15190   1.15492   1.16126
 Alpha virt. eigenvalues --    1.16403   1.17272   1.17904   1.17966   1.18433
 Alpha virt. eigenvalues --    1.18894   1.19660   1.19847   1.20043   1.20420
 Alpha virt. eigenvalues --    1.20780   1.21328   1.22672   1.23024   1.23043
 Alpha virt. eigenvalues --    1.23102   1.23293   1.23723   1.23859   1.24627
 Alpha virt. eigenvalues --    1.25230   1.26127   1.27251   1.27645   1.27877
 Alpha virt. eigenvalues --    1.28399   1.29235   1.29600   1.30105   1.30426
 Alpha virt. eigenvalues --    1.30686   1.30829   1.30895   1.31143   1.31735
 Alpha virt. eigenvalues --    1.32043   1.32112   1.32337   1.32481   1.32598
 Alpha virt. eigenvalues --    1.32670   1.32836   1.32992   1.33355   1.34078
 Alpha virt. eigenvalues --    1.34658   1.34953   1.35089   1.35453   1.35616
 Alpha virt. eigenvalues --    1.35823   1.35854   1.36250   1.36430   1.36540
 Alpha virt. eigenvalues --    1.36880   1.37023   1.37888   1.37906   1.38063
 Alpha virt. eigenvalues --    1.38261   1.38711   1.38769   1.38807   1.38933
 Alpha virt. eigenvalues --    1.39186   1.39428   1.39580   1.39685   1.39983
 Alpha virt. eigenvalues --    1.40242   1.40406   1.40605   1.40877   1.41150
 Alpha virt. eigenvalues --    1.41169   1.41250   1.41599   1.41713   1.41885
 Alpha virt. eigenvalues --    1.42180   1.42442   1.42595   1.42736   1.42973
 Alpha virt. eigenvalues --    1.43199   1.43367   1.43637   1.43796   1.44212
 Alpha virt. eigenvalues --    1.44600   1.44935   1.45064   1.45453   1.45538
 Alpha virt. eigenvalues --    1.45723   1.46074   1.46410   1.46702   1.47463
 Alpha virt. eigenvalues --    1.47870   1.48236   1.49753   1.49808   1.50017
 Alpha virt. eigenvalues --    1.50346   1.50867   1.51850   1.52373   1.52466
 Alpha virt. eigenvalues --    1.52590   1.53105   1.53401   1.53909   1.55385
 Alpha virt. eigenvalues --    1.55632   1.57463   1.58102   1.58180   1.58295
 Alpha virt. eigenvalues --    1.58586   1.59002   1.59050   1.59395   1.60156
 Alpha virt. eigenvalues --    1.60659   1.60944   1.61417   1.61555   1.62035
 Alpha virt. eigenvalues --    1.62202   1.62359   1.62918   1.63356   1.63825
 Alpha virt. eigenvalues --    1.64561   1.64718   1.64936   1.65444   1.65679
 Alpha virt. eigenvalues --    1.65959   1.66872   1.68058   1.68291   1.69575
 Alpha virt. eigenvalues --    1.70150   1.70569   1.70904   1.72583   1.73166
 Alpha virt. eigenvalues --    1.73376   1.73583   1.74298   1.74410   1.75056
 Alpha virt. eigenvalues --    1.75795   1.76492   1.77482   1.77826   1.77949
 Alpha virt. eigenvalues --    1.78381   1.78713   1.79045   1.79325   1.79675
 Alpha virt. eigenvalues --    1.79815   1.81000   1.81292   1.81716   1.81801
 Alpha virt. eigenvalues --    1.82399   1.82975   1.83711   1.83895   1.84105
 Alpha virt. eigenvalues --    1.84517   1.84927   1.85049   1.85497   1.86080
 Alpha virt. eigenvalues --    1.86185   1.86490   1.86742   1.87378   1.87691
 Alpha virt. eigenvalues --    1.88331   1.88445   1.88940   1.89137   1.89288
 Alpha virt. eigenvalues --    1.89751   1.90445   1.91485   1.92057   1.92665
 Alpha virt. eigenvalues --    1.93126   1.93246   1.93912   1.93949   1.95059
 Alpha virt. eigenvalues --    1.96187   1.96719   1.97816   1.97987   1.98535
 Alpha virt. eigenvalues --    1.98878   2.01997   2.02057   2.02216   2.03036
 Alpha virt. eigenvalues --    2.05381   2.05655   2.07172   2.08372   2.08504
 Alpha virt. eigenvalues --    2.10991   2.11256   2.11783   2.12596   2.13191
 Alpha virt. eigenvalues --    2.14040   2.14826   2.14901   2.15693   2.17662
 Alpha virt. eigenvalues --    2.18489   2.18904   2.19069   2.19689   2.20348
 Alpha virt. eigenvalues --    2.20701   2.20831   2.21553   2.24662   2.26324
 Alpha virt. eigenvalues --    2.26567   2.27059   2.27546   2.28841   2.29568
 Alpha virt. eigenvalues --    2.30222   2.30899   2.31516   2.32512   2.33076
 Alpha virt. eigenvalues --    2.33445   2.33737   2.33925   2.34507   2.34694
 Alpha virt. eigenvalues --    2.34944   2.39092   2.39720   2.42013   2.42973
 Alpha virt. eigenvalues --    2.43942   2.47945   2.49313   2.54939   2.65282
 Alpha virt. eigenvalues --    2.66988   2.67078   2.67106   2.67299   2.67882
 Alpha virt. eigenvalues --    2.68657   2.69205   2.69245   2.69329   2.69561
 Alpha virt. eigenvalues --    2.69610   2.69719   2.69834   2.69903   2.70108
 Alpha virt. eigenvalues --    2.70124   2.70167   2.70604   2.70672   2.70773
 Alpha virt. eigenvalues --    2.70821   2.70871   2.71103   2.71427   2.71647
 Alpha virt. eigenvalues --    2.71772   2.72084   2.72850   2.72897   2.73039
 Alpha virt. eigenvalues --    2.73251   2.73307   2.73537   2.73664   2.73830
 Alpha virt. eigenvalues --    2.74038   2.74313   2.74364   2.74433   2.75430
 Alpha virt. eigenvalues --    2.75517   2.75629   2.75664   2.75697   2.75713
 Alpha virt. eigenvalues --    2.75953   2.75961   2.76119   2.76155   2.76237
 Alpha virt. eigenvalues --    2.76311   2.76426   2.76562   2.77054   2.77520
 Alpha virt. eigenvalues --    2.77621   2.77727   2.78131   2.78416   2.78548
 Alpha virt. eigenvalues --    2.78704   2.79085   2.79328   2.79513   2.79704
 Alpha virt. eigenvalues --    2.79767   2.79909   2.80128   2.80356   2.81151
 Alpha virt. eigenvalues --    2.82253   2.82440   2.82597   2.82716   2.82722
 Alpha virt. eigenvalues --    2.82977   2.83117   2.83598   2.84004   2.84816
 Alpha virt. eigenvalues --    2.84853   2.85265   2.85384   2.85794   2.85924
 Alpha virt. eigenvalues --    2.86066   2.86286   2.86456   2.87213   2.87422
 Alpha virt. eigenvalues --    2.87723   2.88380   2.88593   2.88706   2.88803
 Alpha virt. eigenvalues --    2.88869   2.89371   2.89441   2.89498   2.90293
 Alpha virt. eigenvalues --    2.91027   2.91128   2.92132   2.92143   2.92250
 Alpha virt. eigenvalues --    2.92786   2.92839   2.92866   2.93148   2.93195
 Alpha virt. eigenvalues --    2.93637   2.94119   2.94437   2.94567   2.94706
 Alpha virt. eigenvalues --    2.94780   2.94899   2.95229   2.95307   2.95701
 Alpha virt. eigenvalues --    2.95752   2.96058   2.96178   2.96366   2.96426
 Alpha virt. eigenvalues --    2.96560   2.96750   2.96934   2.97252   2.97378
 Alpha virt. eigenvalues --    2.97602   2.98034   2.98237   2.98346   2.98954
 Alpha virt. eigenvalues --    2.99100   2.99384   2.99550   2.99654   2.99781
 Alpha virt. eigenvalues --    2.99954   3.00318   3.00337   3.00550   3.00661
 Alpha virt. eigenvalues --    3.01319   3.01608   3.01785   3.02224   3.02312
 Alpha virt. eigenvalues --    3.02616   3.02846   3.03307   3.04056   3.07385
 Alpha virt. eigenvalues --    3.08043   3.08797   3.08876   3.08901   3.09327
 Alpha virt. eigenvalues --    3.09456   3.09645   3.09767   3.09891   3.14008
 Alpha virt. eigenvalues --    3.14150   3.14191   3.14777   3.14962   3.15202
 Alpha virt. eigenvalues --    3.16530   3.16579   3.16854   3.22504   3.27894
 Alpha virt. eigenvalues --    3.29315   3.29732   3.30465   3.43228   3.43841
 Alpha virt. eigenvalues --    3.44527   3.45203   3.45641   3.47139   3.47179
 Alpha virt. eigenvalues --    3.48070   3.48278   3.48491   3.49452   3.49774
 Alpha virt. eigenvalues --    3.50057   3.53416   3.54249   3.54636   3.55864
 Alpha virt. eigenvalues --    3.56044   3.56828   3.57041   3.57468   3.57542
 Alpha virt. eigenvalues --    3.57741   3.57971   3.58259   3.58938   3.59722
 Alpha virt. eigenvalues --    3.60027   3.61237   3.61676   3.61906   3.62668
 Alpha virt. eigenvalues --    3.62911   3.63488   3.63830   3.64217   3.64693
 Alpha virt. eigenvalues --    3.73333   3.77080  68.66590  68.67603  68.68759
 Alpha virt. eigenvalues --   68.70842  68.74920  68.75829  68.83917  68.84899
 Alpha virt. eigenvalues --   68.85454  68.87949  68.89020  68.90311 576.25043
 Alpha virt. eigenvalues --  576.26035 576.27167 576.29203 576.33292 576.34179
 Alpha virt. eigenvalues --  576.42119 576.43086 576.43618 576.46017 576.47068
 Alpha virt. eigenvalues --  576.48347
  Beta  occ. eigenvalues -- -197.11124-129.99221-129.99172-129.99169-101.62890
  Beta  occ. eigenvalues --  -22.43525 -19.28502 -19.28485 -19.28455 -19.28374
  Beta  occ. eigenvalues --  -19.28368 -19.28349 -19.28338 -19.28334 -19.28315
  Beta  occ. eigenvalues --  -19.28247 -19.28203 -19.28111 -19.26928 -19.26896
  Beta  occ. eigenvalues --  -19.26880 -19.26875 -19.26861 -19.26859 -19.26838
  Beta  occ. eigenvalues --  -19.26834 -19.26815 -19.26786 -19.26785 -19.26774
  Beta  occ. eigenvalues --  -19.26773 -19.26766 -19.26764 -19.26761 -19.26744
  Beta  occ. eigenvalues --  -19.26733 -19.26732 -19.26727 -19.26718 -19.26717
  Beta  occ. eigenvalues --  -19.26650 -19.26600 -19.24857 -19.24810 -19.24780
  Beta  occ. eigenvalues --  -19.24761 -18.94021 -18.91829 -18.91763 -13.36632
  Beta  occ. eigenvalues --  -13.36579 -13.36573 -10.69559 -10.69555 -10.69554
  Beta  occ. eigenvalues --  -10.69506 -10.69502 -10.69501 -10.69501 -10.69497
  Beta  occ. eigenvalues --  -10.69493 -10.33008 -10.32221 -10.31737 -10.30967
  Beta  occ. eigenvalues --  -10.30947 -10.30926 -10.30422 -10.30349  -9.53346
  Beta  occ. eigenvalues --   -7.29234  -7.27732  -7.27728  -3.21064  -3.21033
  Beta  occ. eigenvalues --   -3.21027  -3.21024  -3.20997  -3.20979  -3.20971
  Beta  occ. eigenvalues --   -3.20969  -3.20962  -3.20844  -3.20805  -3.20785
  Beta  occ. eigenvalues --   -2.74947  -1.85302  -1.85270  -1.85248  -1.85220
  Beta  occ. eigenvalues --   -1.85095  -1.85051  -1.85032  -1.85009  -1.84995
  Beta  occ. eigenvalues --   -1.84985  -1.84970  -1.84898  -1.84355  -1.84243
  Beta  occ. eigenvalues --   -1.84229  -1.84222  -1.84184  -1.84178  -1.84108
  Beta  occ. eigenvalues --   -1.84095  -1.84072  -1.84062  -1.84042  -1.84027
  Beta  occ. eigenvalues --   -1.83905  -1.83878  -1.83861  -1.83855  -1.83819
  Beta  occ. eigenvalues --   -1.83787  -1.83767  -1.83763  -1.83748  -1.83649
  Beta  occ. eigenvalues --   -1.83641  -1.83631  -1.80813  -1.76127  -1.75977
  Beta  occ. eigenvalues --   -1.50326  -1.50275  -1.50270  -1.08602  -1.06969
  Beta  occ. eigenvalues --   -1.06921  -1.06894  -1.06000  -1.05979  -1.05941
  Beta  occ. eigenvalues --   -1.04564  -1.04544  -1.04540  -1.03964  -1.03953
  Beta  occ. eigenvalues --   -1.03699  -1.03328  -1.03293  -1.03268  -1.03020
  Beta  occ. eigenvalues --   -1.02982  -1.02242  -1.02224  -1.02200  -1.02043
  Beta  occ. eigenvalues --   -1.01989  -1.01949  -1.01893  -1.01857  -1.01763
  Beta  occ. eigenvalues --   -1.01728  -1.01716  -1.01607  -1.01564  -1.01522
  Beta  occ. eigenvalues --   -1.01281  -1.00785  -1.00736  -1.00692  -1.00683
  Beta  occ. eigenvalues --   -0.99935  -0.99870  -0.99822  -0.96268  -0.89742
  Beta  occ. eigenvalues --   -0.85760  -0.85711  -0.85711  -0.85613  -0.85601
  Beta  occ. eigenvalues --   -0.85564  -0.85560  -0.85559  -0.85538  -0.84801
  Beta  occ. eigenvalues --   -0.84258  -0.82634  -0.72049  -0.69642  -0.65169
  Beta  occ. eigenvalues --   -0.62291  -0.61666  -0.61640  -0.61607  -0.60680
  Beta  occ. eigenvalues --   -0.58939  -0.58929  -0.58911  -0.58787  -0.58763
  Beta  occ. eigenvalues --   -0.58729  -0.58717  -0.58654  -0.58537  -0.57372
  Beta  occ. eigenvalues --   -0.57214  -0.57173  -0.57002  -0.56808  -0.56493
  Beta  occ. eigenvalues --   -0.56414  -0.56370  -0.55845  -0.55630  -0.55346
  Beta  occ. eigenvalues --   -0.55334  -0.55324  -0.54490  -0.54164  -0.54135
  Beta  occ. eigenvalues --   -0.53937  -0.53669  -0.53642  -0.53597  -0.52718
  Beta  occ. eigenvalues --   -0.52618  -0.52561  -0.52454  -0.52420  -0.51454
  Beta  occ. eigenvalues --   -0.51430  -0.51427  -0.51295  -0.51240  -0.50816
  Beta  occ. eigenvalues --   -0.50479  -0.50462  -0.50402  -0.50307  -0.50208
  Beta  occ. eigenvalues --   -0.50143  -0.50023  -0.49988  -0.49962  -0.49663
  Beta  occ. eigenvalues --   -0.49607  -0.49565  -0.49477  -0.49438  -0.49298
  Beta  occ. eigenvalues --   -0.49241  -0.49200  -0.49081  -0.49060  -0.48971
  Beta  occ. eigenvalues --   -0.48650  -0.48516  -0.48459  -0.48415  -0.47767
  Beta  occ. eigenvalues --   -0.47607  -0.47538  -0.45904  -0.45895  -0.45803
  Beta  occ. eigenvalues --   -0.45783  -0.45670  -0.45558  -0.45190  -0.45165
  Beta  occ. eigenvalues --   -0.45136  -0.45052  -0.44800  -0.44601  -0.44469
  Beta  occ. eigenvalues --   -0.44424  -0.44408  -0.44272  -0.44185  -0.44164
  Beta  occ. eigenvalues --   -0.43469  -0.43077  -0.42502  -0.42477  -0.42405
  Beta  occ. eigenvalues --   -0.42262  -0.42148  -0.42135  -0.42114  -0.41614
  Beta  occ. eigenvalues --   -0.41602  -0.41548  -0.41273  -0.41022  -0.40926
  Beta  occ. eigenvalues --   -0.40746  -0.40711  -0.40645  -0.40369  -0.40359
  Beta  occ. eigenvalues --   -0.40297  -0.40155  -0.40128  -0.40111  -0.39791
  Beta  occ. eigenvalues --   -0.39637  -0.39357  -0.39171  -0.39122  -0.39100
  Beta  occ. eigenvalues --   -0.38906  -0.38872  -0.38847  -0.38798  -0.38737
  Beta  occ. eigenvalues --   -0.38691  -0.38297  -0.38263  -0.38232  -0.37908
  Beta  occ. eigenvalues --   -0.37192  -0.37174  -0.35913  -0.35900  -0.33801
  Beta  occ. eigenvalues --   -0.30791
  Beta virt. eigenvalues --   -0.06276  -0.06239  -0.04822  -0.04749  -0.04635
  Beta virt. eigenvalues --   -0.01506  -0.01393  -0.01324  -0.01091  -0.00906
  Beta virt. eigenvalues --   -0.00886  -0.00835  -0.00112  -0.00047  -0.00011
  Beta virt. eigenvalues --    0.00712   0.00724   0.00768   0.00926   0.01029
  Beta virt. eigenvalues --    0.01551   0.01857   0.01877   0.01906   0.02478
  Beta virt. eigenvalues --    0.02699   0.02759   0.02824   0.03517   0.03682
  Beta virt. eigenvalues --    0.03778   0.04019   0.04031   0.04325   0.04354
  Beta virt. eigenvalues --    0.04381   0.04406   0.04617   0.05041   0.05123
  Beta virt. eigenvalues --    0.05726   0.06489   0.07030   0.08472   0.08492
  Beta virt. eigenvalues --    0.08548   0.08618   0.09283   0.09365   0.09587
  Beta virt. eigenvalues --    0.09844   0.09915   0.09997   0.10031   0.10061
  Beta virt. eigenvalues --    0.10148   0.10342   0.10429   0.10934   0.10936
  Beta virt. eigenvalues --    0.11481   0.11599   0.11736   0.11999   0.12285
  Beta virt. eigenvalues --    0.12415   0.12500   0.12549   0.12633   0.13333
  Beta virt. eigenvalues --    0.13439   0.13617   0.14029   0.14285   0.14825
  Beta virt. eigenvalues --    0.14972   0.14997   0.15212   0.15364   0.15868
  Beta virt. eigenvalues --    0.16064   0.16715   0.17041   0.17737   0.17817
  Beta virt. eigenvalues --    0.18300   0.18434   0.18624   0.18777   0.18941
  Beta virt. eigenvalues --    0.19325   0.19429   0.19516   0.19624   0.19690
  Beta virt. eigenvalues --    0.19943   0.20072   0.20413   0.20725   0.20951
  Beta virt. eigenvalues --    0.21165   0.21342   0.21369   0.21590   0.21661
  Beta virt. eigenvalues --    0.21749   0.21988   0.22006   0.22244   0.22273
  Beta virt. eigenvalues --    0.22372   0.22807   0.23216   0.23236   0.23338
  Beta virt. eigenvalues --    0.23368   0.23583   0.23794   0.23992   0.24196
  Beta virt. eigenvalues --    0.24328   0.24510   0.24659   0.24968   0.25141
  Beta virt. eigenvalues --    0.25389   0.25434   0.25542   0.26284   0.26748
  Beta virt. eigenvalues --    0.26839   0.27153   0.27358   0.27657   0.27896
  Beta virt. eigenvalues --    0.27996   0.28378   0.28746   0.28817   0.29086
  Beta virt. eigenvalues --    0.29326   0.29355   0.29463   0.29591   0.29736
  Beta virt. eigenvalues --    0.30045   0.30419   0.30819   0.31206   0.31495
  Beta virt. eigenvalues --    0.31678   0.32246   0.32451   0.32687   0.33220
  Beta virt. eigenvalues --    0.33696   0.34443   0.35349   0.36965   0.37135
  Beta virt. eigenvalues --    0.38261   0.38798   0.39008   0.39371   0.39671
  Beta virt. eigenvalues --    0.40398   0.41381   0.41840   0.41988   0.42120
  Beta virt. eigenvalues --    0.42271   0.42541   0.42802   0.43377   0.43967
  Beta virt. eigenvalues --    0.44226   0.44469   0.44909   0.45168   0.45520
  Beta virt. eigenvalues --    0.45722   0.45850   0.45937   0.46519   0.46692
  Beta virt. eigenvalues --    0.47044   0.47238   0.47849   0.47956   0.48199
  Beta virt. eigenvalues --    0.48315   0.48360   0.48739   0.49102   0.49148
  Beta virt. eigenvalues --    0.49413   0.49676   0.49915   0.49968   0.50043
  Beta virt. eigenvalues --    0.50189   0.50487   0.50603   0.50775   0.50829
  Beta virt. eigenvalues --    0.51299   0.51384   0.51628   0.51909   0.52223
  Beta virt. eigenvalues --    0.52592   0.52766   0.52896   0.53178   0.53421
  Beta virt. eigenvalues --    0.53788   0.54026   0.54343   0.54421   0.54711
  Beta virt. eigenvalues --    0.54796   0.55395   0.55961   0.56036   0.56470
  Beta virt. eigenvalues --    0.56622   0.57079   0.57172   0.57286   0.57738
  Beta virt. eigenvalues --    0.58273   0.58753   0.58973   0.59252   0.59475
  Beta virt. eigenvalues --    0.60001   0.60551   0.60776   0.61115   0.61647
  Beta virt. eigenvalues --    0.61940   0.62802   0.63506   0.64014   0.64655
  Beta virt. eigenvalues --    0.65052   0.65954   0.66374   0.66481   0.66561
  Beta virt. eigenvalues --    0.67720   0.68041   0.68216   0.68730   0.68849
  Beta virt. eigenvalues --    0.69671   0.70187   0.70544   0.71185   0.71681
  Beta virt. eigenvalues --    0.72018   0.72250   0.72627   0.72844   0.72950
  Beta virt. eigenvalues --    0.73032   0.73215   0.73322   0.73614   0.73695
  Beta virt. eigenvalues --    0.74117   0.74153   0.74997   0.75541   0.75761
  Beta virt. eigenvalues --    0.76221   0.77125   0.77169   0.77925   0.78433
  Beta virt. eigenvalues --    0.79071   0.79491   0.80013   0.80543   0.80830
  Beta virt. eigenvalues --    0.81096   0.81111   0.82072   0.82198   0.82488
  Beta virt. eigenvalues --    0.83068   0.83441   0.83962   0.84164   0.84414
  Beta virt. eigenvalues --    0.84664   0.85184   0.85576   0.86537   0.87286
  Beta virt. eigenvalues --    0.88017   0.88056   0.88733   0.89253   0.89614
  Beta virt. eigenvalues --    0.89898   0.90219   0.90394   0.90645   0.91163
  Beta virt. eigenvalues --    0.91295   0.91724   0.91868   0.91984   0.92082
  Beta virt. eigenvalues --    0.92441   0.92678   0.93233   0.93363   0.93693
  Beta virt. eigenvalues --    0.94864   0.95252   0.95491   0.95891   0.96665
  Beta virt. eigenvalues --    0.97180   0.97239   0.97859   0.98028   0.98674
  Beta virt. eigenvalues --    0.99174   0.99247   0.99564   0.99740   1.00037
  Beta virt. eigenvalues --    1.00363   1.00568   1.00711   1.00970   1.01041
  Beta virt. eigenvalues --    1.01210   1.01258   1.01402   1.01824   1.02292
  Beta virt. eigenvalues --    1.02680   1.02758   1.03485   1.03731   1.03873
  Beta virt. eigenvalues --    1.04036   1.04308   1.04848   1.04947   1.05077
  Beta virt. eigenvalues --    1.05173   1.05425   1.05654   1.06129   1.06584
  Beta virt. eigenvalues --    1.07011   1.07043   1.07294   1.07529   1.07642
  Beta virt. eigenvalues --    1.07879   1.08056   1.08457   1.08835   1.08914
  Beta virt. eigenvalues --    1.09043   1.09422   1.09645   1.10230   1.10937
  Beta virt. eigenvalues --    1.11256   1.11389   1.11951   1.12208   1.12394
  Beta virt. eigenvalues --    1.12500   1.12908   1.13110   1.13163   1.13353
  Beta virt. eigenvalues --    1.13503   1.13778   1.13863   1.14098   1.14350
  Beta virt. eigenvalues --    1.14538   1.14886   1.15124   1.15496   1.15838
  Beta virt. eigenvalues --    1.16350   1.17261   1.17859   1.17945   1.18362
  Beta virt. eigenvalues --    1.18946   1.19177   1.19882   1.19933   1.20372
  Beta virt. eigenvalues --    1.20557   1.21209   1.22663   1.23028   1.23036
  Beta virt. eigenvalues --    1.23097   1.23332   1.23720   1.23868   1.24615
  Beta virt. eigenvalues --    1.25198   1.25922   1.27251   1.27638   1.27796
  Beta virt. eigenvalues --    1.28393   1.29247   1.29499   1.30094   1.30423
  Beta virt. eigenvalues --    1.30671   1.30829   1.30885   1.31129   1.31722
  Beta virt. eigenvalues --    1.32056   1.32144   1.32342   1.32483   1.32527
  Beta virt. eigenvalues --    1.32655   1.32869   1.32970   1.33315   1.33951
  Beta virt. eigenvalues --    1.34577   1.34898   1.35046   1.35464   1.35612
  Beta virt. eigenvalues --    1.35787   1.35840   1.36208   1.36426   1.36543
  Beta virt. eigenvalues --    1.36883   1.37019   1.37875   1.37923   1.38050
  Beta virt. eigenvalues --    1.38290   1.38661   1.38780   1.38828   1.38910
  Beta virt. eigenvalues --    1.39179   1.39448   1.39566   1.39733   1.39948
  Beta virt. eigenvalues --    1.40232   1.40368   1.40622   1.40859   1.41159
  Beta virt. eigenvalues --    1.41190   1.41273   1.41592   1.41718   1.41880
  Beta virt. eigenvalues --    1.42189   1.42449   1.42596   1.42739   1.42957
  Beta virt. eigenvalues --    1.43214   1.43367   1.43647   1.43815   1.44232
  Beta virt. eigenvalues --    1.44605   1.44895   1.45034   1.45464   1.45543
  Beta virt. eigenvalues --    1.45722   1.46069   1.46384   1.46767   1.47465
  Beta virt. eigenvalues --    1.47854   1.48242   1.49762   1.49820   1.50027
  Beta virt. eigenvalues --    1.50353   1.50877   1.51872   1.52378   1.52473
  Beta virt. eigenvalues --    1.52605   1.53126   1.53411   1.53930   1.55402
  Beta virt. eigenvalues --    1.55642   1.57468   1.58118   1.58201   1.58319
  Beta virt. eigenvalues --    1.58620   1.59021   1.59075   1.59429   1.60166
  Beta virt. eigenvalues --    1.60676   1.60965   1.61428   1.61560   1.62043
  Beta virt. eigenvalues --    1.62209   1.62356   1.62935   1.63357   1.63903
  Beta virt. eigenvalues --    1.64675   1.64851   1.65077   1.65537   1.65750
  Beta virt. eigenvalues --    1.66050   1.66952   1.68220   1.68359   1.69620
  Beta virt. eigenvalues --    1.70182   1.70598   1.70898   1.72425   1.73166
  Beta virt. eigenvalues --    1.73372   1.73595   1.74321   1.74440   1.75040
  Beta virt. eigenvalues --    1.75757   1.76429   1.77432   1.77822   1.77886
  Beta virt. eigenvalues --    1.78338   1.78610   1.79030   1.79307   1.79628
  Beta virt. eigenvalues --    1.79806   1.81009   1.81291   1.81679   1.81794
  Beta virt. eigenvalues --    1.82406   1.82888   1.83697   1.83934   1.84063
  Beta virt. eigenvalues --    1.84514   1.84932   1.84997   1.85499   1.86093
  Beta virt. eigenvalues --    1.86166   1.86524   1.86748   1.87399   1.87698
  Beta virt. eigenvalues --    1.88267   1.88408   1.88845   1.89130   1.89171
  Beta virt. eigenvalues --    1.89766   1.90455   1.91472   1.91969   1.92664
  Beta virt. eigenvalues --    1.93169   1.93231   1.93914   1.93951   1.95063
  Beta virt. eigenvalues --    1.96234   1.96604   1.97845   1.98029   1.98616
  Beta virt. eigenvalues --    1.98905   2.02045   2.02147   2.02341   2.02794
  Beta virt. eigenvalues --    2.05248   2.05496   2.07100   2.08133   2.08362
  Beta virt. eigenvalues --    2.11002   2.11271   2.11775   2.12018   2.13187
  Beta virt. eigenvalues --    2.14056   2.14844   2.14918   2.15739   2.17692
  Beta virt. eigenvalues --    2.18303   2.18872   2.19144   2.19519   2.20338
  Beta virt. eigenvalues --    2.20819   2.20940   2.21687   2.24604   2.26675
  Beta virt. eigenvalues --    2.26729   2.27442   2.27820   2.29436   2.30036
  Beta virt. eigenvalues --    2.30549   2.31068   2.31542   2.32962   2.33370
  Beta virt. eigenvalues --    2.33837   2.34179   2.34383   2.34972   2.35701
  Beta virt. eigenvalues --    2.36228   2.38849   2.39574   2.41918   2.42855
  Beta virt. eigenvalues --    2.44000   2.47451   2.49061   2.54373   2.65013
  Beta virt. eigenvalues --    2.66784   2.67065   2.67099   2.67214   2.67880
  Beta virt. eigenvalues --    2.68538   2.69205   2.69243   2.69321   2.69561
  Beta virt. eigenvalues --    2.69610   2.69721   2.69837   2.69905   2.70120
  Beta virt. eigenvalues --    2.70142   2.70184   2.70582   2.70696   2.70788
  Beta virt. eigenvalues --    2.70839   2.70889   2.71035   2.71394   2.71648
  Beta virt. eigenvalues --    2.71775   2.72082   2.72852   2.72904   2.73050
  Beta virt. eigenvalues --    2.73271   2.73330   2.73538   2.73664   2.73765
  Beta virt. eigenvalues --    2.73883   2.74324   2.74370   2.74423   2.75437
  Beta virt. eigenvalues --    2.75524   2.75635   2.75668   2.75704   2.75718
  Beta virt. eigenvalues --    2.75964   2.75967   2.76123   2.76161   2.76243
  Beta virt. eigenvalues --    2.76315   2.76432   2.76567   2.77056   2.77540
  Beta virt. eigenvalues --    2.77642   2.77766   2.78155   2.78451   2.78559
  Beta virt. eigenvalues --    2.78729   2.79096   2.79354   2.79542   2.79697
  Beta virt. eigenvalues --    2.79784   2.79874   2.80116   2.80314   2.81153
  Beta virt. eigenvalues --    2.82312   2.82450   2.82637   2.82713   2.82755
  Beta virt. eigenvalues --    2.82991   2.83156   2.83589   2.84001   2.84827
  Beta virt. eigenvalues --    2.84872   2.85286   2.85408   2.85803   2.85928
  Beta virt. eigenvalues --    2.86002   2.86170   2.86456   2.87240   2.87447
  Beta virt. eigenvalues --    2.87749   2.88386   2.88595   2.88710   2.88806
  Beta virt. eigenvalues --    2.88873   2.89389   2.89462   2.89509   2.90296
  Beta virt. eigenvalues --    2.91043   2.91150   2.92142   2.92150   2.92258
  Beta virt. eigenvalues --    2.92807   2.92860   2.92884   2.93176   2.93221
  Beta virt. eigenvalues --    2.93661   2.94115   2.94446   2.94569   2.94642
  Beta virt. eigenvalues --    2.94769   2.94909   2.95197   2.95310   2.95711
  Beta virt. eigenvalues --    2.95765   2.96075   2.96196   2.96373   2.96438
  Beta virt. eigenvalues --    2.96580   2.96751   2.96850   2.97262   2.97389
  Beta virt. eigenvalues --    2.97606   2.98049   2.98252   2.98354   2.98981
  Beta virt. eigenvalues --    2.99097   2.99200   2.99576   2.99659   2.99820
  Beta virt. eigenvalues --    3.00012   3.00346   3.00407   3.00605   3.00726
  Beta virt. eigenvalues --    3.01339   3.01620   3.01792   3.02243   3.02348
  Beta virt. eigenvalues --    3.02630   3.02863   3.03320   3.04066   3.07390
  Beta virt. eigenvalues --    3.08318   3.08726   3.08829   3.08949   3.09345
  Beta virt. eigenvalues --    3.09572   3.09959   3.10085   3.10677   3.14018
  Beta virt. eigenvalues --    3.14157   3.14200   3.14736   3.14899   3.15214
  Beta virt. eigenvalues --    3.16540   3.16590   3.16915   3.22443   3.28384
  Beta virt. eigenvalues --    3.30320   3.30464   3.30894   3.43231   3.43847
  Beta virt. eigenvalues --    3.44529   3.45205   3.45460   3.47144   3.47186
  Beta virt. eigenvalues --    3.48075   3.48279   3.48494   3.49454   3.49776
  Beta virt. eigenvalues --    3.50059   3.53422   3.54270   3.54655   3.55871
  Beta virt. eigenvalues --    3.56053   3.56848   3.57049   3.57498   3.57559
  Beta virt. eigenvalues --    3.57771   3.57988   3.58278   3.58947   3.59725
  Beta virt. eigenvalues --    3.60032   3.61257   3.61684   3.61912   3.62672
  Beta virt. eigenvalues --    3.62913   3.63493   3.63832   3.64219   3.64700
  Beta virt. eigenvalues --    3.73271   3.77311  68.66592  68.67604  68.68761
  Beta virt. eigenvalues --   68.70844  68.74920  68.75831  68.83918  68.84900
  Beta virt. eigenvalues --   68.85456  68.87951  68.89021  68.90313 576.25074
  Beta virt. eigenvalues --  576.26059 576.27193 576.29229 576.33309 576.34220
  Beta virt. eigenvalues --  576.42150 576.43106 576.43650 576.46050 576.47089
  Beta virt. eigenvalues --  576.48381
          Condensed to atoms (all electrons):
          Atomic-Atomic Spin Densities.
 Mulliken charges and spin densities:
               1          2
     1  Cl  -0.338026  -0.634523
     2  C   -0.037248  -0.081644
     3  C    0.014685   0.044802
     4  C   -0.036048  -0.077814
     5  C   -0.030941   0.050107
     6  C    0.006026  -0.099913
     7  C   -0.048315   0.049953
     8  H    0.047443   0.003530
     9  H    0.049739   0.003355
    10  H    0.054491  -0.001763
    11  H    0.055299   0.004392
    12  H    0.053227  -0.001737
    13  C    0.000156  -0.205723
    14  C   -0.037198  -0.065286
    15  H    0.072330   0.008771
    16  H    0.094415   0.003775
    17  H    0.089683   0.002718
    18  O   -0.672444  -0.000574
    19  O   -0.669520  -0.000508
    20  O   -0.665804  -0.001782
    21  O   -0.670964  -0.000529
    22  W    1.719285   0.000363
    23  W    1.657842   0.000502
    24  W    1.669463   0.000195
    25  W    1.678581   0.000201
    26  W    1.662916   0.002701
    27  W    1.710543   0.002470
    28  W    1.612761   0.003249
    29  W    1.670179   0.002852
    30  O   -0.350542  -0.000541
    31  O   -0.393995  -0.000562
    32  O   -0.394169  -0.000612
    33  O   -0.390870  -0.000559
    34  O   -0.673627  -0.000314
    35  O   -0.677968  -0.000076
    36  O   -0.670651  -0.000142
    37  O   -0.672519  -0.000240
    38  O   -0.396235   0.001999
    39  O   -0.395335   0.002017
    40  O   -0.339144  -0.000694
    41  O   -0.395072   0.001999
    42  O   -0.677717   0.000094
    43  O   -0.671805   0.000178
    44  O   -0.668473   0.000310
    45  O   -0.674141   0.000118
    46  O   -0.397143   0.002337
    47  O   -0.352871   0.002245
    48  O   -0.388896   0.001836
    49  O   -0.393422   0.002410
    50  W    1.658790   0.002666
    51  W    1.661944   0.002558
    52  W    1.676183   0.003686
    53  W    1.669523   0.002483
    54  O   -0.721761   0.000093
    55  O   -0.706229   0.000004
    56  O   -0.722919   0.000160
    57  O   -0.720306   0.000052
    58  O   -0.705446   0.000002
    59  O   -0.723834   0.000142
    60  O   -0.722505   0.000195
    61  O   -0.718813   0.000189
    62  O   -0.723138  -0.000169
    63  O   -0.707919  -0.000018
    64  O   -0.722560  -0.000190
    65  O   -0.724516  -0.000204
    66  O   -0.885784   0.004954
    67  O   -0.885217   0.007111
    68  O   -0.883538   0.006993
    69  O   -0.889684   0.006491
    70  K    0.853177   0.000184
    71  K    0.853934   0.000203
    72  K    0.850024   0.000222
    73  V    1.202630   0.938250
 Sum of Mulliken charges =  -1.00000   0.00000
 Mulliken charges and spin densities with hydrogens summed into heavy atoms:
               1          2
     1  Cl  -0.338026  -0.634523
     2  C    0.010195  -0.078113
     3  C    0.014685   0.044802
     4  C    0.013692  -0.074459
     5  C    0.023551   0.048344
     6  C    0.061325  -0.095521
     7  C    0.004912   0.048216
    13  C    0.072487  -0.196952
    14  C    0.146900  -0.058794
    18  O   -0.672444  -0.000574
    19  O   -0.669520  -0.000508
    20  O   -0.665804  -0.001782
    21  O   -0.670964  -0.000529
    22  W    1.719285   0.000363
    23  W    1.657842   0.000502
    24  W    1.669463   0.000195
    25  W    1.678581   0.000201
    26  W    1.662916   0.002701
    27  W    1.710543   0.002470
    28  W    1.612761   0.003249
    29  W    1.670179   0.002852
    30  O   -0.350542  -0.000541
    31  O   -0.393995  -0.000562
    32  O   -0.394169  -0.000612
    33  O   -0.390870  -0.000559
    34  O   -0.673627  -0.000314
    35  O   -0.677968  -0.000076
    36  O   -0.670651  -0.000142
    37  O   -0.672519  -0.000240
    38  O   -0.396235   0.001999
    39  O   -0.395335   0.002017
    40  O   -0.339144  -0.000694
    41  O   -0.395072   0.001999
    42  O   -0.677717   0.000094
    43  O   -0.671805   0.000178
    44  O   -0.668473   0.000310
    45  O   -0.674141   0.000118
    46  O   -0.397143   0.002337
    47  O   -0.352871   0.002245
    48  O   -0.388896   0.001836
    49  O   -0.393422   0.002410
    50  W    1.658790   0.002666
    51  W    1.661944   0.002558
    52  W    1.676183   0.003686
    53  W    1.669523   0.002483
    54  O   -0.721761   0.000093
    55  O   -0.706229   0.000004
    56  O   -0.722919   0.000160
    57  O   -0.720306   0.000052
    58  O   -0.705446   0.000002
    59  O   -0.723834   0.000142
    60  O   -0.722505   0.000195
    61  O   -0.718813   0.000189
    62  O   -0.723138  -0.000169
    63  O   -0.707919  -0.000018
    64  O   -0.722560  -0.000190
    65  O   -0.724516  -0.000204
    66  O   -0.885784   0.004954
    67  O   -0.885217   0.007111
    68  O   -0.883538   0.006993
    69  O   -0.889684   0.006491
    70  K    0.853177   0.000184
    71  K    0.853934   0.000203
    72  K    0.850024   0.000222
    73  V    1.202630   0.938250
 Electronic spatial extent (au):  <R**2>=         317043.5370
 Charge=             -1.0000 electrons
 Dipole moment (field-independent basis, Debye):
    X=             29.1134    Y=            -13.7756    Z=            -30.5725  Tot=             44.4076
 Quadrupole moment (field-independent basis, Debye-Ang):
   XX=           -775.0572   YY=           -702.5508   ZZ=           -779.0547
   XY=            131.4150   XZ=            184.2394   YZ=            -93.9426
 Traceless Quadrupole moment (field-independent basis, Debye-Ang):
   XX=            -22.8363   YY=             49.6701   ZZ=            -26.8338
   XY=            131.4150   XZ=            184.2394   YZ=            -93.9426
 Octapole moment (field-independent basis, Debye-Ang**2):
  XXX=          10375.9432  YYY=            885.3318  ZZZ=         -17380.4202  XYY=           4098.7241
  XXY=           -673.8572  XXZ=          -6174.2431  XZZ=           4139.8454  YZZ=           -138.9934
  YYZ=          -7014.6292  XYZ=           1447.0467
 Hexadecapole moment (field-independent basis, Debye-Ang**3):
 XXXX=        -127304.0098 YYYY=         -39569.6207 ZZZZ=        -325198.1162 XXXY=           8575.5011
 XXXZ=          88145.8989 YYYX=           2773.5045 YYYZ=           7602.5798 ZZZX=          91053.4999
 ZZZY=           7645.6326 XXYY=         -35910.8896 XXZZ=         -71065.7572 YYZZ=         -77911.0488
 XXYZ=         -11139.4019 YYXZ=          40378.2980 ZZXY=          14939.1176
 N-N= 2.098599402344D+04 E-N=-5.908166686529D+04  KE= 6.765635763546D+03
                          Isotropic Fermi Contact Couplings
        Atom                 a.u.       MegaHertz       Gauss      10(-4) cm-1
     1  Cl(35)            -0.09457     -20.73277      -7.39797      -6.91571
     2  C(13)             -0.01266      -7.11840      -2.54002      -2.37444
     3  C(13)              0.01495       8.40068       2.99757       2.80217
     4  C(13)             -0.01216      -6.83404      -2.43855      -2.27959
     5  C(13)              0.01131       6.35880       2.26898       2.12107
     6  C(13)             -0.01607      -9.03314      -3.22325      -3.01313
     7  C(13)              0.01126       6.32779       2.25791       2.11072
     8  H(1)               0.00112       2.50152       0.89260       0.83442
     9  H(1)               0.00108       2.42429       0.86505       0.80866
    10  H(1)              -0.00052      -1.15830      -0.41331      -0.38637
    11  H(1)               0.00133       2.96995       1.05975       0.99067
    12  H(1)              -0.00051      -1.13947      -0.40659      -0.38009
    13  C(13)             -0.02745     -15.43216      -5.50658      -5.14761
    14  C(13)             -0.02316     -13.01691      -4.64476      -4.34197
    15  H(1)               0.00278       6.21180       2.21653       2.07203
    16  H(1)               0.00137       3.06308       1.09298       1.02173
    17  H(1)               0.00088       1.96103       0.69975       0.65413
    18  O(17)             -0.00044       0.13486       0.04812       0.04499
    19  O(17)             -0.00040       0.12033       0.04294       0.04014
    20  O(17)             -0.00173       0.52522       0.18741       0.17520
    21  O(17)             -0.00042       0.12681       0.04525       0.04230
    22  W(183)             0.00000       0.00000       0.00000       0.00000
    23  W(183)             0.00000       0.00000       0.00000       0.00000
    24  W(183)             0.00000       0.00000       0.00000       0.00000
    25  W(183)             0.00000       0.00000       0.00000       0.00000
    26  W(183)             0.00000       0.00000       0.00000       0.00000
    27  W(183)             0.00000       0.00000       0.00000       0.00000
    28  W(183)             0.00000       0.00000       0.00000       0.00000
    29  W(183)             0.00000       0.00000       0.00000       0.00000
    30  O(17)             -0.00020       0.06049       0.02159       0.02018
    31  O(17)             -0.00023       0.06974       0.02489       0.02326
    32  O(17)             -0.00025       0.07667       0.02736       0.02558
    33  O(17)             -0.00022       0.06709       0.02394       0.02238
    34  O(17)             -0.00006       0.01904       0.00679       0.00635
    35  O(17)              0.00012      -0.03651      -0.01303      -0.01218
    36  O(17)              0.00012      -0.03710      -0.01324      -0.01237
    37  O(17)              0.00002      -0.00712      -0.00254      -0.00238
    38  O(17)              0.00184      -0.55918      -0.19953      -0.18652
    39  O(17)              0.00180      -0.54508      -0.19450      -0.18182
    40  O(17)             -0.00876       2.65541       0.94752       0.88575
    41  O(17)              0.00179      -0.54163      -0.19327      -0.18067
    42  O(17)              0.00028      -0.08583      -0.03063      -0.02863
    43  O(17)              0.00034      -0.10347      -0.03692      -0.03451
    44  O(17)              0.00047      -0.14336      -0.05115      -0.04782
    45  O(17)              0.00030      -0.09130      -0.03258      -0.03045
    46  O(17)              0.00221      -0.66970      -0.23897      -0.22339
    47  O(17)              0.00200      -0.60701      -0.21660      -0.20248
    48  O(17)              0.00060      -0.18051      -0.06441      -0.06021
    49  O(17)              0.00223      -0.67444      -0.24066      -0.22497
    50  W(183)             0.00000       0.00000       0.00000       0.00000
    51  W(183)             0.00000       0.00000       0.00000       0.00000
    52  W(183)             0.00000       0.00000       0.00000       0.00000
    53  W(183)             0.00000       0.00000       0.00000       0.00000
    54  O(17)              0.00014      -0.04116      -0.01469      -0.01373
    55  O(17)              0.00002      -0.00611      -0.00218      -0.00204
    56  O(17)              0.00025      -0.07523      -0.02684      -0.02509
    57  O(17)              0.00004      -0.01301      -0.00464      -0.00434
    58  O(17)              0.00007      -0.02091      -0.00746      -0.00698
    59  O(17)              0.00023      -0.07052      -0.02516      -0.02352
    60  O(17)              0.00029      -0.08840      -0.03154      -0.02949
    61  O(17)              0.00029      -0.08940      -0.03190      -0.02982
    62  O(17)             -0.00025       0.07655       0.02732       0.02554
    63  O(17)             -0.00018       0.05361       0.01913       0.01788
    64  O(17)             -0.00028       0.08516       0.03039       0.02841
    65  O(17)             -0.00031       0.09371       0.03344       0.03126
    66  O(17)             -0.00805       2.43965       0.87053       0.81378
    67  O(17)             -0.00688       2.08584       0.74428       0.69576
    68  O(17)             -0.00701       2.12502       0.75826       0.70883
    69  O(17)             -0.00740       2.24379       0.80064       0.74845
    70  K(39)             -0.00002      -0.00192      -0.00068      -0.00064
    71  K(39)             -0.00002      -0.00182      -0.00065      -0.00061
    72  K(39)             -0.00002      -0.00207      -0.00074      -0.00069
    73  V(51)              0.07084      41.71699      14.88566      13.91529
 --------------------------------------------------------
       Center         ----  Spin Dipole Couplings  ----
                      3XX-RR        3YY-RR        3ZZ-RR
 --------------------------------------------------------
     1   Atom        0.745716     -2.081906      1.336190
     2   Atom       -0.015585     -0.013529      0.029114
     3   Atom        0.005095      0.002107     -0.007202
     4   Atom       -0.017089     -0.014561      0.031650
     5   Atom        0.011369      0.005176     -0.016545
     6   Atom       -0.019870     -0.016828      0.036699
     7   Atom        0.008965      0.005721     -0.014687
     8   Atom       -0.001543     -0.001555      0.003098
     9   Atom        0.000266      0.000181     -0.000448
    10   Atom        0.001455      0.000438     -0.001893
    11   Atom        0.003745      0.000294     -0.004039
    12   Atom        0.000545     -0.000574      0.000029
    13   Atom       -0.072240     -0.015143      0.087382
    14   Atom       -0.020908     -0.039627      0.060535
    15   Atom       -0.002291      0.002183      0.000108
    16   Atom        0.007018      0.002500     -0.009518
    17   Atom       -0.010423      0.003685      0.006738
    18   Atom        0.001319     -0.001283     -0.000035
    19   Atom        0.001846     -0.001774     -0.000072
    20   Atom       -0.001958     -0.000422      0.002381
    21   Atom       -0.000630      0.000649     -0.000020
    22   Atom       -0.001996      0.000532      0.001464
    23   Atom       -0.001843      0.000660      0.001183
    24   Atom       -0.002406      0.001008      0.001398
    25   Atom       -0.002119      0.000607      0.001512
    26   Atom        0.000397     -0.002255      0.001859
    27   Atom        0.000547     -0.002511      0.001963
    28   Atom        0.000933     -0.003089      0.002156
    29   Atom        0.000685     -0.002736      0.002051
    30   Atom       -0.000137      0.000237     -0.000100
    31   Atom        0.000011      0.000016     -0.000027
    32   Atom       -0.000460      0.000564     -0.000104
    33   Atom       -0.000136      0.000188     -0.000053
    34   Atom        0.000103     -0.001920      0.001817
    35   Atom       -0.000253     -0.002536      0.002789
    36   Atom       -0.002150     -0.000422      0.002571
    37   Atom       -0.001815     -0.000572      0.002387
    38   Atom        0.005940     -0.002954     -0.002985
    39   Atom        0.006163     -0.003124     -0.003039
    40   Atom       -0.010206      0.008295      0.001911
    41   Atom       -0.004256      0.007601     -0.003345
    42   Atom        0.002660     -0.000978     -0.001682
    43   Atom        0.002899     -0.001014     -0.001884
    44   Atom       -0.004502      0.005844     -0.001342
    45   Atom       -0.003401      0.004983     -0.001582
    46   Atom       -0.000605      0.000482      0.000123
    47   Atom        0.002117     -0.003154      0.001037
    48   Atom        0.005152     -0.007562      0.002410
    49   Atom        0.005105     -0.004988     -0.000117
    50   Atom        0.006087     -0.002766     -0.003321
    51   Atom        0.006392     -0.003126     -0.003266
    52   Atom       -0.002226      0.004912     -0.002686
    53   Atom       -0.002085      0.005467     -0.003382
    54   Atom       -0.003117     -0.001694      0.004812
    55   Atom       -0.002830     -0.001930      0.004759
    56   Atom       -0.001138     -0.004472      0.005610
    57   Atom       -0.001119     -0.003706      0.004824
    58   Atom       -0.003989      0.006429     -0.002441
    59   Atom       -0.003904      0.006639     -0.002736
    60   Atom        0.002608      0.000041     -0.002649
    61   Atom        0.002850     -0.000307     -0.002543
    62   Atom        0.000855      0.000969     -0.001824
    63   Atom        0.001217      0.000343     -0.001560
    64   Atom        0.005373     -0.003787     -0.001586
    65   Atom        0.005030     -0.003161     -0.001869
    66   Atom       -0.032260      0.007415      0.024845
    67   Atom       -0.037081      0.003799      0.033282
    68   Atom       -0.059020      0.021976      0.037045
    69   Atom       -0.054002      0.026967      0.027035
    70   Atom       -0.000572      0.000557      0.000016
    71   Atom        0.000436     -0.000525      0.000089
    72   Atom        0.000755     -0.000951      0.000196
    73   Atom       -0.998471      0.308342      0.690129
 --------------------------------------------------------
                        XY            XZ            YZ
 --------------------------------------------------------
     1   Atom        2.098986      0.767577     -1.442158
     2   Atom        0.054110      0.023030     -0.021896
     3   Atom       -0.013134     -0.004048      0.007797
     4   Atom        0.052061      0.019723     -0.019210
     5   Atom       -0.026886     -0.011923      0.011561
     6   Atom        0.067761      0.027804     -0.023912
     7   Atom       -0.026746     -0.010396      0.013074
     8   Atom       -0.002180     -0.001656      0.000456
     9   Atom       -0.001985     -0.003474     -0.002806
    10   Atom       -0.000501     -0.001223      0.000777
    11   Atom        0.001754      0.002415      0.005325
    12   Atom       -0.001201      0.000237      0.002179
    13   Atom        0.147386      0.073845     -0.058877
    14   Atom        0.098498      0.044974     -0.045469
    15   Atom       -0.004273     -0.010035     -0.012114
    16   Atom        0.000992      0.009503      0.004741
    17   Atom       -0.001638     -0.009102     -0.003846
    18   Atom        0.000459     -0.001699      0.000227
    19   Atom        0.000374      0.002045     -0.000535
    20   Atom        0.003473      0.001027     -0.000971
    21   Atom       -0.001147      0.001378     -0.001386
    22   Atom        0.002215     -0.002003     -0.004121
    23   Atom        0.002194      0.002228      0.003942
    24   Atom        0.002290      0.001838      0.004198
    25   Atom        0.001987     -0.002025     -0.004145
    26   Atom       -0.002069     -0.004597      0.002436
    27   Atom       -0.001875      0.004755     -0.002740
    28   Atom       -0.001489     -0.004689      0.002602
    29   Atom       -0.001689      0.004790     -0.002228
    30   Atom        0.000353     -0.000170     -0.000565
    31   Atom        0.000421      0.000640      0.000296
    32   Atom        0.000437     -0.000147      0.000780
    33   Atom        0.000289     -0.000121     -0.000609
    34   Atom        0.000606     -0.003260     -0.000830
    35   Atom        0.000840      0.003934      0.001025
    36   Atom       -0.000391     -0.001790      0.003849
    37   Atom       -0.000644      0.001488     -0.003173
    38   Atom        0.004484      0.003532      0.001561
    39   Atom        0.004607     -0.003374     -0.001695
    40   Atom        0.009529      0.005248     -0.006605
    41   Atom       -0.002428     -0.000493      0.003382
[...]
 Variable       Old X    -DE/DX   Delta X   Delta X   Delta X     New X
                                 (Linear)    (Quad)   (Total)
    X1      -18.73866   0.00614   0.00000   0.00603   0.00761 -18.73106
    Y1       15.31271  -0.01162   0.00000  -0.01143  -0.01383  15.29888
    Z1       19.88637  -0.00386   0.00000  -0.00403  -0.00693  19.87944
    X2      -15.72002   0.00191   0.00000   0.00268   0.00407 -15.71595
    Y2        8.00400   0.00083   0.00000   0.01544   0.01343   8.01742
    Z2       23.10774   0.00224   0.00000   0.00188   0.00002  23.10777
    X3      -17.18231   0.00119   0.00000  -0.01633  -0.01489 -17.19720
    Y3        7.40004   0.00282   0.00000   0.02697   0.02469   7.42473
    Z3       20.97190  -0.00448   0.00000   0.00627   0.00444  20.97635
    X4      -18.93316  -0.00215   0.00000  -0.00650  -0.00509 -18.93824
    Y4        5.40955  -0.00232   0.00000   0.00966   0.00743   5.41698
    Z4       21.17121  -0.00084   0.00000  -0.00959  -0.01121  21.16000
    X5      -19.26661  -0.00087   0.00000   0.00237   0.00370 -19.26291
    Y5        4.11957  -0.00005   0.00000   0.00239   0.00046   4.12003
    Z5       23.43730  -0.00167   0.00000  -0.01599  -0.01745  23.41985
    X6      -17.83701   0.00021   0.00000   0.00826   0.00954 -17.82747
    Y6        4.77709   0.00022   0.00000   0.00199   0.00032   4.77741
    Z6       25.55370  -0.00108   0.00000  -0.01786  -0.01936  25.53434
    X7      -16.04568   0.00142   0.00000   0.00924   0.01055 -16.03513
    Y7        6.70670   0.00169   0.00000   0.00457   0.00285   6.70955
    Z7       25.37132  -0.00073   0.00000  -0.00815  -0.00985  25.36148
    X8      -14.30675  -0.00004   0.00000  -0.00006   0.00135 -14.30540
    Y8        9.50329   0.00003   0.00000   0.01719   0.01514   9.51843
    Z8       22.99639   0.00068   0.00000   0.00980   0.00779  23.00417
    X9      -20.03828  -0.00018   0.00000  -0.01233  -0.01087 -20.04915
    Y9        4.87570   0.00037   0.00000   0.01632   0.01389   4.88960
    Z9       19.50753   0.00055   0.00000  -0.00573  -0.00731  19.50023
   X10      -20.63677   0.00022   0.00000   0.00305   0.00436 -20.63242
   Y10        2.57873   0.00059   0.00000   0.00366   0.00176   2.58050
   Z10       23.55381  -0.00027   0.00000  -0.01443  -0.01573  23.53808
   X11      -18.09353   0.00017   0.00000   0.00921   0.01042 -18.08311
   Y11        3.76600   0.00007   0.00000  -0.00064  -0.00207   3.76394
   Z11       27.33454  -0.00025   0.00000  -0.01873  -0.02011  27.31443
   X12      -14.89202  -0.00026   0.00000   0.00624   0.00750 -14.88452
   Y12        7.20326   0.00007   0.00000  -0.00011  -0.00162   7.20164
   Z12       27.01104  -0.00041   0.00000  -0.00624  -0.00797  27.00307
   X13      -16.96165  -0.01329   0.00000  -0.06457  -0.06304 -17.02469
   Y13        8.76189  -0.01245   0.00000   0.06469   0.06211   8.82400
   Z13       18.57368   0.01020   0.00000   0.03970   0.03769  18.61137
   X14      -15.48656   0.00382   0.00000  -0.07520  -0.07363 -15.56019
   Y14       10.78259   0.02185   0.00000   0.11079   0.10812  10.89071
   Z14       18.10208  -0.00032   0.00000   0.04280   0.04057  18.14265
   X15      -18.15772   0.00066   0.00000  -0.02957  -0.02800 -18.18572
   Y15        8.04275  -0.00019   0.00000   0.03824   0.03547   8.07822
   Z15       17.04500  -0.00025   0.00000   0.02373   0.02178  17.06678
   X16      -15.41099  -0.00031   0.00000  -0.05497  -0.05332 -15.46432
   Y16       11.59460  -0.00004   0.00000   0.07941   0.07649  11.67109
   Z16       16.20721  -0.00016   0.00000   0.02983   0.02750  16.23471
   X17      -14.19853   0.00093   0.00000  -0.02557  -0.02402 -14.22255
   Y17       11.58637  -0.00130   0.00000   0.05761   0.05511  11.64148
   Z17       19.49988   0.00011   0.00000   0.02548   0.02319  19.52307
   X18       -1.88371   0.00456   0.00000   0.02392   0.02543  -1.85827
   Y18       -3.34648  -0.00087   0.00000  -0.00689  -0.01026  -3.35674
   Z18       14.09721  -0.00102   0.00000  -0.01028  -0.01024  14.08698
   X19      -15.89604  -0.00426   0.00000  -0.01543  -0.01391 -15.90995
   Y19       -2.51639   0.00117   0.00000  -0.00139  -0.00459  -2.52098
   Z19       14.09932  -0.00121   0.00000  -0.01122  -0.01171  14.08761
   X20      -13.31232  -0.00355   0.00000  -0.01151  -0.01009 -13.32241
   Y20        2.54584   0.00396   0.00000   0.01475   0.01228   2.55811
   Z20       19.80795   0.00065   0.00000   0.00727   0.00620  19.81415
   X21       -4.40584   0.00320   0.00000   0.01306   0.01434  -4.39150
   Y21       -8.25021  -0.00315   0.00000  -0.02232  -0.02489  -8.27510
   Z21       19.94993   0.00138   0.00000   0.01292   0.01354  19.96347
   X22       -6.45480  -0.00233   0.00000   0.01109   0.01272  -6.44208
   Y22        1.35317  -0.01443   0.00000  -0.01994  -0.02350   1.32967
   Z22       12.25105   0.01397   0.00000   0.01114   0.01044  12.26149
   X23      -11.34929   0.00342   0.00000  -0.00625  -0.00474 -11.35402
   Y23       -7.22519   0.01365   0.00000   0.00820   0.00473  -7.22046
   Z23       12.42395   0.01376   0.00000   0.00886   0.00912  12.43308
   X24       -6.85606  -0.00871   0.00000  -0.01433  -0.01298  -6.86903
   Y24        1.70663  -0.01190   0.00000  -0.00434  -0.00667   1.69996
   Z24       21.57456  -0.01389   0.00000  -0.01268  -0.01344  21.56111
   X25      -10.90765   0.00970   0.00000   0.01862   0.01986 -10.88779
   Y25       -7.29681   0.00994   0.00000  -0.00491  -0.00717  -7.30398
   Z25       21.67974  -0.01415   0.00000  -0.00796  -0.00767  21.67207
   X26       -4.64276  -0.01148   0.00000   0.00427   0.00582  -4.63693
   Y26       -4.84536   0.01043   0.00000   0.00833   0.00474  -4.84062
   Z26       12.07850   0.01470   0.00000   0.00843   0.00859  12.08708
   X27      -13.12321   0.01153   0.00000   0.00560   0.00720 -13.11601
   Y27       -1.01596  -0.01102   0.00000  -0.01936  -0.02286  -1.03882
   Z27       12.02181   0.01437   0.00000   0.00835   0.00776  12.02957
   X28      -12.89841   0.01637   0.00000   0.01352   0.01484 -12.88357
   Y28       -0.46852  -0.00451   0.00000   0.00442   0.00220  -0.46632
   Z28       21.87364  -0.01464   0.00000  -0.00821  -0.00888  21.86476
   X29       -4.84494  -0.01516   0.00000  -0.00901  -0.00775  -4.85269
   Y29       -5.11200   0.00254   0.00000  -0.01360  -0.01590  -5.12790
   Z29       21.95186  -0.01481   0.00000  -0.00764  -0.00745  21.94441
   X30       -6.00498   0.00047   0.00000  -0.01113  -0.00940  -6.01438
   Y30        3.60943   0.00458   0.00000  -0.00408  -0.00793   3.60150
   Z30       10.04174  -0.00437   0.00000   0.00560   0.00461  10.04635
   X31      -11.61629   0.00007   0.00000   0.01225   0.01380 -11.60249
   Y31       -9.58394  -0.00450   0.00000  -0.00327  -0.00702  -9.59096
   Z31       10.26178  -0.00384   0.00000   0.00339   0.00396  10.26574
   X32       -5.13523   0.00394   0.00000   0.00755   0.00886  -5.12636
   Y32        3.31817   0.00277   0.00000  -0.01146  -0.01352   3.30464
   Z32       23.75525   0.00391   0.00000  -0.00826  -0.00918  23.74607
   X33      -12.61326  -0.00393   0.00000  -0.00277  -0.00162 -12.61488
   Y33       -8.83957  -0.00278   0.00000   0.00358   0.00164  -8.83793
   Z33       23.91867   0.00452   0.00000  -0.00175  -0.00131  23.91736
   X34       -5.06206   0.00143   0.00000   0.01486   0.01650  -5.04556
   Y34       -1.67252   0.00102   0.00000  -0.00023  -0.00403  -1.67655
   Z34       10.54914  -0.00435   0.00000  -0.01344  -0.01371  10.53543
   X35      -12.69229  -0.00169   0.00000  -0.00879  -0.00718 -12.69948
   Y35       -4.29091  -0.00010   0.00000  -0.00828  -0.01197  -4.30288
   Z35       10.62903  -0.00459   0.00000  -0.01585  -0.01600  10.61303
   X36      -10.05642  -0.00080   0.00000  -0.00262  -0.00133 -10.05775
   Y36        1.06550   0.00177   0.00000   0.01137   0.00932   1.07482
   Z36       23.36646   0.00457   0.00000   0.01213   0.01135  23.37781
   X37       -7.67078   0.00042   0.00000   0.00572   0.00692  -7.66387
   Y37       -6.64844  -0.00156   0.00000  -0.01670  -0.01877  -6.66721
   Z37       23.44648   0.00459   0.00000   0.01546   0.01577  23.46225
   X38        0.55948   0.00662   0.00000   0.00055   0.00200   0.56149
   Y38        0.00421   0.00204   0.00000  -0.00418  -0.00714  -0.00292
   Z38       17.52073   0.00229   0.00000   0.00646   0.00614  17.52687
   X39      -18.35625  -0.00642   0.00000   0.00742   0.00880 -18.34745
   Y39       -5.72171  -0.00222   0.00000  -0.00610  -0.00879  -5.73051
   Z39       17.61446   0.00247   0.00000   0.00742   0.00728  17.62174
   X40      -12.04403  -0.00348   0.00000  -0.00692  -0.00535 -12.04938
   Y40        6.46349   0.00934   0.00000  -0.00280  -0.00575   6.45774
   Z40       16.37314  -0.00220   0.00000  -0.01316  -0.01471  16.35843
   X41       -5.63411   0.00178   0.00000  -0.00335  -0.00202  -5.63613
   Y41      -12.21720  -0.00651   0.00000  -0.00569  -0.00869 -12.22589
   Z41       16.55661  -0.00240   0.00000  -0.00806  -0.00697  16.54964
   X42       -3.39728   0.00265   0.00000   0.01847   0.02005  -3.37724
   Y42        1.45944   0.00375   0.00000   0.00353   0.00018   1.45963
   Z42       14.12710  -0.00155   0.00000  -0.00898  -0.00962  14.11748
   X43      -14.38357  -0.00311   0.00000  -0.01392  -0.01246 -14.39604
   Y43       -7.33403  -0.00345   0.00000  -0.01182  -0.01501  -7.34905
   Z43       14.27060  -0.00118   0.00000  -0.00913  -0.00893  14.26167
   X44       -8.54170   0.00042   0.00000  -0.00206  -0.00061  -8.54231
   Y44        4.19134   0.00465   0.00000   0.01556   0.01301   4.20435
   Z44       19.71525   0.00055   0.00000   0.00109  -0.00006  19.71519
   X45       -9.19923  -0.00134   0.00000   0.00481   0.00607  -9.19315
   Y45       -9.86023  -0.00467   0.00000  -0.02404  -0.02655  -9.88678
   Z45       19.88703   0.00167   0.00000   0.01081   0.01149  19.89852
   X46       -3.06193   0.00347   0.00000  -0.00040   0.00120  -3.06073
   Y46       -6.60818  -0.00432   0.00000  -0.01148  -0.01538  -6.62356
   Z46        9.90705  -0.00474   0.00000   0.00243   0.00286   9.90991
   X47      -14.81103  -0.00342   0.00000   0.01572   0.01742 -14.79361
   Y47        0.49150   0.00372   0.00000   0.00515   0.00137   0.49287
   Z47        9.77241  -0.00482   0.00000  -0.00118  -0.00203   9.77038
   X48      -15.19944  -0.00588   0.00000   0.00133   0.00258 -15.19686
   Y48       -0.29357  -0.00011   0.00000  -0.01207  -0.01396  -0.30753
   Z48       24.10129   0.00555   0.00000   0.00038  -0.00038  24.10091
   X49       -2.51027   0.00566   0.00000   0.00470   0.00589  -2.50438
   Y49       -5.36408   0.00002   0.00000   0.00459   0.00255  -5.36153
   Z49       24.14162   0.00477   0.00000  -0.00143  -0.00114  24.14048
   X50       -2.38712  -0.01981   0.00000  -0.00476  -0.00329  -2.39041
   Y50       -0.97659  -0.00719   0.00000  -0.01253  -0.01556  -0.99215
   Z50       16.70145  -0.00413   0.00000  -0.01386  -0.01414  16.68730
   X51      -15.40816   0.02076   0.00000   0.01268   0.01410 -15.39406
   Y51       -4.76567   0.00582   0.00000   0.00149  -0.00136  -4.76702
   Z51       16.77122  -0.00443   0.00000  -0.01425  -0.01442  16.75680
   X52      -11.15081   0.00784   0.00000   0.00127   0.00278 -11.14803
   Y52        3.49701  -0.02266   0.00000  -0.01412  -0.01698   3.48003
   Z52       17.09983   0.00460   0.00000   0.01006   0.00893  17.10877
   X53       -6.57407  -0.00648   0.00000   0.00165   0.00299  -6.57108
   Y53       -9.24433   0.01957   0.00000   0.00353   0.00065  -9.24368
   Z53       17.32839   0.00359   0.00000   0.01393   0.01461  17.34300
   X54       -7.99288   0.00097   0.00000   0.00108   0.00264  -7.99024
   Y54       -5.85138  -0.00222   0.00000   0.00654   0.00290  -5.84848
   Z54       11.46600  -0.00290   0.00000   0.00954   0.00973  11.47574
   X55       -9.76787  -0.00096   0.00000   0.00709   0.00873  -9.75914
   Y55       -0.08100   0.00239   0.00000  -0.01734  -0.02097  -0.10196
   Z55       11.35168  -0.00260   0.00000   0.01026   0.00964  11.36133
   X56      -11.67532  -0.00277   0.00000   0.01264   0.01390 -11.66142
   Y56       -3.77154  -0.00002   0.00000   0.00113  -0.00101  -3.77255
   Z56       22.51890   0.00314   0.00000  -0.00832  -0.00852  22.51038
   X57       -6.00671   0.00208   0.00000  -0.01017  -0.00889  -6.01561
   Y57       -1.81461   0.00076   0.00000  -0.00886  -0.01107  -1.82568
   Z57       22.55610   0.00279   0.00000  -0.01130  -0.01158  22.54452
   X58       -8.26316  -0.00075   0.00000   0.00329   0.00487  -8.25830
   Y58        2.98563   0.00409   0.00000  -0.01173  -0.01492   2.97071
   Z58       14.82507  -0.00181   0.00000   0.00644   0.00547  14.83053
   X59       -9.46151  -0.00043   0.00000  -0.00269  -0.00127  -9.46278
   Y59       -8.83364  -0.00329   0.00000   0.00635   0.00319  -8.83045
   Z59       14.97281  -0.00208   0.00000   0.00891   0.00945  14.98225
   X60       -4.41973   0.00230   0.00000  -0.01010  -0.00867  -4.42840
   Y60        1.12149   0.00227   0.00000  -0.00900  -0.01169   1.10980
   Z60       19.05238   0.00222   0.00000  -0.01081  -0.01143  19.04095
   X61      -13.34673  -0.00234   0.00000   0.01608   0.01740 -13.32933
   Y61       -6.82371  -0.00208   0.00000  -0.00137  -0.00394  -6.82765
   Z61       19.15588   0.00206   0.00000  -0.00895  -0.00879  19.14709
   X62       -4.87003   0.00182   0.00000   0.00268   0.00412  -4.86592
   Y62       -7.33184  -0.00324   0.00000   0.00191  -0.00132  -7.33316
   Z62       14.86199  -0.00140   0.00000   0.00947   0.00994  14.87193
   X63      -12.90252  -0.00160   0.00000   0.00203   0.00359 -12.89892
   Y63        1.47961   0.00402   0.00000  -0.00963  -0.01277   1.46684
   Z63       14.75623  -0.00097   0.00000   0.00676   0.00584  14.76207
   X64      -14.80979  -0.00337   0.00000   0.01095   0.01233 -14.79746
   Y64       -2.21686   0.00009   0.00000   0.00125  -0.00129  -2.21815
   Z64       19.17363   0.00183   0.00000  -0.00870  -0.00920  19.16443
   X65       -2.97790   0.00377   0.00000  -0.00359  -0.00223  -2.98014
   Y65       -3.48869   0.00052   0.00000  -0.01049  -0.01319  -3.50188
   Z65       19.16430   0.00154   0.00000  -0.00849  -0.00846  19.15584
   X66       -6.37568   0.03714   0.00000   0.06823   0.06973  -6.30595
   Y66       -2.15353   0.00680   0.00000   0.00301  -0.00018  -2.15371
   Z66       15.12790  -0.02400   0.00000  -0.03738  -0.03762  15.09028
   X67      -11.40008  -0.03777   0.00000  -0.06085  -0.05937 -11.45945
   Y67       -3.68821  -0.00804   0.00000  -0.01740  -0.02051  -3.70871
   Z67       15.18475  -0.02377   0.00000  -0.03876  -0.03895  15.14580
   X68       -9.68690  -0.01616   0.00000  -0.02808  -0.02666  -9.71356
   Y68       -0.37258   0.03567   0.00000   0.05389   0.05125  -0.32134
   Z68       18.80480   0.02425   0.00000   0.03902   0.03843  18.84323
   X69       -8.02325   0.01593   0.00000   0.03206   0.03341  -7.98985
   Y69       -5.34535  -0.03428   0.00000  -0.06231  -0.06497  -5.41032
   Z69       18.85608   0.02459   0.00000   0.04009   0.04022  18.89630
   X70       -6.09006  -0.00042   0.00000  -0.00152  -0.00001  -6.09007
   Y70      -11.59721   0.00166   0.00000   0.00799   0.00423 -11.59297
   Z70       10.67797   0.00114   0.00000   0.01090   0.01190  10.68988
   X71       -0.23122  -0.00156   0.00000  -0.01129  -0.01001  -0.24123
   Y71        0.10013  -0.00070   0.00000  -0.00955  -0.01173   0.08841
   Z71       23.35416  -0.00130   0.00000  -0.01263  -0.01299  23.34117
   X72      -17.55054   0.00156   0.00000   0.01648   0.01769 -17.53285
   Y72       -5.48416   0.00066   0.00000   0.00061  -0.00133  -5.48549
   Z72       23.49158  -0.00125   0.00000  -0.01066  -0.01080  23.48077
   X73       -8.87754   0.00055   0.00000   0.00358   0.00501  -8.87253
   Y73       -2.88193  -0.00041   0.00000  -0.00598  -0.00888  -2.89081
   Z73       16.98671  -0.00051   0.00000   0.00020  -0.00003  16.98668
         Item               Value     Threshold  Converged?
 Maximum Force            0.037772     0.000450     NO 
 RMS     Force            0.008541     0.000300     NO 
 Maximum Displacement     0.108121     0.001800     NO 
 RMS     Displacement     0.020209     0.001200     NO 
 Predicted change in Energy=-1.140958D-02
 GradGradGradGradGradGradGradGradGradGradGradGradGradGradGradGradGradGrad

 Unable to Open any file for archive entry.
 1\1\GINC-X11P1N2\Force\UwB97XD\def2SVP\C8H8Cl1K3O40V1W12(1-)\MAYUMIAO\
 02-Jun-2024\0\\# def2svp wb97xd scrf=(smd,solvent=acetonitrile) g09def
 ault scf=(xqc,maxcycle=64) force guess=read nosymm\\Title Card\\-1,1\C
 l,-9.91607357,8.10313873,10.52341274\C,-8.31867608,4.23553273,12.22809
 117\C,-9.09248542,3.91593116,11.09785295\C,-10.01899483,2.86261297,11.
 20331976\C,-10.19545236,2.17997999,12.40248299\C,-9.43893876,2.5279280
 7,13.52243352\C,-8.49101031,3.54903157,13.42592544\H,-7.57080389,5.028
 92356,12.16916482\H,-10.6037997,2.58011171,10.32294214\H,-10.92051084,
 1.36460674,12.4641374\H,-9.57468559,1.99288351,14.4648131\H,-7.8805173
 4,3.81180308,14.29362813\C,-8.97572039,4.63659395,9.828768\C,-8.195135
 68,5.70590264,9.57920701\H,-9.60865387,4.25604244,9.01982537\H,-8.1551
 4691,6.13559562,8.57648586\H,-7.51353975,6.13124443,10.31889407\O,-0.9
 9681505,-1.77087869,7.45992375\O,-8.41182069,-1.33161738,7.46103641\O,
 -7.04457619,1.34719847,10.48191717\O,-2.33146908,-4.36582464,10.557048
 04\W,-3.41573552,0.71606619,6.48297709\W,-6.00578322,-3.82340814,6.574
 47304\W,-3.62807023,0.90310814,11.4167648\W,-5.77208173,-3.86130339,11
 .47242326\W,-2.45684181,-2.5640527,6.39166616\W,-6.94450464,-0.5376229
 1,6.36166837\W,-6.82554337,-0.24793104,11.57503138\W,-2.56383115,-2.70
 515333,11.61642599\O,-3.17770098,1.91002903,5.31386007\O,-6.14707383,-
 5.07160375,5.4302977\O,-2.71744441,1.75589798,12.5707392\O,-6.67465234
 ,-4.67769888,12.65721371\O,-2.67872687,-0.88506027,5.5823642\O,-6.7164
 7308,-2.27065029,5.62464105\O,-5.32162918,0.56383874,12.36499701\O,-4.
 05920438,-3.5182011,12.40734441\O,0.2960658,0.00223019,9.27157073\O,-9
 .71370893,-3.0278005,9.32116945\O,-6.37342775,3.42032915,8.66429214\O,
 -2.98144032,-6.46506587,8.76138197\O,-1.79776356,0.77230266,7.47573921
 \O,-7.6114597,-3.88100416,7.55167861\O,-4.52007239,2.21796047,10.43285
 872\O,-4.86802058,-5.21780735,10.52376334\O,-1.62030587,-3.49689732,5.
 24258329\O,-7.83765983,0.26008979,5.17133764\O,-8.04319598,-0.15535306
 ,12.75385216\O,-1.32837907,-2.83854641,12.77519768\W,-1.2632119,-0.516
 79122,8.83802414\W,-8.15364523,-2.5218826,8.87494693\W,-5.9007566,1.85
 053935,9.04884152\W,-3.47884748,-4.8918881,9.16979017\O,-4.22965198,-3
 .09641881,6.06754825\O,-5.16893291,-0.04286231,6.00705283\O,-6.1783115
 9,-1.99581251,11.91648703\O,-3.1786157,-0.96024819,11.93617322\O,-4.37
 267818,1.57992963,7.84508699\O,-5.00681351,-4.6745626,7.92326846\O,-2.
 33881851,0.59346654,10.08208576\O,-7.06278317,-3.61095419,10.13685558\
 O,-2.57711132,-3.87984193,7.86462534\O,-6.82771719,0.78297731,7.808658
 02\O,-7.83700237,-1.17311394,10.14624691\O,-1.57583927,-1.8461353,10.1
 4131029\O,-3.3738633,-1.13960117,8.005341\O,-6.03266064,-1.95171477,8.
 03542297\O,-5.12608567,-0.19716158,9.95106943\O,-4.24572166,-2.8286356
 3,9.97820764\K,-3.22272265,-6.13697673,5.6505402\K,-0.12235687,0.05298
 899,12.35848882\K,-9.28734584,-2.90209076,12.43120659\V,-4.69779338,-1
 .52505106,8.98897774\\Version=ES64L-G16RevC.01\HF=-7327.7009218\S2=1.0
 14796\S2-1=0.\S2A=0.118897\RMSD=6.385e-10\RMSF=8.541e-03\Dipole=1.6751
 923,-7.1980249,5.6677975\Quadrupole=-16.9782524,36.928499,-19.9502467,
 97.703849,136.9774835,-69.8440129\PG=C01 [X(C8H8Cl1K3O40V1W12)]\\@
 The archive entry for this job was punched.


 MEMORIES ARE LIKE AN ENGLISH GRAMMER LESSON -
 PRESENT TENSE, AND PAST PERFECT.
 Job cpu time:       0 days 23 hours 34 minutes 35.5 seconds.
 Elapsed time:       0 days  0 hours 26 minutes 56.5 seconds.
 File lengths (MBytes):  RWF=   1864 Int=      0 D2E=      0 Chk=    306 Scr=      1
 Normal termination of Gaussian 16 at Sun Jun  2 05:20:04 2024.
