 Entering Gaussian System, Link 0=g16
 Input=JOBS/32_A.gjf
 Output=JOBS/32_A.log
 Initial command:
 /data/app/gaussian/C01-avx2//g16/l1.exe "/tmp/Gau-638896.inp" -scrdir="/tmp/"
 Entering Link 1 = /data/app/gaussian/C01-avx2//g16/l1.exe PID=    638897.
  
 Copyright (c) 1988-2019, Gaussian, Inc.  All Rights Reserved.
  
 This is part of the Gaussian(R) 16 program.  It is based on
 the Gaussian(R) 09 system (copyright 2009, Gaussian, Inc.),
 the Gaussian(R) 03 system (copyright 2003, Gaussian, Inc.),
 the Gaussian(R) 98 system (copyright 1998, Gaussian, Inc.),
 the Gaussian(R) 94 system (copyright 1995, Gaussian, Inc.),
 the Gaussian 92(TM) system (copyright 1992, Gaussian, Inc.),
 the Gaussian 90(TM) system (copyright 1990, Gaussian, Inc.),
 the Gaussian 88(TM) system (copyright 1988, Gaussian, Inc.),
 the Gaussian 86(TM) system (copyright 1986, Carnegie Mellon
 University), and the Gaussian 82(TM) system (copyright 1983,
 Carnegie Mellon University). Gaussian is a federally registered
 trademark of Gaussian, Inc.
  
 This software contains proprietary and confidential information,
 including trade secrets, belonging to Gaussian, Inc.
  
 This software is provided under written license and may be
 used, copied, transmitted, or stored only in accord with that
 written license.
  
 The following legend is applicable only to US Government
 contracts under FAR:
  
                    RESTRICTED RIGHTS LEGEND
  
 Use, reproduction and disclosure by the US Government is
 subject to restrictions as set forth in subparagraphs (a)
 and (c) of the Commercial Computer Software - Restricted
 Rights clause in FAR 52.227-19.
  
 Gaussian, Inc.
 340 Quinnipiac St., Bldg. 40, Wallingford CT 06492
  
  
 ---------------------------------------------------------------
 Warning -- This program may not be used in any manner that
 competes with the business of Gaussian, Inc. or will provide
 assistance to any competitor of Gaussian, Inc.  The licensee
 of this program is prohibited from giving any competitor of
 Gaussian, Inc. access to this program.  By using this program,
 the user acknowledges that Gaussian, Inc. is engaged in the
 business of creating and licensing software in the field of
 computational chemistry and represents and warrants to the
 licensee that it is not a competitor of Gaussian, Inc. and that
 it will not use this program in any manner prohibited above.
 ---------------------------------------------------------------
  

 Cite this work as:
 Gaussian 16, Revision C.01,
 M. J. Frisch, G. W. Trucks, H. B. Schlegel, G. E. Scuseria, 
 M. A. Robb, J. R. Cheeseman, G. Scalmani, V. Barone, 
 G. A. Petersson, H. Nakatsuji, X. Li, M. Caricato, A. V. Marenich, 
 J. Bloino, B. G. Janesko, R. Gomperts, B. Mennucci, H. P. Hratchian, 
 J. V. Ortiz, A. F. Izmaylov, J. L. Sonnenberg, D. Williams-Young, 
 F. Ding, F. Lipparini, F. Egidi, J. Goings, B. Peng, A. Petrone, 
 T. Henderson, D. Ranasinghe, V. G. Zakrzewski, J. Gao, N. Rega, 
 G. Zheng, W. Liang, M. Hada, M. Ehara, K. Toyota, R. Fukuda, 
 J. Hasegawa, M. Ishida, T. Nakajima, Y. Honda, O. Kitao, H. Nakai, 
 T. Vreven, K. Throssell, J. A. Montgomery, Jr., J. E. Peralta, 
 F. Ogliaro, M. J. Bearpark, J. J. Heyd, E. N. Brothers, K. N. Kudin, 
 V. N. Staroverov, T. A. Keith, R. Kobayashi, J. Normand, 
 K. Raghavachari, A. P. Rendell, J. C. Burant, S. S. Iyengar, 
 J. Tomasi, M. Cossi, J. M. Millam, M. Klene, C. Adamo, R. Cammi, 
 J. W. Ochterski, R. L. Martin, K. Morokuma, O. Farkas, 
 J. B. Foresman, and D. J. Fox, Gaussian, Inc., Wallingford CT, 2019.
 
 ******************************************
 Gaussian 16:  ES64L-G16RevC.01  3-Jul-2019
                 2-Jun-2024 
 ******************************************
 %chk=a.chk
 %nprocshared=56
 Will use up to   56 processors via shared memory.
 %mem=96gb
 ----------------------------------------------------------------------
 # def2svp wb97xd scrf=(smd,solvent=acetonitrile) g09default scf=(xqc,m
 axcycle=64) force guess=read nosymm
 ----------------------------------------------------------------------
 1/10=7,30=1,38=1,158=3,167=1/1,3;
 2/12=2,15=1,17=6,18=5,40=1/2;
 3/5=43,7=101,11=2,25=1,27=10,30=1,70=32201,71=1,72=2,74=-58,75=-4,116=-2,158=3/1,2,3;
 4/5=1,60=-1/1;
 5/5=2,7=64,8=3,13=1,38=6,53=2,87=10/2,8;
 6/7=2,8=2,9=2,10=2,28=1,87=10/1;
 7/29=1,30=1,87=10/1,2,3,16;
 1/10=7,30=1,158=3,167=1/3;
 99//99;
 Using 2006 physical constants.
 ----------
 Title Card
 ----------
 Symbolic Z-matrix:
 Charge = -1 Multiplicity = 1
 17                   -9.88427   8.14997   10.53533 
 6                    -8.32158   4.23469   12.22628 
 6                    -9.09944   3.91673   11.09834 
 6                    -10.02295   2.8603    11.20503 
 6                    -10.19816   2.17936   12.40561 
 6                    -9.44284   2.53106   13.52533 
 6                    -8.49264   3.54991   13.4253 
 1                    -7.57077   5.02507   12.16374 
 1                    -10.60638   2.57439   10.32514 
 1                    -10.91878   1.36019   12.4675 
 1                    -9.57787   1.99746   14.46868 
 1                    -7.87682   3.80985   14.29004 
 6                    -8.99048   4.64185   9.83114 
 6                    -8.2262    5.72419   9.58301 
 1                    -9.61648   4.25372   9.02016 
 1                    -8.18715   6.14809   8.57767 
 1                    -7.55543   6.16432   10.32355 
 8                    -0.9928   -1.77506   7.46172 
 8                    -8.41044  -1.33272   7.46112 
 8                    -7.04144   1.34719   10.47921 
 8                    -2.33184  -4.37025   10.55529 
 74                   -3.41407   0.7089    6.48022 
 74                   -6.00326  -3.82159   6.57135 
 74                   -3.6259    0.89737   11.41894 
 74                   -5.76982  -3.85975   11.47322 
 74                   -2.45139  -2.57038   6.39411 
 74                   -6.94515  -0.53672   6.36483 
 74                   -6.82598  -0.24754   11.57089 
 74                   -2.55915  -2.70935   11.6128 
 8                    -3.17471   1.90124   5.30944 
 8                    -6.14403  -5.07023   5.42796 
 8                    -2.71441   1.74906   12.57293 
 8                    -6.67384  -4.67373   12.65844 
 8                    -2.67374  -0.89151   5.58208 
 8                    -6.71483  -2.26977   5.6239 
 8                    -5.32091   0.56169   12.36402 
 8                    -4.05693  -3.51929   12.40567 
 8                     0.29754   0.00168   9.2744 
 8                    -9.71182  -3.03073   9.32215 
 8                    -6.3682    3.42243   8.66886 
 8                    -2.98605  -6.47018   8.761 
 8                    -1.79512   0.76902   7.47538 
 8                    -7.60942  -3.88229   7.5503 
 8                    -4.51505   2.21537   10.43291 
 8                    -4.87031  -5.21957   10.52298 
 8                    -1.61621  -3.50747   5.24698 
 8                    -7.83748   0.26224   5.17442 
 8                    -8.04559  -0.15597   12.74834 
 8                    -1.32298  -2.84307   12.77097 
 74                   -1.26126  -0.51726   8.83728 
 74                   -8.15116  -2.52586   8.87439 
 74                   -5.89309   1.85194   9.04888 
 74                   -3.48212  -4.89648   9.16903 
 8                    -4.22579  -3.09885   6.06726 
 8                    -5.16693  -0.04621   6.0076 
 8                    -6.17688  -1.99493   11.91396 
 8                    -3.1753   -0.96406   11.93589 
 8                    -4.36892   1.57891   7.84204 
 8                    -5.00627  -4.67468   7.92213 
 8                    -2.33715   0.58984   10.08243 
 8                    -7.06065  -3.61092   10.13584 
 8                    -2.57575  -3.8845    7.86547 
 8                    -6.82331   0.78373   7.80878 
 8                    -7.83471  -1.17353   10.14312 
 8                    -1.57474  -1.84938   10.13939 
 8                    -3.37041  -1.14305   8.00358 
 8                    -6.0317   -1.95262   8.03462 
 8                    -5.12342  -0.19777   9.95012 
 8                    -4.24368  -2.831     9.97719 
 19                   -3.22     -6.13861   5.64816 
 19                   -0.11693   0.05508   12.35795 
 19                   -9.28955  -2.89175   12.43421 
 23                   -4.69548  -1.52666   8.98785 
 

 GradGradGradGradGradGradGradGradGradGradGradGradGradGradGradGradGradGrad
 Berny optimization.
 Initialization pass.
 Trust Radius=3.00D-01 FncErr=1.00D-07 GrdErr=1.00D-07 EigMax=2.50D+02 EigMin=1.00D-04
 Number of steps in this run=      2 maximum allowed number of steps=      2.
 GradGradGradGradGradGradGradGradGradGradGradGradGradGradGradGradGradGrad

 Symmetry turned off by external request.
 Stoichiometry    C8H8ClK3O40VW12(1-)
 Framework group  C1[X(C8H8ClK3O40VW12)]
 Deg. of freedom   213
 Full point group                 C1      NOp   1
                          Input orientation:                          
 ---------------------------------------------------------------------
 Center     Atomic      Atomic             Coordinates (Angstroms)
 Number     Number       Type             X           Y           Z
 ---------------------------------------------------------------------
      1         17           0       -9.884268    8.149973   10.535331
      2          6           0       -8.321579    4.234695   12.226278
      3          6           0       -9.099439    3.916729   11.098340
      4          6           0      -10.022949    2.860297   11.205031
      5          6           0      -10.198163    2.179359   12.405614
      6          6           0       -9.442836    2.531064   13.525329
      7          6           0       -8.492641    3.549908   13.425302
      8          1           0       -7.570766    5.025068   12.163737
      9          1           0      -10.606381    2.574391   10.325145
     10          1           0      -10.918784    1.360194   12.467499
     11          1           0       -9.577875    1.997464   14.468675
     12          1           0       -7.876822    3.809849   14.290043
     13          6           0       -8.990481    4.641855    9.831143
     14          6           0       -8.226204    5.724186    9.583013
     15          1           0       -9.616481    4.253723    9.020159
     16          1           0       -8.187146    6.148092    8.577666
     17          1           0       -7.555431    6.164324   10.323554
     18          8           0       -0.992802   -1.775062    7.461722
     19          8           0       -8.410436   -1.332715    7.461117
     20          8           0       -7.041441    1.347189   10.479214
     21          8           0       -2.331838   -4.370247   10.555285
     22         74           0       -3.414067    0.708897    6.480223
     23         74           0       -6.003263   -3.821586    6.571351
     24         74           0       -3.625899    0.897368   11.418941
     25         74           0       -5.769820   -3.859747   11.473218
     26         74           0       -2.451386   -2.570376    6.394107
     27         74           0       -6.945149   -0.536719    6.364828
     28         74           0       -6.825979   -0.247540   11.570891
     29         74           0       -2.559148   -2.709353   11.612801
     30          8           0       -3.174714    1.901243    5.309445
     31          8           0       -6.144029   -5.070226    5.427958
     32          8           0       -2.714413    1.749057   12.572932
     33          8           0       -6.673838   -4.673729   12.658442
     34          8           0       -2.673744   -0.891506    5.582084
     35          8           0       -6.714834   -2.269772    5.623903
     36          8           0       -5.320908    0.561692   12.364015
     37          8           0       -4.056926   -3.519293   12.405672
     38          8           0        0.297539    0.001679    9.274403
     39          8           0       -9.711820   -3.030727    9.322147
     40          8           0       -6.368203    3.422435    8.668861
     41          8           0       -2.986053   -6.470179    8.761005
     42          8           0       -1.795118    0.769022    7.475380
     43          8           0       -7.609420   -3.882293    7.550303
     44          8           0       -4.515054    2.215369   10.432909
     45          8           0       -4.870309   -5.219573   10.522977
     46          8           0       -1.616208   -3.507473    5.246978
     47          8           0       -7.837478    0.262240    5.174417
     48          8           0       -8.045591   -0.155967   12.748344
     49          8           0       -1.322978   -2.843066   12.770971
     50         74           0       -1.261257   -0.517258    8.837283
     51         74           0       -8.151163   -2.525857    8.874391
     52         74           0       -5.893088    1.851939    9.048876
     53         74           0       -3.482115   -4.896482    9.169034
     54          8           0       -4.225790   -3.098846    6.067256
     55          8           0       -5.166932   -0.046211    6.007597
     56          8           0       -6.176884   -1.994926   11.913960
     57          8           0       -3.175299   -0.964063   11.935892
     58          8           0       -4.368917    1.578907    7.842041
     59          8           0       -5.006265   -4.674678    7.922127
     60          8           0       -2.337149    0.589838   10.082427
     61          8           0       -7.060654   -3.610915   10.135844
     62          8           0       -2.575749   -3.884503    7.865474
     63          8           0       -6.823311    0.783730    7.808778
     64          8           0       -7.834715   -1.173534   10.143117
     65          8           0       -1.574745   -1.849383   10.139395
     66          8           0       -3.370414   -1.143049    8.003576
     67          8           0       -6.031705   -1.952621    8.034622
     68          8           0       -5.123418   -0.197771    9.950125
     69          8           0       -4.243677   -2.831005    9.977185
     70         19           0       -3.219998   -6.138609    5.648165
     71         19           0       -0.116928    0.055083   12.357952
     72         19           0       -9.289551   -2.891749   12.434208
     73         23           0       -4.695481   -1.526659    8.987851
 ---------------------------------------------------------------------
 Rotational constants (GHZ):           0.0171998           0.0132558           0.0130308
 Standard basis: def2SVP (5D, 7F)
  1217 basis functions,  2313 primitive gaussians,  1337 cartesian basis functions
   321 alpha electrons      321 beta electrons
       nuclear repulsion energy     20981.6347764620 Hartrees.
 NAtoms=   73 NActive=   73 NUniq=   73 SFac= 1.00D+00 NAtFMM=   60 NAOKFM=T Big=T
 Integral buffers will be    131072 words long.
 Raffenetti 2 integral format.
 Two-electron integral symmetry is turned off.
 Nuclear repulsion after empirical dispersion term =    20981.3575390611 Hartrees.
 Force PCM accuracy= 1.00D-10.
 ------------------------------------------------------------------------------
 Polarizable Continuum Model (PCM)
 =================================
 Model                : PCM (using non-symmetric T matrix).
 Atomic radii         : SMD-Coulomb.
 Polarization charges : Total charges.
 Charge compensation  : None.
 Solution method      : On-the-fly selection.
 Cavity type          : VdW (van der Waals Surface) (Alpha=1.000).
 Cavity algorithm     : GePol (No added spheres)
                        Default sphere list used, NSphG=   73.
                        Lebedev-Laikov grids with approx.  5.0 points / Ang**2.
                        Smoothing algorithm: York/Karplus (Gamma=1.0000).
                        Polarization charges: spherical gaussians, with
                                              point-specific exponents (IZeta= 3).
                        Self-potential: point-specific (ISelfS= 7).
                        Self-field    : sphere-specific E.n sum rule (ISelfD= 2).
 1st derivatives      : Analytical E(r).r(x)/FMM algorithm (CHGder, D1EAlg=3).
                        Cavity 1st derivative terms included.
 Solvent              : Acetonitrile, Eps=  35.688000 Eps(inf)=   1.806874
 ------------------------------------------------------------------------------
 ------------------------------------------------------------------------------
 Atomic radii for non-electrostatic terms: SMD-CDS.
 ------------------------------------------------------------------------------
 Nuclear repulsion after PCM non-electrostatic terms =    20981.3517421758 Hartrees.
 One-electron integrals computed using PRISM.
   1 Symmetry operations used in ECPInt.
 ECPInt:  NShTT=  127765 NPrTT=  468030 LenC2=   96686 LenP2D=  221208.
 LDataN:  DoStor=T MaxTD1= 8 Len=  415
 NBasis=  1217 RedAO= T EigKep=  1.37D-04  NBF=  1217
 NBsUse=  1217 1.00D-06 EigRej= -1.00D+00 NBFU=  1217
 Defaulting to unpruned grid for atomic number  74.
 Defaulting to unpruned grid for atomic number  74.
 Defaulting to unpruned grid for atomic number  74.
 Defaulting to unpruned grid for atomic number  74.
 Defaulting to unpruned grid for atomic number  74.
 Defaulting to unpruned grid for atomic number  74.
 Defaulting to unpruned grid for atomic number  74.
 Defaulting to unpruned grid for atomic number  74.
 Initial guess from the checkpoint file:  "a.chk"
 B after Tr=     0.003003   -0.004698   -0.000256
         Rot=    1.000000   -0.000006   -0.000000    0.000208 Ang=  -0.02 deg.
 Requested convergence on RMS density matrix=1.00D-08 within  64 cycles.
 Requested convergence on MAX density matrix=1.00D-06.
 Requested convergence on             energy=1.00D-06.
 No special actions if energy rises.
 Defaulting to unpruned grid for atomic number  74.
 Defaulting to unpruned grid for atomic number  74.
 Defaulting to unpruned grid for atomic number  74.
 Defaulting to unpruned grid for atomic number  74.
 Defaulting to unpruned grid for atomic number  74.
 Defaulting to unpruned grid for atomic number  74.
 Defaulting to unpruned grid for atomic number  74.
 Defaulting to unpruned grid for atomic number  74.
 Defaulting to unpruned grid for atomic number  74.
 Defaulting to unpruned grid for atomic number  74.
 Defaulting to unpruned grid for atomic number  74.
 Defaulting to unpruned grid for atomic number  74.
 Defaulting to unpruned grid for atomic number  74.
 Defaulting to unpruned grid for atomic number  74.
 Defaulting to unpruned grid for atomic number  74.
 Defaulting to unpruned grid for atomic number  74.
 Defaulting to unpruned grid for atomic number  74.
 Defaulting to unpruned grid for atomic number  74.
 Defaulting to unpruned grid for atomic number  74.
 Defaulting to unpruned grid for atomic number  74.
 Defaulting to unpruned grid for atomic number  74.
 Defaulting to unpruned grid for atomic number  74.
 Defaulting to unpruned grid for atomic number  74.
 Defaulting to unpruned grid for atomic number  74.
 Defaulting to unpruned grid for atomic number  74.
 Defaulting to unpruned grid for atomic number  74.
 Defaulting to unpruned grid for atomic number  74.
 Defaulting to unpruned grid for atomic number  74.
 Defaulting to unpruned grid for atomic number  74.
 Defaulting to unpruned grid for atomic number  74.
 Defaulting to unpruned grid for atomic number  74.
 Defaulting to unpruned grid for atomic number  74.
 Defaulting to unpruned grid for atomic number  74.
 Defaulting to unpruned grid for atomic number  74.
 Defaulting to unpruned grid for atomic number  74.
 Defaulting to unpruned grid for atomic number  74.
 Defaulting to unpruned grid for atomic number  74.
 Defaulting to unpruned grid for atomic number  74.
 Defaulting to unpruned grid for atomic number  74.
 Defaulting to unpruned grid for atomic number  74.
 Defaulting to unpruned grid for atomic number  74.
 Defaulting to unpruned grid for atomic number  74.
 Defaulting to unpruned grid for atomic number  74.
 Defaulting to unpruned grid for atomic number  74.
 Defaulting to unpruned grid for atomic number  74.
 Defaulting to unpruned grid for atomic number  74.
 Defaulting to unpruned grid for atomic number  74.
 Defaulting to unpruned grid for atomic number  74.
 Defaulting to unpruned grid for atomic number  74.
 Defaulting to unpruned grid for atomic number  74.
 Defaulting to unpruned grid for atomic number  74.
 Defaulting to unpruned grid for atomic number  74.
 Defaulting to unpruned grid for atomic number  74.
 Defaulting to unpruned grid for atomic number  74.
 Defaulting to unpruned grid for atomic number  74.
 Defaulting to unpruned grid for atomic number  74.
 Inv3:  Mode=1 IEnd=    86800923.
 Iteration    1 A*A^-1 deviation from unit magnitude is 3.44D-15 for   2171.
 Iteration    1 A*A^-1 deviation from orthogonality  is 2.75D-15 for    861      6.
 Iteration    1 A^-1*A deviation from unit magnitude is 3.77D-15 for   3048.
 Iteration    1 A^-1*A deviation from orthogonality  is 3.85D-11 for   1101   1037.
 Error on total polarization charges =  0.01596
 SCF Done:  E(RwB97XD) =  -7327.70096353     A.U. after   12 cycles
            NFock= 12  Conv=0.36D-08     -V/T= 2.0832
 SMD-CDS (non-electrostatic) energy       (kcal/mol) =      -3.64
 (included in total energy above)
 QCSCF skips out because SCF is already converged.

 **********************************************************************

            Population analysis using the SCF Density.

 **********************************************************************

 Alpha  occ. eigenvalues -- -197.29680-130.00189-130.00173-130.00094-101.47782
 Alpha  occ. eigenvalues --  -22.62782 -19.33746 -19.33732 -19.33723 -19.33692
 Alpha  occ. eigenvalues --  -19.30709 -19.30669 -19.30666 -19.30652 -19.30649
 Alpha  occ. eigenvalues --  -19.30640 -19.30639 -19.30590 -19.30512 -19.30342
 Alpha  occ. eigenvalues --  -19.30298 -19.30099 -19.29310 -19.29307 -19.29274
 Alpha  occ. eigenvalues --  -19.29271 -19.29266 -19.29260 -19.29238 -19.29187
 Alpha  occ. eigenvalues --  -19.29178 -19.29158 -19.29130 -19.29126 -19.29117
 Alpha  occ. eigenvalues --  -19.29111 -19.29086 -19.29084 -19.29083 -19.29056
 Alpha  occ. eigenvalues --  -19.29046 -19.28963 -19.28957 -19.28930 -19.28920
 Alpha  occ. eigenvalues --  -19.28801 -19.11742 -19.11733 -19.11724 -13.37595
 Alpha  occ. eigenvalues --  -13.37578 -13.37490 -10.70524 -10.70517 -10.70516
 Alpha  occ. eigenvalues --  -10.70507 -10.70500 -10.70499 -10.70420 -10.70413
 Alpha  occ. eigenvalues --  -10.70410 -10.29877 -10.29366 -10.29316 -10.29124
 Alpha  occ. eigenvalues --  -10.29046 -10.29014 -10.28250 -10.27792  -9.38236
 Alpha  occ. eigenvalues --   -7.13059  -7.13018  -7.13015  -3.23285  -3.23281
 Alpha  occ. eigenvalues --   -3.23266  -3.23266  -3.23261  -3.23253  -3.23212
 Alpha  occ. eigenvalues --   -3.23204  -3.23156  -3.22943  -3.22938  -3.22704
 Alpha  occ. eigenvalues --   -2.91966  -1.94326  -1.94299  -1.94290  -1.87700
 Alpha  occ. eigenvalues --   -1.87643  -1.87625  -1.87575  -1.87463  -1.87456
 Alpha  occ. eigenvalues --   -1.87440  -1.87414  -1.87375  -1.87251  -1.87213
 Alpha  occ. eigenvalues --   -1.87038  -1.86599  -1.86480  -1.86473  -1.86449
 Alpha  occ. eigenvalues --   -1.86430  -1.86392  -1.86316  -1.86304  -1.86283
 Alpha  occ. eigenvalues --   -1.86264  -1.86243  -1.86212  -1.86116  -1.86099
 Alpha  occ. eigenvalues --   -1.86095  -1.86070  -1.86020  -1.85975  -1.85954
 Alpha  occ. eigenvalues --   -1.85895  -1.85868  -1.85772  -1.85650  -1.85599
 Alpha  occ. eigenvalues --   -1.51274  -1.51260  -1.51174  -1.13110  -1.11353
 Alpha  occ. eigenvalues --   -1.11269  -1.11252  -1.08968  -1.08519  -1.08473
 Alpha  occ. eigenvalues --   -1.08268  -1.07567  -1.07513  -1.07495  -1.06888
 Alpha  occ. eigenvalues --   -1.06853  -1.06838  -1.06303  -1.06274  -1.05292
 Alpha  occ. eigenvalues --   -1.05282  -1.04964  -1.04951  -1.04936  -1.04166
 Alpha  occ. eigenvalues --   -1.04164  -1.04145  -1.04000  -1.03979  -1.03961
 Alpha  occ. eigenvalues --   -1.03922  -1.03875  -1.03853  -1.03733  -1.03690
 Alpha  occ. eigenvalues --   -1.03592  -1.03539  -1.03275  -1.03224  -1.03090
 Alpha  occ. eigenvalues --   -1.03073  -1.03015  -1.02928  -0.94427  -0.86734
 Alpha  occ. eigenvalues --   -0.86721  -0.86640  -0.86593  -0.86548  -0.86536
 Alpha  occ. eigenvalues --   -0.86532  -0.86531  -0.86454  -0.86430  -0.82850
 Alpha  occ. eigenvalues --   -0.79860  -0.70927  -0.69812  -0.68089  -0.64570
 Alpha  occ. eigenvalues --   -0.63926  -0.63891  -0.63882  -0.63361  -0.63327
 Alpha  occ. eigenvalues --   -0.63220  -0.63075  -0.62710  -0.62626  -0.62038
 Alpha  occ. eigenvalues --   -0.61618  -0.61601  -0.61511  -0.61207  -0.61187
 Alpha  occ. eigenvalues --   -0.61151  -0.60396  -0.59470  -0.59437  -0.59425
 Alpha  occ. eigenvalues --   -0.59408  -0.59371  -0.58707  -0.57973  -0.57949
 Alpha  occ. eigenvalues --   -0.57877  -0.57102  -0.57066  -0.57032  -0.56289
 Alpha  occ. eigenvalues --   -0.56244  -0.56078  -0.55680  -0.54838  -0.54772
 Alpha  occ. eigenvalues --   -0.54735  -0.54602  -0.54220  -0.54104  -0.54065
 Alpha  occ. eigenvalues --   -0.54018  -0.53948  -0.53206  -0.53168  -0.53042
 Alpha  occ. eigenvalues --   -0.52980  -0.52867  -0.52691  -0.52628  -0.52607
 Alpha  occ. eigenvalues --   -0.52566  -0.52533  -0.52462  -0.52440  -0.51568
 Alpha  occ. eigenvalues --   -0.51546  -0.51364  -0.51324  -0.51295  -0.51237
 Alpha  occ. eigenvalues --   -0.51170  -0.51152  -0.51027  -0.50715  -0.50537
 Alpha  occ. eigenvalues --   -0.50530  -0.50497  -0.49876  -0.49859  -0.49316
 Alpha  occ. eigenvalues --   -0.49264  -0.49236  -0.49181  -0.49139  -0.49039
 Alpha  occ. eigenvalues --   -0.48892  -0.48074  -0.48020  -0.47917  -0.47737
 Alpha  occ. eigenvalues --   -0.47346  -0.47279  -0.47225  -0.47006  -0.46942
 Alpha  occ. eigenvalues --   -0.46820  -0.46546  -0.46479  -0.46443  -0.46221
 Alpha  occ. eigenvalues --   -0.46158  -0.46104  -0.45640  -0.45075  -0.44896
 Alpha  occ. eigenvalues --   -0.44865  -0.44173  -0.44149  -0.44031  -0.43622
 Alpha  occ. eigenvalues --   -0.43281  -0.43226  -0.43102  -0.43079  -0.43043
 Alpha  occ. eigenvalues --   -0.42698  -0.42670  -0.42649  -0.42584  -0.42582
 Alpha  occ. eigenvalues --   -0.42494  -0.42448  -0.42433  -0.42270  -0.42254
 Alpha  occ. eigenvalues --   -0.42229  -0.42004  -0.41889  -0.41838  -0.41821
 Alpha  occ. eigenvalues --   -0.41249  -0.41159  -0.41131  -0.41016  -0.40530
 Alpha  occ. eigenvalues --   -0.40510  -0.40503  -0.40429  -0.39431  -0.39409
 Alpha  occ. eigenvalues --   -0.36963  -0.32566  -0.28906  -0.24641  -0.24619
 Alpha  occ. eigenvalues --   -0.23460
 Alpha virt. eigenvalues --   -0.09640  -0.09432  -0.08430  -0.08380  -0.06989
 Alpha virt. eigenvalues --   -0.06945  -0.06827  -0.04616  -0.04292  -0.04265
 Alpha virt. eigenvalues --   -0.03704  -0.03536  -0.03453  -0.03222  -0.03130
 Alpha virt. eigenvalues --   -0.03071  -0.03038  -0.02186  -0.02146  -0.02114
 Alpha virt. eigenvalues --   -0.01498  -0.01466  -0.01406  -0.01278  -0.01210
 Alpha virt. eigenvalues --   -0.00059  -0.00050   0.00016   0.01440   0.01464
 Alpha virt. eigenvalues --    0.01914   0.01949   0.02035   0.02164   0.02186
 Alpha virt. eigenvalues --    0.02198   0.02244   0.02329   0.02773   0.02851
 Alpha virt. eigenvalues --    0.02926   0.02979   0.03021   0.04179   0.04565
 Alpha virt. eigenvalues --    0.06751   0.07264   0.07533   0.07592   0.07794
 Alpha virt. eigenvalues --    0.08026   0.08432   0.08486   0.08774   0.09157
 Alpha virt. eigenvalues --    0.09339   0.09385   0.09662   0.09886   0.10299
 Alpha virt. eigenvalues --    0.10323   0.10393   0.10449   0.10477   0.10637
 Alpha virt. eigenvalues --    0.10873   0.11061   0.11073   0.11667   0.11746
 Alpha virt. eigenvalues --    0.12256   0.13089   0.13220   0.13322   0.13568
 Alpha virt. eigenvalues --    0.13738   0.14345   0.14538   0.14644   0.14976
 Alpha virt. eigenvalues --    0.15531   0.16137   0.16332   0.16575   0.16743
 Alpha virt. eigenvalues --    0.16776   0.16884   0.17090   0.17240   0.17655
 Alpha virt. eigenvalues --    0.17856   0.18152   0.18201   0.18358   0.18596
 Alpha virt. eigenvalues --    0.18720   0.19038   0.19319   0.19412   0.19527
 Alpha virt. eigenvalues --    0.19660   0.20193   0.20294   0.20474   0.20621
 Alpha virt. eigenvalues --    0.20750   0.20862   0.20930   0.21325   0.21379
 Alpha virt. eigenvalues --    0.21485   0.21629   0.21663   0.21868   0.22045
 Alpha virt. eigenvalues --    0.22384   0.22689   0.22884   0.23137   0.23257
 Alpha virt. eigenvalues --    0.23481   0.23838   0.23984   0.24237   0.24530
 Alpha virt. eigenvalues --    0.24713   0.25194   0.25499   0.25648   0.25863
 Alpha virt. eigenvalues --    0.26024   0.26225   0.26416   0.26589   0.26719
 Alpha virt. eigenvalues --    0.27001   0.27209   0.27346   0.27461   0.27714
 Alpha virt. eigenvalues --    0.27977   0.28255   0.28334   0.28663   0.28730
 Alpha virt. eigenvalues --    0.29232   0.29435   0.29847   0.30099   0.30413
 Alpha virt. eigenvalues --    0.30594   0.30893   0.31145   0.31600   0.31751
 Alpha virt. eigenvalues --    0.32226   0.34734   0.35199   0.35813   0.36287
 Alpha virt. eigenvalues --    0.36671   0.36883   0.37178   0.38068   0.38408
 Alpha virt. eigenvalues --    0.38667   0.39215   0.39551   0.39679   0.40236
 Alpha virt. eigenvalues --    0.40721   0.40864   0.41024   0.41120   0.41743
 Alpha virt. eigenvalues --    0.42108   0.42355   0.42771   0.43296   0.43567
 Alpha virt. eigenvalues --    0.43736   0.44547   0.44778   0.44885   0.45246
 Alpha virt. eigenvalues --    0.45722   0.46285   0.46482   0.46710   0.47221
 Alpha virt. eigenvalues --    0.47389   0.47639   0.47991   0.48085   0.48243
 Alpha virt. eigenvalues --    0.48365   0.48446   0.48692   0.48749   0.48977
 Alpha virt. eigenvalues --    0.49157   0.49418   0.49513   0.49867   0.49925
 Alpha virt. eigenvalues --    0.50217   0.50600   0.50727   0.50912   0.51059
 Alpha virt. eigenvalues --    0.51628   0.51729   0.51908   0.52293   0.52449
 Alpha virt. eigenvalues --    0.52684   0.52846   0.53033   0.53138   0.53256
 Alpha virt. eigenvalues --    0.53687   0.54076   0.54343   0.54345   0.54569
 Alpha virt. eigenvalues --    0.54972   0.55409   0.55648   0.56389   0.56457
 Alpha virt. eigenvalues --    0.56848   0.57396   0.57736   0.58053   0.58271
 Alpha virt. eigenvalues --    0.58587   0.59082   0.59414   0.60195   0.60736
 Alpha virt. eigenvalues --    0.61374   0.62172   0.62598   0.62745   0.63104
 Alpha virt. eigenvalues --    0.64056   0.65319   0.65608   0.65658   0.65814
 Alpha virt. eigenvalues --    0.66074   0.66702   0.67045   0.67269   0.67377
 Alpha virt. eigenvalues --    0.67745   0.68310   0.69782   0.70345   0.70993
 Alpha virt. eigenvalues --    0.71324   0.71834   0.71989   0.72111   0.72157
 Alpha virt. eigenvalues --    0.72399   0.72544   0.73132   0.73363   0.73942
 Alpha virt. eigenvalues --    0.74623   0.74868   0.75511   0.75686   0.75895
 Alpha virt. eigenvalues --    0.76199   0.76673   0.76868   0.77145   0.77296
 Alpha virt. eigenvalues --    0.77542   0.78411   0.79024   0.79427   0.79598
 Alpha virt. eigenvalues --    0.79809   0.80294   0.80702   0.80886   0.81520
 Alpha virt. eigenvalues --    0.81587   0.81669   0.81998   0.82614   0.83082
 Alpha virt. eigenvalues --    0.84095   0.84284   0.84865   0.85325   0.86025
 Alpha virt. eigenvalues --    0.87161   0.87513   0.87987   0.88084   0.88761
 Alpha virt. eigenvalues --    0.88996   0.89137   0.89495   0.89683   0.90309
 Alpha virt. eigenvalues --    0.90726   0.90878   0.91304   0.91472   0.91656
 Alpha virt. eigenvalues --    0.92779   0.93034   0.93702   0.93998   0.94116
 Alpha virt. eigenvalues --    0.94383   0.94780   0.95903   0.96068   0.96838
 Alpha virt. eigenvalues --    0.96877   0.97116   0.97324   0.97736   0.97878
 Alpha virt. eigenvalues --    0.98154   0.98320   0.98531   0.98607   0.98804
 Alpha virt. eigenvalues --    0.98989   0.99611   1.00151   1.00282   1.00426
 Alpha virt. eigenvalues --    1.00914   1.01401   1.01635   1.01732   1.02108
 Alpha virt. eigenvalues --    1.02206   1.02471   1.02549   1.02633   1.02773
 Alpha virt. eigenvalues --    1.02986   1.03665   1.03883   1.03968   1.04011
 Alpha virt. eigenvalues --    1.04234   1.04321   1.04415   1.04540   1.04727
 Alpha virt. eigenvalues --    1.04855   1.05100   1.05234   1.05444   1.05859
 Alpha virt. eigenvalues --    1.05984   1.06369   1.06506   1.07058   1.07270
 Alpha virt. eigenvalues --    1.07532   1.07893   1.08743   1.09106   1.09238
 Alpha virt. eigenvalues --    1.09390   1.09827   1.10078   1.10196   1.10234
 Alpha virt. eigenvalues --    1.10695   1.10883   1.10983   1.11121   1.11269
 Alpha virt. eigenvalues --    1.11548   1.11638   1.11736   1.11988   1.12593
 Alpha virt. eigenvalues --    1.12905   1.13528   1.13840   1.14384   1.14929
 Alpha virt. eigenvalues --    1.15310   1.15972   1.16168   1.16517   1.16830
 Alpha virt. eigenvalues --    1.17065   1.17678   1.17885   1.18660   1.18871
 Alpha virt. eigenvalues --    1.19364   1.20811   1.21017   1.21251   1.21353
 Alpha virt. eigenvalues --    1.21466   1.22019   1.22198   1.23031   1.23580
 Alpha virt. eigenvalues --    1.25139   1.25913   1.26528   1.26709   1.27008
 Alpha virt. eigenvalues --    1.27419   1.27884   1.28201   1.28552   1.28593
 Alpha virt. eigenvalues --    1.28917   1.29171   1.29192   1.29355   1.29618
 Alpha virt. eigenvalues --    1.30054   1.30258   1.30355   1.30829   1.30920
 Alpha virt. eigenvalues --    1.31225   1.32066   1.32190   1.32984   1.33111
 Alpha virt. eigenvalues --    1.33189   1.33380   1.33761   1.33871   1.33964
 Alpha virt. eigenvalues --    1.34216   1.34305   1.34480   1.34721   1.34788
 Alpha virt. eigenvalues --    1.34911   1.35182   1.35224   1.35654   1.35785
 Alpha virt. eigenvalues --    1.36132   1.36182   1.36483   1.36771   1.36871
 Alpha virt. eigenvalues --    1.37093   1.37248   1.37441   1.37686   1.37846
 Alpha virt. eigenvalues --    1.37898   1.38455   1.38668   1.38773   1.39160
 Alpha virt. eigenvalues --    1.39216   1.39514   1.39643   1.39819   1.40219
 Alpha virt. eigenvalues --    1.40362   1.40534   1.40652   1.40829   1.40970
 Alpha virt. eigenvalues --    1.41125   1.41244   1.41500   1.41973   1.42273
 Alpha virt. eigenvalues --    1.42543   1.43145   1.43291   1.43425   1.43539
 Alpha virt. eigenvalues --    1.43993   1.44200   1.44563   1.45071   1.45657
 Alpha virt. eigenvalues --    1.46441   1.46681   1.47703   1.47792   1.48052
 Alpha virt. eigenvalues --    1.48322   1.48795   1.49282   1.49701   1.50165
 Alpha virt. eigenvalues --    1.50489   1.51024   1.51428   1.51970   1.53356
 Alpha virt. eigenvalues --    1.53720   1.55411   1.55775   1.55823   1.55934
 Alpha virt. eigenvalues --    1.56160   1.56361   1.56684   1.56751   1.57239
 Alpha virt. eigenvalues --    1.57294   1.58130   1.58293   1.59219   1.59246
 Alpha virt. eigenvalues --    1.59749   1.60150   1.60440   1.60489   1.60576
 Alpha virt. eigenvalues --    1.60739   1.61191   1.62067   1.62256   1.62588
 Alpha virt. eigenvalues --    1.63995   1.64340   1.65098   1.65609   1.66899
 Alpha virt. eigenvalues --    1.67592   1.67940   1.69973   1.70569   1.70884
 Alpha virt. eigenvalues --    1.71448   1.71663   1.72420   1.72915   1.74095
 Alpha virt. eigenvalues --    1.75101   1.75261   1.75498   1.75827   1.76742
 Alpha virt. eigenvalues --    1.76819   1.76953   1.77408   1.77803   1.78660
 Alpha virt. eigenvalues --    1.78812   1.79170   1.79655   1.80369   1.80646
 Alpha virt. eigenvalues --    1.81152   1.81394   1.81709   1.82161   1.82713
 Alpha virt. eigenvalues --    1.82985   1.83261   1.83842   1.84205   1.84440
 Alpha virt. eigenvalues --    1.85152   1.85234   1.85625   1.86075   1.86364
 Alpha virt. eigenvalues --    1.86486   1.87150   1.87556   1.88230   1.88587
 Alpha virt. eigenvalues --    1.89371   1.90014   1.90210   1.90311   1.90495
 Alpha virt. eigenvalues --    1.90846   1.91145   1.91481   1.92393   1.93533
 Alpha virt. eigenvalues --    1.94851   1.95387   1.95566   1.95810   1.96175
 Alpha virt. eigenvalues --    1.98212   1.99358   1.99500   1.99662   2.04650
 Alpha virt. eigenvalues --    2.06533   2.07295   2.08140   2.08568   2.08886
 Alpha virt. eigenvalues --    2.09033   2.09444   2.09535   2.10370   2.11218
 Alpha virt. eigenvalues --    2.11613   2.11954   2.12878   2.14869   2.15183
 Alpha virt. eigenvalues --    2.15984   2.16757   2.17196   2.17555   2.17719
 Alpha virt. eigenvalues --    2.19972   2.20282   2.20448   2.20735   2.21112
 Alpha virt. eigenvalues --    2.21221   2.22201   2.24539   2.25373   2.25998
 Alpha virt. eigenvalues --    2.26430   2.26713   2.27512   2.28507   2.28923
 Alpha virt. eigenvalues --    2.29203   2.29867   2.30299   2.33327   2.35598
 Alpha virt. eigenvalues --    2.36451   2.40154   2.40943   2.41070   2.43744
 Alpha virt. eigenvalues --    2.44206   2.50174   2.51436   2.57320   2.64783
 Alpha virt. eigenvalues --    2.64860   2.64990   2.65581   2.66042   2.66561
 Alpha virt. eigenvalues --    2.66775   2.66851   2.66949   2.67066   2.67089
 Alpha virt. eigenvalues --    2.67158   2.67192   2.67356   2.67375   2.67440
 Alpha virt. eigenvalues --    2.67694   2.67714   2.67818   2.67847   2.67935
 Alpha virt. eigenvalues --    2.68783   2.68964   2.69298   2.69385   2.70016
 Alpha virt. eigenvalues --    2.70188   2.70276   2.70472   2.70677   2.70821
 Alpha virt. eigenvalues --    2.70909   2.71406   2.71464   2.71535   2.71596
 Alpha virt. eigenvalues --    2.71706   2.72016   2.72628   2.72946   2.72995
 Alpha virt. eigenvalues --    2.73187   2.73249   2.73310   2.73357   2.73393
 Alpha virt. eigenvalues --    2.73526   2.73834   2.73925   2.73948   2.74043
 Alpha virt. eigenvalues --    2.74124   2.74242   2.74368   2.74606   2.74793
 Alpha virt. eigenvalues --    2.74822   2.75025   2.75200   2.75652   2.76094
 Alpha virt. eigenvalues --    2.76219   2.76309   2.76472   2.76778   2.76996
 Alpha virt. eigenvalues --    2.77153   2.77268   2.77315   2.78498   2.78654
 Alpha virt. eigenvalues --    2.78683   2.78996   2.79898   2.80141   2.80262
 Alpha virt. eigenvalues --    2.81236   2.81763   2.81822   2.82013   2.82200
 Alpha virt. eigenvalues --    2.82324   2.82714   2.82997   2.83239   2.83708
 Alpha virt. eigenvalues --    2.83757   2.83937   2.84047   2.84276   2.85013
 Alpha virt. eigenvalues --    2.85533   2.86105   2.86250   2.86364   2.86487
 Alpha virt. eigenvalues --    2.86647   2.86793   2.86916   2.88139   2.88450
 Alpha virt. eigenvalues --    2.88621   2.89079   2.89643   2.89680   2.89781
 Alpha virt. eigenvalues --    2.89814   2.89936   2.90066   2.90533   2.90661
 Alpha virt. eigenvalues --    2.90743   2.91762   2.91885   2.91971   2.92029
 Alpha virt. eigenvalues --    2.92215   2.92479   2.92720   2.92928   2.93121
 Alpha virt. eigenvalues --    2.93298   2.93468   2.93693   2.93948   2.94079
 Alpha virt. eigenvalues --    2.94206   2.95062   2.95210   2.95456   2.95687
 Alpha virt. eigenvalues --    2.95755   2.95862   2.96244   2.96448   2.96533
 Alpha virt. eigenvalues --    2.96635   2.96775   2.96916   2.97216   2.97444
 Alpha virt. eigenvalues --    2.97549   2.97742   2.98003   2.98375   2.99065
 Alpha virt. eigenvalues --    2.99333   2.99438   2.99700   2.99746   3.00077
 Alpha virt. eigenvalues --    3.00207   3.00488   3.01139   3.01361   3.01455
 Alpha virt. eigenvalues --    3.02491   3.03039   3.03295   3.03669   3.05194
 Alpha virt. eigenvalues --    3.06438   3.06711   3.07141   3.10938   3.11500
 Alpha virt. eigenvalues --    3.11650   3.11714   3.12182   3.12575   3.13723
 Alpha virt. eigenvalues --    3.13800   3.13965   3.16591   3.20104   3.21649
 Alpha virt. eigenvalues --    3.22023   3.23961   3.32577   3.41095   3.41703
 Alpha virt. eigenvalues --    3.42381   3.43064   3.44950   3.45033   3.45872
 Alpha virt. eigenvalues --    3.46106   3.46260   3.47286   3.47612   3.47902
 Alpha virt. eigenvalues --    3.48079   3.51214   3.51836   3.52327   3.53668
 Alpha virt. eigenvalues --    3.53800   3.54489   3.54773   3.54973   3.55159
 Alpha virt. eigenvalues --    3.55289   3.55627   3.56067   3.56653   3.57564
 Alpha virt. eigenvalues --    3.57809   3.58351   3.59472   3.59682   3.60464
 Alpha virt. eigenvalues --    3.60728   3.61264   3.61614   3.62015   3.62463
 Alpha virt. eigenvalues --    3.69468   3.74828  68.64365  68.65433  68.66560
 Alpha virt. eigenvalues --   68.68729  68.72759  68.73648  68.81789  68.82794
 Alpha virt. eigenvalues --   68.83336  68.85786  68.86897  68.88224 576.22799
 Alpha virt. eigenvalues --  576.23842 576.24946 576.27068 576.31108 576.31986
 Alpha virt. eigenvalues --  576.39973 576.40957 576.41481 576.43834 576.44921
 Alpha virt. eigenvalues --  576.46241
          Condensed to atoms (all electrons):
 Mulliken charges:
               1
     1  Cl  -0.927805
     2  C   -0.077299
     3  C    0.042484
     4  C   -0.075537
     5  C   -0.033350
     6  C   -0.031583
     7  C   -0.049756
     8  H    0.029667
     9  H    0.030645
    10  H    0.041381
    11  H    0.037469
    12  H    0.040267
    13  C   -0.103331
    14  C    0.014750
    15  H    0.022355
    16  H    0.042326
    17  H    0.033562
    18  O   -0.663763
    19  O   -0.661123
    20  O   -0.654616
    21  O   -0.662249
    22  W    1.736490
    23  W    1.673259
    24  W    1.682792
    25  W    1.693519
    26  W    1.677012
    27  W    1.728731
    28  W    1.621167
    29  W    1.685075
    30  O   -0.320670
    31  O   -0.365315
    32  O   -0.365855
    33  O   -0.361815
    34  O   -0.665608
    35  O   -0.670791
    36  O   -0.662019
    37  O   -0.664061
    38  O   -0.367122
    39  O   -0.365765
    40  O   -0.294603
    41  O   -0.364957
    42  O   -0.670108
    43  O   -0.663441
    44  O   -0.660420
    45  O   -0.665873
    46  O   -0.367845
    47  O   -0.321195
    48  O   -0.357189
    49  O   -0.363091
    50  W    1.673663
    51  W    1.677193
    52  W    1.683287
    53  W    1.684623
    54  O   -0.723954
    55  O   -0.708101
    56  O   -0.726275
    57  O   -0.722224
    58  O   -0.708280
    59  O   -0.726935
    60  O   -0.725121
    61  O   -0.721227
    62  O   -0.724940
    63  O   -0.709805
    64  O   -0.723674
    65  O   -0.726788
    66  O   -0.803556
    67  O   -0.802147
    68  O   -0.800074
    69  O   -0.809304
    70  K    0.866235
    71  K    0.866955
    72  K    0.863367
    73  V    1.192285
 Sum of Mulliken charges =  -1.00000
 Mulliken charges with hydrogens summed into heavy atoms:
               1
     1  Cl  -0.927805
     2  C   -0.047632
     3  C    0.042484
     4  C   -0.044891
     5  C    0.008031
     6  C    0.005885
     7  C   -0.009490
    13  C   -0.080976
    14  C    0.090638
    18  O   -0.663763
    19  O   -0.661123
    20  O   -0.654616
    21  O   -0.662249
    22  W    1.736490
    23  W    1.673259
    24  W    1.682792
    25  W    1.693519
    26  W    1.677012
    27  W    1.728731
    28  W    1.621167
    29  W    1.685075
    30  O   -0.320670
    31  O   -0.365315
    32  O   -0.365855
    33  O   -0.361815
    34  O   -0.665608
    35  O   -0.670791
    36  O   -0.662019
    37  O   -0.664061
    38  O   -0.367122
    39  O   -0.365765
    40  O   -0.294603
    41  O   -0.364957
    42  O   -0.670108
    43  O   -0.663441
    44  O   -0.660420
    45  O   -0.665873
    46  O   -0.367845
    47  O   -0.321195
    48  O   -0.357189
    49  O   -0.363091
    50  W    1.673663
    51  W    1.677193
    52  W    1.683287
    53  W    1.684623
    54  O   -0.723954
    55  O   -0.708101
    56  O   -0.726275
    57  O   -0.722224
    58  O   -0.708280
    59  O   -0.726935
    60  O   -0.725121
    61  O   -0.721227
    62  O   -0.724940
    63  O   -0.709805
    64  O   -0.723674
    65  O   -0.726788
    66  O   -0.803556
    67  O   -0.802147
    68  O   -0.800074
    69  O   -0.809304
    70  K    0.866235
    71  K    0.866955
    72  K    0.863367
    73  V    1.192285
 Electronic spatial extent (au):  <R**2>=         317515.2702
 Charge=             -1.0000 electrons
 Dipole moment (field-independent basis, Debye):
    X=             51.6320    Y=            -51.6670    Z=            -38.5300  Tot=             82.5827
 Quadrupole moment (field-independent basis, Debye-Ang):
   XX=          -1065.6730   YY=           -885.8779   ZZ=           -910.1901
   XY=            460.5497   XZ=            462.8231   YZ=           -482.4495
 Traceless Quadrupole moment (field-independent basis, Debye-Ang):
   XX=           -111.7594   YY=             68.0357   ZZ=             43.7236
   XY=            460.5497   XZ=            462.8231   YZ=           -482.4495
 Octapole moment (field-independent basis, Debye-Ang**2):
  XXX=          13570.7029  YYY=          -1076.0892  ZZZ=         -19063.7693  XYY=           6102.2906
  XXY=          -3755.2623  XXZ=          -9519.8027  XZZ=           7376.4344  YZZ=          -4226.2829
  YYZ=          -9016.3334  XYZ=           4872.4394
 Hexadecapole moment (field-independent basis, Debye-Ang**3):
 XXXX=        -160744.0234 YYYY=         -53122.7102 ZZZZ=        -345033.9507 XXXY=          38285.1777
 XXXZ=         124031.3974 YYYX=          21054.9074 YYYZ=         -12790.5657 ZZZX=         127878.5930
 ZZZY=         -36251.1243 XXYY=         -56357.0203 XXZZ=        -108705.2700 YYZZ=         -99508.5429
 XXYZ=         -43414.9067 YYXZ=          61828.8969 ZZXY=          51244.8582
 N-N= 2.098135174218D+04 E-N=-5.904694021243D+04  KE= 6.765122859241D+03
   1 Symmetry operations used in ECPInt.
 ECPInt:  NShTT=  127765 NPrTT=  468030 LenC2=   96686 LenP2D=  221208.
 LDataN:  DoStor=T MaxTD1= 9 Len=  602
 D1PCM: PCM CHGder 1st derivatives, ID1Alg=3 FixD1E=F DoIter=F DoCFld=F I1PDM=0.
 Calling FoFJK, ICntrl=      2127 FMM=T ISym2X=0 I1Cent= 0 IOpClX= 0 NMat=1 NMatS=1 NMatT=0.
 Defaulting to unpruned grid for atomic number  74.
 Defaulting to unpruned grid for atomic number  74.
 Defaulting to unpruned grid for atomic number  74.
 Defaulting to unpruned grid for atomic number  74.
 Defaulting to unpruned grid for atomic number  74.
 Defaulting to unpruned grid for atomic number  74.
 Defaulting to unpruned grid for atomic number  74.
 Defaulting to unpruned grid for atomic number  74.
 Defaulting to unpruned grid for atomic number  74.
 Defaulting to unpruned grid for atomic number  74.
 Defaulting to unpruned grid for atomic number  74.
 Defaulting to unpruned grid for atomic number  74.
 Defaulting to unpruned grid for atomic number  74.
 Defaulting to unpruned grid for atomic number  74.
 Defaulting to unpruned grid for atomic number  74.
 Defaulting to unpruned grid for atomic number  74.
 Defaulting to unpruned grid for atomic number  74.
 Defaulting to unpruned grid for atomic number  74.
 Defaulting to unpruned grid for atomic number  74.
 Defaulting to unpruned grid for atomic number  74.
 Defaulting to unpruned grid for atomic number  74.
 Defaulting to unpruned grid for atomic number  74.
 Defaulting to unpruned grid for atomic number  74.
 Defaulting to unpruned grid for atomic number  74.
 Defaulting to unpruned grid for atomic number  74.
 Defaulting to unpruned grid for atomic number  74.
 Defaulting to unpruned grid for atomic number  74.
 Defaulting to unpruned grid for atomic number  74.
 Defaulting to unpruned grid for atomic number  74.
 Defaulting to unpruned grid for atomic number  74.
 Defaulting to unpruned grid for atomic number  74.
 Defaulting to unpruned grid for atomic number  74.
 Defaulting to unpruned grid for atomic number  74.
 Defaulting to unpruned grid for atomic number  74.
 Defaulting to unpruned grid for atomic number  74.
 Defaulting to unpruned grid for atomic number  74.
 Defaulting to unpruned grid for atomic number  74.
 Defaulting to unpruned grid for atomic number  74.
 Defaulting to unpruned grid for atomic number  74.
 Defaulting to unpruned grid for atomic number  74.
 Defaulting to unpruned grid for atomic number  74.
 Defaulting to unpruned grid for atomic number  74.
 Defaulting to unpruned grid for atomic number  74.
 Defaulting to unpruned grid for atomic number  74.
 Defaulting to unpruned grid for atomic number  74.
 Defaulting to unpruned grid for atomic number  74.
 Defaulting to unpruned grid for atomic number  74.
 Defaulting to unpruned grid for atomic number  74.
 Defaulting to unpruned grid for atomic number  74.
 Defaulting to unpruned grid for atomic number  74.
 Defaulting to unpruned grid for atomic number  74.
 Defaulting to unpruned grid for atomic number  74.
 Defaulting to unpruned grid for atomic number  74.
 Defaulting to unpruned grid for atomic number  74.
 Defaulting to unpruned grid for atomic number  74.
 Defaulting to unpruned grid for atomic number  74.
 -------------------------------------------------------------------
 Center     Atomic                   Forces (Hartrees/Bohr)
 Number     Number              X              Y              Z
 -------------------------------------------------------------------
      1       17          -0.001276694    0.005425559    0.001486902
      2        6          -0.001434501   -0.000441438   -0.001814809
      3        6          -0.000971257   -0.001618185    0.003509114
      4        6           0.001599709    0.002035549    0.000454812
      5        6           0.000958419   -0.000024344    0.001266313
      6        6           0.000205505   -0.000422207    0.000636959
      7        6          -0.000903244   -0.001326522    0.000381905
      8        1          -0.000026141    0.000459862    0.000280997
      9        1          -0.000572200    0.000424460    0.000142199
     10        1          -0.000377722    0.000192786    0.000047300
     11        1           0.000192977   -0.000173212    0.000036647
     12        1          -0.000201731    0.000255437    0.000277708
     13        6           0.008697901    0.010629919   -0.007567758
     14        6          -0.004855746   -0.015539073    0.000778871
     15        1          -0.000055661   -0.000383028   -0.000357338
     16        1          -0.001664363    0.002133598    0.000988633
     17        1          -0.001964698    0.000683128   -0.000001258
     18        8          -0.003626433    0.000439324    0.000905364
     19        8           0.003750356   -0.000773637    0.001046163
     20        8           0.002804980   -0.003106136   -0.000493576
     21        8          -0.002747577    0.002238664   -0.000850960
     22       74           0.001586651    0.011492404   -0.010365642
     23       74          -0.002417880   -0.010936792   -0.010808557
     24       74           0.006907470    0.008682832    0.010373248
     25       74          -0.007595499   -0.007923017    0.011093185
     26       74           0.008861666   -0.008086264   -0.011488575
     27       74          -0.009044889    0.009002245   -0.011525168
     28       74          -0.012207226    0.003262333    0.011420887
     29       74           0.011773629   -0.002152609    0.011468845
     30        8          -0.001247003   -0.002918502    0.003290261
     31        8           0.000898646    0.003135645    0.003449738
     32        8          -0.001632030   -0.002488930   -0.003571906
     33        8           0.001743443    0.002254221   -0.003299448
     34        8          -0.001320105   -0.000868678    0.003667184
     35        8           0.001669119    0.000253537    0.003710168
     36        8           0.000812554   -0.001687071   -0.003435878
     37        8          -0.000360782    0.001313908   -0.003435851
     38        8          -0.004629811   -0.002097308   -0.001099809
     39        8           0.005194321    0.001833492   -0.001029895
     40        8           0.002687503   -0.006246528   -0.000416489
     41        8          -0.001382891    0.004862317    0.000494635
     42        8          -0.002324988   -0.003007986    0.001498097
     43        8           0.002813603    0.002803905    0.001115453
     44        8          -0.000354254   -0.004296450   -0.000970506
     45        8           0.000919859    0.003521090   -0.001159516
     46        8          -0.002823654    0.002834498    0.003308280
     47        8           0.003613174   -0.001885118    0.003528904
     48        8           0.004054003   -0.001318321   -0.003402540
     49        8          -0.003673010    0.001089607   -0.003382578
     50       74           0.015243497    0.005128853    0.003387652
     51       74          -0.015446157   -0.004215619    0.003795301
     52       74          -0.006164421    0.016881465   -0.003677349
     53       74           0.005001951   -0.015299579   -0.003106164
     54        8          -0.000628339    0.001456745    0.002402200
     55        8           0.000860193   -0.001608794    0.002317846
     56        8           0.001668672   -0.000336857   -0.002240342
     57        8          -0.001667440   -0.000748318   -0.002385817
     58        8           0.000162140   -0.002175137    0.000916012
     59        8           0.000392042    0.002214180    0.001669560
     60        8          -0.001390417   -0.001994726   -0.001692859
     61        8           0.001923768    0.001346629   -0.001552895
     62        8          -0.001209527    0.001769219    0.000666717
     63        8           0.000920250   -0.002290497    0.000087668
     64        8           0.002315953   -0.000307412   -0.000725867
     65        8          -0.002169445   -0.000285965   -0.000457433
     66        8          -0.027966327   -0.005069484    0.018532462
     67        8           0.028555669    0.005826966    0.018074247
     68        8           0.011737192   -0.027171934   -0.018496597
     69        8          -0.011953127    0.025459518   -0.018567506
     70       19           0.000172289   -0.000452911   -0.000391272
     71       19           0.000427591    0.000050993    0.000202929
     72       19          -0.000497559    0.000087457    0.000264966
     73       23          -0.000341946    0.000196241    0.000795827
 -------------------------------------------------------------------
 Cartesian Forces:  Max     0.028555669 RMS     0.006453417

 GradGradGradGradGradGradGradGradGradGradGradGradGradGradGradGradGradGrad
 Berny optimization.
 Search for a local minimum.
 Step number   1 out of a maximum of    2
 All quantities printed in internal units (Hartrees-Bohrs-Radians)
 Second derivative matrix not updated -- first step.
 ITU=  0
     Eigenvalues ---    0.00000   0.00000   0.00000   0.00010   0.00092
     Eigenvalues ---    0.00093   0.00257   0.00563   0.00620   0.01642
     Eigenvalues ---    0.01977   0.02902   0.02935   0.03203   0.03404
     Eigenvalues ---    0.03441   0.03725   0.03727   0.04154   0.04492
     Eigenvalues ---    0.04597   0.04598   0.04611   0.04820   0.04837
     Eigenvalues ---    0.04993   0.05347   0.05552   0.05579   0.06353
     Eigenvalues ---    0.06390   0.06524   0.06784   0.06857   0.07046
     Eigenvalues ---    0.07303   0.07367   0.07599   0.08314   0.08374
     Eigenvalues ---    0.08697   0.08717   0.08895   0.08926   0.09738
     Eigenvalues ---    0.09915   0.10074   0.10365   0.10411   0.10476
     Eigenvalues ---    0.10805   0.10859   0.11523   0.11614   0.11994
     Eigenvalues ---    0.12013   0.12107   0.12446   0.12550   0.12621
     Eigenvalues ---    0.12638   0.12716   0.12839   0.12939   0.13047
     Eigenvalues ---    0.13857   0.13937   0.14245   0.14503   0.14732
     Eigenvalues ---    0.16832   0.16837   0.17045   0.17153   0.17554
     Eigenvalues ---    0.17658   0.18528   0.19735   0.19907   0.20249
     Eigenvalues ---    0.20808   0.20975   0.21807   0.21941   0.22050
     Eigenvalues ---    0.22352   0.23040   0.23314   0.23903   0.23910
     Eigenvalues ---    0.24552   0.24698   0.24836   0.25571   0.26032
     Eigenvalues ---    0.26233   0.26399   0.27515   0.27592   0.27825
     Eigenvalues ---    0.28211   0.28241   0.28702   0.29426   0.29968
     Eigenvalues ---    0.30423   0.30489   0.30504   0.30571   0.30600
     Eigenvalues ---    0.30764   0.31153   0.31316   0.31420   0.32040
     Eigenvalues ---    0.32279   0.32313   0.32610   0.32846   0.33375
     Eigenvalues ---    0.33454   0.35190   0.35450   0.35776   0.36832
     Eigenvalues ---    0.37353   0.37511   0.37586   0.38033   0.38372
     Eigenvalues ---    0.38738   0.38996   0.40072   0.40137   0.40949
     Eigenvalues ---    0.42067   0.42155   0.43542   0.43924   0.44923
     Eigenvalues ---    0.45124   0.45395   0.45832   0.47532   0.48026
     Eigenvalues ---    0.48359   0.48520   0.48597   0.49240   0.49412
     Eigenvalues ---    0.49815   0.50502   0.51393   0.51563   0.52014
     Eigenvalues ---    0.52868   0.53486   0.55437   0.58463   0.64402
     Eigenvalues ---    0.67567   0.76698   0.81455   0.82754   0.96720
     Eigenvalues ---    0.97250   0.98542   0.99318   1.01739   1.04383
     Eigenvalues ---    1.07093   1.10874   1.11490   1.12218   1.15167
     Eigenvalues ---    1.18653   1.19196   1.20485   1.22213   1.22596
     Eigenvalues ---    1.22928   1.25664   1.26448   1.26633   1.27146
     Eigenvalues ---    1.27643   1.29026   1.29358   1.45123   1.45699
     Eigenvalues ---    1.45860   1.48305   1.51236   1.51664   1.51861
     Eigenvalues ---    1.52459   1.55519   1.55765   1.56446   1.58246
     Eigenvalues ---    1.58342   1.59536   1.61437   1.64711   1.66447
     Eigenvalues ---    1.72895   1.78248   1.83593   1.86406   1.87620
     Eigenvalues ---    1.99248   2.03351   3.02570
 Eigenvalue     1 is   2.22D-16 Eigenvector:
                          Y16       Y15       Y14       Y17       Y13
   1                    0.17474   0.17474   0.17474   0.17474   0.17474
                          Y9        Y3        Y8        Y4        Y2
   1                    0.17474   0.17474   0.17474   0.17474   0.17474
 Eigenvalue     2 is   3.52D-07 Eigenvector:
                          Y16       X16       X11       Y11       Y14
   1                    0.33545  -0.26618   0.26221  -0.24852   0.24646
                          Y15       Y17       X14       Y13       X6
   1                    0.22752   0.21317  -0.19105   0.18723   0.18372
 Eigenvalue     3 is   3.05D-06 Eigenvector:
                          X9        Y12       X10       X12       Y9
   1                    0.33616   0.28531   0.28413  -0.26072  -0.25652
                          Y8        X15       Y10       X8        X4
   1                    0.24908   0.22815  -0.22065  -0.21045   0.20250
 Quadratic step=1.082D+01 exceeds max=3.000D-01 adjusted using Lamda=-6.299D-03.
 Angle between NR and scaled steps=  51.98 degrees.
 Angle between quadratic step and forces=  64.56 degrees.
 Linear search not attempted -- first point.
 B after Tr=     0.004337    0.002403    0.002008
         Rot=    1.000000   -0.000158    0.000069    0.000247 Ang=  -0.03 deg.
 Variable       Old X    -DE/DX   Delta X   Delta X   Delta X     New X
                                 (Linear)    (Quad)   (Total)
    X1      -18.67856  -0.00128   0.00000  -0.00120   0.00800 -18.67056
    Y1       15.40122   0.00543   0.00000   0.00553   0.01088  15.41209
    Z1       19.90889   0.00149   0.00000   0.00160   0.00588  19.91477
    X2      -15.72550  -0.00143   0.00000  -0.01342  -0.00833 -15.73383
    Y2        8.00241  -0.00044   0.00000  -0.00895  -0.00606   7.99636
    Z2       23.10432  -0.00181   0.00000  -0.01075  -0.00840  23.09592
    X3      -17.19545  -0.00097   0.00000   0.00279   0.00787 -17.18758
    Y3        7.40155  -0.00162   0.00000  -0.03575  -0.03146   7.37009
    Z3       20.97282   0.00351   0.00000  -0.01258  -0.01062  20.96220
    X4      -18.94063   0.00160   0.00000  -0.00996  -0.00589 -18.94652
    Y4        5.40518   0.00204   0.00000  -0.01420  -0.00913   5.39605
    Z4       21.17444   0.00045   0.00000   0.01953   0.02062  21.19506
    X5      -19.27174   0.00096   0.00000  -0.00682  -0.00369 -19.27543
    Y5        4.11839  -0.00002   0.00000  -0.00106   0.00346   4.12185
    Z5       23.44321   0.00127   0.00000   0.02947   0.03012  23.47333
    X6      -17.84437   0.00021   0.00000   0.00171   0.00488 -17.83949
    Y6        4.78302  -0.00042   0.00000  -0.00050   0.00266   4.78567
    Z6       25.55917   0.00064   0.00000   0.02123   0.02229  25.58145
    X7      -16.04877  -0.00090   0.00000  -0.01053  -0.00638 -16.05514
    Y7        6.70835  -0.00133   0.00000   0.00650   0.00883   6.71719
    Z7       25.37014   0.00038   0.00000   0.00265   0.00456  25.37470
    X8      -14.30667  -0.00003   0.00000  -0.02015  -0.01429 -14.32097
    Y8        9.49600   0.00046   0.00000  -0.00119   0.00104   9.49704
    Z8       22.98613   0.00028   0.00000  -0.01407  -0.01105  22.97508
    X9      -20.04316  -0.00057   0.00000  -0.02885  -0.02481 -20.06796
    Y9        4.86489   0.00042   0.00000  -0.01123  -0.00507   4.85982
    Z9       19.51170   0.00014   0.00000   0.03074   0.03151  19.54320
   X10      -20.63351  -0.00038   0.00000  -0.01888  -0.01652 -20.65003
   Y10        2.57039   0.00019   0.00000   0.01016   0.01533   2.58572
   Z10       23.56016   0.00005   0.00000   0.03966   0.03963  23.59979
   X11      -18.09956   0.00019   0.00000   0.01154   0.01396 -18.08560
   Y11        3.77466  -0.00017   0.00000   0.00410   0.00680   3.78147
   Z11       27.34183   0.00004   0.00000   0.02516   0.02587  27.36770
   X12      -14.88504  -0.00020   0.00000  -0.01581  -0.01164 -14.89667
   Y12        7.19957   0.00026   0.00000   0.02746   0.02870   7.22828
   Z12       27.00427   0.00028   0.00000   0.00085   0.00308  27.00735
   X13      -16.98955   0.00870   0.00000   0.02548   0.03155 -16.95799
   Y13        8.77183   0.01063   0.00000  -0.08308  -0.07814   8.69369
   Z13       18.57817  -0.00757   0.00000  -0.05080  -0.04840  18.52977
   X14      -15.54527  -0.00486   0.00000  -0.01709  -0.00994 -15.55522
   Y14       10.81714  -0.01554   0.00000  -0.08346  -0.07907  10.73807
   Z14       18.10927   0.00078   0.00000  -0.04593  -0.04269  18.06658
   X15      -18.17252  -0.00006   0.00000   0.03738   0.04328 -18.12923
   Y15        8.03837  -0.00038   0.00000  -0.10612  -0.10012   7.93825
   Z15       17.04563  -0.00036   0.00000  -0.04923  -0.04723  16.99840
   X16      -15.47146  -0.00166   0.00000  -0.05569  -0.04787 -15.51933
   Y16       11.61821   0.00213   0.00000  -0.03292  -0.02796  11.59025
   Z16       16.20944   0.00099   0.00000  -0.02548  -0.02196  16.18748
   X17      -14.27770  -0.00196   0.00000  -0.07452  -0.06714 -14.34483
   Y17       11.64888   0.00068   0.00000  -0.03527  -0.03193  11.61696
   Z17       19.50869  -0.00000   0.00000  -0.02433  -0.02065  19.48804
   X18       -1.87612  -0.00363   0.00000  -0.01907  -0.01834  -1.89446
   Y18       -3.35438   0.00044   0.00000  -0.00524  -0.00635  -3.36073
   Z18       14.10061   0.00091   0.00000   0.01047   0.01115  14.11177
   X19      -15.89342   0.00375   0.00000   0.02120   0.02236 -15.87106
   Y19       -2.51847  -0.00077   0.00000   0.01545   0.02125  -2.49722
   Z19       14.09947   0.00105   0.00000   0.01296   0.01199  14.11145
   X20      -13.30639   0.00280   0.00000   0.01829   0.02115 -13.28524
   Y20        2.54582  -0.00311   0.00000  -0.00851  -0.00579   2.54003
   Z20       19.80284  -0.00049   0.00000  -0.00608  -0.00511  19.79774
   X21       -4.40654  -0.00275   0.00000  -0.01482  -0.01731  -4.42384
   Y21       -8.25857   0.00224   0.00000   0.01028   0.00858  -8.24999
   Z21       19.94660  -0.00085   0.00000  -0.00972  -0.01092  19.93568
   X22       -6.45165   0.00159   0.00000  -0.00452  -0.00120  -6.45286
   Y22        1.33962   0.01149   0.00000   0.02104   0.02277   1.36239
   Z22       12.24585  -0.01037   0.00000  -0.00608  -0.00453  12.24131
   X23      -11.34452  -0.00242   0.00000   0.00678   0.00584 -11.33869
   Y23       -7.22175  -0.01094   0.00000  -0.00325   0.00084  -7.22091
   Z23       12.41805  -0.01081   0.00000  -0.00565  -0.00748  12.41057
   X24       -6.85196   0.00691   0.00000   0.02278   0.02497  -6.82699
   Y24        1.69578   0.00868   0.00000  -0.00250  -0.00353   1.69225
   Z24       21.57867   0.01037   0.00000   0.00611   0.00771  21.58638
   X25      -10.90338  -0.00760   0.00000  -0.01963  -0.02188 -10.92526
   Y25       -7.29386  -0.00792   0.00000   0.00328   0.00425  -7.28962
   Z25       21.68124   0.01109   0.00000   0.00840   0.00660  21.68784
   X26       -4.63245   0.00886   0.00000  -0.00461  -0.00435  -4.63679
   Y26       -4.85731  -0.00809   0.00000  -0.01024  -0.00936  -4.86666
   Z26       12.08311  -0.01149   0.00000  -0.00696  -0.00712  12.07599
   X27      -13.12443  -0.00904   0.00000   0.00315   0.00534 -13.11909
   Y27       -1.01425   0.00900   0.00000   0.02789   0.03298  -0.98127
   Z27       12.02778  -0.01153   0.00000  -0.00888  -0.00899  12.01879
   X28      -12.89923  -0.01221   0.00000  -0.00480  -0.00371 -12.90294
   Y28       -0.46778   0.00326   0.00000  -0.00334  -0.00146  -0.46924
   Z28       21.86581   0.01142   0.00000   0.01101   0.01109  21.87691
   X29       -4.83609   0.01177   0.00000   0.00935   0.00814  -4.82795
   Y29       -5.11994  -0.00215   0.00000   0.00573   0.00360  -5.11633
   Z29       21.94501   0.01147   0.00000   0.00808   0.00781  21.95282
   X30       -5.99934  -0.00125   0.00000   0.01047   0.01520  -5.98414
   Y30        3.59283  -0.00292   0.00000   0.01127   0.01347   3.60630
   Z30       10.03340   0.00329   0.00000  -0.00089   0.00142  10.03482
   X31      -11.61053   0.00090   0.00000  -0.00669  -0.00849 -11.61902
   Y31       -9.58134   0.00314   0.00000   0.00441   0.00932  -9.57202
   Z31       10.25735   0.00345   0.00000  -0.00012  -0.00273  10.25463
   X32       -5.12950  -0.00163   0.00000   0.01499   0.01768  -5.11181
   Y32        3.30524  -0.00249   0.00000   0.00075  -0.00181   3.30343
   Z32       23.75940  -0.00357   0.00000  -0.00202   0.00032  23.75972
   X33      -12.61173   0.00174   0.00000  -0.01050  -0.01382 -12.62555
   Y33       -8.83207   0.00225   0.00000  -0.00043   0.00067  -8.83140
   Z33       23.92099  -0.00330   0.00000   0.00166  -0.00086  23.92013
   X34       -5.05264  -0.00132   0.00000  -0.01372  -0.01167  -5.06431
   Y34       -1.68470  -0.00087   0.00000  -0.00001   0.00157  -1.68313
   Z34       10.54861   0.00367   0.00000   0.01496   0.01574  10.56435
   X35      -12.68920   0.00167   0.00000   0.01511   0.01587 -12.67333
   Y35       -4.28925   0.00025   0.00000   0.01583   0.02114  -4.26811
   Z35       10.62764   0.00371   0.00000   0.01478   0.01370  10.64133
   X36      -10.05506   0.00081   0.00000   0.01380   0.01543 -10.03963
   Y36        1.06144  -0.00169   0.00000  -0.01390  -0.01390   1.04754
   Z36       23.36460  -0.00344   0.00000  -0.00901  -0.00806  23.35654
   X37       -7.66648  -0.00036   0.00000  -0.00694  -0.00911  -7.67559
   Y37       -6.65050   0.00131   0.00000   0.01255   0.01136  -6.63914
   Z37       23.44332  -0.00344   0.00000  -0.01016  -0.01130  23.43202
   X38        0.56227  -0.00463   0.00000   0.00874   0.01065   0.57292
   Y38        0.00317  -0.00210   0.00000  -0.01556  -0.01896  -0.01579
   Z38       17.52608  -0.00110   0.00000  -0.00056   0.00152  17.52761
   X39      -18.35268   0.00519   0.00000  -0.00348  -0.00439 -18.35707
   Y39       -5.72724   0.00183   0.00000   0.01961   0.02553  -5.70172
   Z39       17.61630  -0.00103   0.00000   0.00143  -0.00089  17.61541
   X40      -12.03416   0.00269   0.00000   0.01890   0.02418 -12.00998
   Y40        6.46746  -0.00625   0.00000   0.01021   0.01339   6.48085
   Z40       16.38177  -0.00042   0.00000  -0.00959  -0.00720  16.37458
   X41       -5.64282  -0.00138   0.00000  -0.00296  -0.00695  -5.64977
   Y41      -12.22687   0.00486   0.00000   0.00041   0.00039 -12.22648
   Z41       16.55590   0.00049   0.00000  -0.00543  -0.00805  16.54785
   X42       -3.39228  -0.00232   0.00000  -0.01093  -0.00784  -3.40012
   Y42        1.45324  -0.00301   0.00000  -0.00759  -0.00796   1.44528
   Z42       14.12642   0.00150   0.00000   0.01366   0.01566  14.14208
   X43      -14.37972   0.00281   0.00000   0.01441   0.01317 -14.36655
   Y43       -7.33647   0.00280   0.00000   0.01816   0.02316  -7.31331
   Z43       14.26800   0.00112   0.00000   0.01149   0.00921  14.27721
   X44       -8.53222  -0.00035   0.00000   0.01417   0.01784  -8.51437
   Y44        4.18644  -0.00430   0.00000  -0.01809  -0.01769   4.16875
   Z44       19.71534  -0.00097   0.00000  -0.00899  -0.00684  19.70850
   X45       -9.20355   0.00092   0.00000  -0.01073  -0.01400  -9.21755
   Y45       -9.86356   0.00352   0.00000   0.01753   0.01822  -9.84534
   Z45       19.88554  -0.00116   0.00000  -0.01035  -0.01271  19.87283
   X46       -3.05419  -0.00282   0.00000  -0.00467  -0.00497  -3.05916
   Y46       -6.62816   0.00283   0.00000   0.00481   0.00560  -6.62257
   Z46        9.91535   0.00331   0.00000  -0.00550  -0.00600   9.90935
   X47      -14.81069   0.00361   0.00000   0.00503   0.00827 -14.80242
   Y47        0.49556  -0.00189   0.00000   0.01533   0.02196   0.51753
   Z47        9.77823   0.00353   0.00000  -0.00489  -0.00477   9.77346
   X48      -15.20396   0.00405   0.00000   0.00566   0.00653 -15.19743
   Y48       -0.29474  -0.00132   0.00000   0.00492   0.00724  -0.28750
   Z48       24.09088  -0.00340   0.00000   0.00804   0.00786  24.09874
   X49       -2.50007  -0.00367   0.00000  -0.00023  -0.00188  -2.50195
   Y49       -5.37262   0.00109   0.00000  -0.00392  -0.00789  -5.38050
   Z49       24.13364  -0.00338   0.00000   0.00409   0.00406  24.13769
   X50       -2.38343   0.01524   0.00000   0.00989   0.01144  -2.37200
   Y50       -0.97748   0.00513   0.00000  -0.00102  -0.00271  -0.98019
   Z50       16.70004   0.00339   0.00000   0.01408   0.01545  16.71550
   X51      -15.40347  -0.01545   0.00000  -0.00649  -0.00682 -15.41028
   Y51       -4.77318  -0.00422   0.00000   0.00884   0.01356  -4.75961
   Z51       16.77017   0.00380   0.00000   0.01577   0.01415  16.78432
   X52      -11.13632  -0.00616   0.00000   0.00543   0.00915 -11.12717
   Y52        3.49966   0.01688   0.00000   0.01754   0.02005   3.51971
   Z52       17.09990  -0.00368   0.00000  -0.01433  -0.01275  17.08715
   X53       -6.58024   0.00500   0.00000  -0.00496  -0.00758  -6.58783
   Y53       -9.25301  -0.01530   0.00000  -0.00757  -0.00737  -9.26038
   Z53       17.32696  -0.00311   0.00000  -0.01447  -0.01629  17.31068
   X54       -7.98559  -0.00063   0.00000  -0.00049  -0.00063  -7.98621
   Y54       -5.85597   0.00146   0.00000  -0.00687  -0.00413  -5.86011
   Z54       11.46545   0.00240   0.00000  -0.00730  -0.00825  11.45721
   X55       -9.76409   0.00086   0.00000   0.00038   0.00312  -9.76097
   Y55       -0.08733  -0.00161   0.00000   0.02533   0.02898  -0.05835
   Z55       11.35271   0.00232   0.00000  -0.00787  -0.00723  11.34549
   X56      -11.67262   0.00167   0.00000  -0.01144  -0.01207 -11.68469
   Y56       -3.76986  -0.00034   0.00000  -0.00278  -0.00171  -3.77157
   Z56       22.51412  -0.00224   0.00000   0.01082   0.01003  22.52415
   X57       -6.00045  -0.00167   0.00000   0.01467   0.01499  -5.98546
   Y57       -1.82182  -0.00075   0.00000   0.00252   0.00077  -1.82104
   Z57       22.55557  -0.00239   0.00000   0.00778   0.00838  22.56395
   X58       -8.25606   0.00016   0.00000   0.00078   0.00455  -8.25150
   Y58        2.98370  -0.00218   0.00000   0.02081   0.02262   3.00633
   Z58       14.81931   0.00092   0.00000  -0.01025  -0.00843  14.81088
   X59       -9.46047   0.00039   0.00000   0.00068  -0.00141  -9.46188
   Y59       -8.83386   0.00221   0.00000  -0.00684  -0.00448  -8.83835
   Z59       14.97065   0.00167   0.00000  -0.00845  -0.01053  14.96012
   X60       -4.41657  -0.00139   0.00000   0.01955   0.02181  -4.39476
   Y60        1.11463  -0.00199   0.00000  -0.00251  -0.00394   1.11069
   Z60       19.05303  -0.00169   0.00000   0.00846   0.01021  19.06324
   X61      -13.34270   0.00192   0.00000  -0.01530  -0.01697 -13.35967
   Y61       -6.82364   0.00135   0.00000   0.00506   0.00802  -6.81562
   Z61       19.15397  -0.00155   0.00000   0.00991   0.00793  19.16190
   X62       -4.86746  -0.00121   0.00000  -0.00368  -0.00502  -4.87248
   Y62       -7.34065   0.00177   0.00000  -0.00920  -0.00907  -7.34972
   Z62       14.86359   0.00067   0.00000  -0.01158  -0.01256  14.85103
   X63      -12.89419   0.00092   0.00000   0.00175   0.00479 -12.88940
   Y63        1.48104  -0.00229   0.00000   0.02368   0.02780   1.50884
   Z63       14.75645   0.00009   0.00000  -0.01436  -0.01366  14.74279
   X64      -14.80547   0.00232   0.00000  -0.00621  -0.00561 -14.81108
   Y64       -2.21766  -0.00031   0.00000   0.00417   0.00784  -2.20981
   Z64       19.16771  -0.00073   0.00000   0.01489   0.01415  19.18186
   X65       -2.97584  -0.00217   0.00000   0.00995   0.00991  -2.96592
   Y65       -3.49483  -0.00029   0.00000  -0.00029  -0.00247  -3.49729
   Z65       19.16068  -0.00046   0.00000   0.01166   0.01216  19.17284
   X66       -6.36916  -0.02797   0.00000  -0.05060  -0.04942  -6.41858
   Y66       -2.16005  -0.00507   0.00000  -0.00432  -0.00353  -2.16357
   Z66       15.12457   0.01853   0.00000   0.03326   0.03369  15.15826
   X67      -11.39827   0.02856   0.00000   0.05085   0.05127 -11.34700
   Y67       -3.68992   0.00583   0.00000   0.01782   0.02103  -3.66889
   Z67       15.18323   0.01807   0.00000   0.03280   0.03209  15.21532
   X68       -9.68186   0.01174   0.00000   0.02559   0.02713  -9.65473
   Y68       -0.37373  -0.02717   0.00000  -0.04309  -0.04183  -0.41556
   Z68       18.80301  -0.01850   0.00000  -0.03000  -0.02946  18.77355
   X69       -8.01939  -0.01195   0.00000  -0.02500  -0.02588  -8.04526
   Y69       -5.34982   0.02546   0.00000   0.04498   0.04543  -5.30440
   Z69       18.85415  -0.01857   0.00000  -0.02964  -0.03042  18.82373
   X70       -6.08491   0.00017   0.00000  -0.00351  -0.00638  -6.09129
   Y70      -11.60029  -0.00045   0.00000  -0.00526  -0.00321 -11.60350
   Z70       10.67348  -0.00039   0.00000  -0.01024  -0.01273  10.66075
   X71       -0.22096   0.00043   0.00000   0.01520   0.01636  -0.20460
   Y71        0.10409   0.00005   0.00000  -0.00363  -0.00849   0.09561
   Z71       23.35314   0.00020   0.00000   0.00668   0.00869  23.36183
   X72      -17.55471  -0.00050   0.00000  -0.01129  -0.01289 -17.56760
   Y72       -5.46461   0.00009   0.00000   0.00689   0.01056  -5.45405
   Z72       23.49725   0.00026   0.00000   0.00980   0.00766  23.50491
   X73       -8.87317  -0.00034   0.00000  -0.00019   0.00038  -8.87280
   Y73       -2.88497   0.00020   0.00000   0.00350   0.00493  -2.88004
   Z73       16.98458   0.00080   0.00000   0.00299   0.00287  16.98744
         Item               Value     Threshold  Converged?
 Maximum Force            0.028556     0.000450     NO 
 RMS     Force            0.006453     0.000300     NO 
 Maximum Displacement     0.100117     0.001800     NO 
 RMS     Displacement     0.020078     0.001200     NO 
 Predicted change in Energy=-6.344593D-03
 GradGradGradGradGradGradGradGradGradGradGradGradGradGradGradGradGradGrad

 Unable to Open any file for archive entry.
 1\1\GINC-X11P1N2\Force\RwB97XD\def2SVP\C8H8Cl1K3O40V1W12(1-)\MAYUMIAO\
 02-Jun-2024\0\\# def2svp wb97xd scrf=(smd,solvent=acetonitrile) g09def
 ault scf=(xqc,maxcycle=64) force guess=read nosymm\\Title Card\\-1,1\C
 l,-9.88426785,8.14997326,10.5353308\C,-8.3215786,4.23469454,12.2262785
 \C,-9.09943861,3.91672943,11.09834007\C,-10.02294882,2.86029729,11.205
 03054\C,-10.19816329,2.17935945,12.4056139\C,-9.44283571,2.53106406,13
 .52532887\C,-8.49264076,3.54990751,13.42530181\H,-7.57076561,5.0250680
 1,12.16373666\H,-10.60638122,2.57439115,10.32514496\H,-10.91878377,1.3
 6019436,12.46749874\H,-9.57787471,1.99746433,14.46867505\H,-7.87682193
 ,3.80984851,14.2900426\C,-8.99048139,4.64185453,9.83114316\C,-8.226204
 13,5.7241855,9.5830129\H,-9.61648133,4.25372314,9.02015921\H,-8.187146
 02,6.14809218,8.57766621\H,-7.55543079,6.16432409,10.32355388\O,-0.992
 80197,-1.77506151,7.46172241\O,-8.41043616,-1.33271525,7.46111728\O,-7
 .04144066,1.3471894,10.47921416\O,-2.33183832,-4.37024736,10.55528503\
 W,-3.4140671,0.7088965,6.48022253\W,-6.00326322,-3.82158618,6.57135144
 \W,-3.62589933,0.89736789,11.41894062\W,-5.76982007,-3.85974706,11.473
 21796\W,-2.45138638,-2.57037596,6.39410715\W,-6.94514898,-0.53671904,6
 .36482819\W,-6.82597901,-0.24753958,11.57089062\W,-2.55914783,-2.70935
 304,11.61280142\O,-3.17471387,1.90124306,5.30944455\O,-6.14402917,-5.0
 702263,5.42795844\O,-2.71441295,1.7490574,12.57293159\O,-6.67383808,-4
 .6737287,12.65844231\O,-2.6737443,-0.89150561,5.58208397\O,-6.71483438
 ,-2.26977183,5.6239025\O,-5.32090764,0.56169167,12.36401543\O,-4.05692
 553,-3.51929311,12.40567243\O,0.29753882,0.00167852,9.27440349\O,-9.71
 182039,-3.0307272,9.32214662\O,-6.3682034,3.42243498,8.66886105\O,-2.9
 860532,-6.47017861,8.76100495\O,-1.79511844,0.76902213,7.47537979\O,-7
 .60941955,-3.8822927,7.55030284\O,-4.51505399,2.21536882,10.43290876\O
 ,-4.87030869,-5.21957346,10.52297658\O,-1.61620825,-3.50747344,5.24697
 755\O,-7.83747776,0.26223985,5.17441727\O,-8.04559105,-0.15596725,12.7
 4834435\O,-1.3229778,-2.84306565,12.77097134\W,-1.26125724,-0.51725762
 ,8.83728253\W,-8.15116336,-2.52585744,8.87439132\W,-5.89308797,1.85193
 918,9.04887645\W,-3.48211531,-4.89648239,9.1690344\O,-4.22578977,-3.09
 884618,6.06725591\O,-5.16693171,-0.0462112,6.00759652\O,-6.17688413,-1
 .99492552,11.91396045\O,-3.17529917,-0.96406335,11.93589231\O,-4.36891
 698,1.57890727,7.84204142\O,-5.00626523,-4.67467848,7.92212734\O,-2.33
 714887,0.58983848,10.08242665\O,-7.06065397,-3.61091548,10.13584358\O,
 -2.57574912,-3.88450343,7.86547445\O,-6.823311,0.78373006,7.80877766\O
 ,-7.83471475,-1.17353402,10.14311664\O,-1.57474458,-1.84938293,10.1393
 9453\O,-3.37041419,-1.14304888,8.00357553\O,-6.03170467,-1.95262061,8.
 03462151\O,-5.12341756,-0.1977712,9.95012494\O,-4.24367691,-2.83100469
 ,9.9771854\K,-3.21999829,-6.13860897,5.64816495\K,-0.11692794,0.055083
 44,12.35795166\K,-9.28955097,-2.8917486,12.43420836\V,-4.69548125,-1.5
 2665916,8.98785101\\Version=ES64L-G16RevC.01\HF=-7327.7009635\RMSD=3.6
 25e-09\RMSF=6.453e-03\Dipole=10.5384136,-22.1053886,2.5370128\Quadrupo
 le=-83.0903476,50.5829151,32.5074324,342.4074132,344.0976694,-358.6894
 009\PG=C01 [X(C8H8Cl1K3O40V1W12)]\\@
 The archive entry for this job was punched.


 WE ARE REACHING THE STAGE WHERE THE PROBLEMS WE MUST SOLVE ARE 
 GOING TO BECOME INSOLUBLE WITHOUT COMPUTERS.
 I DO NOT FEAR COMPUTERS.  I FEAR THE LACK OF THEM.

                                   -- ISSAC ASIMOV
 Job cpu time:       0 days  9 hours 38 minutes 27.8 seconds.
 Elapsed time:       0 days  0 hours 10 minutes 57.8 seconds.
 File lengths (MBytes):  RWF=   1253 Int=      0 D2E=      0 Chk=    249 Scr=      1
 Normal termination of Gaussian 16 at Sun Jun  2 06:52:21 2024.
