 Entering Gaussian System, Link 0=g16
 Input=JOBS/33_A.gjf
 Output=JOBS/33_A.log
 Initial command:
 /data/app/gaussian/C01-avx2//g16/l1.exe "/tmp/Gau-640906.inp" -scrdir="/tmp/"
 Entering Link 1 = /data/app/gaussian/C01-avx2//g16/l1.exe PID=    640907.
  
 Copyright (c) 1988-2019, Gaussian, Inc.  All Rights Reserved.
  
 This is part of the Gaussian(R) 16 program.  It is based on
 the Gaussian(R) 09 system (copyright 2009, Gaussian, Inc.),
 the Gaussian(R) 03 system (copyright 2003, Gaussian, Inc.),
 the Gaussian(R) 98 system (copyright 1998, Gaussian, Inc.),
 the Gaussian(R) 94 system (copyright 1995, Gaussian, Inc.),
 the Gaussian 92(TM) system (copyright 1992, Gaussian, Inc.),
 the Gaussian 90(TM) system (copyright 1990, Gaussian, Inc.),
 the Gaussian 88(TM) system (copyright 1988, Gaussian, Inc.),
 the Gaussian 86(TM) system (copyright 1986, Carnegie Mellon
 University), and the Gaussian 82(TM) system (copyright 1983,
 Carnegie Mellon University). Gaussian is a federally registered
 trademark of Gaussian, Inc.
  
 This software contains proprietary and confidential information,
 including trade secrets, belonging to Gaussian, Inc.
  
 This software is provided under written license and may be
 used, copied, transmitted, or stored only in accord with that
 written license.
  
 The following legend is applicable only to US Government
 contracts under FAR:
  
                    RESTRICTED RIGHTS LEGEND
  
 Use, reproduction and disclosure by the US Government is
 subject to restrictions as set forth in subparagraphs (a)
 and (c) of the Commercial Computer Software - Restricted
 Rights clause in FAR 52.227-19.
  
 Gaussian, Inc.
 340 Quinnipiac St., Bldg. 40, Wallingford CT 06492
  
  
 ---------------------------------------------------------------
 Warning -- This program may not be used in any manner that
 competes with the business of Gaussian, Inc. or will provide
 assistance to any competitor of Gaussian, Inc.  The licensee
 of this program is prohibited from giving any competitor of
 Gaussian, Inc. access to this program.  By using this program,
 the user acknowledges that Gaussian, Inc. is engaged in the
 business of creating and licensing software in the field of
 computational chemistry and represents and warrants to the
 licensee that it is not a competitor of Gaussian, Inc. and that
 it will not use this program in any manner prohibited above.
 ---------------------------------------------------------------
  

 Cite this work as:
 Gaussian 16, Revision C.01,
 M. J. Frisch, G. W. Trucks, H. B. Schlegel, G. E. Scuseria, 
 M. A. Robb, J. R. Cheeseman, G. Scalmani, V. Barone, 
 G. A. Petersson, H. Nakatsuji, X. Li, M. Caricato, A. V. Marenich, 
 J. Bloino, B. G. Janesko, R. Gomperts, B. Mennucci, H. P. Hratchian, 
 J. V. Ortiz, A. F. Izmaylov, J. L. Sonnenberg, D. Williams-Young, 
 F. Ding, F. Lipparini, F. Egidi, J. Goings, B. Peng, A. Petrone, 
 T. Henderson, D. Ranasinghe, V. G. Zakrzewski, J. Gao, N. Rega, 
 G. Zheng, W. Liang, M. Hada, M. Ehara, K. Toyota, R. Fukuda, 
 J. Hasegawa, M. Ishida, T. Nakajima, Y. Honda, O. Kitao, H. Nakai, 
 T. Vreven, K. Throssell, J. A. Montgomery, Jr., J. E. Peralta, 
 F. Ogliaro, M. J. Bearpark, J. J. Heyd, E. N. Brothers, K. N. Kudin, 
 V. N. Staroverov, T. A. Keith, R. Kobayashi, J. Normand, 
 K. Raghavachari, A. P. Rendell, J. C. Burant, S. S. Iyengar, 
 J. Tomasi, M. Cossi, J. M. Millam, M. Klene, C. Adamo, R. Cammi, 
 J. W. Ochterski, R. L. Martin, K. Morokuma, O. Farkas, 
 J. B. Foresman, and D. J. Fox, Gaussian, Inc., Wallingford CT, 2019.
 
 ******************************************
 Gaussian 16:  ES64L-G16RevC.01  3-Jul-2019
                 2-Jun-2024 
 ******************************************
 %chk=a.chk
 %nprocshared=56
 Will use up to   56 processors via shared memory.
 %mem=96gb
 ----------------------------------------------------------------------
 # def2svp wb97xd scrf=(smd,solvent=acetonitrile) g09default scf=(xqc,m
 axcycle=64) force guess=read nosymm
 ----------------------------------------------------------------------
 1/10=7,30=1,38=1,158=3,167=1/1,3;
 2/12=2,15=1,17=6,18=5,40=1/2;
 3/5=43,7=101,11=2,25=1,27=10,30=1,70=32201,71=1,72=2,74=-58,75=-4,116=-2,158=3/1,2,3;
 4/5=1,60=-1/1;
 5/5=2,7=64,8=3,13=1,38=6,53=2,87=10/2,8;
 6/7=2,8=2,9=2,10=2,28=1,87=10/1;
 7/29=1,30=1,87=10/1,2,3,16;
 1/10=7,30=1,158=3,167=1/3;
 99//99;
 Using 2006 physical constants.
 ----------
 Title Card
 ----------
 Symbolic Z-matrix:
 Charge = -1 Multiplicity = 1
 17                   -9.86602   8.17323   10.54093 
 6                    -8.32314   4.23448   12.22528 
 6                    -9.10338   3.9174    11.09871 
 6                    -10.02499   2.85931   11.20607 
 6                    -10.19931   2.17905   12.4071 
 6                    -9.44454   2.53252   13.52662 
 6                    -8.49338   3.55025   13.42485 
 1                    -7.57078   5.02327   12.16117 
 1                    -10.60815   2.57165   10.32645 
 1                    -10.9181   1.35818   12.46927 
 1                    -9.57944   1.99987   14.47065 
 1                    -7.87512   3.80903   14.28818 
 6                    -8.99878   4.64504   9.83235 
 6                    -8.24343   5.73419   9.58531 
 1                    -9.62035   4.25223   9.02019 
 1                    -8.20508   6.15578   8.57878 
 1                    -7.57813   6.18163   10.32613 
 8                    -0.99073  -1.77733   7.46261 
 8                    -8.40951  -1.33323   7.46111 
 8                    -7.0397    1.34722   10.47789 
 8                    -2.33214  -4.37274   10.55454 
 74                   -3.41323   0.70547   6.47879 
 74                   -6.00183  -3.82071   6.56975 
 74                   -3.62474   0.89412   11.41983 
 74                   -5.76871  -3.85909   11.47375 
 74                   -2.44854  -2.57367   6.39534 
 74                   -6.94551  -0.53605   6.36626 
 74                   -6.82601  -0.24737   11.56882 
 74                   -2.55667  -2.71169   11.61099 
 8                    -3.17349   1.89669   5.30714 
 8                    -6.1421   -5.06973   5.42673 
 8                    -2.71223   1.74535   12.57394 
 8                    -6.67386  -4.67163   12.65921 
 8                    -2.67118  -0.89491   5.58212 
 8                    -6.71383  -2.26929   5.62361 
 8                    -5.3204    0.56049   12.36351 
 8                    -4.05576  -3.51992   12.40487 
 8                     0.29831   0.00111   9.27602 
 8                    -9.71032  -3.03214   9.32286 
 8                    -6.36539   3.42379   8.67041 
 8                    -2.98853  -6.47296   8.76024 
 8                    -1.79379   0.76717   7.47524 
 8                    -7.60819  -3.88286   7.54956 
 8                    -4.51244   2.2137    10.43276 
 8                    -4.87143  -5.22052   10.52272 
 8                    -1.61408  -3.5131    5.2492 
 8                    -7.83694   0.26371   5.17608 
 8                    -8.04691  -0.1568    12.74569 
 8                    -1.31996  -2.84509   12.76876 
 74                   -1.26003  -0.51766   8.83701 
 74                   -8.15     -2.52794   8.87432 
 74                   -5.88915   1.85253   9.04883 
 74                   -3.48381  -4.89889   9.16858 
 8                    -4.22378  -3.1002    6.06717 
 8                    -5.16574  -0.04794   6.00796 
 8                    -6.17626  -1.99465   11.91274 
 8                    -3.1737   -0.96614   11.93565 
 8                    -4.36706   1.57871   7.84033 
 8                    -5.00598  -4.67492   7.9216 
 8                    -2.33609   0.5878    10.08257 
 8                    -7.05947  -3.61103   10.13529 
 8                    -2.5749   -3.88725   7.86574 
 8                    -6.82118   0.78445   7.80853 
 8                    -7.83364  -1.17382   10.14177 
 8                    -1.57383  -1.85113   10.13871 
 8                    -3.36858  -1.14484   8.00289 
 8                    -6.03115  -1.95315   8.03424 
 8                    -5.12221  -0.19828   9.9495 
 8                    -4.24259  -2.8324    9.97663 
 19                   -3.21863  -6.13914   5.64711 
 19                   -0.11439   0.05598   12.35732 
 19                   -9.29043  -2.88603   12.4355 
 23                   -4.69423  -1.52757   8.98748 
 

 GradGradGradGradGradGradGradGradGradGradGradGradGradGradGradGradGradGrad
 Berny optimization.
 Initialization pass.
 Trust Radius=3.00D-01 FncErr=1.00D-07 GrdErr=1.00D-07 EigMax=2.50D+02 EigMin=1.00D-04
 Number of steps in this run=      2 maximum allowed number of steps=      2.
 GradGradGradGradGradGradGradGradGradGradGradGradGradGradGradGradGradGrad

 Symmetry turned off by external request.
 Stoichiometry    C8H8ClK3O40VW12(1-)
 Framework group  C1[X(C8H8ClK3O40VW12)]
 Deg. of freedom   213
 Full point group                 C1      NOp   1
                          Input orientation:                          
 ---------------------------------------------------------------------
 Center     Atomic      Atomic             Coordinates (Angstroms)
 Number     Number       Type             X           Y           Z
 ---------------------------------------------------------------------
      1         17           0       -9.866017    8.173230   10.540928
      2          6           0       -8.323140    4.234484   12.225283
      3          6           0       -9.103383    3.917404   11.098712
      4          6           0      -10.024986    2.859308   11.206073
      5          6           0      -10.199312    2.179051   12.407097
      6          6           0       -9.444541    2.532518   13.526620
      7          6           0       -8.493379    3.550250   13.424852
      8          1           0       -7.570779    5.023267   12.161170
      9          1           0      -10.608146    2.571653   10.326448
     10          1           0      -10.918103    1.358182   12.469269
     11          1           0       -9.579439    1.999874   14.470653
     12          1           0       -7.875119    3.809034   14.288178
     13          6           0       -8.998784    4.645041    9.832351
     14          6           0       -8.243433    5.734185    9.585312
     15          1           0       -9.620351    4.252226    9.020195
     16          1           0       -8.205076    6.155782    8.578775
     17          1           0       -7.578133    6.181632   10.326134
     18          8           0       -0.990729   -1.777334    7.462611
     19          8           0       -8.409507   -1.333232    7.461111
     20          8           0       -7.039700    1.347217   10.477887
     21          8           0       -2.332136   -4.372740   10.554537
     22         74           0       -3.413229    0.705465    6.478791
     23         74           0       -6.001833   -3.820711    6.569749
     24         74           0       -3.624740    0.894119   11.419832
     25         74           0       -5.768709   -3.859087   11.473746
     26         74           0       -2.448542   -2.573666    6.395339
     27         74           0       -6.945510   -0.536048    6.366265
     28         74           0       -6.826012   -0.247373   11.568819
     29         74           0       -2.556671   -2.711689   11.610991
     30          8           0       -3.173490    1.896692    5.307143
     31          8           0       -6.142101   -5.069727    5.426729
     32          8           0       -2.712235    1.745349   12.573942
     33          8           0       -6.673862   -4.671633   12.659205
     34          8           0       -2.671179   -0.894906    5.582122
     35          8           0       -6.713827   -2.269293    5.623614
     36          8           0       -5.320400    0.560491   12.363505
     37          8           0       -4.055755   -3.519919   12.404869
     38          8           0        0.298310    0.001107    9.276018
     39          8           0       -9.710319   -3.032135    9.322862
     40          8           0       -6.365386    3.423787    8.670408
     41          8           0       -2.988534   -6.472959    8.760240
     42          8           0       -1.793795    0.767171    7.475237
     43          8           0       -7.608185   -3.882858    7.549561
     44          8           0       -4.512443    2.213702   10.432765
     45          8           0       -4.871431   -5.220522   10.522719
     46          8           0       -1.614077   -3.513099    5.249204
     47          8           0       -7.836937    0.263711    5.176075
     48          8           0       -8.046914   -0.156803   12.745685
     49          8           0       -1.319961   -2.845089   12.768757
     50         74           0       -1.260026   -0.517662    8.837010
     51         74           0       -8.149997   -2.527942    8.874323
     52         74           0       -5.889150    1.852531    9.048834
     53         74           0       -3.483813   -4.898886    9.168584
     54          8           0       -4.223784   -3.100203    6.067173
     55          8           0       -5.165739   -0.047944    6.007961
     56          8           0       -6.176259   -1.994647   11.912743
     57          8           0       -3.173698   -0.966143   11.935654
     58          8           0       -4.367058    1.578715    7.840335
     59          8           0       -5.005981   -4.674922    7.921598
     60          8           0       -2.336091    0.587802   10.082568
     61          8           0       -7.059473   -3.611034   10.135295
     62          8           0       -2.574905   -3.887255    7.865738
     63          8           0       -6.821179    0.784451    7.808532
     64          8           0       -7.833637   -1.173815   10.141775
     65          8           0       -1.573827   -1.851127   10.138710
     66          8           0       -3.368582   -1.144842    8.002887
     67          8           0       -6.031151   -1.953153    8.034237
     68          8           0       -5.122207   -0.198276    9.949499
     69          8           0       -4.242588   -2.832403    9.976633
     70         19           0       -3.218625   -6.139143    5.647107
     71         19           0       -0.114390    0.055982   12.357315
     72         19           0       -9.290428   -2.886028   12.435500
     73         23           0       -4.694230   -1.527573    8.987478
 ---------------------------------------------------------------------
 Rotational constants (GHZ):           0.0172007           0.0132495           0.0130230
 Standard basis: def2SVP (5D, 7F)
  1217 basis functions,  2313 primitive gaussians,  1337 cartesian basis functions
   321 alpha electrons      321 beta electrons
       nuclear repulsion energy     20979.3501329125 Hartrees.
 NAtoms=   73 NActive=   73 NUniq=   73 SFac= 1.00D+00 NAtFMM=   60 NAOKFM=T Big=T
 Integral buffers will be    131072 words long.
 Raffenetti 2 integral format.
 Two-electron integral symmetry is turned off.
 Nuclear repulsion after empirical dispersion term =    20979.0729822345 Hartrees.
 Force PCM accuracy= 1.00D-10.
 ------------------------------------------------------------------------------
 Polarizable Continuum Model (PCM)
 =================================
 Model                : PCM (using non-symmetric T matrix).
 Atomic radii         : SMD-Coulomb.
 Polarization charges : Total charges.
 Charge compensation  : None.
 Solution method      : On-the-fly selection.
 Cavity type          : VdW (van der Waals Surface) (Alpha=1.000).
 Cavity algorithm     : GePol (No added spheres)
                        Default sphere list used, NSphG=   73.
                        Lebedev-Laikov grids with approx.  5.0 points / Ang**2.
                        Smoothing algorithm: York/Karplus (Gamma=1.0000).
                        Polarization charges: spherical gaussians, with
                                              point-specific exponents (IZeta= 3).
                        Self-potential: point-specific (ISelfS= 7).
                        Self-field    : sphere-specific E.n sum rule (ISelfD= 2).
 1st derivatives      : Analytical E(r).r(x)/FMM algorithm (CHGder, D1EAlg=3).
                        Cavity 1st derivative terms included.
 Solvent              : Acetonitrile, Eps=  35.688000 Eps(inf)=   1.806874
 ------------------------------------------------------------------------------
 ------------------------------------------------------------------------------
 Atomic radii for non-electrostatic terms: SMD-CDS.
 ------------------------------------------------------------------------------
 Nuclear repulsion after PCM non-electrostatic terms =    20979.0671902722 Hartrees.
 One-electron integrals computed using PRISM.
   1 Symmetry operations used in ECPInt.
 ECPInt:  NShTT=  127765 NPrTT=  468030 LenC2=   96666 LenP2D=  221157.
 LDataN:  DoStor=T MaxTD1= 8 Len=  415
 NBasis=  1217 RedAO= T EigKep=  1.37D-04  NBF=  1217
 NBsUse=  1217 1.00D-06 EigRej= -1.00D+00 NBFU=  1217
 Defaulting to unpruned grid for atomic number  74.
 Defaulting to unpruned grid for atomic number  74.
 Defaulting to unpruned grid for atomic number  74.
 Defaulting to unpruned grid for atomic number  74.
 Defaulting to unpruned grid for atomic number  74.
 Defaulting to unpruned grid for atomic number  74.
 Defaulting to unpruned grid for atomic number  74.
 Defaulting to unpruned grid for atomic number  74.
 Initial guess from the checkpoint file:  "a.chk"
 B after Tr=     0.003142   -0.004943   -0.000314
         Rot=    1.000000   -0.000008   -0.000001    0.000218 Ang=  -0.03 deg.
 Requested convergence on RMS density matrix=1.00D-08 within  64 cycles.
 Requested convergence on MAX density matrix=1.00D-06.
 Requested convergence on             energy=1.00D-06.
 No special actions if energy rises.
 Defaulting to unpruned grid for atomic number  74.
 Defaulting to unpruned grid for atomic number  74.
 Defaulting to unpruned grid for atomic number  74.
 Defaulting to unpruned grid for atomic number  74.
 Defaulting to unpruned grid for atomic number  74.
 Defaulting to unpruned grid for atomic number  74.
 Defaulting to unpruned grid for atomic number  74.
 Defaulting to unpruned grid for atomic number  74.
 Defaulting to unpruned grid for atomic number  74.
 Defaulting to unpruned grid for atomic number  74.
 Defaulting to unpruned grid for atomic number  74.
 Defaulting to unpruned grid for atomic number  74.
 Defaulting to unpruned grid for atomic number  74.
 Defaulting to unpruned grid for atomic number  74.
 Defaulting to unpruned grid for atomic number  74.
 Defaulting to unpruned grid for atomic number  74.
 Defaulting to unpruned grid for atomic number  74.
 Defaulting to unpruned grid for atomic number  74.
 Defaulting to unpruned grid for atomic number  74.
 Defaulting to unpruned grid for atomic number  74.
 Defaulting to unpruned grid for atomic number  74.
 Defaulting to unpruned grid for atomic number  74.
 Defaulting to unpruned grid for atomic number  74.
 Defaulting to unpruned grid for atomic number  74.
 Defaulting to unpruned grid for atomic number  74.
 Defaulting to unpruned grid for atomic number  74.
 Defaulting to unpruned grid for atomic number  74.
 Defaulting to unpruned grid for atomic number  74.
 Defaulting to unpruned grid for atomic number  74.
 Defaulting to unpruned grid for atomic number  74.
 Defaulting to unpruned grid for atomic number  74.
 Defaulting to unpruned grid for atomic number  74.
 Defaulting to unpruned grid for atomic number  74.
 Defaulting to unpruned grid for atomic number  74.
 Defaulting to unpruned grid for atomic number  74.
 Defaulting to unpruned grid for atomic number  74.
 Defaulting to unpruned grid for atomic number  74.
 Defaulting to unpruned grid for atomic number  74.
 Defaulting to unpruned grid for atomic number  74.
 Defaulting to unpruned grid for atomic number  74.
 Defaulting to unpruned grid for atomic number  74.
 Defaulting to unpruned grid for atomic number  74.
 Defaulting to unpruned grid for atomic number  74.
 Defaulting to unpruned grid for atomic number  74.
 Defaulting to unpruned grid for atomic number  74.
 Defaulting to unpruned grid for atomic number  74.
 Defaulting to unpruned grid for atomic number  74.
 Defaulting to unpruned grid for atomic number  74.
 Defaulting to unpruned grid for atomic number  74.
 Defaulting to unpruned grid for atomic number  74.
 Defaulting to unpruned grid for atomic number  74.
 Defaulting to unpruned grid for atomic number  74.
 Defaulting to unpruned grid for atomic number  74.
 Defaulting to unpruned grid for atomic number  74.
 Defaulting to unpruned grid for atomic number  74.
 Defaulting to unpruned grid for atomic number  74.
 Inv3:  Mode=1 IEnd=    86768652.
 Iteration    1 A*A^-1 deviation from unit magnitude is 3.77D-15 for   4719.
 Iteration    1 A*A^-1 deviation from orthogonality  is 2.32D-15 for    422    270.
 Iteration    1 A^-1*A deviation from unit magnitude is 4.00D-15 for   3451.
 Iteration    1 A^-1*A deviation from orthogonality  is 9.98D-11 for   1057   1034.
 Error on total polarization charges =  0.01597
 SCF Done:  E(RwB97XD) =  -7327.70105912     A.U. after   13 cycles
            NFock= 13  Conv=0.24D-08     -V/T= 2.0832
 SMD-CDS (non-electrostatic) energy       (kcal/mol) =      -3.63
 (included in total energy above)
 QCSCF skips out because SCF is already converged.

 **********************************************************************

            Population analysis using the SCF Density.

 **********************************************************************

 Alpha  occ. eigenvalues -- -197.29704-130.00186-130.00164-130.00088-101.47820
 Alpha  occ. eigenvalues --  -22.62802 -19.33752 -19.33737 -19.33724 -19.33704
 Alpha  occ. eigenvalues --  -19.30710 -19.30669 -19.30664 -19.30653 -19.30652
 Alpha  occ. eigenvalues --  -19.30641 -19.30638 -19.30597 -19.30512 -19.30350
 Alpha  occ. eigenvalues --  -19.30307 -19.30102 -19.29309 -19.29308 -19.29274
 Alpha  occ. eigenvalues --  -19.29271 -19.29265 -19.29264 -19.29234 -19.29183
 Alpha  occ. eigenvalues --  -19.29180 -19.29158 -19.29131 -19.29131 -19.29120
 Alpha  occ. eigenvalues --  -19.29114 -19.29083 -19.29082 -19.29080 -19.29054
 Alpha  occ. eigenvalues --  -19.29049 -19.28965 -19.28959 -19.28931 -19.28917
 Alpha  occ. eigenvalues --  -19.28811 -19.11762 -19.11754 -19.11745 -13.37593
 Alpha  occ. eigenvalues --  -13.37569 -13.37484 -10.70522 -10.70515 -10.70514
 Alpha  occ. eigenvalues --  -10.70498 -10.70491 -10.70491 -10.70415 -10.70408
 Alpha  occ. eigenvalues --  -10.70404 -10.29886 -10.29369 -10.29319 -10.29128
 Alpha  occ. eigenvalues --  -10.29051 -10.29018 -10.28259 -10.27805  -9.38274
 Alpha  occ. eigenvalues --   -7.13098  -7.13056  -7.13053  -3.23288  -3.23284
 Alpha  occ. eigenvalues --   -3.23271  -3.23268  -3.23266  -3.23257  -3.23223
 Alpha  occ. eigenvalues --   -3.23209  -3.23165  -3.22950  -3.22944  -3.22718
 Alpha  occ. eigenvalues --   -2.91979  -1.94337  -1.94309  -1.94301  -1.87701
 Alpha  occ. eigenvalues --   -1.87646  -1.87628  -1.87579  -1.87463  -1.87458
 Alpha  occ. eigenvalues --   -1.87442  -1.87419  -1.87378  -1.87259  -1.87221
 Alpha  occ. eigenvalues --   -1.87041  -1.86602  -1.86483  -1.86476  -1.86453
 Alpha  occ. eigenvalues --   -1.86432  -1.86399  -1.86319  -1.86307  -1.86286
 Alpha  occ. eigenvalues --   -1.86267  -1.86251  -1.86219  -1.86120  -1.86104
 Alpha  occ. eigenvalues --   -1.86100  -1.86076  -1.86025  -1.85982  -1.85959
 Alpha  occ. eigenvalues --   -1.85900  -1.85873  -1.85777  -1.85660  -1.85611
 Alpha  occ. eigenvalues --   -1.51272  -1.51252  -1.51170  -1.13115  -1.11358
 Alpha  occ. eigenvalues --   -1.11275  -1.11257  -1.08971  -1.08523  -1.08478
 Alpha  occ. eigenvalues --   -1.08270  -1.07569  -1.07515  -1.07500  -1.06891
 Alpha  occ. eigenvalues --   -1.06855  -1.06842  -1.06306  -1.06280  -1.05292
 Alpha  occ. eigenvalues --   -1.05282  -1.04966  -1.04953  -1.04940  -1.04167
 Alpha  occ. eigenvalues --   -1.04164  -1.04146  -1.04001  -1.03978  -1.03962
 Alpha  occ. eigenvalues --   -1.03923  -1.03877  -1.03857  -1.03735  -1.03693
 Alpha  occ. eigenvalues --   -1.03592  -1.03539  -1.03281  -1.03232  -1.03087
 Alpha  occ. eigenvalues --   -1.03073  -1.03016  -1.02928  -0.94429  -0.86731
 Alpha  occ. eigenvalues --   -0.86714  -0.86636  -0.86593  -0.86545  -0.86533
 Alpha  occ. eigenvalues --   -0.86524  -0.86523  -0.86450  -0.86424  -0.82851
 Alpha  occ. eigenvalues --   -0.79865  -0.70965  -0.69809  -0.68090  -0.64576
 Alpha  occ. eigenvalues --   -0.63931  -0.63896  -0.63888  -0.63362  -0.63330
 Alpha  occ. eigenvalues --   -0.63219  -0.63075  -0.62713  -0.62626  -0.62043
 Alpha  occ. eigenvalues --   -0.61621  -0.61606  -0.61515  -0.61212  -0.61192
 Alpha  occ. eigenvalues --   -0.61155  -0.60398  -0.59476  -0.59442  -0.59430
 Alpha  occ. eigenvalues --   -0.59413  -0.59375  -0.58703  -0.57976  -0.57952
 Alpha  occ. eigenvalues --   -0.57877  -0.57104  -0.57069  -0.57034  -0.56292
 Alpha  occ. eigenvalues --   -0.56249  -0.56081  -0.55681  -0.54841  -0.54773
 Alpha  occ. eigenvalues --   -0.54737  -0.54600  -0.54221  -0.54103  -0.54067
 Alpha  occ. eigenvalues --   -0.54015  -0.53948  -0.53206  -0.53169  -0.53042
 Alpha  occ. eigenvalues --   -0.52983  -0.52868  -0.52690  -0.52629  -0.52610
 Alpha  occ. eigenvalues --   -0.52568  -0.52535  -0.52465  -0.52444  -0.51569
 Alpha  occ. eigenvalues --   -0.51545  -0.51361  -0.51322  -0.51293  -0.51237
 Alpha  occ. eigenvalues --   -0.51170  -0.51153  -0.51024  -0.50716  -0.50536
 Alpha  occ. eigenvalues --   -0.50532  -0.50497  -0.49874  -0.49856  -0.49317
 Alpha  occ. eigenvalues --   -0.49265  -0.49239  -0.49183  -0.49141  -0.49041
 Alpha  occ. eigenvalues --   -0.48893  -0.48074  -0.48021  -0.47920  -0.47742
 Alpha  occ. eigenvalues --   -0.47350  -0.47278  -0.47225  -0.47007  -0.46939
 Alpha  occ. eigenvalues --   -0.46820  -0.46548  -0.46475  -0.46449  -0.46221
 Alpha  occ. eigenvalues --   -0.46158  -0.46105  -0.45642  -0.45076  -0.44897
 Alpha  occ. eigenvalues --   -0.44866  -0.44175  -0.44150  -0.44034  -0.43623
 Alpha  occ. eigenvalues --   -0.43279  -0.43225  -0.43102  -0.43081  -0.43042
 Alpha  occ. eigenvalues --   -0.42697  -0.42669  -0.42648  -0.42585  -0.42581
 Alpha  occ. eigenvalues --   -0.42494  -0.42449  -0.42433  -0.42270  -0.42254
 Alpha  occ. eigenvalues --   -0.42228  -0.42004  -0.41891  -0.41837  -0.41820
 Alpha  occ. eigenvalues --   -0.41248  -0.41155  -0.41130  -0.41013  -0.40529
 Alpha  occ. eigenvalues --   -0.40508  -0.40504  -0.40430  -0.39432  -0.39411
 Alpha  occ. eigenvalues --   -0.36972  -0.32567  -0.28929  -0.24670  -0.24649
 Alpha  occ. eigenvalues --   -0.23491
 Alpha virt. eigenvalues --   -0.09658  -0.09448  -0.08446  -0.08396  -0.07001
 Alpha virt. eigenvalues --   -0.06963  -0.06839  -0.04636  -0.04307  -0.04279
 Alpha virt. eigenvalues --   -0.03710  -0.03539  -0.03457  -0.03231  -0.03138
 Alpha virt. eigenvalues --   -0.03082  -0.03049  -0.02193  -0.02152  -0.02119
 Alpha virt. eigenvalues --   -0.01503  -0.01474  -0.01419  -0.01282  -0.01221
 Alpha virt. eigenvalues --   -0.00067  -0.00059   0.00008   0.01435   0.01460
 Alpha virt. eigenvalues --    0.01913   0.01946   0.02032   0.02159   0.02182
 Alpha virt. eigenvalues --    0.02192   0.02242   0.02322   0.02771   0.02847
 Alpha virt. eigenvalues --    0.02920   0.02976   0.03014   0.04177   0.04558
 Alpha virt. eigenvalues --    0.06747   0.07260   0.07532   0.07586   0.07793
 Alpha virt. eigenvalues --    0.08024   0.08434   0.08488   0.08772   0.09156
 Alpha virt. eigenvalues --    0.09339   0.09384   0.09662   0.09887   0.10300
 Alpha virt. eigenvalues --    0.10325   0.10392   0.10448   0.10476   0.10638
 Alpha virt. eigenvalues --    0.10873   0.11056   0.11070   0.11665   0.11744
 Alpha virt. eigenvalues --    0.12246   0.13088   0.13219   0.13318   0.13568
 Alpha virt. eigenvalues --    0.13736   0.14344   0.14536   0.14645   0.14973
 Alpha virt. eigenvalues --    0.15532   0.16137   0.16329   0.16574   0.16742
 Alpha virt. eigenvalues --    0.16774   0.16881   0.17085   0.17239   0.17656
 Alpha virt. eigenvalues --    0.17858   0.18153   0.18201   0.18357   0.18591
 Alpha virt. eigenvalues --    0.18722   0.19041   0.19320   0.19414   0.19528
 Alpha virt. eigenvalues --    0.19660   0.20192   0.20289   0.20480   0.20616
 Alpha virt. eigenvalues --    0.20753   0.20862   0.20932   0.21330   0.21382
 Alpha virt. eigenvalues --    0.21490   0.21627   0.21673   0.21870   0.22036
 Alpha virt. eigenvalues --    0.22383   0.22690   0.22884   0.23134   0.23249
 Alpha virt. eigenvalues --    0.23478   0.23834   0.23981   0.24241   0.24533
 Alpha virt. eigenvalues --    0.24710   0.25197   0.25489   0.25646   0.25857
 Alpha virt. eigenvalues --    0.26021   0.26223   0.26411   0.26591   0.26707
 Alpha virt. eigenvalues --    0.26995   0.27205   0.27338   0.27458   0.27716
 Alpha virt. eigenvalues --    0.27975   0.28255   0.28333   0.28667   0.28731
 Alpha virt. eigenvalues --    0.29225   0.29425   0.29847   0.30090   0.30417
 Alpha virt. eigenvalues --    0.30598   0.30887   0.31152   0.31584   0.31755
 Alpha virt. eigenvalues --    0.32228   0.34726   0.35196   0.35805   0.36285
 Alpha virt. eigenvalues --    0.36670   0.36881   0.37174   0.38066   0.38397
 Alpha virt. eigenvalues --    0.38657   0.39209   0.39548   0.39666   0.40229
 Alpha virt. eigenvalues --    0.40718   0.40859   0.41017   0.41115   0.41741
 Alpha virt. eigenvalues --    0.42108   0.42357   0.42777   0.43295   0.43565
 Alpha virt. eigenvalues --    0.43733   0.44548   0.44782   0.44889   0.45251
 Alpha virt. eigenvalues --    0.45728   0.46293   0.46480   0.46712   0.47235
 Alpha virt. eigenvalues --    0.47384   0.47640   0.47990   0.48076   0.48244
 Alpha virt. eigenvalues --    0.48368   0.48447   0.48695   0.48728   0.48975
 Alpha virt. eigenvalues --    0.49156   0.49419   0.49507   0.49851   0.49919
 Alpha virt. eigenvalues --    0.50217   0.50599   0.50732   0.50890   0.51045
 Alpha virt. eigenvalues --    0.51624   0.51715   0.51902   0.52278   0.52439
 Alpha virt. eigenvalues --    0.52683   0.52842   0.53032   0.53134   0.53261
 Alpha virt. eigenvalues --    0.53685   0.54071   0.54336   0.54345   0.54559
 Alpha virt. eigenvalues --    0.54966   0.55408   0.55648   0.56385   0.56450
 Alpha virt. eigenvalues --    0.56854   0.57398   0.57741   0.58047   0.58269
 Alpha virt. eigenvalues --    0.58585   0.59077   0.59408   0.60180   0.60726
 Alpha virt. eigenvalues --    0.61363   0.62139   0.62578   0.62744   0.63095
 Alpha virt. eigenvalues --    0.64040   0.65314   0.65608   0.65657   0.65817
 Alpha virt. eigenvalues --    0.66063   0.66688   0.67022   0.67272   0.67368
 Alpha virt. eigenvalues --    0.67739   0.68302   0.69763   0.70327   0.70987
 Alpha virt. eigenvalues --    0.71325   0.71826   0.71992   0.72111   0.72156
 Alpha virt. eigenvalues --    0.72402   0.72548   0.73136   0.73352   0.73938
 Alpha virt. eigenvalues --    0.74618   0.74859   0.75504   0.75686   0.75871
 Alpha virt. eigenvalues --    0.76179   0.76687   0.76864   0.77208   0.77299
 Alpha virt. eigenvalues --    0.77527   0.78405   0.79002   0.79434   0.79604
 Alpha virt. eigenvalues --    0.79804   0.80291   0.80695   0.80858   0.81520
 Alpha virt. eigenvalues --    0.81575   0.81678   0.81993   0.82600   0.83075
 Alpha virt. eigenvalues --    0.84082   0.84272   0.84855   0.85318   0.86002
 Alpha virt. eigenvalues --    0.87169   0.87521   0.87981   0.88080   0.88754
 Alpha virt. eigenvalues --    0.88972   0.89126   0.89483   0.89681   0.90287
 Alpha virt. eigenvalues --    0.90728   0.90889   0.91288   0.91469   0.91658
 Alpha virt. eigenvalues --    0.92797   0.93032   0.93689   0.93987   0.94107
 Alpha virt. eigenvalues --    0.94367   0.94768   0.95889   0.96060   0.96825
 Alpha virt. eigenvalues --    0.96863   0.97097   0.97317   0.97728   0.97863
 Alpha virt. eigenvalues --    0.98143   0.98312   0.98517   0.98598   0.98801
 Alpha virt. eigenvalues --    0.98964   0.99588   1.00123   1.00296   1.00445
 Alpha virt. eigenvalues --    1.00910   1.01391   1.01629   1.01732   1.02103
 Alpha virt. eigenvalues --    1.02206   1.02463   1.02539   1.02630   1.02716
 Alpha virt. eigenvalues --    1.02982   1.03654   1.03868   1.03931   1.03990
 Alpha virt. eigenvalues --    1.04222   1.04297   1.04411   1.04543   1.04719
 Alpha virt. eigenvalues --    1.04829   1.05082   1.05226   1.05429   1.05845
 Alpha virt. eigenvalues --    1.05974   1.06358   1.06478   1.07048   1.07255
 Alpha virt. eigenvalues --    1.07530   1.07881   1.08724   1.09097   1.09219
 Alpha virt. eigenvalues --    1.09387   1.09828   1.10061   1.10185   1.10227
 Alpha virt. eigenvalues --    1.10680   1.10876   1.10959   1.11107   1.11252
 Alpha virt. eigenvalues --    1.11532   1.11633   1.11733   1.11984   1.12581
 Alpha virt. eigenvalues --    1.12898   1.13518   1.13825   1.14367   1.14875
 Alpha virt. eigenvalues --    1.15302   1.15965   1.16133   1.16506   1.16763
 Alpha virt. eigenvalues --    1.17017   1.17671   1.17877   1.18646   1.18846
 Alpha virt. eigenvalues --    1.19301   1.20795   1.21005   1.21246   1.21350
 Alpha virt. eigenvalues --    1.21470   1.22003   1.22202   1.23032   1.23564
 Alpha virt. eigenvalues --    1.25137   1.25933   1.26549   1.26714   1.27036
 Alpha virt. eigenvalues --    1.27453   1.27890   1.28220   1.28541   1.28585
 Alpha virt. eigenvalues --    1.28920   1.29173   1.29204   1.29364   1.29617
 Alpha virt. eigenvalues --    1.30050   1.30263   1.30361   1.30834   1.30914
 Alpha virt. eigenvalues --    1.31255   1.32082   1.32230   1.32992   1.33157
 Alpha virt. eigenvalues --    1.33188   1.33363   1.33753   1.33914   1.33960
 Alpha virt. eigenvalues --    1.34217   1.34308   1.34489   1.34713   1.34799
 Alpha virt. eigenvalues --    1.34917   1.35170   1.35238   1.35644   1.35744
 Alpha virt. eigenvalues --    1.36095   1.36173   1.36500   1.36775   1.36868
 Alpha virt. eigenvalues --    1.37089   1.37239   1.37393   1.37689   1.37852
 Alpha virt. eigenvalues --    1.37903   1.38453   1.38667   1.38757   1.39143
 Alpha virt. eigenvalues --    1.39207   1.39504   1.39629   1.39803   1.40214
 Alpha virt. eigenvalues --    1.40344   1.40514   1.40629   1.40811   1.40968
 Alpha virt. eigenvalues --    1.41095   1.41234   1.41485   1.41963   1.42253
 Alpha virt. eigenvalues --    1.42551   1.43124   1.43293   1.43434   1.43546
 Alpha virt. eigenvalues --    1.43987   1.44217   1.44568   1.45040   1.45661
 Alpha virt. eigenvalues --    1.46443   1.46701   1.47699   1.47783   1.48064
 Alpha virt. eigenvalues --    1.48305   1.48795   1.49270   1.49687   1.50121
 Alpha virt. eigenvalues --    1.50496   1.51024   1.51411   1.51970   1.53360
 Alpha virt. eigenvalues --    1.53738   1.55397   1.55775   1.55821   1.55939
 Alpha virt. eigenvalues --    1.56153   1.56352   1.56680   1.56747   1.57230
 Alpha virt. eigenvalues --    1.57286   1.58114   1.58284   1.59226   1.59244
 Alpha virt. eigenvalues --    1.59759   1.60158   1.60418   1.60481   1.60560
 Alpha virt. eigenvalues --    1.60727   1.61184   1.62033   1.62245   1.62565
 Alpha virt. eigenvalues --    1.63951   1.64355   1.65099   1.65610   1.66873
 Alpha virt. eigenvalues --    1.67569   1.67923   1.69983   1.70554   1.70870
 Alpha virt. eigenvalues --    1.71425   1.71646   1.72403   1.72886   1.74074
 Alpha virt. eigenvalues --    1.75119   1.75282   1.75510   1.75842   1.76776
 Alpha virt. eigenvalues --    1.76836   1.76947   1.77429   1.77818   1.78657
 Alpha virt. eigenvalues --    1.78827   1.79181   1.79707   1.80370   1.80657
 Alpha virt. eigenvalues --    1.81137   1.81375   1.81714   1.82143   1.82717
 Alpha virt. eigenvalues --    1.82972   1.83261   1.83850   1.84192   1.84435
 Alpha virt. eigenvalues --    1.85148   1.85240   1.85629   1.86078   1.86364
 Alpha virt. eigenvalues --    1.86486   1.87137   1.87533   1.88220   1.88584
 Alpha virt. eigenvalues --    1.89370   1.89999   1.90202   1.90299   1.90473
 Alpha virt. eigenvalues --    1.90833   1.91122   1.91448   1.92379   1.93483
 Alpha virt. eigenvalues --    1.94859   1.95392   1.95566   1.95812   1.96154
 Alpha virt. eigenvalues --    1.98169   1.99353   1.99498   1.99658   2.04575
 Alpha virt. eigenvalues --    2.06458   2.07329   2.08136   2.08578   2.08881
 Alpha virt. eigenvalues --    2.09033   2.09404   2.09535   2.10357   2.11217
 Alpha virt. eigenvalues --    2.11598   2.11948   2.12861   2.14853   2.15169
 Alpha virt. eigenvalues --    2.15978   2.16782   2.17209   2.17553   2.17722
 Alpha virt. eigenvalues --    2.19940   2.20244   2.20420   2.20723   2.21091
 Alpha virt. eigenvalues --    2.21169   2.22202   2.24545   2.25349   2.25996
 Alpha virt. eigenvalues --    2.26417   2.26735   2.27518   2.28508   2.28939
 Alpha virt. eigenvalues --    2.29191   2.29874   2.30293   2.33284   2.35612
 Alpha virt. eigenvalues --    2.36455   2.40185   2.40945   2.41076   2.43722
 Alpha virt. eigenvalues --    2.44201   2.50119   2.51402   2.57308   2.64773
 Alpha virt. eigenvalues --    2.64848   2.64977   2.65547   2.66027   2.66570
 Alpha virt. eigenvalues --    2.66769   2.66845   2.66947   2.67063   2.67074
 Alpha virt. eigenvalues --    2.67141   2.67180   2.67352   2.67374   2.67433
 Alpha virt. eigenvalues --    2.67690   2.67705   2.67808   2.67841   2.67925
 Alpha virt. eigenvalues --    2.68750   2.68954   2.69296   2.69382   2.70022
 Alpha virt. eigenvalues --    2.70191   2.70285   2.70487   2.70686   2.70824
 Alpha virt. eigenvalues --    2.70913   2.71401   2.71460   2.71530   2.71592
 Alpha virt. eigenvalues --    2.71699   2.72009   2.72630   2.72950   2.72990
 Alpha virt. eigenvalues --    2.73188   2.73248   2.73302   2.73354   2.73388
 Alpha virt. eigenvalues --    2.73520   2.73832   2.73922   2.73943   2.74035
 Alpha virt. eigenvalues --    2.74117   2.74235   2.74365   2.74596   2.74784
 Alpha virt. eigenvalues --    2.74814   2.75014   2.75181   2.75636   2.76081
 Alpha virt. eigenvalues --    2.76215   2.76313   2.76466   2.76772   2.76988
 Alpha virt. eigenvalues --    2.77147   2.77260   2.77309   2.78498   2.78652
 Alpha virt. eigenvalues --    2.78675   2.78995   2.79880   2.80133   2.80247
 Alpha virt. eigenvalues --    2.81235   2.81764   2.81821   2.82014   2.82197
 Alpha virt. eigenvalues --    2.82324   2.82698   2.82988   2.83228   2.83694
 Alpha virt. eigenvalues --    2.83751   2.83929   2.84035   2.84264   2.85008
 Alpha virt. eigenvalues --    2.85521   2.86100   2.86250   2.86339   2.86467
 Alpha virt. eigenvalues --    2.86630   2.86793   2.86910   2.88166   2.88456
 Alpha virt. eigenvalues --    2.88619   2.89088   2.89649   2.89684   2.89784
 Alpha virt. eigenvalues --    2.89820   2.89943   2.90066   2.90544   2.90675
 Alpha virt. eigenvalues --    2.90749   2.91756   2.91883   2.91980   2.92033
 Alpha virt. eigenvalues --    2.92212   2.92482   2.92722   2.92924   2.93115
 Alpha virt. eigenvalues --    2.93302   2.93451   2.93695   2.93937   2.94073
 Alpha virt. eigenvalues --    2.94201   2.95050   2.95204   2.95442   2.95681
 Alpha virt. eigenvalues --    2.95738   2.95844   2.96232   2.96440   2.96524
 Alpha virt. eigenvalues --    2.96629   2.96767   2.96904   2.97204   2.97428
 Alpha virt. eigenvalues --    2.97546   2.97736   2.97992   2.98348   2.99068
 Alpha virt. eigenvalues --    2.99326   2.99420   2.99681   2.99728   3.00068
 Alpha virt. eigenvalues --    3.00182   3.00462   3.01100   3.01319   3.01410
 Alpha virt. eigenvalues --    3.02471   3.03000   3.03274   3.03641   3.05200
 Alpha virt. eigenvalues --    3.06455   3.06722   3.07148   3.10931   3.11522
 Alpha virt. eigenvalues --    3.11670   3.11741   3.12180   3.12594   3.13726
 Alpha virt. eigenvalues --    3.13801   3.13977   3.16559   3.20082   3.21660
 Alpha virt. eigenvalues --    3.22027   3.23941   3.32571   3.41117   3.41717
 Alpha virt. eigenvalues --    3.42391   3.43092   3.44971   3.45053   3.45893
 Alpha virt. eigenvalues --    3.46130   3.46275   3.47306   3.47636   3.47922
 Alpha virt. eigenvalues --    3.48006   3.51237   3.51843   3.52355   3.53686
 Alpha virt. eigenvalues --    3.53824   3.54487   3.54784   3.54949   3.55144
 Alpha virt. eigenvalues --    3.55285   3.55627   3.56050   3.56680   3.57580
 Alpha virt. eigenvalues --    3.57799   3.58391   3.59489   3.59682   3.60459
 Alpha virt. eigenvalues --    3.60738   3.61268   3.61619   3.62035   3.62470
 Alpha virt. eigenvalues --    3.69430   3.74806  68.64324  68.65401  68.66515
 Alpha virt. eigenvalues --   68.68653  68.72721  68.73616  68.81779  68.82781
 Alpha virt. eigenvalues --   68.83336  68.85745  68.86856  68.88186 576.22759
 Alpha virt. eigenvalues --  576.23812 576.24902 576.26995 576.31071 576.31955
 Alpha virt. eigenvalues --  576.39965 576.40945 576.41483 576.43794 576.44880
 Alpha virt. eigenvalues --  576.46203
          Condensed to atoms (all electrons):
 Mulliken charges:
               1
     1  Cl  -0.926234
     2  C   -0.077268
     3  C    0.042997
     4  C   -0.075613
     5  C   -0.033461
     6  C   -0.031728
     7  C   -0.049823
     8  H    0.029892
     9  H    0.030745
    10  H    0.041510
    11  H    0.037559
    12  H    0.040340
    13  C   -0.105370
    14  C    0.014830
    15  H    0.022614
    16  H    0.042504
    17  H    0.032647
    18  O   -0.663868
    19  O   -0.661506
    20  O   -0.654617
    21  O   -0.662453
    22  W    1.736846
    23  W    1.673948
    24  W    1.683466
    25  W    1.694196
    26  W    1.677281
    27  W    1.729084
    28  W    1.621342
    29  W    1.685561
    30  O   -0.320456
    31  O   -0.365305
    32  O   -0.366183
    33  O   -0.361729
    34  O   -0.665809
    35  O   -0.670982
    36  O   -0.662118
    37  O   -0.664296
    38  O   -0.367265
    39  O   -0.365492
    40  O   -0.295279
    41  O   -0.365065
    42  O   -0.670225
    43  O   -0.663623
    44  O   -0.660704
    45  O   -0.665946
    46  O   -0.368284
    47  O   -0.320941
    48  O   -0.357978
    49  O   -0.363007
    50  W    1.674114
    51  W    1.677734
    52  W    1.684052
    53  W    1.685067
    54  O   -0.724086
    55  O   -0.708388
    56  O   -0.726308
    57  O   -0.722393
    58  O   -0.708364
    59  O   -0.727110
    60  O   -0.725169
    61  O   -0.721324
    62  O   -0.725044
    63  O   -0.709924
    64  O   -0.723788
    65  O   -0.726879
    66  O   -0.803633
    67  O   -0.802119
    68  O   -0.800142
    69  O   -0.809173
    70  K    0.865952
    71  K    0.866789
    72  K    0.863192
    73  V    1.192208
 Sum of Mulliken charges =  -1.00000
 Mulliken charges with hydrogens summed into heavy atoms:
               1
     1  Cl  -0.926234
     2  C   -0.047375
     3  C    0.042997
     4  C   -0.044869
     5  C    0.008049
     6  C    0.005831
     7  C   -0.009483
    13  C   -0.082755
    14  C    0.089981
    18  O   -0.663868
    19  O   -0.661506
    20  O   -0.654617
    21  O   -0.662453
    22  W    1.736846
    23  W    1.673948
    24  W    1.683466
    25  W    1.694196
    26  W    1.677281
    27  W    1.729084
    28  W    1.621342
    29  W    1.685561
    30  O   -0.320456
    31  O   -0.365305
    32  O   -0.366183
    33  O   -0.361729
    34  O   -0.665809
    35  O   -0.670982
    36  O   -0.662118
    37  O   -0.664296
    38  O   -0.367265
    39  O   -0.365492
    40  O   -0.295279
    41  O   -0.365065
    42  O   -0.670225
    43  O   -0.663623
    44  O   -0.660704
    45  O   -0.665946
    46  O   -0.368284
    47  O   -0.320941
    48  O   -0.357978
    49  O   -0.363007
    50  W    1.674114
    51  W    1.677734
    52  W    1.684052
    53  W    1.685067
    54  O   -0.724086
    55  O   -0.708388
    56  O   -0.726308
    57  O   -0.722393
    58  O   -0.708364
    59  O   -0.727110
    60  O   -0.725169
    61  O   -0.721324
    62  O   -0.725044
    63  O   -0.709924
    64  O   -0.723788
    65  O   -0.726879
    66  O   -0.803633
    67  O   -0.802119
    68  O   -0.800142
    69  O   -0.809173
    70  K    0.865952
    71  K    0.866789
    72  K    0.863192
    73  V    1.192208
 Electronic spatial extent (au):  <R**2>=         317522.5852
 Charge=             -1.0000 electrons
 Dipole moment (field-independent basis, Debye):
    X=             51.5453    Y=            -51.7272    Z=            -38.5483  Tot=             82.5748
 Quadrupole moment (field-independent basis, Debye-Ang):
   XX=          -1063.8330   YY=           -887.5306   ZZ=           -910.5200
   XY=            460.5754   XZ=            462.1328   YZ=           -483.2900
 Traceless Quadrupole moment (field-independent basis, Debye-Ang):
   XX=           -109.8718   YY=             66.4306   ZZ=             43.4412
   XY=            460.5754   XZ=            462.1328   YZ=           -483.2900
 Octapole moment (field-independent basis, Debye-Ang**2):
  XXX=          13541.8810  YYY=          -1092.7599  ZZZ=         -19068.2456  XYY=           6111.5735
  XXY=          -3748.8833  XXZ=          -9502.8230  XZZ=           7370.2834  YZZ=          -4237.0634
  YYZ=          -9035.1130  XYZ=           4874.3671
 Hexadecapole moment (field-independent basis, Debye-Ang**3):
 XXXX=        -160357.9601 YYYY=         -53377.0310 ZZZZ=        -345086.3075 XXXY=          38166.4616
 XXXZ=         123758.4264 YYYX=          21186.6297 YYYZ=         -12987.1264 ZZZX=         127819.1601
 ZZZY=         -36389.6788 XXYY=         -56398.6347 XXZZ=        -108539.3572 YYZZ=         -99729.2984
 XXYZ=         -43365.2944 YYXZ=          61944.3402 ZZXY=          51284.6360
 N-N= 2.097906719027D+04 E-N=-5.904231715490D+04  KE= 6.765110433134D+03
   1 Symmetry operations used in ECPInt.
 ECPInt:  NShTT=  127765 NPrTT=  468030 LenC2=   96666 LenP2D=  221157.
 LDataN:  DoStor=T MaxTD1= 9 Len=  602
 D1PCM: PCM CHGder 1st derivatives, ID1Alg=3 FixD1E=F DoIter=F DoCFld=F I1PDM=0.
 Calling FoFJK, ICntrl=      2127 FMM=T ISym2X=0 I1Cent= 0 IOpClX= 0 NMat=1 NMatS=1 NMatT=0.
 Defaulting to unpruned grid for atomic number  74.
 Defaulting to unpruned grid for atomic number  74.
 Defaulting to unpruned grid for atomic number  74.
 Defaulting to unpruned grid for atomic number  74.
 Defaulting to unpruned grid for atomic number  74.
 Defaulting to unpruned grid for atomic number  74.
 Defaulting to unpruned grid for atomic number  74.
 Defaulting to unpruned grid for atomic number  74.
 Defaulting to unpruned grid for atomic number  74.
 Defaulting to unpruned grid for atomic number  74.
 Defaulting to unpruned grid for atomic number  74.
 Defaulting to unpruned grid for atomic number  74.
 Defaulting to unpruned grid for atomic number  74.
 Defaulting to unpruned grid for atomic number  74.
 Defaulting to unpruned grid for atomic number  74.
 Defaulting to unpruned grid for atomic number  74.
 Defaulting to unpruned grid for atomic number  74.
 Defaulting to unpruned grid for atomic number  74.
 Defaulting to unpruned grid for atomic number  74.
 Defaulting to unpruned grid for atomic number  74.
 Defaulting to unpruned grid for atomic number  74.
 Defaulting to unpruned grid for atomic number  74.
 Defaulting to unpruned grid for atomic number  74.
 Defaulting to unpruned grid for atomic number  74.
 Defaulting to unpruned grid for atomic number  74.
 Defaulting to unpruned grid for atomic number  74.
 Defaulting to unpruned grid for atomic number  74.
 Defaulting to unpruned grid for atomic number  74.
 Defaulting to unpruned grid for atomic number  74.
 Defaulting to unpruned grid for atomic number  74.
 Defaulting to unpruned grid for atomic number  74.
 Defaulting to unpruned grid for atomic number  74.
 Defaulting to unpruned grid for atomic number  74.
 Defaulting to unpruned grid for atomic number  74.
 Defaulting to unpruned grid for atomic number  74.
 Defaulting to unpruned grid for atomic number  74.
 Defaulting to unpruned grid for atomic number  74.
 Defaulting to unpruned grid for atomic number  74.
 Defaulting to unpruned grid for atomic number  74.
 Defaulting to unpruned grid for atomic number  74.
 Defaulting to unpruned grid for atomic number  74.
 Defaulting to unpruned grid for atomic number  74.
 Defaulting to unpruned grid for atomic number  74.
 Defaulting to unpruned grid for atomic number  74.
 Defaulting to unpruned grid for atomic number  74.
 Defaulting to unpruned grid for atomic number  74.
 Defaulting to unpruned grid for atomic number  74.
 Defaulting to unpruned grid for atomic number  74.
 Defaulting to unpruned grid for atomic number  74.
 Defaulting to unpruned grid for atomic number  74.
 Defaulting to unpruned grid for atomic number  74.
 Defaulting to unpruned grid for atomic number  74.
 Defaulting to unpruned grid for atomic number  74.
 Defaulting to unpruned grid for atomic number  74.
 Defaulting to unpruned grid for atomic number  74.
 Defaulting to unpruned grid for atomic number  74.
 -------------------------------------------------------------------
 Center     Atomic                   Forces (Hartrees/Bohr)
 Number     Number              X              Y              Z
 -------------------------------------------------------------------
      1       17          -0.001221262    0.005295566    0.001391351
      2        6          -0.001485033   -0.000434778   -0.001788585
      3        6          -0.000941016   -0.001526700    0.003503370
      4        6           0.001495143    0.002078673    0.000342199
      5        6           0.000943783   -0.000138607    0.001288652
      6        6           0.000312474   -0.000529047    0.000668597
      7        6          -0.000842066   -0.001304657    0.000330319
      8        1          -0.000058254    0.000526270    0.000239915
      9        1          -0.000555996    0.000493678    0.000192317
     10        1          -0.000398633    0.000291876    0.000058452
     11        1           0.000221098   -0.000157505   -0.000034973
     12        1          -0.000252690    0.000306302    0.000313428
     13        6           0.008655481    0.010683168   -0.007540068
     14        6          -0.004523324   -0.015856010    0.000682018
     15        1          -0.000045620   -0.000415215   -0.000370056
     16        1          -0.001750904    0.002215708    0.001127160
     17        1          -0.002050982    0.000661904    0.000096011
     18        8          -0.003647672    0.000477382    0.000888763
     19        8           0.003750691   -0.000777397    0.001041047
     20        8           0.002840855   -0.003101776   -0.000455286
     21        8          -0.002730349    0.002256427   -0.000803573
     22       74           0.001602982    0.011451952   -0.010352086
     23       74          -0.002466406   -0.010968746   -0.010846758
     24       74           0.007237299    0.008985186    0.010735200
     25       74          -0.007727957   -0.008057088    0.011240782
     26       74           0.008903587   -0.008144947   -0.011589716
     27       74          -0.008834714    0.008756699   -0.011305410
     28       74          -0.012540721    0.003245139    0.011736971
     29       74           0.011835179   -0.002196564    0.011594989
     30        8          -0.001210046   -0.002837614    0.003216667
     31        8           0.000843105    0.003165728    0.003411487
     32        8          -0.001912013   -0.002674015   -0.003852483
     33        8           0.001875943    0.002264908   -0.003382988
     34        8          -0.001346023   -0.000796101    0.003706225
     35        8           0.001661821    0.000248830    0.003721480
     36        8           0.000840197   -0.001661712   -0.003470163
     37        8          -0.000381332    0.001278754   -0.003416748
     38        8          -0.004599763   -0.002081117   -0.001194494
     39        8           0.004898796    0.001722528   -0.001003700
     40        8           0.002870634   -0.006865058   -0.000276499
     41        8          -0.001454349    0.005065089    0.000574211
     42        8          -0.002310514   -0.003031180    0.001462230
     43        8           0.002772577    0.002843211    0.001098026
     44        8          -0.000380727   -0.004308536   -0.000949424
     45        8           0.000995400    0.003547076   -0.001098000
     46        8          -0.002872380    0.003072169    0.003388453
     47        8           0.003443095   -0.001781479    0.003321841
     48        8           0.004383935   -0.001262939   -0.003648404
     49        8          -0.003820863    0.001031813   -0.003448013
     50       74           0.015222927    0.005082609    0.003342189
     51       74          -0.015088715   -0.004082744    0.003596185
     52       74          -0.006449967    0.017599279   -0.003924367
     53       74           0.005087949   -0.015510485   -0.003156057
     54        8          -0.000663233    0.001488123    0.002421840
     55        8           0.000885373   -0.001623404    0.002290159
     56        8           0.001731543   -0.000326264   -0.002231131
     57        8          -0.001758319   -0.000764112   -0.002412513
     58        8           0.000187290   -0.002239946    0.000998044
     59        8           0.000384201    0.002203736    0.001719804
     60        8          -0.001414289   -0.002006943   -0.001731885
     61        8           0.001910822    0.001341429   -0.001557395
     62        8          -0.001215470    0.001821876    0.000704547
     63        8           0.000907147   -0.002304286    0.000133025
     64        8           0.002314992   -0.000292520   -0.000722287
     65        8          -0.002175170   -0.000317404   -0.000471673
     66        8          -0.028257875   -0.005098007    0.018761532
     67        8           0.028952834    0.005923863    0.018301605
     68        8           0.011813362   -0.027329096   -0.018563096
     69        8          -0.012066710    0.025715016   -0.018703124
     70       19           0.000160677   -0.000481158   -0.000400614
     71       19           0.000416700    0.000049772    0.000206233
     72       19          -0.000502389    0.000069551    0.000272664
     73       23          -0.000406143    0.000023868    0.000581580
 -------------------------------------------------------------------
 Cartesian Forces:  Max     0.028952834 RMS     0.006515306

 GradGradGradGradGradGradGradGradGradGradGradGradGradGradGradGradGradGrad
 Berny optimization.
 Search for a local minimum.
 Step number   1 out of a maximum of    2
 All quantities printed in internal units (Hartrees-Bohrs-Radians)
 Second derivative matrix not updated -- first step.
 ITU=  0
     Eigenvalues ---    0.00000   0.00000   0.00000   0.00010   0.00092
     Eigenvalues ---    0.00093   0.00256   0.00562   0.00621   0.01642
     Eigenvalues ---    0.01976   0.02902   0.02934   0.03203   0.03407
     Eigenvalues ---    0.03442   0.03725   0.03728   0.04155   0.04490
     Eigenvalues ---    0.04598   0.04601   0.04613   0.04822   0.04838
     Eigenvalues ---    0.04992   0.05349   0.05554   0.05582   0.06355
     Eigenvalues ---    0.06391   0.06525   0.06783   0.06855   0.07044
     Eigenvalues ---    0.07300   0.07369   0.07597   0.08316   0.08372
     Eigenvalues ---    0.08698   0.08719   0.08895   0.08923   0.09738
     Eigenvalues ---    0.09921   0.10076   0.10370   0.10414   0.10481
     Eigenvalues ---    0.10805   0.10860   0.11530   0.11622   0.12001
     Eigenvalues ---    0.12019   0.12114   0.12452   0.12546   0.12624
     Eigenvalues ---    0.12639   0.12725   0.12838   0.12949   0.13055
     Eigenvalues ---    0.13855   0.13944   0.14252   0.14508   0.14736
     Eigenvalues ---    0.16845   0.16852   0.17056   0.17152   0.17555
     Eigenvalues ---    0.17659   0.18531   0.19746   0.19919   0.20251
     Eigenvalues ---    0.20821   0.20969   0.21832   0.21969   0.22056
     Eigenvalues ---    0.22367   0.23052   0.23327   0.23915   0.23927
     Eigenvalues ---    0.24558   0.24709   0.24849   0.25553   0.26055
     Eigenvalues ---    0.26259   0.26419   0.27524   0.27603   0.27843
     Eigenvalues ---    0.28212   0.28243   0.28708   0.29432   0.29957
     Eigenvalues ---    0.30424   0.30484   0.30507   0.30577   0.30603
     Eigenvalues ---    0.30773   0.31155   0.31325   0.31428   0.32057
     Eigenvalues ---    0.32281   0.32316   0.32621   0.32843   0.33373
     Eigenvalues ---    0.33454   0.35182   0.35465   0.35781   0.36842
     Eigenvalues ---    0.37357   0.37521   0.37605   0.38045   0.38391
     Eigenvalues ---    0.38758   0.38999   0.40068   0.40149   0.40953
     Eigenvalues ---    0.42071   0.42156   0.43538   0.43953   0.44913
     Eigenvalues ---    0.45125   0.45405   0.45846   0.47601   0.48049
     Eigenvalues ---    0.48383   0.48558   0.48615   0.49247   0.49420
     Eigenvalues ---    0.49836   0.50521   0.51384   0.51607   0.52044
     Eigenvalues ---    0.52883   0.53543   0.55526   0.58422   0.64399
     Eigenvalues ---    0.67557   0.76677   0.81432   0.82737   0.96696
     Eigenvalues ---    0.97249   0.98515   0.99280   1.01687   1.04362
     Eigenvalues ---    1.07064   1.10811   1.11420   1.12203   1.15101
     Eigenvalues ---    1.18582   1.19130   1.20467   1.22193   1.22552
     Eigenvalues ---    1.22890   1.25644   1.26442   1.26629   1.27120
     Eigenvalues ---    1.27658   1.29047   1.29347   1.45207   1.45682
     Eigenvalues ---    1.45833   1.48213   1.51251   1.51622   1.51850
     Eigenvalues ---    1.52439   1.55534   1.55732   1.56476   1.58252
     Eigenvalues ---    1.58327   1.59511   1.61425   1.64652   1.66777
     Eigenvalues ---    1.73383   1.78899   1.84006   1.87026   1.88953
     Eigenvalues ---    2.00635   2.05301   3.06922
 Eigenvalue     1 is   4.44D-16 Eigenvector:
                          Y16       Y14       Y15       Y17       Y13
   1                    0.17469   0.17469   0.17469   0.17469   0.17469
                          Y3        Y8        Y9        Y2        Y4
   1                    0.17469   0.17469   0.17469   0.17469   0.17469
 Eigenvalue     2 is   3.61D-07 Eigenvector:
                          Y16       X16       X11       Y11       Y14
   1                    0.33459  -0.26660   0.26228  -0.24814   0.24570
                          Y15       Y17       X14       Y13       X10
   1                    0.22690   0.21254  -0.19164   0.18671   0.18384
 Eigenvalue     3 is   3.08D-06 Eigenvector:
                          X9        Y12       X10       X12       Y9
   1                    0.33691   0.28561   0.28374  -0.26106  -0.25571
                          Y8        X15       Y10       X8        X4
   1                    0.24923   0.22958  -0.21960  -0.20958   0.20278
 Quadratic step=1.070D+01 exceeds max=3.000D-01 adjusted using Lamda=-6.363D-03.
 Angle between NR and scaled steps=  52.91 degrees.
 Angle between quadratic step and forces=  64.29 degrees.
 Linear search not attempted -- first point.
 B after Tr=     0.004071    0.002309    0.001874
         Rot=    1.000000   -0.000150    0.000065    0.000236 Ang=  -0.03 deg.
 Variable       Old X    -DE/DX   Delta X   Delta X   Delta X     New X
                                 (Linear)    (Quad)   (Total)
    X1      -18.64407  -0.00122   0.00000  -0.00114   0.00764 -18.63643
    Y1       15.44517   0.00530   0.00000   0.00540   0.01054  15.45570
    Z1       19.91947   0.00139   0.00000   0.00149   0.00557  19.92504
    X2      -15.72846  -0.00149   0.00000  -0.01413  -0.00928 -15.73774
    Y2        8.00202  -0.00043   0.00000  -0.00751  -0.00469   7.99733
    Z2       23.10244  -0.00179   0.00000  -0.01089  -0.00867  23.09377
    X3      -17.20290  -0.00094   0.00000   0.00310   0.00793 -17.19497
    Y3        7.40282  -0.00153   0.00000  -0.03536  -0.03121   7.37161
    Z3       20.97353   0.00350   0.00000  -0.01301  -0.01115  20.96237
    X4      -18.94448   0.00150   0.00000  -0.01077  -0.00690 -18.95138
    Y4        5.40331   0.00208   0.00000  -0.01282  -0.00791   5.39540
    Z4       21.17641   0.00034   0.00000   0.01900   0.02004  21.19644
    X5      -19.27391   0.00094   0.00000  -0.00633  -0.00336 -19.27726
    Y5        4.11781  -0.00014   0.00000  -0.00092   0.00346   4.12127
    Z5       23.44602   0.00129   0.00000   0.02854   0.02915  23.47517
    X6      -17.84760   0.00031   0.00000   0.00427   0.00728 -17.84032
    Y6        4.78576  -0.00053   0.00000  -0.00207   0.00100   4.78676
    Z6       25.56161   0.00067   0.00000   0.01960   0.02059  25.58220
    X7      -16.05016  -0.00084   0.00000  -0.00994  -0.00599 -16.05615
    Y7        6.70900  -0.00130   0.00000   0.00692   0.00922   6.71822
    Z7       25.36929   0.00033   0.00000   0.00198   0.00378  25.37308
    X8      -14.30670  -0.00006   0.00000  -0.02254  -0.01696 -14.32366
    Y8        9.49260   0.00053   0.00000   0.00196   0.00416   9.49675
    Z8       22.98128   0.00024   0.00000  -0.01426  -0.01140  22.96988
    X9      -20.04649  -0.00056   0.00000  -0.03079  -0.02696 -20.07345
    Y9        4.85972   0.00049   0.00000  -0.00811  -0.00218   4.85754
    Z9       19.51416   0.00019   0.00000   0.03064   0.03136  19.54552
   X10      -20.63222  -0.00040   0.00000  -0.01977  -0.01754 -20.64977
   Y10        2.56659   0.00029   0.00000   0.01173   0.01672   2.58331
   Z10       23.56350   0.00006   0.00000   0.03921   0.03918  23.60268
   X11      -18.10252   0.00022   0.00000   0.01529   0.01760 -18.08492
   Y11        3.77921  -0.00016   0.00000   0.00142   0.00407   3.78328
   Z11       27.34557  -0.00003   0.00000   0.02284   0.02350  27.36907
   X12      -14.88182  -0.00025   0.00000  -0.01671  -0.01273 -14.89455
   Y12        7.19803   0.00031   0.00000   0.02923   0.03048   7.22852
   Z12       27.00074   0.00031   0.00000   0.00092   0.00303  27.00377
   X13      -17.00524   0.00866   0.00000   0.02856   0.03433 -16.97090
   Y13        8.77786   0.01068   0.00000  -0.08408  -0.07931   8.69855
   Z13       18.58045  -0.00754   0.00000  -0.05144  -0.04917  18.53128
   X14      -15.57783  -0.00452   0.00000  -0.01237  -0.00557 -15.58340
   Y14       10.83604  -0.01586   0.00000  -0.08569  -0.08143  10.75461
   Z14       18.11361   0.00068   0.00000  -0.04387  -0.04080  18.07282
   X15      -18.17983  -0.00005   0.00000   0.04126   0.04687 -18.13295
   Y15        8.03554  -0.00042   0.00000  -0.10637  -0.10060   7.93495
   Z15       17.04570  -0.00037   0.00000  -0.05072  -0.04882  16.99688
   X16      -15.50535  -0.00175   0.00000  -0.05122  -0.04378 -15.54912
   Y16       11.63274   0.00222   0.00000  -0.03093  -0.02613  11.60661
   Z16       16.21154   0.00113   0.00000  -0.02150  -0.01817  16.19337
   X17      -14.32060  -0.00205   0.00000  -0.07307  -0.06603 -14.38662
   Y17       11.68159   0.00066   0.00000  -0.03920  -0.03593  11.64566
   Z17       19.51357   0.00010   0.00000  -0.01919  -0.01570  19.49787
   X18       -1.87221  -0.00365   0.00000  -0.01971  -0.01906  -1.89126
   Y18       -3.35868   0.00048   0.00000  -0.00463  -0.00565  -3.36433
   Z18       14.10229   0.00089   0.00000   0.01016   0.01078  14.11307
   X19      -15.89167   0.00375   0.00000   0.02164   0.02270 -15.86896
   Y19       -2.51944  -0.00078   0.00000   0.01498   0.02056  -2.49889
   Z19       14.09946   0.00104   0.00000   0.01279   0.01186  14.11131
   X20      -13.30311   0.00284   0.00000   0.01813   0.02083 -13.28227
   Y20        2.54587  -0.00310   0.00000  -0.00867  -0.00602   2.53985
   Z20       19.80034  -0.00046   0.00000  -0.00581  -0.00490  19.79544
   X21       -4.40710  -0.00273   0.00000  -0.01484  -0.01724  -4.42434
   Y21       -8.26328   0.00226   0.00000   0.01063   0.00906  -8.25422
   Z21       19.94518  -0.00080   0.00000  -0.00929  -0.01046  19.93472
   X22       -6.45007   0.00160   0.00000  -0.00491  -0.00179  -6.45185
   Y22        1.33314   0.01145   0.00000   0.02142   0.02311   1.35625
   Z22       12.24314  -0.01035   0.00000  -0.00596  -0.00452  12.23862
   X23      -11.34182  -0.00247   0.00000   0.00678   0.00583 -11.33599
   Y23       -7.22010  -0.01097   0.00000  -0.00348   0.00046  -7.21964
   Z23       12.41503  -0.01085   0.00000  -0.00559  -0.00734  12.40768
   X24       -6.84977   0.00724   0.00000   0.02242   0.02449  -6.82527
   Y24        1.68964   0.00899   0.00000  -0.00216  -0.00309   1.68655
   Z24       21.58035   0.01074   0.00000   0.00605   0.00755  21.58790
   X25      -10.90128  -0.00773   0.00000  -0.01959  -0.02176 -10.92304
   Y25       -7.29262  -0.00806   0.00000   0.00290   0.00387  -7.28874
   Z25       21.68224   0.01124   0.00000   0.00870   0.00697  21.68921
   X26       -4.62707   0.00890   0.00000  -0.00516  -0.00495  -4.63203
   Y26       -4.86352  -0.00814   0.00000  -0.00943  -0.00855  -4.87207
   Z26       12.08544  -0.01159   0.00000  -0.00697  -0.00716  12.07828
   X27      -13.12511  -0.00883   0.00000   0.00345   0.00550 -13.11962
   Y27       -1.01298   0.00876   0.00000   0.02713   0.03203  -0.98095
   Z27       12.03050  -0.01131   0.00000  -0.00894  -0.00906  12.02144
   X28      -12.89929  -0.01254   0.00000  -0.00481  -0.00379 -12.90308
   Y28       -0.46747   0.00325   0.00000  -0.00352  -0.00167  -0.46913
   Z28       21.86190   0.01174   0.00000   0.01124   0.01130  21.87320
   X29       -4.83141   0.01184   0.00000   0.00876   0.00757  -4.82384
   Y29       -5.12435  -0.00220   0.00000   0.00584   0.00385  -5.12049
   Z29       21.94159   0.01159   0.00000   0.00833   0.00805  21.94964
   X30       -5.99703  -0.00121   0.00000   0.01040   0.01486  -5.98216
   Y30        3.58423  -0.00284   0.00000   0.01191   0.01404   3.59827
   Z30       10.02905   0.00322   0.00000  -0.00074   0.00144  10.03048
   X31      -11.60689   0.00084   0.00000  -0.00702  -0.00879 -11.61568
   Y31       -9.58040   0.00317   0.00000   0.00432   0.00904  -9.57136
   Z31       10.25503   0.00341   0.00000  -0.00017  -0.00267  10.25236
   X32       -5.12538  -0.00191   0.00000   0.01391   0.01646  -5.10892
   Y32        3.29823  -0.00267   0.00000   0.00105  -0.00134   3.29689
   Z32       23.76131  -0.00385   0.00000  -0.00263  -0.00043  23.76087
   X33      -12.61177   0.00188   0.00000  -0.00992  -0.01311 -12.62488
   Y33       -8.82811   0.00226   0.00000  -0.00112  -0.00002  -8.82812
   Z33       23.92243  -0.00338   0.00000   0.00179  -0.00061  23.92182
   X34       -5.04780  -0.00135   0.00000  -0.01438  -0.01248  -5.06027
   Y34       -1.69113  -0.00080   0.00000   0.00084   0.00237  -1.68876
   Z34       10.54868   0.00371   0.00000   0.01510   0.01581  10.56449
   X35      -12.68729   0.00166   0.00000   0.01522   0.01590 -12.67140
   Y35       -4.28834   0.00025   0.00000   0.01523   0.02033  -4.26801
   Z35       10.62709   0.00372   0.00000   0.01485   0.01380  10.64089
   X36      -10.05410   0.00084   0.00000   0.01368   0.01522 -10.03888
   Y36        1.05917  -0.00166   0.00000  -0.01361  -0.01356   1.04562
   Z36       23.36364  -0.00347   0.00000  -0.00908  -0.00820  23.35544
   X37       -7.66427  -0.00038   0.00000  -0.00726  -0.00936  -7.67362
   Y37       -6.65168   0.00128   0.00000   0.01231   0.01123  -6.64045
   Z37       23.44181  -0.00342   0.00000  -0.00981  -0.01092  23.43089
   X38        0.56372  -0.00460   0.00000   0.00835   0.01014   0.57386
   Y38        0.00209  -0.00208   0.00000  -0.01544  -0.01864  -0.01655
   Z38       17.52913  -0.00119   0.00000  -0.00137   0.00057  17.52971
   X39      -18.34984   0.00490   0.00000  -0.00371  -0.00461 -18.35445
   Y39       -5.72990   0.00172   0.00000   0.01911   0.02480  -5.70510
   Z39       17.61766  -0.00100   0.00000   0.00097  -0.00125  17.61641
   X40      -12.02884   0.00287   0.00000   0.01823   0.02323 -12.00560
   Y40        6.47002  -0.00687   0.00000   0.00876   0.01183   6.48185
   Z40       16.38470  -0.00028   0.00000  -0.00977  -0.00751  16.37719
   X41       -5.64751  -0.00145   0.00000  -0.00249  -0.00633  -5.65384
   Y41      -12.23212   0.00507   0.00000   0.00112   0.00115 -12.23097
   Z41       16.55445   0.00057   0.00000  -0.00493  -0.00745  16.54700
   X42       -3.38978  -0.00231   0.00000  -0.01123  -0.00831  -3.39809
   Y42        1.44974  -0.00303   0.00000  -0.00760  -0.00792   1.44183
   Z42       14.12615   0.00146   0.00000   0.01340   0.01527  14.14142
   X43      -14.37739   0.00277   0.00000   0.01440   0.01317 -14.36422
   Y43       -7.33754   0.00284   0.00000   0.01808   0.02289  -7.31465
   Z43       14.26660   0.00110   0.00000   0.01130   0.00912  14.27572
   X44       -8.52728  -0.00038   0.00000   0.01339   0.01688  -8.51041
   Y44        4.18329  -0.00431   0.00000  -0.01793  -0.01750   4.16579
   Z44       19.71507  -0.00095   0.00000  -0.00908  -0.00706  19.70800
   X45       -9.20567   0.00100   0.00000  -0.00994  -0.01309  -9.21876
   Y45       -9.86536   0.00355   0.00000   0.01744   0.01815  -9.84721
   Z45       19.88506  -0.00110   0.00000  -0.00966  -0.01193  19.87313
   X46       -3.05016  -0.00287   0.00000  -0.00492  -0.00526  -3.05543
   Y46       -6.63879   0.00307   0.00000   0.00668   0.00746  -6.63133
   Z46        9.91956   0.00339   0.00000  -0.00566  -0.00617   9.91339
   X47      -14.80966   0.00344   0.00000   0.00475   0.00780 -14.80186
   Y47        0.49834  -0.00178   0.00000   0.01421   0.02058   0.51892
   Z47        9.78136   0.00332   0.00000  -0.00552  -0.00541   9.77595
   X48      -15.20646   0.00438   0.00000   0.00642   0.00723 -15.19923
   Y48       -0.29631  -0.00126   0.00000   0.00515   0.00742  -0.28889
   Z48       24.08585  -0.00365   0.00000   0.00798   0.00780  24.09366
   X49       -2.49436  -0.00382   0.00000  -0.00129  -0.00288  -2.49725
   Y49       -5.37644   0.00103   0.00000  -0.00405  -0.00779  -5.38423
   Z49       24.12945  -0.00345   0.00000   0.00440   0.00434  24.13379
   X50       -2.38110   0.01522   0.00000   0.00931   0.01075  -2.37035
   Y50       -0.97824   0.00508   0.00000  -0.00092  -0.00249  -0.98073
   Z50       16.69953   0.00334   0.00000   0.01387   0.01514  16.71467
   X51      -15.40126  -0.01509   0.00000  -0.00609  -0.00644 -15.40770
   Y51       -4.77712  -0.00408   0.00000   0.00857   0.01313  -4.76399
   Z51       16.77004   0.00360   0.00000   0.01556   0.01402  16.78406
   X52      -11.12888  -0.00645   0.00000   0.00474   0.00826 -11.12062
   Y52        3.50078   0.01760   0.00000   0.01738   0.01983   3.52060
   Z52       17.09982  -0.00392   0.00000  -0.01453  -0.01304  17.08677
   X53       -6.58345   0.00509   0.00000  -0.00475  -0.00729  -6.59074
   Y53       -9.25755  -0.01551   0.00000  -0.00730  -0.00707  -9.26462
   Z53       17.32611  -0.00316   0.00000  -0.01421  -0.01597  17.31015
   X54       -7.98180  -0.00066   0.00000  -0.00087  -0.00105  -7.98285
   Y54       -5.85853   0.00149   0.00000  -0.00660  -0.00396  -5.86249
   Z54       11.46530   0.00242   0.00000  -0.00726  -0.00818  11.45712
   X55       -9.76183   0.00089   0.00000   0.00043   0.00300  -9.75883
   Y55       -0.09060  -0.00162   0.00000   0.02518   0.02870  -0.06191
   Z55       11.35340   0.00229   0.00000  -0.00811  -0.00752  11.34588
   X56      -11.67144   0.00173   0.00000  -0.01128  -0.01191 -11.68335
   Y56       -3.76934  -0.00033   0.00000  -0.00302  -0.00194  -3.77128
   Z56       22.51182  -0.00223   0.00000   0.01114   0.01037  22.52219
   X57       -5.99742  -0.00176   0.00000   0.01389   0.01418  -5.98324
   Y57       -1.82575  -0.00076   0.00000   0.00269   0.00107  -1.82467
   Z57       22.55512  -0.00241   0.00000   0.00778   0.00833  22.56345
   X58       -8.25254   0.00019   0.00000   0.00046   0.00403  -8.24851
   Y58        2.98334  -0.00224   0.00000   0.02065   0.02242   3.00576
   Z58       14.81609   0.00100   0.00000  -0.00983  -0.00812  14.80796
   X59       -9.45993   0.00038   0.00000   0.00068  -0.00136  -9.46129
   Y59       -8.83432   0.00220   0.00000  -0.00699  -0.00470  -8.83902
   Z59       14.96965   0.00172   0.00000  -0.00818  -0.01017  14.95948
   X60       -4.41457  -0.00141   0.00000   0.01905   0.02118  -4.39339
   Y60        1.11078  -0.00201   0.00000  -0.00230  -0.00362   1.10716
   Z60       19.05329  -0.00173   0.00000   0.00824   0.00988  19.06317
   X61      -13.34047   0.00191   0.00000  -0.01516  -0.01679 -13.35726
   Y61       -6.82387   0.00134   0.00000   0.00460   0.00747  -6.81639
   Z61       19.15293  -0.00156   0.00000   0.01000   0.00810  19.16103
   X62       -4.86587  -0.00122   0.00000  -0.00383  -0.00515  -4.87102
   Y62       -7.34585   0.00182   0.00000  -0.00850  -0.00833  -7.35418
   Z62       14.86409   0.00070   0.00000  -0.01140  -0.01236  14.85173
   X63      -12.89016   0.00091   0.00000   0.00141   0.00429 -12.88587
   Y63        1.48240  -0.00230   0.00000   0.02304   0.02701   1.50941
   Z63       14.75599   0.00013   0.00000  -0.01434  -0.01368  14.74231
   X64      -14.80343   0.00231   0.00000  -0.00607  -0.00553 -14.80896
   Y64       -2.21819  -0.00029   0.00000   0.00388   0.00744  -2.21075
   Z64       19.16518  -0.00072   0.00000   0.01494   0.01424  19.17941
   X65       -2.97410  -0.00218   0.00000   0.00940   0.00934  -2.96476
   Y65       -3.49812  -0.00032   0.00000  -0.00025  -0.00228  -3.50040
   Z65       19.15939  -0.00047   0.00000   0.01165   0.01209  19.17147
   X66       -6.36570  -0.02826   0.00000  -0.05152  -0.05044  -6.41614
   Y66       -2.16344  -0.00510   0.00000  -0.00425  -0.00345  -2.16689
   Z66       15.12327   0.01876   0.00000   0.03365   0.03404  15.15731
   X67      -11.39722   0.02895   0.00000   0.05159   0.05196 -11.34526
   Y67       -3.69092   0.00592   0.00000   0.01760   0.02071  -3.67022
   Z67       15.18251   0.01830   0.00000   0.03313   0.03243  15.21494
   X68       -9.67957   0.01181   0.00000   0.02543   0.02687  -9.65270
   Y68       -0.37469  -0.02733   0.00000  -0.04351  -0.04226  -0.41695
   Z68       18.80183  -0.01856   0.00000  -0.03016  -0.02966  18.77217
   X69       -8.01733  -0.01207   0.00000  -0.02538  -0.02625  -8.04358
   Y69       -5.35247   0.02572   0.00000   0.04533   0.04580  -5.30667
   Z69       18.85310  -0.01870   0.00000  -0.02972  -0.03048  18.82263
   X70       -6.08232   0.00016   0.00000  -0.00345  -0.00624  -6.08856
   Y70      -11.60130  -0.00048   0.00000  -0.00495  -0.00296 -11.60426
   Z70       10.67149  -0.00040   0.00000  -0.01026  -0.01265  10.65884
   X71       -0.21617   0.00042   0.00000   0.01461   0.01570  -0.20047
   Y71        0.10579   0.00005   0.00000  -0.00335  -0.00794   0.09786
   Z71       23.35194   0.00021   0.00000   0.00663   0.00851  23.36045
   X72      -17.55637  -0.00050   0.00000  -0.01120  -0.01274 -17.56910
   Y72       -5.45380   0.00007   0.00000   0.00646   0.01003  -5.44378
   Z72       23.49969   0.00027   0.00000   0.00998   0.00795  23.50764
   X73       -8.87081  -0.00041   0.00000  -0.00043   0.00008  -8.87073
   Y73       -2.88670   0.00002   0.00000   0.00323   0.00464  -2.88205
   Z73       16.98387   0.00058   0.00000   0.00293   0.00279  16.98666
         Item               Value     Threshold  Converged?
 Maximum Force            0.028953     0.000450     NO 
 RMS     Force            0.006515     0.000300     NO 
 Maximum Displacement     0.100596     0.001800     NO 
 RMS     Displacement     0.020098     0.001200     NO 
 Predicted change in Energy=-6.476550D-03
 GradGradGradGradGradGradGradGradGradGradGradGradGradGradGradGradGradGrad

 Unable to Open any file for archive entry.
 1\1\GINC-X11P1N2\Force\RwB97XD\def2SVP\C8H8Cl1K3O40V1W12(1-)\MAYUMIAO\
 02-Jun-2024\0\\# def2svp wb97xd scrf=(smd,solvent=acetonitrile) g09def
 ault scf=(xqc,maxcycle=64) force guess=read nosymm\\Title Card\\-1,1\C
 l,-9.86601728,8.17322966,10.54092799\C,-8.32313998,4.23448424,12.22528
 334\C,-9.1033828,3.9174039,11.09871224\C,-10.02498642,2.85930802,11.20
 607291\C,-10.19931178,2.17905133,12.40709746\C,-9.44454119,2.53251771,
 13.52661982\C,-8.49337922,3.55024979,13.42485233\H,-7.57077867,5.02326
 67,12.16116967\H,-10.60814574,2.57165264,10.3264482\H,-10.91810316,1.3
 5818167,12.46926888\H,-9.57943912,1.99987362,14.47065293\H,-7.8751189,
 3.80903424,14.28817841\C,-8.99878409,4.64504139,9.8323507\C,-8.2434332
 5,5.73418529,9.58531162\H,-9.62035111,4.25222648,9.02019482\H,-8.20507
 565,6.15578152,8.57877531\H,-7.57813323,6.18163231,10.32613433\O,-0.99
 072925,-1.7773344,7.46261114\O,-8.40950702,-1.33323171,7.46111106\O,-7
 .03970004,1.34721702,10.47788689\O,-2.33213576,-4.37273991,10.55453666
 \W,-3.41322851,0.70546506,6.47879066\W,-6.0018328,-3.82071095,6.569748
 54\W,-3.62474,0.8941193,11.41983193\W,-5.76870925,-3.85908715,11.47374
 618\W,-2.44854204,-2.57366575,6.39533924\W,-6.94551038,-0.53604788,6.3
 6626483\W,-6.82601219,-0.24737255,11.56881937\W,-2.55667118,-2.7116890
 8,11.61099114\O,-3.17348975,1.89669205,5.30714349\O,-6.14210062,-5.069
 72732,5.4267292\O,-2.71223453,1.74534919,12.57394166\O,-6.67386164,-4.
 67163294,12.65920543\O,-2.67117851,-0.89490614,5.58212165\O,-6.7138272
 9,-2.26929307,5.62361372\O,-5.32040013,0.56049097,12.36350505\O,-4.055
 75546,-3.51991873,12.4048691\O,0.29830996,0.00110655,9.27601806\O,-9.7
 1031879,-3.03213513,9.3228618\O,-6.3653855,3.42378737,8.67040829\O,-2.
 98853353,-6.4729589,8.7602401\O,-1.79379487,0.76717076,7.47523691\O,-7
 .60818548,-3.88285817,7.54956101\O,-4.51244275,2.21370248,10.43276497\
 O,-4.87143069,-5.2205223,10.52271913\O,-1.6140773,-3.51309862,5.249204
 07\O,-7.83693671,0.2637108,5.17607536\O,-8.04691369,-0.15680312,12.745
 68535\O,-1.3199608,-2.84508892,12.76875681\W,-1.26002602,-0.51766204,8
 .83700959\W,-8.14999685,-2.52794215,8.87432272\W,-5.88915,1.85253058,9
 .04883356\W,-3.48381297,-4.89888561,9.16858415\O,-4.22378433,-3.100203
 14,6.06717311\O,-5.16573942,-0.04794439,6.00796095\O,-6.17625872,-1.99
 464657,11.91274281\O,-3.17369781,-0.96614317,11.93565393\O,-4.36705768
 ,1.57871463,7.84033499\O,-5.00598141,-4.67492237,7.92159757\O,-2.33609
 134,0.58780162,10.08256771\O,-7.05947333,-3.61103426,10.13529493\O,-2.
 57490495,-3.88725471,7.86573781\O,-6.82117877,0.7844513,7.80853208\O,-
 7.83363705,-1.17381533,10.14177454\O,-1.57382727,-1.85112737,10.138710
 31\O,-3.36858211,-1.14484198,8.00288749\O,-6.03115078,-1.95315252,8.03
 423702\O,-5.12220678,-0.19827618,9.94949931\O,-4.24258843,-2.83240287,
 9.97663299\K,-3.21862547,-6.1391426,5.64710688\K,-0.11438982,0.0559818
 5,12.35731529\K,-9.29042838,-2.88602768,12.43550006\V,-4.69423031,-1.5
 2757337,8.98747848\\Version=ES64L-G16RevC.01\HF=-7327.7010591\RMSD=2.4
 19e-09\RMSF=6.515e-03\Dipole=10.5063317,-22.1290169,2.5297219\Quadrupo
 le=-81.6869983,49.3895039,32.2974944,342.4265591,343.5843955,-359.3142
 585\PG=C01 [X(C8H8Cl1K3O40V1W12)]\\@
 The archive entry for this job was punched.


 MANHOOD BEGINS BY TRYING TO SHAVE FACE,
 AND ENDS BY TRYING TO SAVE FACE.
 Job cpu time:       0 days  9 hours 52 minutes 25.5 seconds.
 Elapsed time:       0 days  0 hours 11 minutes 14.8 seconds.
 File lengths (MBytes):  RWF=   1253 Int=      0 D2E=      0 Chk=    249 Scr=      1
 Normal termination of Gaussian 16 at Sun Jun  2 07:24:19 2024.
