 Entering Gaussian System, Link 0=g16
 Input=JOBS/34_A.gjf
 Output=JOBS/34_A.log
 Initial command:
 /data/app/gaussian/C01-avx2//g16/l1.exe "/tmp/Gau-642911.inp" -scrdir="/tmp/"
 Entering Link 1 = /data/app/gaussian/C01-avx2//g16/l1.exe PID=    642912.
  
 Copyright (c) 1988-2019, Gaussian, Inc.  All Rights Reserved.
  
 This is part of the Gaussian(R) 16 program.  It is based on
 the Gaussian(R) 09 system (copyright 2009, Gaussian, Inc.),
 the Gaussian(R) 03 system (copyright 2003, Gaussian, Inc.),
 the Gaussian(R) 98 system (copyright 1998, Gaussian, Inc.),
 the Gaussian(R) 94 system (copyright 1995, Gaussian, Inc.),
 the Gaussian 92(TM) system (copyright 1992, Gaussian, Inc.),
 the Gaussian 90(TM) system (copyright 1990, Gaussian, Inc.),
 the Gaussian 88(TM) system (copyright 1988, Gaussian, Inc.),
 the Gaussian 86(TM) system (copyright 1986, Carnegie Mellon
 University), and the Gaussian 82(TM) system (copyright 1983,
 Carnegie Mellon University). Gaussian is a federally registered
 trademark of Gaussian, Inc.
  
 This software contains proprietary and confidential information,
 including trade secrets, belonging to Gaussian, Inc.
  
 This software is provided under written license and may be
 used, copied, transmitted, or stored only in accord with that
 written license.
  
 The following legend is applicable only to US Government
 contracts under FAR:
  
                    RESTRICTED RIGHTS LEGEND
  
 Use, reproduction and disclosure by the US Government is
 subject to restrictions as set forth in subparagraphs (a)
 and (c) of the Commercial Computer Software - Restricted
 Rights clause in FAR 52.227-19.
  
 Gaussian, Inc.
 340 Quinnipiac St., Bldg. 40, Wallingford CT 06492
  
  
 ---------------------------------------------------------------
 Warning -- This program may not be used in any manner that
 competes with the business of Gaussian, Inc. or will provide
 assistance to any competitor of Gaussian, Inc.  The licensee
 of this program is prohibited from giving any competitor of
 Gaussian, Inc. access to this program.  By using this program,
 the user acknowledges that Gaussian, Inc. is engaged in the
 business of creating and licensing software in the field of
 computational chemistry and represents and warrants to the
 licensee that it is not a competitor of Gaussian, Inc. and that
 it will not use this program in any manner prohibited above.
 ---------------------------------------------------------------
  

 Cite this work as:
 Gaussian 16, Revision C.01,
 M. J. Frisch, G. W. Trucks, H. B. Schlegel, G. E. Scuseria, 
 M. A. Robb, J. R. Cheeseman, G. Scalmani, V. Barone, 
 G. A. Petersson, H. Nakatsuji, X. Li, M. Caricato, A. V. Marenich, 
 J. Bloino, B. G. Janesko, R. Gomperts, B. Mennucci, H. P. Hratchian, 
 J. V. Ortiz, A. F. Izmaylov, J. L. Sonnenberg, D. Williams-Young, 
 F. Ding, F. Lipparini, F. Egidi, J. Goings, B. Peng, A. Petrone, 
 T. Henderson, D. Ranasinghe, V. G. Zakrzewski, J. Gao, N. Rega, 
 G. Zheng, W. Liang, M. Hada, M. Ehara, K. Toyota, R. Fukuda, 
 J. Hasegawa, M. Ishida, T. Nakajima, Y. Honda, O. Kitao, H. Nakai, 
 T. Vreven, K. Throssell, J. A. Montgomery, Jr., J. E. Peralta, 
 F. Ogliaro, M. J. Bearpark, J. J. Heyd, E. N. Brothers, K. N. Kudin, 
 V. N. Staroverov, T. A. Keith, R. Kobayashi, J. Normand, 
 K. Raghavachari, A. P. Rendell, J. C. Burant, S. S. Iyengar, 
 J. Tomasi, M. Cossi, J. M. Millam, M. Klene, C. Adamo, R. Cammi, 
 J. W. Ochterski, R. L. Martin, K. Morokuma, O. Farkas, 
 J. B. Foresman, and D. J. Fox, Gaussian, Inc., Wallingford CT, 2019.
 
 ******************************************
 Gaussian 16:  ES64L-G16RevC.01  3-Jul-2019
                 2-Jun-2024 
 ******************************************
 %chk=a.chk
 %nprocshared=56
 Will use up to   56 processors via shared memory.
 %mem=96gb
 ----------------------------------------------------------------------
 # def2svp wb97xd scrf=(smd,solvent=acetonitrile) g09default scf=(xqc,m
 axcycle=64) force guess=read nosymm
 ----------------------------------------------------------------------
 1/10=7,30=1,38=1,158=3,167=1/1,3;
 2/12=2,15=1,17=6,18=5,40=1/2;
 3/5=43,7=101,11=2,25=1,27=10,30=1,70=32201,71=1,72=2,74=-58,75=-4,116=-2,158=3/1,2,3;
 4/5=1,60=-1/1;
 5/5=2,7=64,8=3,13=1,38=6,53=2,87=10/2,8;
 6/7=2,8=2,9=2,10=2,28=1,87=10/1;
 7/29=1,30=1,87=10/1,2,3,16;
 1/10=7,30=1,158=3,167=1/3;
 99//99;
 Using 2006 physical constants.
 ----------
 Title Card
 ----------
 Symbolic Z-matrix:
 Charge = -1 Multiplicity = 1
 17                   -9.84804   8.19298   10.54536 
 6                    -8.32466   4.23445   12.22444 
 6                    -9.10707   3.91847   11.09902 
 6                    -10.02703   2.85856   11.20683 
 6                    -10.20025   2.17858   12.40842 
 6                    -9.44573   2.53358   13.52772 
 6                    -8.49386   3.55056   13.42425 
 1                    -7.57085   5.02191   12.15905 
 1                    -10.61004   2.56951   10.32791 
 1                    -10.91763   1.35675   12.47086 
 1                    -9.58072   2.00208   14.47231 
 1                    -7.8738    3.8085    14.28652 
 6                    -9.00674   4.64818   9.8336 
 6                    -8.25982   5.7436    9.58748 
 1                    -9.62371   4.25062   9.02005 
 1                    -8.22244   6.16382   8.58035 
 1                    -7.59937   6.19727   10.32874 
 8                    -0.98886  -1.77945   7.46339 
 8                    -8.40851  -1.33365   7.46109 
 8                    -7.03804   1.34727   10.47679 
 8                    -2.33246  -4.37514   10.55404 
 74                   -3.41253   0.70243   6.4777 
 74                   -6.00048  -3.82005   6.56825 
 74                   -3.62335   0.89123   11.42076 
 74                   -5.76778  -3.85866   11.47434 
 74                   -2.44594  -2.57667   6.39633 
 74                   -6.94565  -0.53553   6.36765 
 74                   -6.82608  -0.2473    11.56721 
 74                   -2.55448  -2.71395   11.60939 
 8                    -3.17264   1.89279   5.30492 
 8                    -6.14007  -5.06937   5.42569 
 8                    -2.70999   1.74166   12.57441 
 8                    -6.67424  -4.66972   12.65997 
 8                    -2.66891  -0.89795   5.58232 
 8                    -6.71279  -2.26883   5.62341 
 8                    -5.31982   0.55934   12.36305 
 8                    -4.05473  -3.52055   12.40425 
 8                     0.29919   0.00039   9.27759 
 8                    -9.70909  -3.03349   9.32383 
 8                    -6.3626    3.4247    8.67118 
 8                    -2.9909   -6.47539   8.7591 
 8                    -1.79262   0.76539   7.47514 
 8                    -7.60698  -3.88327   7.54888 
 8                    -4.51009   2.21193   10.43249 
 8                    -4.87236  -5.22142   10.52266 
 8                    -1.61223  -3.5181    5.25123 
 8                    -7.8362    0.26548   5.17739 
 8                    -8.04795  -0.158     12.74333 
 8                    -1.31709  -2.84664   12.76679 
 74                   -1.25897  -0.51828   8.83676 
 74                   -8.1483   -2.52959   8.87417 
 74                   -5.88588   1.85351   9.04851 
 74                   -3.48529  -4.90122   9.16807 
 8                    -4.22198  -3.1015    6.06718 
 8                    -5.16452  -0.04949   6.00835 
 8                    -6.17577  -1.99454   11.91174 
 8                    -3.17241  -0.96813   11.93533 
 8                    -4.36545   1.57882   7.83872 
 8                    -5.00572  -4.67532   7.92122 
 8                    -2.33498   0.58582   10.08264 
 8                    -7.05838  -3.61127   10.13479 
 8                    -2.57403  -3.88999   7.86585 
 8                    -6.8194    0.7854    7.80808 
 8                    -7.83279  -1.17413   10.14082 
 8                    -1.57269  -1.85277   10.13836 
 8                    -3.36691  -1.14646   8.00252 
 8                    -6.03049  -1.95365   8.03398 
 8                    -5.12131  -0.19878   9.94892 
 8                    -4.24158  -2.83383   9.97615 
 19                   -3.21744  -6.13933   5.64632 
 19                   -0.11239   0.05661   12.35641 
 19                   -9.29095  -2.88057   12.43641 
 23                   -4.69311  -1.52862   8.98713 
 

 GradGradGradGradGradGradGradGradGradGradGradGradGradGradGradGradGradGrad
 Berny optimization.
 Initialization pass.
 Trust Radius=3.00D-01 FncErr=1.00D-07 GrdErr=1.00D-07 EigMax=2.50D+02 EigMin=1.00D-04
 Number of steps in this run=      2 maximum allowed number of steps=      2.
 GradGradGradGradGradGradGradGradGradGradGradGradGradGradGradGradGradGrad

 Symmetry turned off by external request.
 Stoichiometry    C8H8ClK3O40VW12(1-)
 Framework group  C1[X(C8H8ClK3O40VW12)]
 Deg. of freedom   213
 Full point group                 C1      NOp   1
                          Input orientation:                          
 ---------------------------------------------------------------------
 Center     Atomic      Atomic             Coordinates (Angstroms)
 Number     Number       Type             X           Y           Z
 ---------------------------------------------------------------------
      1         17           0       -9.848041    8.192983   10.545357
      2          6           0       -8.324656    4.234454   12.224437
      3          6           0       -9.107071    3.918471   11.099022
      4          6           0      -10.027034    2.858557   11.206831
      5          6           0      -10.200252    2.178578   12.408419
      6          6           0       -9.445734    2.533580   13.527718
      7          6           0       -8.493864    3.550563   13.424249
      8          1           0       -7.570852    5.021909   12.159054
      9          1           0      -10.610037    2.569507   10.327912
     10          1           0      -10.917626    1.356751   12.470863
     11          1           0       -9.580725    2.002081   14.472305
     12          1           0       -7.873803    3.808503   14.286522
     13          6           0       -9.006736    4.648183    9.833596
     14          6           0       -8.259815    5.743600    9.587478
     15          1           0       -9.623707    4.250621    9.020046
     16          1           0       -8.222444    6.163823    8.580352
     17          1           0       -7.599373    6.197271   10.328743
     18          8           0       -0.988863   -1.779454    7.463391
     19          8           0       -8.408509   -1.333654    7.461092
     20          8           0       -7.038043    1.347266   10.476790
     21          8           0       -2.332463   -4.375140   10.554042
     22         74           0       -3.412528    0.702428    6.477697
     23         74           0       -6.000484   -3.820052    6.568246
     24         74           0       -3.623353    0.891226   11.420762
     25         74           0       -5.767781   -3.858661   11.474337
     26         74           0       -2.445937   -2.576665    6.396335
     27         74           0       -6.945646   -0.535530    6.367648
     28         74           0       -6.826081   -0.247302   11.567211
     29         74           0       -2.554479   -2.713952   11.609394
     30          8           0       -3.172641    1.892791    5.304921
     31          8           0       -6.140065   -5.069370    5.425690
     32          8           0       -2.709994    1.741656   12.574406
     33          8           0       -6.674238   -4.669724   12.659966
     34          8           0       -2.668911   -0.897954    5.582316
     35          8           0       -6.712788   -2.268833    5.623408
     36          8           0       -5.319816    0.559343   12.363050
     37          8           0       -4.054725   -3.520552   12.404247
     38          8           0        0.299191    0.000387    9.277592
     39          8           0       -9.709087   -3.033488    9.323830
     40          8           0       -6.362598    3.424696    8.671179
     41          8           0       -2.990899   -6.475387    8.759102
     42          8           0       -1.792623    0.765388    7.475137
     43          8           0       -7.606981   -3.883268    7.548885
     44          8           0       -4.510094    2.211934   10.432488
     45          8           0       -4.872357   -5.221416   10.522662
     46          8           0       -1.612232   -3.518102    5.251232
     47          8           0       -7.836201    0.265480    5.177385
     48          8           0       -8.047947   -0.157999   12.743327
     49          8           0       -1.317088   -2.846642   12.766787
     50         74           0       -1.258973   -0.518281    8.836756
     51         74           0       -8.148300   -2.529585    8.874168
     52         74           0       -5.885880    1.853510    9.048512
     53         74           0       -3.485288   -4.901220    9.168072
     54          8           0       -4.221983   -3.101498    6.067175
     55          8           0       -5.164520   -0.049485    6.008346
     56          8           0       -6.175769   -1.994543   11.911743
     57          8           0       -3.172413   -0.968127   11.935330
     58          8           0       -4.365454    1.578818    7.838721
     59          8           0       -5.005722   -4.675315    7.921217
     60          8           0       -2.334977    0.585821   10.082637
     61          8           0       -7.058379   -3.611267   10.134788
     62          8           0       -2.574033   -3.889993    7.865852
     63          8           0       -6.819404    0.785400    7.808075
     64          8           0       -7.832787   -1.174129   10.140825
     65          8           0       -1.572685   -1.852769   10.138361
     66          8           0       -3.366910   -1.146462    8.002516
     67          8           0       -6.030491   -1.953652    8.033981
     68          8           0       -5.121307   -0.198778    9.948924
     69          8           0       -4.241577   -2.833828    9.976153
     70         19           0       -3.217444   -6.139335    5.646324
     71         19           0       -0.112386    0.056611   12.356408
     72         19           0       -9.290953   -2.880568   12.436407
     73         23           0       -4.693110   -1.528619    8.987132
 ---------------------------------------------------------------------
 Rotational constants (GHZ):           0.0172018           0.0132438           0.0130165
 Standard basis: def2SVP (5D, 7F)
  1217 basis functions,  2313 primitive gaussians,  1337 cartesian basis functions
   321 alpha electrons      321 beta electrons
       nuclear repulsion energy     20977.4485290676 Hartrees.
 NAtoms=   73 NActive=   73 NUniq=   73 SFac= 1.00D+00 NAtFMM=   60 NAOKFM=T Big=T
 Integral buffers will be    131072 words long.
 Raffenetti 2 integral format.
 Two-electron integral symmetry is turned off.
 Nuclear repulsion after empirical dispersion term =    20977.1714576903 Hartrees.
 Force PCM accuracy= 1.00D-10.
 ------------------------------------------------------------------------------
 Polarizable Continuum Model (PCM)
 =================================
 Model                : PCM (using non-symmetric T matrix).
 Atomic radii         : SMD-Coulomb.
 Polarization charges : Total charges.
 Charge compensation  : None.
 Solution method      : On-the-fly selection.
 Cavity type          : VdW (van der Waals Surface) (Alpha=1.000).
 Cavity algorithm     : GePol (No added spheres)
                        Default sphere list used, NSphG=   73.
                        Lebedev-Laikov grids with approx.  5.0 points / Ang**2.
                        Smoothing algorithm: York/Karplus (Gamma=1.0000).
                        Polarization charges: spherical gaussians, with
                                              point-specific exponents (IZeta= 3).
                        Self-potential: point-specific (ISelfS= 7).
                        Self-field    : sphere-specific E.n sum rule (ISelfD= 2).
 1st derivatives      : Analytical E(r).r(x)/FMM algorithm (CHGder, D1EAlg=3).
                        Cavity 1st derivative terms included.
 Solvent              : Acetonitrile, Eps=  35.688000 Eps(inf)=   1.806874
 ------------------------------------------------------------------------------
 ------------------------------------------------------------------------------
 Atomic radii for non-electrostatic terms: SMD-CDS.
 ------------------------------------------------------------------------------
 Nuclear repulsion after PCM non-electrostatic terms =    20977.1656709723 Hartrees.
 One-electron integrals computed using PRISM.
   1 Symmetry operations used in ECPInt.
 ECPInt:  NShTT=  127765 NPrTT=  468030 LenC2=   96655 LenP2D=  221134.
 LDataN:  DoStor=T MaxTD1= 8 Len=  415
 NBasis=  1217 RedAO= T EigKep=  1.37D-04  NBF=  1217
 NBsUse=  1217 1.00D-06 EigRej= -1.00D+00 NBFU=  1217
 Defaulting to unpruned grid for atomic number  74.
 Defaulting to unpruned grid for atomic number  74.
 Defaulting to unpruned grid for atomic number  74.
 Defaulting to unpruned grid for atomic number  74.
 Defaulting to unpruned grid for atomic number  74.
 Defaulting to unpruned grid for atomic number  74.
 Defaulting to unpruned grid for atomic number  74.
 Defaulting to unpruned grid for atomic number  74.
 Initial guess from the checkpoint file:  "a.chk"
 B after Tr=     0.003042   -0.004628   -0.000257
         Rot=    1.000000   -0.000008    0.000001    0.000203 Ang=  -0.02 deg.
 Requested convergence on RMS density matrix=1.00D-08 within  64 cycles.
 Requested convergence on MAX density matrix=1.00D-06.
 Requested convergence on             energy=1.00D-06.
 No special actions if energy rises.
 Defaulting to unpruned grid for atomic number  74.
 Defaulting to unpruned grid for atomic number  74.
 Defaulting to unpruned grid for atomic number  74.
 Defaulting to unpruned grid for atomic number  74.
 Defaulting to unpruned grid for atomic number  74.
 Defaulting to unpruned grid for atomic number  74.
 Defaulting to unpruned grid for atomic number  74.
 Defaulting to unpruned grid for atomic number  74.
 Defaulting to unpruned grid for atomic number  74.
 Defaulting to unpruned grid for atomic number  74.
 Defaulting to unpruned grid for atomic number  74.
 Defaulting to unpruned grid for atomic number  74.
 Defaulting to unpruned grid for atomic number  74.
 Defaulting to unpruned grid for atomic number  74.
 Defaulting to unpruned grid for atomic number  74.
 Defaulting to unpruned grid for atomic number  74.
 Defaulting to unpruned grid for atomic number  74.
 Defaulting to unpruned grid for atomic number  74.
 Defaulting to unpruned grid for atomic number  74.
 Defaulting to unpruned grid for atomic number  74.
 Defaulting to unpruned grid for atomic number  74.
 Defaulting to unpruned grid for atomic number  74.
 Defaulting to unpruned grid for atomic number  74.
 Defaulting to unpruned grid for atomic number  74.
 Defaulting to unpruned grid for atomic number  74.
 Defaulting to unpruned grid for atomic number  74.
 Defaulting to unpruned grid for atomic number  74.
 Defaulting to unpruned grid for atomic number  74.
 Defaulting to unpruned grid for atomic number  74.
 Defaulting to unpruned grid for atomic number  74.
 Defaulting to unpruned grid for atomic number  74.
 Defaulting to unpruned grid for atomic number  74.
 Defaulting to unpruned grid for atomic number  74.
 Defaulting to unpruned grid for atomic number  74.
 Defaulting to unpruned grid for atomic number  74.
 Defaulting to unpruned grid for atomic number  74.
 Defaulting to unpruned grid for atomic number  74.
 Defaulting to unpruned grid for atomic number  74.
 Defaulting to unpruned grid for atomic number  74.
 Defaulting to unpruned grid for atomic number  74.
 Defaulting to unpruned grid for atomic number  74.
 Defaulting to unpruned grid for atomic number  74.
 Defaulting to unpruned grid for atomic number  74.
 Defaulting to unpruned grid for atomic number  74.
 Defaulting to unpruned grid for atomic number  74.
 Defaulting to unpruned grid for atomic number  74.
 Defaulting to unpruned grid for atomic number  74.
 Defaulting to unpruned grid for atomic number  74.
 Defaulting to unpruned grid for atomic number  74.
 Defaulting to unpruned grid for atomic number  74.
 Defaulting to unpruned grid for atomic number  74.
 Defaulting to unpruned grid for atomic number  74.
 Defaulting to unpruned grid for atomic number  74.
 Defaulting to unpruned grid for atomic number  74.
 Defaulting to unpruned grid for atomic number  74.
 Defaulting to unpruned grid for atomic number  74.
 Inv3:  Mode=1 IEnd=    86800923.
 Iteration    1 A*A^-1 deviation from unit magnitude is 3.55D-15 for   3964.
 Iteration    1 A*A^-1 deviation from orthogonality  is 3.19D-15 for    913     32.
 Iteration    1 A^-1*A deviation from unit magnitude is 3.33D-15 for   2517.
 Iteration    1 A^-1*A deviation from orthogonality  is 7.56D-11 for   1101   1037.
 Error on total polarization charges =  0.01598
 SCF Done:  E(RwB97XD) =  -7327.70114243     A.U. after   13 cycles
            NFock= 13  Conv=0.26D-08     -V/T= 2.0832
 SMD-CDS (non-electrostatic) energy       (kcal/mol) =      -3.63
 (included in total energy above)
 QCSCF skips out because SCF is already converged.

 **********************************************************************

            Population analysis using the SCF Density.

 **********************************************************************

 Alpha  occ. eigenvalues -- -197.29720-130.00181-130.00157-130.00077-101.47857
 Alpha  occ. eigenvalues --  -22.62816 -19.33756 -19.33742 -19.33731 -19.33703
 Alpha  occ. eigenvalues --  -19.30717 -19.30669 -19.30667 -19.30652 -19.30652
 Alpha  occ. eigenvalues --  -19.30650 -19.30642 -19.30589 -19.30514 -19.30352
 Alpha  occ. eigenvalues --  -19.30310 -19.30116 -19.29311 -19.29307 -19.29278
 Alpha  occ. eigenvalues --  -19.29270 -19.29267 -19.29266 -19.29234 -19.29183
 Alpha  occ. eigenvalues --  -19.29181 -19.29157 -19.29134 -19.29131 -19.29121
 Alpha  occ. eigenvalues --  -19.29114 -19.29087 -19.29080 -19.29077 -19.29056
 Alpha  occ. eigenvalues --  -19.29047 -19.28966 -19.28962 -19.28934 -19.28918
 Alpha  occ. eigenvalues --  -19.28815 -19.11777 -19.11768 -19.11759 -13.37588
 Alpha  occ. eigenvalues --  -13.37562 -13.37474 -10.70517 -10.70510 -10.70509
 Alpha  occ. eigenvalues --  -10.70491 -10.70484 -10.70483 -10.70404 -10.70397
 Alpha  occ. eigenvalues --  -10.70393 -10.29895 -10.29370 -10.29322 -10.29130
 Alpha  occ. eigenvalues --  -10.29055 -10.29021 -10.28264 -10.27810  -9.38311
 Alpha  occ. eigenvalues --   -7.13136  -7.13093  -7.13090  -3.23293  -3.23289
 Alpha  occ. eigenvalues --   -3.23276  -3.23273  -3.23270  -3.23260  -3.23230
 Alpha  occ. eigenvalues --   -3.23215  -3.23170  -3.22957  -3.22952  -3.22728
 Alpha  occ. eigenvalues --   -2.91988  -1.94344  -1.94315  -1.94308  -1.87703
 Alpha  occ. eigenvalues --   -1.87648  -1.87632  -1.87586  -1.87466  -1.87459
 Alpha  occ. eigenvalues --   -1.87444  -1.87419  -1.87384  -1.87261  -1.87224
 Alpha  occ. eigenvalues --   -1.87053  -1.86606  -1.86487  -1.86480  -1.86457
 Alpha  occ. eigenvalues --   -1.86437  -1.86404  -1.86324  -1.86312  -1.86291
 Alpha  occ. eigenvalues --   -1.86272  -1.86256  -1.86224  -1.86124  -1.86108
 Alpha  occ. eigenvalues --   -1.86104  -1.86081  -1.86029  -1.85988  -1.85964
 Alpha  occ. eigenvalues --   -1.85905  -1.85880  -1.85783  -1.85668  -1.85619
 Alpha  occ. eigenvalues --   -1.51267  -1.51245  -1.51160  -1.13117  -1.11360
 Alpha  occ. eigenvalues --   -1.11278  -1.11262  -1.08973  -1.08527  -1.08482
 Alpha  occ. eigenvalues --   -1.08272  -1.07571  -1.07518  -1.07502  -1.06894
 Alpha  occ. eigenvalues --   -1.06858  -1.06845  -1.06309  -1.06285  -1.05294
 Alpha  occ. eigenvalues --   -1.05282  -1.04968  -1.04955  -1.04943  -1.04168
 Alpha  occ. eigenvalues --   -1.04165  -1.04149  -1.04004  -1.03980  -1.03963
 Alpha  occ. eigenvalues --   -1.03923  -1.03881  -1.03858  -1.03736  -1.03693
 Alpha  occ. eigenvalues --   -1.03593  -1.03539  -1.03281  -1.03232  -1.03091
 Alpha  occ. eigenvalues --   -1.03076  -1.03016  -1.02936  -0.94426  -0.86727
 Alpha  occ. eigenvalues --   -0.86707  -0.86627  -0.86591  -0.86541  -0.86528
 Alpha  occ. eigenvalues --   -0.86518  -0.86515  -0.86441  -0.86414  -0.82850
 Alpha  occ. eigenvalues --   -0.79868  -0.71003  -0.69805  -0.68092  -0.64581
 Alpha  occ. eigenvalues --   -0.63936  -0.63901  -0.63894  -0.63362  -0.63330
 Alpha  occ. eigenvalues --   -0.63218  -0.63073  -0.62714  -0.62626  -0.62046
 Alpha  occ. eigenvalues --   -0.61624  -0.61609  -0.61518  -0.61218  -0.61198
 Alpha  occ. eigenvalues --   -0.61158  -0.60400  -0.59481  -0.59447  -0.59435
 Alpha  occ. eigenvalues --   -0.59418  -0.59378  -0.58697  -0.57977  -0.57955
 Alpha  occ. eigenvalues --   -0.57877  -0.57106  -0.57069  -0.57035  -0.56295
 Alpha  occ. eigenvalues --   -0.56253  -0.56084  -0.55682  -0.54843  -0.54775
 Alpha  occ. eigenvalues --   -0.54739  -0.54598  -0.54222  -0.54104  -0.54067
 Alpha  occ. eigenvalues --   -0.54014  -0.53948  -0.53207  -0.53171  -0.53043
 Alpha  occ. eigenvalues --   -0.52986  -0.52871  -0.52690  -0.52632  -0.52614
 Alpha  occ. eigenvalues --   -0.52572  -0.52538  -0.52468  -0.52447  -0.51571
 Alpha  occ. eigenvalues --   -0.51546  -0.51359  -0.51321  -0.51289  -0.51234
 Alpha  occ. eigenvalues --   -0.51171  -0.51157  -0.51021  -0.50718  -0.50534
 Alpha  occ. eigenvalues --   -0.50532  -0.50504  -0.49873  -0.49854  -0.49319
 Alpha  occ. eigenvalues --   -0.49270  -0.49239  -0.49187  -0.49143  -0.49042
 Alpha  occ. eigenvalues --   -0.48893  -0.48075  -0.48022  -0.47923  -0.47747
 Alpha  occ. eigenvalues --   -0.47353  -0.47278  -0.47226  -0.47007  -0.46937
 Alpha  occ. eigenvalues --   -0.46820  -0.46550  -0.46473  -0.46454  -0.46221
 Alpha  occ. eigenvalues --   -0.46158  -0.46106  -0.45642  -0.45077  -0.44900
 Alpha  occ. eigenvalues --   -0.44866  -0.44178  -0.44150  -0.44036  -0.43621
 Alpha  occ. eigenvalues --   -0.43278  -0.43224  -0.43103  -0.43080  -0.43045
 Alpha  occ. eigenvalues --   -0.42697  -0.42668  -0.42648  -0.42583  -0.42581
 Alpha  occ. eigenvalues --   -0.42494  -0.42447  -0.42433  -0.42269  -0.42254
 Alpha  occ. eigenvalues --   -0.42230  -0.42004  -0.41890  -0.41837  -0.41822
 Alpha  occ. eigenvalues --   -0.41248  -0.41153  -0.41130  -0.41011  -0.40530
 Alpha  occ. eigenvalues --   -0.40507  -0.40504  -0.40431  -0.39433  -0.39413
 Alpha  occ. eigenvalues --   -0.36982  -0.32566  -0.28949  -0.24700  -0.24679
 Alpha  occ. eigenvalues --   -0.23515
 Alpha virt. eigenvalues --   -0.09672  -0.09459  -0.08462  -0.08409  -0.07012
 Alpha virt. eigenvalues --   -0.06979  -0.06851  -0.04651  -0.04317  -0.04287
 Alpha virt. eigenvalues --   -0.03715  -0.03541  -0.03462  -0.03238  -0.03147
 Alpha virt. eigenvalues --   -0.03090  -0.03057  -0.02200  -0.02158  -0.02126
 Alpha virt. eigenvalues --   -0.01511  -0.01482  -0.01427  -0.01288  -0.01229
 Alpha virt. eigenvalues --   -0.00073  -0.00067  -0.00001   0.01430   0.01454
 Alpha virt. eigenvalues --    0.01911   0.01942   0.02029   0.02153   0.02181
 Alpha virt. eigenvalues --    0.02186   0.02240   0.02316   0.02767   0.02844
 Alpha virt. eigenvalues --    0.02915   0.02972   0.03010   0.04175   0.04551
 Alpha virt. eigenvalues --    0.06743   0.07256   0.07530   0.07579   0.07792
 Alpha virt. eigenvalues --    0.08021   0.08436   0.08491   0.08771   0.09156
 Alpha virt. eigenvalues --    0.09339   0.09383   0.09663   0.09887   0.10299
 Alpha virt. eigenvalues --    0.10326   0.10394   0.10447   0.10472   0.10640
 Alpha virt. eigenvalues --    0.10872   0.11053   0.11068   0.11661   0.11739
 Alpha virt. eigenvalues --    0.12241   0.13089   0.13219   0.13315   0.13567
 Alpha virt. eigenvalues --    0.13736   0.14344   0.14535   0.14646   0.14971
 Alpha virt. eigenvalues --    0.15534   0.16137   0.16328   0.16573   0.16738
 Alpha virt. eigenvalues --    0.16773   0.16881   0.17082   0.17239   0.17658
 Alpha virt. eigenvalues --    0.17860   0.18154   0.18202   0.18357   0.18589
 Alpha virt. eigenvalues --    0.18724   0.19046   0.19322   0.19413   0.19530
 Alpha virt. eigenvalues --    0.19662   0.20193   0.20286   0.20485   0.20611
 Alpha virt. eigenvalues --    0.20756   0.20862   0.20936   0.21334   0.21387
 Alpha virt. eigenvalues --    0.21496   0.21625   0.21683   0.21871   0.22029
 Alpha virt. eigenvalues --    0.22383   0.22693   0.22886   0.23132   0.23244
 Alpha virt. eigenvalues --    0.23476   0.23832   0.23980   0.24245   0.24537
 Alpha virt. eigenvalues --    0.24708   0.25201   0.25479   0.25644   0.25853
 Alpha virt. eigenvalues --    0.26017   0.26221   0.26407   0.26593   0.26697
 Alpha virt. eigenvalues --    0.26989   0.27203   0.27333   0.27456   0.27718
 Alpha virt. eigenvalues --    0.27974   0.28255   0.28334   0.28672   0.28730
 Alpha virt. eigenvalues --    0.29219   0.29419   0.29848   0.30085   0.30421
 Alpha virt. eigenvalues --    0.30605   0.30883   0.31161   0.31570   0.31761
 Alpha virt. eigenvalues --    0.32232   0.34719   0.35193   0.35795   0.36281
 Alpha virt. eigenvalues --    0.36668   0.36879   0.37172   0.38061   0.38387
 Alpha virt. eigenvalues --    0.38648   0.39202   0.39543   0.39653   0.40222
 Alpha virt. eigenvalues --    0.40714   0.40853   0.41012   0.41109   0.41737
 Alpha virt. eigenvalues --    0.42109   0.42360   0.42782   0.43293   0.43563
 Alpha virt. eigenvalues --    0.43731   0.44547   0.44784   0.44892   0.45256
 Alpha virt. eigenvalues --    0.45733   0.46300   0.46480   0.46712   0.47249
 Alpha virt. eigenvalues --    0.47380   0.47641   0.47985   0.48070   0.48244
 Alpha virt. eigenvalues --    0.48373   0.48447   0.48694   0.48711   0.48975
 Alpha virt. eigenvalues --    0.49154   0.49419   0.49501   0.49836   0.49914
 Alpha virt. eigenvalues --    0.50217   0.50596   0.50737   0.50868   0.51035
 Alpha virt. eigenvalues --    0.51622   0.51705   0.51897   0.52263   0.52432
 Alpha virt. eigenvalues --    0.52683   0.52841   0.53032   0.53131   0.53267
 Alpha virt. eigenvalues --    0.53685   0.54067   0.54329   0.54348   0.54553
 Alpha virt. eigenvalues --    0.54960   0.55408   0.55646   0.56382   0.56444
 Alpha virt. eigenvalues --    0.56859   0.57398   0.57745   0.58041   0.58268
 Alpha virt. eigenvalues --    0.58583   0.59073   0.59406   0.60167   0.60718
 Alpha virt. eigenvalues --    0.61354   0.62116   0.62563   0.62744   0.63089
 Alpha virt. eigenvalues --    0.64022   0.65309   0.65610   0.65657   0.65822
 Alpha virt. eigenvalues --    0.66056   0.66676   0.67004   0.67276   0.67365
 Alpha virt. eigenvalues --    0.67737   0.68298   0.69749   0.70313   0.70987
 Alpha virt. eigenvalues --    0.71329   0.71822   0.71998   0.72112   0.72159
 Alpha virt. eigenvalues --    0.72409   0.72556   0.73142   0.73346   0.73934
 Alpha virt. eigenvalues --    0.74618   0.74853   0.75497   0.75686   0.75848
 Alpha virt. eigenvalues --    0.76168   0.76699   0.76862   0.77247   0.77330
 Alpha virt. eigenvalues --    0.77513   0.78400   0.78986   0.79443   0.79616
 Alpha virt. eigenvalues --    0.79797   0.80288   0.80684   0.80832   0.81517
 Alpha virt. eigenvalues --    0.81563   0.81691   0.81989   0.82587   0.83067
 Alpha virt. eigenvalues --    0.84068   0.84261   0.84845   0.85314   0.85976
 Alpha virt. eigenvalues --    0.87173   0.87528   0.87976   0.88077   0.88746
 Alpha virt. eigenvalues --    0.88949   0.89114   0.89474   0.89676   0.90267
 Alpha virt. eigenvalues --    0.90731   0.90896   0.91275   0.91468   0.91659
 Alpha virt. eigenvalues --    0.92809   0.93028   0.93676   0.93975   0.94099
 Alpha virt. eigenvalues --    0.94349   0.94757   0.95874   0.96052   0.96810
 Alpha virt. eigenvalues --    0.96848   0.97083   0.97310   0.97719   0.97850
 Alpha virt. eigenvalues --    0.98135   0.98307   0.98505   0.98591   0.98799
 Alpha virt. eigenvalues --    0.98946   0.99570   1.00098   1.00308   1.00459
 Alpha virt. eigenvalues --    1.00907   1.01381   1.01624   1.01731   1.02098
 Alpha virt. eigenvalues --    1.02205   1.02456   1.02526   1.02627   1.02658
 Alpha virt. eigenvalues --    1.02977   1.03644   1.03858   1.03895   1.03968
 Alpha virt. eigenvalues --    1.04208   1.04273   1.04409   1.04552   1.04710
 Alpha virt. eigenvalues --    1.04808   1.05067   1.05218   1.05416   1.05829
 Alpha virt. eigenvalues --    1.05964   1.06346   1.06453   1.07039   1.07238
 Alpha virt. eigenvalues --    1.07530   1.07870   1.08706   1.09090   1.09201
 Alpha virt. eigenvalues --    1.09385   1.09827   1.10042   1.10177   1.10218
 Alpha virt. eigenvalues --    1.10670   1.10873   1.10940   1.11094   1.11243
 Alpha virt. eigenvalues --    1.11518   1.11629   1.11735   1.11978   1.12571
 Alpha virt. eigenvalues --    1.12892   1.13511   1.13810   1.14346   1.14829
 Alpha virt. eigenvalues --    1.15295   1.15957   1.16097   1.16493   1.16700
 Alpha virt. eigenvalues --    1.16984   1.17664   1.17870   1.18637   1.18817
 Alpha virt. eigenvalues --    1.19254   1.20776   1.20998   1.21239   1.21344
 Alpha virt. eigenvalues --    1.21471   1.21989   1.22204   1.23031   1.23551
 Alpha virt. eigenvalues --    1.25134   1.25951   1.26567   1.26714   1.27059
 Alpha virt. eigenvalues --    1.27480   1.27896   1.28236   1.28530   1.28580
 Alpha virt. eigenvalues --    1.28918   1.29168   1.29213   1.29375   1.29618
 Alpha virt. eigenvalues --    1.30048   1.30268   1.30367   1.30836   1.30909
 Alpha virt. eigenvalues --    1.31279   1.32094   1.32272   1.33001   1.33179
 Alpha virt. eigenvalues --    1.33208   1.33351   1.33749   1.33951   1.33960
 Alpha virt. eigenvalues --    1.34215   1.34310   1.34501   1.34703   1.34813
 Alpha virt. eigenvalues --    1.34922   1.35171   1.35266   1.35626   1.35720
 Alpha virt. eigenvalues --    1.36072   1.36168   1.36517   1.36774   1.36868
 Alpha virt. eigenvalues --    1.37087   1.37236   1.37350   1.37691   1.37854
 Alpha virt. eigenvalues --    1.37908   1.38452   1.38664   1.38746   1.39127
 Alpha virt. eigenvalues --    1.39200   1.39494   1.39615   1.39786   1.40203
 Alpha virt. eigenvalues --    1.40324   1.40495   1.40612   1.40793   1.40956
 Alpha virt. eigenvalues --    1.41066   1.41223   1.41473   1.41954   1.42222
 Alpha virt. eigenvalues --    1.42559   1.43106   1.43296   1.43442   1.43549
 Alpha virt. eigenvalues --    1.43977   1.44232   1.44573   1.45011   1.45664
 Alpha virt. eigenvalues --    1.46446   1.46730   1.47692   1.47774   1.48075
 Alpha virt. eigenvalues --    1.48293   1.48792   1.49257   1.49675   1.50084
 Alpha virt. eigenvalues --    1.50500   1.51022   1.51399   1.51970   1.53361
 Alpha virt. eigenvalues --    1.53750   1.55382   1.55776   1.55820   1.55945
 Alpha virt. eigenvalues --    1.56146   1.56343   1.56674   1.56744   1.57217
 Alpha virt. eigenvalues --    1.57275   1.58096   1.58274   1.59227   1.59248
 Alpha virt. eigenvalues --    1.59766   1.60164   1.60396   1.60474   1.60549
 Alpha virt. eigenvalues --    1.60716   1.61179   1.62005   1.62236   1.62541
 Alpha virt. eigenvalues --    1.63911   1.64366   1.65105   1.65611   1.66852
 Alpha virt. eigenvalues --    1.67550   1.67910   1.69990   1.70536   1.70859
 Alpha virt. eigenvalues --    1.71399   1.71635   1.72391   1.72864   1.74068
 Alpha virt. eigenvalues --    1.75141   1.75303   1.75520   1.75855   1.76806
 Alpha virt. eigenvalues --    1.76851   1.76937   1.77447   1.77830   1.78654
 Alpha virt. eigenvalues --    1.78840   1.79193   1.79757   1.80373   1.80662
 Alpha virt. eigenvalues --    1.81124   1.81356   1.81726   1.82128   1.82723
 Alpha virt. eigenvalues --    1.82962   1.83257   1.83863   1.84181   1.84435
 Alpha virt. eigenvalues --    1.85150   1.85245   1.85633   1.86082   1.86364
 Alpha virt. eigenvalues --    1.86484   1.87131   1.87517   1.88216   1.88586
 Alpha virt. eigenvalues --    1.89373   1.89987   1.90194   1.90288   1.90453
 Alpha virt. eigenvalues --    1.90815   1.91097   1.91414   1.92371   1.93438
 Alpha virt. eigenvalues --    1.94866   1.95394   1.95566   1.95812   1.96132
 Alpha virt. eigenvalues --    1.98128   1.99345   1.99493   1.99650   2.04508
 Alpha virt. eigenvalues --    2.06399   2.07362   2.08143   2.08585   2.08872
 Alpha virt. eigenvalues --    2.09039   2.09366   2.09541   2.10344   2.11214
 Alpha virt. eigenvalues --    2.11585   2.11946   2.12843   2.14837   2.15169
 Alpha virt. eigenvalues --    2.15976   2.16796   2.17221   2.17554   2.17725
 Alpha virt. eigenvalues --    2.19921   2.20214   2.20400   2.20714   2.21062
 Alpha virt. eigenvalues --    2.21121   2.22199   2.24542   2.25326   2.25992
 Alpha virt. eigenvalues --    2.26406   2.26750   2.27523   2.28505   2.28945
 Alpha virt. eigenvalues --    2.29180   2.29877   2.30289   2.33251   2.35630
 Alpha virt. eigenvalues --    2.36448   2.40204   2.40948   2.41077   2.43706
 Alpha virt. eigenvalues --    2.44200   2.50085   2.51384   2.57297   2.64765
 Alpha virt. eigenvalues --    2.64839   2.64966   2.65516   2.66015   2.66577
 Alpha virt. eigenvalues --    2.66761   2.66840   2.66944   2.67046   2.67065
 Alpha virt. eigenvalues --    2.67127   2.67176   2.67348   2.67371   2.67429
 Alpha virt. eigenvalues --    2.67686   2.67696   2.67801   2.67836   2.67916
 Alpha virt. eigenvalues --    2.68718   2.68946   2.69289   2.69382   2.70023
 Alpha virt. eigenvalues --    2.70194   2.70291   2.70506   2.70694   2.70826
 Alpha virt. eigenvalues --    2.70917   2.71396   2.71454   2.71525   2.71590
 Alpha virt. eigenvalues --    2.71693   2.71999   2.72636   2.72953   2.72984
 Alpha virt. eigenvalues --    2.73187   2.73246   2.73297   2.73354   2.73382
 Alpha virt. eigenvalues --    2.73516   2.73829   2.73918   2.73939   2.74028
 Alpha virt. eigenvalues --    2.74113   2.74226   2.74361   2.74587   2.74774
 Alpha virt. eigenvalues --    2.74809   2.75002   2.75160   2.75612   2.76068
 Alpha virt. eigenvalues --    2.76208   2.76318   2.76462   2.76767   2.76978
 Alpha virt. eigenvalues --    2.77139   2.77250   2.77299   2.78495   2.78648
 Alpha virt. eigenvalues --    2.78667   2.78990   2.79863   2.80124   2.80233
 Alpha virt. eigenvalues --    2.81230   2.81764   2.81820   2.82031   2.82200
 Alpha virt. eigenvalues --    2.82323   2.82683   2.82980   2.83219   2.83682
 Alpha virt. eigenvalues --    2.83751   2.83923   2.84027   2.84252   2.85020
 Alpha virt. eigenvalues --    2.85517   2.86095   2.86253   2.86316   2.86449
 Alpha virt. eigenvalues --    2.86616   2.86795   2.86905   2.88195   2.88463
 Alpha virt. eigenvalues --    2.88620   2.89087   2.89653   2.89689   2.89788
 Alpha virt. eigenvalues --    2.89825   2.89950   2.90065   2.90552   2.90682
 Alpha virt. eigenvalues --    2.90751   2.91748   2.91881   2.91990   2.92035
 Alpha virt. eigenvalues --    2.92210   2.92485   2.92725   2.92919   2.93110
 Alpha virt. eigenvalues --    2.93303   2.93437   2.93694   2.93927   2.94071
 Alpha virt. eigenvalues --    2.94198   2.95040   2.95192   2.95433   2.95675
 Alpha virt. eigenvalues --    2.95724   2.95833   2.96222   2.96438   2.96521
 Alpha virt. eigenvalues --    2.96620   2.96767   2.96897   2.97191   2.97416
 Alpha virt. eigenvalues --    2.97540   2.97729   2.97985   2.98325   2.99074
 Alpha virt. eigenvalues --    2.99318   2.99404   2.99662   2.99713   3.00052
 Alpha virt. eigenvalues --    3.00168   3.00445   3.01063   3.01291   3.01372
 Alpha virt. eigenvalues --    3.02456   3.02967   3.03253   3.03616   3.05200
 Alpha virt. eigenvalues --    3.06466   3.06726   3.07155   3.10925   3.11536
 Alpha virt. eigenvalues --    3.11688   3.11764   3.12176   3.12610   3.13724
 Alpha virt. eigenvalues --    3.13805   3.13988   3.16545   3.20048   3.21679
 Alpha virt. eigenvalues --    3.22030   3.23934   3.32565   3.41150   3.41729
 Alpha virt. eigenvalues --    3.42393   3.43114   3.44986   3.45071   3.45917
 Alpha virt. eigenvalues --    3.46158   3.46282   3.47315   3.47662   3.47916
 Alpha virt. eigenvalues --    3.47978   3.51256   3.51845   3.52379   3.53696
 Alpha virt. eigenvalues --    3.53849   3.54480   3.54785   3.54922   3.55124
 Alpha virt. eigenvalues --    3.55278   3.55625   3.56024   3.56707   3.57590
 Alpha virt. eigenvalues --    3.57790   3.58426   3.59501   3.59689   3.60455
 Alpha virt. eigenvalues --    3.60736   3.61270   3.61621   3.62059   3.62471
 Alpha virt. eigenvalues --    3.69397   3.74775  68.64285  68.65370  68.66464
 Alpha virt. eigenvalues --   68.68606  68.72686  68.73588  68.81764  68.82765
 Alpha virt. eigenvalues --   68.83334  68.85709  68.86824  68.88157 576.22721
 Alpha virt. eigenvalues --  576.23781 576.24853 576.26948 576.31037 576.31928
 Alpha virt. eigenvalues --  576.39951 576.40931 576.41482 576.43759 576.44849
 Alpha virt. eigenvalues --  576.46175
          Condensed to atoms (all electrons):
 Mulliken charges:
               1
     1  Cl  -0.924497
     2  C   -0.077236
     3  C    0.043528
     4  C   -0.075583
     5  C   -0.033501
     6  C   -0.031833
     7  C   -0.049873
     8  H    0.030127
     9  H    0.030673
    10  H    0.041501
    11  H    0.037566
    12  H    0.040393
    13  C   -0.107370
    14  C    0.015051
    15  H    0.022860
    16  H    0.042537
    17  H    0.031768
    18  O   -0.663927
    19  O   -0.661749
    20  O   -0.654731
    21  O   -0.662670
    22  W    1.737141
    23  W    1.674602
    24  W    1.683994
    25  W    1.694823
    26  W    1.677489
    27  W    1.729426
    28  W    1.621446
    29  W    1.686040
    30  O   -0.320514
    31  O   -0.365154
    32  O   -0.366073
    33  O   -0.361683
    34  O   -0.665963
    35  O   -0.671115
    36  O   -0.662259
    37  O   -0.664487
    38  O   -0.367625
    39  O   -0.365945
    40  O   -0.295346
    41  O   -0.365015
    42  O   -0.670306
    43  O   -0.663733
    44  O   -0.661067
    45  O   -0.666019
    46  O   -0.368495
    47  O   -0.320996
    48  O   -0.358528
    49  O   -0.363040
    50  W    1.674588
    51  W    1.678391
    52  W    1.684605
    53  W    1.685488
    54  O   -0.724236
    55  O   -0.708600
    56  O   -0.726355
    57  O   -0.722564
    58  O   -0.708388
    59  O   -0.727279
    60  O   -0.725242
    61  O   -0.721388
    62  O   -0.725153
    63  O   -0.710035
    64  O   -0.723833
    65  O   -0.726949
    66  O   -0.803707
    67  O   -0.802279
    68  O   -0.799860
    69  O   -0.809039
    70  K    0.865676
    71  K    0.866575
    72  K    0.862938
    73  V    1.192013
 Sum of Mulliken charges =  -1.00000
 Mulliken charges with hydrogens summed into heavy atoms:
               1
     1  Cl  -0.924497
     2  C   -0.047109
     3  C    0.043528
     4  C   -0.044910
     5  C    0.008000
     6  C    0.005734
     7  C   -0.009479
    13  C   -0.084509
    14  C    0.089356
    18  O   -0.663927
    19  O   -0.661749
    20  O   -0.654731
    21  O   -0.662670
    22  W    1.737141
    23  W    1.674602
    24  W    1.683994
    25  W    1.694823
    26  W    1.677489
    27  W    1.729426
    28  W    1.621446
    29  W    1.686040
    30  O   -0.320514
    31  O   -0.365154
    32  O   -0.366073
    33  O   -0.361683
    34  O   -0.665963
    35  O   -0.671115
    36  O   -0.662259
    37  O   -0.664487
    38  O   -0.367625
    39  O   -0.365945
    40  O   -0.295346
    41  O   -0.365015
    42  O   -0.670306
    43  O   -0.663733
    44  O   -0.661067
    45  O   -0.666019
    46  O   -0.368495
    47  O   -0.320996
    48  O   -0.358528
    49  O   -0.363040
    50  W    1.674588
    51  W    1.678391
    52  W    1.684605
    53  W    1.685488
    54  O   -0.724236
    55  O   -0.708600
    56  O   -0.726355
    57  O   -0.722564
    58  O   -0.708388
    59  O   -0.727279
    60  O   -0.725242
    61  O   -0.721388
    62  O   -0.725153
    63  O   -0.710035
    64  O   -0.723833
    65  O   -0.726949
    66  O   -0.803707
    67  O   -0.802279
    68  O   -0.799860
    69  O   -0.809039
    70  K    0.865676
    71  K    0.866575
    72  K    0.862938
    73  V    1.192013
 Electronic spatial extent (au):  <R**2>=         317524.4883
 Charge=             -1.0000 electrons
 Dipole moment (field-independent basis, Debye):
    X=             51.4677    Y=            -51.7587    Z=            -38.5635  Tot=             82.5532
 Quadrupole moment (field-independent basis, Debye-Ang):
   XX=          -1062.2311   YY=           -888.7991   ZZ=           -910.7890
   XY=            460.2689   XZ=            461.4780   YZ=           -483.7199
 Traceless Quadrupole moment (field-independent basis, Debye-Ang):
   XX=           -108.2913   YY=             65.1406   ZZ=             43.1507
   XY=            460.2689   XZ=            461.4780   YZ=           -483.7199
 Octapole moment (field-independent basis, Debye-Ang**2):
  XXX=          13516.2619  YYY=          -1105.9098  ZZZ=         -19071.7240  XYY=           6117.6783
  XXY=          -3739.1587  XXZ=          -9487.7058  XZZ=           7364.0330  YZZ=          -4242.6098
  YYZ=          -9049.6646  XYZ=           4872.1191
 Hexadecapole moment (field-independent basis, Debye-Ang**3):
 XXXX=        -160008.7277 YYYY=         -53587.6638 ZZZZ=        -345123.2299 XXXY=          38013.9538
 XXXZ=         123511.4811 YYYX=          21281.6425 YYYZ=         -13142.7504 ZZZX=         127753.7657
 ZZZY=         -36463.0124 XXYY=         -56410.7066 XXZZ=        -108387.9262 YYZZ=         -99902.4194
 XXYZ=         -43274.6026 YYXZ=          62023.7945 ZZXY=          51273.9338
 N-N= 2.097716567097D+04 E-N=-5.903847110847D+04  KE= 6.765099807247D+03
   1 Symmetry operations used in ECPInt.
 ECPInt:  NShTT=  127765 NPrTT=  468030 LenC2=   96655 LenP2D=  221134.
 LDataN:  DoStor=T MaxTD1= 9 Len=  602
 D1PCM: PCM CHGder 1st derivatives, ID1Alg=3 FixD1E=F DoIter=F DoCFld=F I1PDM=0.
 Calling FoFJK, ICntrl=      2127 FMM=T ISym2X=0 I1Cent= 0 IOpClX= 0 NMat=1 NMatS=1 NMatT=0.
 Defaulting to unpruned grid for atomic number  74.
 Defaulting to unpruned grid for atomic number  74.
 Defaulting to unpruned grid for atomic number  74.
 Defaulting to unpruned grid for atomic number  74.
 Defaulting to unpruned grid for atomic number  74.
 Defaulting to unpruned grid for atomic number  74.
 Defaulting to unpruned grid for atomic number  74.
 Defaulting to unpruned grid for atomic number  74.
 Defaulting to unpruned grid for atomic number  74.
 Defaulting to unpruned grid for atomic number  74.
 Defaulting to unpruned grid for atomic number  74.
 Defaulting to unpruned grid for atomic number  74.
 Defaulting to unpruned grid for atomic number  74.
 Defaulting to unpruned grid for atomic number  74.
 Defaulting to unpruned grid for atomic number  74.
 Defaulting to unpruned grid for atomic number  74.
 Defaulting to unpruned grid for atomic number  74.
 Defaulting to unpruned grid for atomic number  74.
 Defaulting to unpruned grid for atomic number  74.
 Defaulting to unpruned grid for atomic number  74.
 Defaulting to unpruned grid for atomic number  74.
 Defaulting to unpruned grid for atomic number  74.
 Defaulting to unpruned grid for atomic number  74.
 Defaulting to unpruned grid for atomic number  74.
 Defaulting to unpruned grid for atomic number  74.
 Defaulting to unpruned grid for atomic number  74.
 Defaulting to unpruned grid for atomic number  74.
 Defaulting to unpruned grid for atomic number  74.
 Defaulting to unpruned grid for atomic number  74.
 Defaulting to unpruned grid for atomic number  74.
 Defaulting to unpruned grid for atomic number  74.
 Defaulting to unpruned grid for atomic number  74.
 Defaulting to unpruned grid for atomic number  74.
 Defaulting to unpruned grid for atomic number  74.
 Defaulting to unpruned grid for atomic number  74.
 Defaulting to unpruned grid for atomic number  74.
 Defaulting to unpruned grid for atomic number  74.
 Defaulting to unpruned grid for atomic number  74.
 Defaulting to unpruned grid for atomic number  74.
 Defaulting to unpruned grid for atomic number  74.
 Defaulting to unpruned grid for atomic number  74.
 Defaulting to unpruned grid for atomic number  74.
 Defaulting to unpruned grid for atomic number  74.
 Defaulting to unpruned grid for atomic number  74.
 Defaulting to unpruned grid for atomic number  74.
 Defaulting to unpruned grid for atomic number  74.
 Defaulting to unpruned grid for atomic number  74.
 Defaulting to unpruned grid for atomic number  74.
 Defaulting to unpruned grid for atomic number  74.
 Defaulting to unpruned grid for atomic number  74.
 Defaulting to unpruned grid for atomic number  74.
 Defaulting to unpruned grid for atomic number  74.
 Defaulting to unpruned grid for atomic number  74.
 Defaulting to unpruned grid for atomic number  74.
 Defaulting to unpruned grid for atomic number  74.
 Defaulting to unpruned grid for atomic number  74.
 -------------------------------------------------------------------
 Center     Atomic                   Forces (Hartrees/Bohr)
 Number     Number              X              Y              Z
 -------------------------------------------------------------------
      1       17          -0.001220456    0.005232521    0.001353684
      2        6          -0.001437626   -0.000289215   -0.001894406
      3        6          -0.001095027   -0.001772954    0.003591042
      4        6           0.001663803    0.002224597    0.000687704
      5        6           0.001103154    0.000070039    0.001149566
      6        6           0.000365452   -0.000530491    0.000501172
      7        6          -0.000880771   -0.001407770    0.000447728
      8        1          -0.000144767    0.000544692    0.000199720
      9        1          -0.000664699    0.000502413    0.000026709
     10        1          -0.000519510    0.000216068    0.000086668
     11        1           0.000258384   -0.000204210   -0.000001008
     12        1          -0.000269492    0.000350030    0.000326588
     13        6           0.008631340    0.010751119   -0.007765937
     14        6          -0.004116972   -0.016155542    0.000769554
     15        1          -0.000035588   -0.000387725   -0.000288303
     16        1          -0.001813576    0.002289000    0.001128776
     17        1          -0.002152729    0.000622706    0.000127038
     18        8          -0.003672715    0.000465635    0.000848260
     19        8           0.003782381   -0.000739830    0.001009531
     20        8           0.002852098   -0.003070298   -0.000457965
     21        8          -0.002710458    0.002259343   -0.000808872
     22       74           0.001695007    0.011734929   -0.010599155
     23       74          -0.002457559   -0.010903490   -0.010766562
     24       74           0.006983198    0.008857871    0.010462146
     25       74          -0.007828137   -0.008150851    0.011384305
     26       74           0.008843167   -0.008065480   -0.011504670
     27       74          -0.008927407    0.008900844   -0.011527816
     28       74          -0.012446471    0.003298875    0.011693096
     29       74           0.011975743   -0.002209783    0.011782574
     30        8          -0.001206163   -0.003030577    0.003406629
     31        8           0.000758253    0.003101448    0.003284677
     32        8          -0.001819465   -0.002484665   -0.003634907
     33        8           0.002025165    0.002272906   -0.003479808
     34        8          -0.001360463   -0.000774638    0.003722836
     35        8           0.001663575    0.000201250    0.003720278
     36        8           0.000855649   -0.001635182   -0.003476287
     37        8          -0.000416043    0.001242303   -0.003390728
     38        8          -0.004830167   -0.002144271   -0.001372825
     39        8           0.005518225    0.001900446   -0.001258575
     40        8           0.002713980   -0.006523666   -0.000307507
     41        8          -0.001452130    0.005042061    0.000633382
     42        8          -0.002298897   -0.003044863    0.001428975
     43        8           0.002781228    0.002847730    0.001035635
     44        8          -0.000386970   -0.004267256   -0.000917119
     45        8           0.001062686    0.003544163   -0.001068296
     46        8          -0.002816733    0.003189562    0.003313661
     47        8           0.003540297   -0.001961958    0.003481754
     48        8           0.004427033   -0.001158861   -0.003612324
     49        8          -0.004044954    0.000961879   -0.003564854
     50       74           0.015512530    0.005171336    0.003453878
     51       74          -0.015892573   -0.004332879    0.003830700
     52       74          -0.006337417    0.017203972   -0.003751063
     53       74           0.005093365   -0.015459868   -0.003103165
     54        8          -0.000699832    0.001507354    0.002440109
     55        8           0.000869057   -0.001682284    0.002295229
     56        8           0.001789419   -0.000325854   -0.002227503
     57        8          -0.001811532   -0.000776567   -0.002433126
     58        8           0.000206565   -0.002313618    0.001065258
     59        8           0.000352797    0.002219178    0.001728332
     60        8          -0.001438647   -0.002007358   -0.001745863
     61        8           0.001958278    0.001351960   -0.001564137
     62        8          -0.001231473    0.001890901    0.000747065
     63        8           0.000902170   -0.002345553    0.000173433
     64        8           0.002361687   -0.000264397   -0.000758639
     65        8          -0.002220039   -0.000357570   -0.000529589
     66        8          -0.028467642   -0.005125726    0.018898926
     67        8           0.029126299    0.005961549    0.018382509
     68        8           0.011940346   -0.027652775   -0.018738630
     69        8          -0.012161690    0.025932452   -0.018815902
     70       19           0.000152365   -0.000523558   -0.000417929
     71       19           0.000421926    0.000040878    0.000209378
     72       19          -0.000515034    0.000044610    0.000265153
     73       23          -0.000384797    0.000132961    0.000689811
 -------------------------------------------------------------------
 Cartesian Forces:  Max     0.029126299 RMS     0.006562886

 GradGradGradGradGradGradGradGradGradGradGradGradGradGradGradGradGradGrad
 Berny optimization.
 Search for a local minimum.
 Step number   1 out of a maximum of    2
 All quantities printed in internal units (Hartrees-Bohrs-Radians)
 Second derivative matrix not updated -- first step.
 ITU=  0
     Eigenvalues ---    0.00000   0.00000   0.00000   0.00010   0.00092
     Eigenvalues ---    0.00093   0.00257   0.00560   0.00622   0.01641
     Eigenvalues ---    0.01974   0.02903   0.02933   0.03204   0.03410
     Eigenvalues ---    0.03443   0.03725   0.03729   0.04157   0.04489
     Eigenvalues ---    0.04599   0.04604   0.04614   0.04824   0.04839
     Eigenvalues ---    0.04991   0.05350   0.05557   0.05585   0.06356
     Eigenvalues ---    0.06392   0.06525   0.06784   0.06855   0.07045
     Eigenvalues ---    0.07299   0.07371   0.07597   0.08320   0.08372
     Eigenvalues ---    0.08700   0.08722   0.08896   0.08920   0.09737
     Eigenvalues ---    0.09927   0.10079   0.10375   0.10417   0.10488
     Eigenvalues ---    0.10806   0.10862   0.11536   0.11632   0.12009
     Eigenvalues ---    0.12025   0.12122   0.12460   0.12543   0.12629
     Eigenvalues ---    0.12641   0.12734   0.12834   0.12959   0.13065
     Eigenvalues ---    0.13853   0.13951   0.14260   0.14513   0.14739
     Eigenvalues ---    0.16855   0.16866   0.17066   0.17153   0.17557
     Eigenvalues ---    0.17661   0.18535   0.19757   0.19930   0.20252
     Eigenvalues ---    0.20833   0.20965   0.21857   0.21992   0.22063
     Eigenvalues ---    0.22385   0.23065   0.23340   0.23928   0.23942
     Eigenvalues ---    0.24565   0.24718   0.24863   0.25537   0.26079
     Eigenvalues ---    0.26280   0.26437   0.27534   0.27616   0.27860
     Eigenvalues ---    0.28216   0.28248   0.28716   0.29443   0.29940
     Eigenvalues ---    0.30431   0.30486   0.30515   0.30584   0.30611
     Eigenvalues ---    0.30787   0.31160   0.31334   0.31438   0.32079
     Eigenvalues ---    0.32291   0.32326   0.32633   0.32845   0.33373
     Eigenvalues ---    0.33458   0.35175   0.35478   0.35790   0.36852
     Eigenvalues ---    0.37362   0.37533   0.37628   0.38060   0.38411
     Eigenvalues ---    0.38783   0.39006   0.40068   0.40161   0.40967
     Eigenvalues ---    0.42083   0.42160   0.43546   0.43983   0.44898
     Eigenvalues ---    0.45133   0.45419   0.45861   0.47671   0.48073
     Eigenvalues ---    0.48411   0.48595   0.48638   0.49259   0.49439
     Eigenvalues ---    0.49863   0.50545   0.51386   0.51646   0.52083
     Eigenvalues ---    0.52901   0.53605   0.55621   0.58390   0.64407
     Eigenvalues ---    0.67567   0.76657   0.81417   0.82720   0.96695
     Eigenvalues ---    0.97249   0.98501   0.99251   1.01642   1.04366
     Eigenvalues ---    1.07048   1.10768   1.11360   1.12198   1.15046
     Eigenvalues ---    1.18532   1.19074   1.20442   1.22175   1.22515
     Eigenvalues ---    1.22852   1.25632   1.26437   1.26626   1.27110
     Eigenvalues ---    1.27673   1.29062   1.29346   1.45157   1.45617
     Eigenvalues ---    1.45831   1.48244   1.51264   1.51587   1.51837
     Eigenvalues ---    1.52429   1.55490   1.55745   1.56539   1.58287
     Eigenvalues ---    1.58315   1.59479   1.61442   1.64585   1.67203
     Eigenvalues ---    1.73999   1.79712   1.84664   1.87802   1.90322
     Eigenvalues ---    2.01617   2.07164   3.12500
 Eigenvalue     1 is   0.00D+00 Eigenvector:
                          Y16       Y14       Y15       Y17       Y13
   1                    0.17465   0.17465   0.17465   0.17465   0.17465
                          Y3        Y9        Y8        Y4        Y2
   1                    0.17465   0.17465   0.17465   0.17465   0.17465
 Eigenvalue     2 is   3.67D-07 Eigenvector:
                          Y16       X16       X11       Y11       Y14
   1                    0.33368  -0.26702   0.26236  -0.24781   0.24491
                          Y15       Y17       X14       Y13       X10
   1                    0.22654   0.21174  -0.19215   0.18626   0.18454
 Eigenvalue     3 is   3.12D-06 Eigenvector:
                          X9        Y12       X10       X12       Y9
   1                    0.33754   0.28566   0.28350  -0.26123  -0.25488
                          Y8        X15       Y10       X8        X4
   1                    0.24943   0.23083  -0.21878  -0.20885   0.20309
 Quadratic step=1.090D+01 exceeds max=3.000D-01 adjusted using Lamda=-6.483D-03.
 Angle between NR and scaled steps=  53.16 degrees.
 Angle between quadratic step and forces=  64.09 degrees.
 Linear search not attempted -- first point.
 B after Tr=     0.003673    0.002488    0.001761
         Rot=    1.000000   -0.000145    0.000059    0.000221 Ang=  -0.03 deg.
 Variable       Old X    -DE/DX   Delta X   Delta X   Delta X     New X
                                 (Linear)    (Quad)   (Total)
    X1      -18.61010  -0.00122   0.00000  -0.00114   0.00702 -18.60308
    Y1       15.48249   0.00523   0.00000   0.00533   0.01026  15.49276
    Z1       19.92784   0.00135   0.00000   0.00145   0.00550  19.93333
    X2      -15.73132  -0.00144   0.00000  -0.01428  -0.00980 -15.74112
    Y2        8.00196  -0.00029   0.00000  -0.00669  -0.00394   7.99802
    Z2       23.10084  -0.00189   0.00000  -0.01130  -0.00909  23.09175
    X3      -17.20987  -0.00110   0.00000   0.00399   0.00845 -17.20142
    Y3        7.40484  -0.00177   0.00000  -0.03591  -0.03189   7.37294
    Z3       20.97411   0.00359   0.00000  -0.01365  -0.01179  20.96233
    X4      -18.94835   0.00166   0.00000  -0.01105  -0.00750 -18.95585
    Y4        5.40189   0.00222   0.00000  -0.01162  -0.00690   5.39499
    Z4       21.17784   0.00069   0.00000   0.01871   0.01980  21.19764
    X5      -19.27568   0.00110   0.00000  -0.00593  -0.00321 -19.27889
    Y5        4.11692   0.00007   0.00000  -0.00032   0.00389   4.12080
    Z5       23.44851   0.00115   0.00000   0.02754   0.02822  23.47673
    X6      -17.84985   0.00037   0.00000   0.00615   0.00892 -17.84093
    Y6        4.78777  -0.00053   0.00000  -0.00318  -0.00022   4.78755
    Z6       25.56368   0.00050   0.00000   0.01801   0.01905  25.58274
    X7      -16.05108  -0.00088   0.00000  -0.00946  -0.00582 -16.05689
    Y7        6.70959  -0.00141   0.00000   0.00710   0.00934   6.71893
    Z7       25.36815   0.00045   0.00000   0.00150   0.00331  25.37146
    X8      -14.30684  -0.00014   0.00000  -0.02432  -0.01917 -14.32600
    Y8        9.49003   0.00054   0.00000   0.00417   0.00634   9.49638
    Z8       22.97728   0.00020   0.00000  -0.01487  -0.01205  22.96523
    X9      -20.05006  -0.00066   0.00000  -0.03226  -0.02875 -20.07881
    Y9        4.85567   0.00050   0.00000  -0.00551   0.00019   4.85585
    Z9       19.51693   0.00003   0.00000   0.03000   0.03080  19.54772
   X10      -20.63132  -0.00052   0.00000  -0.02059  -0.01856 -20.64989
   Y10        2.56389   0.00022   0.00000   0.01285   0.01762   2.58151
   Z10       23.56652   0.00009   0.00000   0.03854   0.03861  23.60512
   X11      -18.10495   0.00026   0.00000   0.01840   0.02052 -18.08443
   Y11        3.78338  -0.00020   0.00000  -0.00111   0.00144   3.78482
   Z11       27.34869  -0.00000   0.00000   0.02080   0.02152  27.37021
   X12      -14.87933  -0.00027   0.00000  -0.01712  -0.01344 -14.89277
   Y12        7.19703   0.00035   0.00000   0.03030   0.03155   7.22857
   Z12       26.99761   0.00033   0.00000   0.00088   0.00297  27.00059
   X13      -17.02026   0.00863   0.00000   0.03253   0.03786 -16.98241
   Y13        8.78379   0.01075   0.00000  -0.08571  -0.08109   8.70271
   Z13       18.58280  -0.00777   0.00000  -0.05265  -0.05038  18.53243
   X14      -15.60879  -0.00412   0.00000  -0.00496   0.00133 -15.60745
   Y14       10.85383  -0.01616   0.00000  -0.08977  -0.08563  10.76821
   Z14       18.11771   0.00077   0.00000  -0.04311  -0.04007  18.07763
   X15      -18.18617  -0.00004   0.00000   0.04395   0.04911 -18.13706
   Y15        8.03251  -0.00039   0.00000  -0.10554  -0.09996   7.93255
   Z15       17.04542  -0.00029   0.00000  -0.05165  -0.04974  16.99568
   X16      -15.53817  -0.00181   0.00000  -0.04411  -0.03722 -15.57538
   Y16       11.64794   0.00229   0.00000  -0.03175  -0.02707  11.62087
   Z16       16.21452   0.00113   0.00000  -0.01955  -0.01626  16.19826
   X17      -14.36073  -0.00215   0.00000  -0.06761  -0.06109 -14.42182
   Y17       11.71115   0.00062   0.00000  -0.04550  -0.04229  11.66885
   Z17       19.51850   0.00013   0.00000  -0.01636  -0.01292  19.50557
   X18       -1.86868  -0.00367   0.00000  -0.02033  -0.01981  -1.88849
   Y18       -3.36268   0.00047   0.00000  -0.00387  -0.00464  -3.36732
   Z18       14.10377   0.00085   0.00000   0.00990   0.01047  14.11423
   X19      -15.88978   0.00378   0.00000   0.02153   0.02244 -15.86734
   Y19       -2.52024  -0.00074   0.00000   0.01455   0.01996  -2.50028
   Z19       14.09942   0.00101   0.00000   0.01267   0.01183  14.11125
   X20      -13.29997   0.00285   0.00000   0.01779   0.02024 -13.27973
   Y20        2.54596  -0.00307   0.00000  -0.00909  -0.00646   2.53950
   Z20       19.79826  -0.00046   0.00000  -0.00550  -0.00457  19.79369
   X21       -4.40772  -0.00271   0.00000  -0.01478  -0.01711  -4.42482
   Y21       -8.26782   0.00226   0.00000   0.01122   0.00989  -8.25793
   Z21       19.94425  -0.00081   0.00000  -0.00910  -0.01025  19.93400
   X22       -6.44874   0.00170   0.00000  -0.00537  -0.00255  -6.45129
   Y22        1.32740   0.01173   0.00000   0.02199   0.02379   1.35118
   Z22       12.24107  -0.01060   0.00000  -0.00576  -0.00437  12.23670
   X23      -11.33927  -0.00246   0.00000   0.00660   0.00562 -11.33365
   Y23       -7.21885  -0.01090   0.00000  -0.00361   0.00029  -7.21856
   Z23       12.41219  -0.01077   0.00000  -0.00555  -0.00722  12.40497
   X24       -6.84715   0.00698   0.00000   0.02162   0.02348  -6.82366
   Y24        1.68417   0.00886   0.00000  -0.00193  -0.00267   1.68150
   Z24       21.58211   0.01046   0.00000   0.00584   0.00728  21.58939
   X25      -10.89953  -0.00783   0.00000  -0.01940  -0.02150 -10.92103
   Y25       -7.29181  -0.00815   0.00000   0.00265   0.00368  -7.28813
   Z25       21.68336   0.01138   0.00000   0.00890   0.00726  21.69062
   X26       -4.62215   0.00884   0.00000  -0.00575  -0.00565  -4.62781
   Y26       -4.86919  -0.00807   0.00000  -0.00840  -0.00737  -4.87656
   Z26       12.08732  -0.01150   0.00000  -0.00691  -0.00711  12.08021
   X27      -13.12537  -0.00893   0.00000   0.00329   0.00511 -13.12026
   Y27       -1.01201   0.00890   0.00000   0.02654   0.03134  -0.98067
   Z27       12.03311  -0.01153   0.00000  -0.00904  -0.00911  12.02400
   X28      -12.89942  -0.01245   0.00000  -0.00466  -0.00377 -12.90320
   Y28       -0.46733   0.00330   0.00000  -0.00369  -0.00184  -0.46917
   Z28       21.85886   0.01169   0.00000   0.01126   0.01136  21.87022
   X29       -4.82727   0.01198   0.00000   0.00820   0.00702  -4.82025
   Y29       -5.12863  -0.00221   0.00000   0.00609   0.00435  -5.12428
   Z29       21.93858   0.01178   0.00000   0.00854   0.00825  21.94682
   X30       -5.99542  -0.00121   0.00000   0.01020   0.01428  -5.98115
   Y30        3.57686  -0.00303   0.00000   0.01222   0.01445   3.59131
   Z30       10.02485   0.00341   0.00000  -0.00003   0.00207  10.02691
   X31      -11.60304   0.00076   0.00000  -0.00744  -0.00921 -11.61225
   Y31       -9.57972   0.00310   0.00000   0.00419   0.00884  -9.57089
   Z31       10.25307   0.00328   0.00000  -0.00045  -0.00284  10.25023
   X32       -5.12115  -0.00182   0.00000   0.01298   0.01530  -5.10585
   Y32        3.29125  -0.00248   0.00000   0.00197  -0.00017   3.29109
   Z32       23.76218  -0.00363   0.00000  -0.00247  -0.00036  23.76183
   X33      -12.61248   0.00203   0.00000  -0.00912  -0.01217 -12.62465
   Y33       -8.82450   0.00227   0.00000  -0.00181  -0.00068  -8.82518
   Z33       23.92387  -0.00348   0.00000   0.00176  -0.00052  23.92335
   X34       -5.04351  -0.00136   0.00000  -0.01506  -0.01338  -5.05689
   Y34       -1.69689  -0.00077   0.00000   0.00177   0.00343  -1.69346
   Z34       10.54905   0.00372   0.00000   0.01521   0.01588  10.56493
   X35      -12.68533   0.00166   0.00000   0.01502   0.01555 -12.66978
   Y35       -4.28747   0.00020   0.00000   0.01465   0.01965  -4.26782
   Z35       10.62670   0.00372   0.00000   0.01482   0.01385  10.64055
   X36      -10.05300   0.00086   0.00000   0.01341   0.01479 -10.03821
   Y36        1.05701  -0.00164   0.00000  -0.01340  -0.01324   1.04377
   Z36       23.36278  -0.00348   0.00000  -0.00920  -0.00832  23.35446
   X37       -7.66232  -0.00042   0.00000  -0.00751  -0.00954  -7.67186
   Y37       -6.65288   0.00124   0.00000   0.01218   0.01127  -6.64161
   Z37       23.44063  -0.00339   0.00000  -0.00948  -0.01055  23.43008
   X38        0.56539  -0.00483   0.00000   0.00753   0.00913   0.57452
   Y38        0.00073  -0.00214   0.00000  -0.01504  -0.01788  -0.01715
   Z38       17.53211  -0.00137   0.00000  -0.00227  -0.00045  17.53166
   X39      -18.34752   0.00552   0.00000  -0.00286  -0.00379 -18.35130
   Y39       -5.73246   0.00190   0.00000   0.01865   0.02415  -5.70832
   Z39       17.61948  -0.00126   0.00000   0.00013  -0.00193  17.61755
   X40      -12.02357   0.00271   0.00000   0.01626   0.02086 -12.00271
   Y40        6.47174  -0.00652   0.00000   0.00863   0.01168   6.48341
   Z40       16.38615  -0.00031   0.00000  -0.00897  -0.00675  16.37940
   X41       -5.65198  -0.00145   0.00000  -0.00199  -0.00567  -5.65765
   Y41      -12.23671   0.00504   0.00000   0.00168   0.00188 -12.23483
   Z41       16.55230   0.00063   0.00000  -0.00436  -0.00681  16.54550
   X42       -3.38757  -0.00230   0.00000  -0.01156  -0.00892  -3.39649
   Y42        1.44637  -0.00304   0.00000  -0.00724  -0.00734   1.43903
   Z42       14.12596   0.00143   0.00000   0.01325   0.01502  14.14098
   X43      -14.37511   0.00278   0.00000   0.01415   0.01290 -14.36221
   Y43       -7.33831   0.00285   0.00000   0.01779   0.02249  -7.31583
   Z43       14.26533   0.00104   0.00000   0.01100   0.00895  14.27427
   X44       -8.52284  -0.00039   0.00000   0.01239   0.01558  -8.50727
   Y44        4.17995  -0.00427   0.00000  -0.01776  -0.01722   4.16273
   Z44       19.71455  -0.00092   0.00000  -0.00896  -0.00699  19.70755
   X45       -9.20742   0.00106   0.00000  -0.00916  -0.01219  -9.21960
   Y45       -9.86705   0.00354   0.00000   0.01745   0.01825  -9.84879
   Z45       19.88495  -0.00107   0.00000  -0.00915  -0.01133  19.87362
   X46       -3.04668  -0.00282   0.00000  -0.00508  -0.00551  -3.05219
   Y46       -6.64825   0.00319   0.00000   0.00847   0.00944  -6.63881
   Z46        9.92339   0.00331   0.00000  -0.00602  -0.00654   9.91685
   X47      -14.80827   0.00354   0.00000   0.00447   0.00722 -14.80105
   Y47        0.50168  -0.00196   0.00000   0.01262   0.01881   0.52050
   Z47        9.78384   0.00348   0.00000  -0.00557  -0.00540   9.77844
   X48      -15.20842   0.00443   0.00000   0.00678   0.00748 -15.20093
   Y48       -0.29857  -0.00116   0.00000   0.00549   0.00772  -0.29086
   Z48       24.08140  -0.00361   0.00000   0.00819   0.00808  24.08947
   X49       -2.48894  -0.00404   0.00000  -0.00242  -0.00397  -2.49291
   Y49       -5.37937   0.00096   0.00000  -0.00418  -0.00757  -5.38695
   Z49       24.12573  -0.00356   0.00000   0.00454   0.00445  24.13018
   X50       -2.37911   0.01551   0.00000   0.00879   0.01006  -2.36906
   Y50       -0.97941   0.00517   0.00000  -0.00047  -0.00177  -0.98118
   Z50       16.69905   0.00345   0.00000   0.01376   0.01495  16.71400
   X51      -15.39806  -0.01589   0.00000  -0.00637  -0.00678 -15.40484
   Y51       -4.78022  -0.00433   0.00000   0.00807   0.01250  -4.76772
   Z51       16.76975   0.00383   0.00000   0.01554   0.01410  16.78385
   X52      -11.12270  -0.00634   0.00000   0.00397   0.00718 -11.11552
   Y52        3.50263   0.01720   0.00000   0.01680   0.01925   3.52188
   Z52       17.09921  -0.00375   0.00000  -0.01413  -0.01266  17.08655
   X53       -6.58624   0.00509   0.00000  -0.00459  -0.00705  -6.59329
   Y53       -9.26196  -0.01546   0.00000  -0.00674  -0.00635  -9.26832
   Z53       17.32514  -0.00310   0.00000  -0.01392  -0.01562  17.30952
   X54       -7.97839  -0.00070   0.00000  -0.00136  -0.00163  -7.98002
   Y54       -5.86098   0.00151   0.00000  -0.00615  -0.00345  -5.86444
   Z54       11.46530   0.00244   0.00000  -0.00714  -0.00802  11.45728
   X55       -9.75953   0.00087   0.00000   0.00015   0.00245  -9.75707
   Y55       -0.09351  -0.00168   0.00000   0.02499   0.02850  -0.06501
   Z55       11.35413   0.00230   0.00000  -0.00811  -0.00752  11.34661
   X56      -11.67051   0.00179   0.00000  -0.01102  -0.01167 -11.68218
   Y56       -3.76914  -0.00033   0.00000  -0.00322  -0.00210  -3.77124
   Z56       22.50993  -0.00223   0.00000   0.01132   0.01061  22.52054
   X57       -5.99499  -0.00181   0.00000   0.01309   0.01330  -5.98169
   Y57       -1.82950  -0.00078   0.00000   0.00291   0.00151  -1.82798
   Z57       22.55450  -0.00243   0.00000   0.00777   0.00829  22.56280
   X58       -8.24951   0.00021   0.00000  -0.00002   0.00323  -8.24628
   Y58        2.98353  -0.00231   0.00000   0.02044   0.02229   3.00582
   Z58       14.81304   0.00107   0.00000  -0.00917  -0.00751  14.80552
   X59       -9.45944   0.00035   0.00000   0.00055  -0.00144  -9.46089
   Y59       -8.83507   0.00222   0.00000  -0.00686  -0.00452  -8.83959
   Z59       14.96893   0.00173   0.00000  -0.00797  -0.00989  14.95904
   X60       -4.41247  -0.00144   0.00000   0.01836   0.02028  -4.39219
   Y60        1.10704  -0.00201   0.00000  -0.00191  -0.00300   1.10404
   Z60       19.05342  -0.00175   0.00000   0.00810   0.00966  19.06308
   X61      -13.33840   0.00196   0.00000  -0.01499  -0.01659 -13.35499
   Y61       -6.82431   0.00135   0.00000   0.00421   0.00704  -6.81726
   Z61       19.15197  -0.00156   0.00000   0.01008   0.00829  19.16026
   X62       -4.86422  -0.00123   0.00000  -0.00407  -0.00540  -4.86962
   Y62       -7.35102   0.00189   0.00000  -0.00748  -0.00714  -7.35816
   Z62       14.86431   0.00075   0.00000  -0.01116  -0.01210  14.85220
   X63      -12.88681   0.00090   0.00000   0.00095   0.00355 -12.88325
   Y63        1.48419  -0.00235   0.00000   0.02217   0.02608   1.51027
   Z63       14.75512   0.00017   0.00000  -0.01401  -0.01334  14.74179
   X64      -14.80182   0.00236   0.00000  -0.00602  -0.00559 -14.80741
   Y64       -2.21878  -0.00026   0.00000   0.00353   0.00701  -2.21177
   Z64       19.16338  -0.00076   0.00000   0.01487   0.01424  19.17762
   X65       -2.97194  -0.00222   0.00000   0.00875   0.00861  -2.96333
   Y65       -3.50123  -0.00036   0.00000   0.00002  -0.00173  -3.50296
   Z65       19.15873  -0.00053   0.00000   0.01151   0.01191  19.17063
   X66       -6.36254  -0.02847   0.00000  -0.05232  -0.05139  -6.41393
   Y66       -2.16650  -0.00513   0.00000  -0.00386  -0.00292  -2.16942
   Z66       15.12256   0.01890   0.00000   0.03405   0.03442  15.15699
   X67      -11.39598   0.02913   0.00000   0.05171   0.05196 -11.34402
   Y67       -3.69187   0.00596   0.00000   0.01748   0.02057  -3.67130
   Z67       15.18202   0.01838   0.00000   0.03338   0.03273  15.21476
   X68       -9.67787   0.01194   0.00000   0.02531   0.02658  -9.65129
   Y68       -0.37564  -0.02765   0.00000  -0.04409  -0.04277  -0.41841
   Z68       18.80074  -0.01874   0.00000  -0.03032  -0.02982  18.77092
   X69       -8.01542  -0.01216   0.00000  -0.02570  -0.02659  -8.04201
   Y69       -5.35516   0.02593   0.00000   0.04588   0.04647  -5.30869
   Z69       18.85220  -0.01882   0.00000  -0.02967  -0.03039  18.82180
   X70       -6.08009   0.00015   0.00000  -0.00341  -0.00612  -6.08621
   Y70      -11.60166  -0.00052   0.00000  -0.00457  -0.00248 -11.60414
   Z70       10.67001  -0.00042   0.00000  -0.01033  -0.01265  10.65736
   X71       -0.21238   0.00042   0.00000   0.01402   0.01498  -0.19740
   Y71        0.10698   0.00004   0.00000  -0.00294  -0.00712   0.09985
   Z71       23.35023   0.00021   0.00000   0.00662   0.00838  23.35861
   X72      -17.55736  -0.00052   0.00000  -0.01107  -0.01257 -17.56992
   Y72       -5.44348   0.00004   0.00000   0.00592   0.00936  -5.43413
   Z72       23.50140   0.00027   0.00000   0.00998   0.00809  23.50949
   X73       -8.86869  -0.00038   0.00000  -0.00069  -0.00029  -8.86899
   Y73       -2.88867   0.00013   0.00000   0.00338   0.00487  -2.88381
   Z73       16.98322   0.00069   0.00000   0.00317   0.00305  16.98626
         Item               Value     Threshold  Converged?
 Maximum Force            0.029126     0.000450     NO 
 RMS     Force            0.006563     0.000300     NO 
 Maximum Displacement     0.099964     0.001800     NO 
 RMS     Displacement     0.020122     0.001200     NO 
 Predicted change in Energy=-6.584983D-03
 GradGradGradGradGradGradGradGradGradGradGradGradGradGradGradGradGradGrad

 Unable to Open any file for archive entry.
 1\1\GINC-X11P1N2\Force\RwB97XD\def2SVP\C8H8Cl1K3O40V1W12(1-)\MAYUMIAO\
 02-Jun-2024\0\\# def2svp wb97xd scrf=(smd,solvent=acetonitrile) g09def
 ault scf=(xqc,maxcycle=64) force guess=read nosymm\\Title Card\\-1,1\C
 l,-9.8480413,8.19298314,10.54535689\C,-8.32465634,4.23445361,12.224436
 94\C,-9.10707055,3.91847097,11.09902241\C,-10.02703391,2.85855714,11.2
 068311\C,-10.20025211,2.17857779,12.40841865\C,-9.44573439,2.53357974,
 13.52771784\C,-8.49386373,3.55056346,13.42424887\H,-7.5708519,5.021909
 27,12.15905394\H,-10.6100367,2.56950747,10.32791199\H,-10.91762582,1.3
 5675133,12.47086314\H,-9.58072458,2.00208111,14.47230529\H,-7.87380324
 ,3.80850331,14.28652198\C,-9.00673624,4.64818309,9.83359624\C,-8.25981
 528,5.74360011,9.58747783\H,-9.62370676,4.25062149,9.02004569\H,-8.222
 44405,6.16382337,8.58035207\H,-7.59937315,6.19727108,10.32874332\O,-0.
 98886338,-1.77945424,7.46339103\O,-8.40850911,-1.3336535,7.46109168\O,
 -7.03804306,1.34726603,10.47678968\O,-2.33246304,-4.37513975,10.554041
 68\W,-3.41252768,0.70242803,6.47769738\W,-6.00048427,-3.82005171,6.568
 24553\W,-3.62335346,0.89122641,11.42076153\W,-5.76778114,-3.85866105,1
 1.4743373\W,-2.44593709,-2.5766651,6.39633461\W,-6.94564589,-0.5355304
 3,6.36764764\W,-6.8260807,-0.24730221,11.5672107\W,-2.55447911,-2.7139
 5234,11.60939415\O,-3.172641,1.89279075,5.30492078\O,-6.14006501,-5.06
 937036,5.42568985\O,-2.70999355,1.74165571,12.57440592\O,-6.6742383,-4
 .66972366,12.6599657\O,-2.668911,-0.89795435,5.58231603\O,-6.71278821,
 -2.26883292,5.6234083\O,-5.31981643,0.55934349,12.36304961\O,-4.054725
 41,-3.52055185,12.40424731\O,0.29919115,0.00038664,9.27759249\O,-9.709
 08679,-3.03348829,9.32382964\O,-6.36259764,3.42469608,8.67117855\O,-2.
 9908992,-6.47538679,8.7591017\O,-1.79262325,0.76538769,7.47513668\O,-7
 .60698084,-3.88326827,7.54888495\O,-4.51009357,2.21193364,10.43248841\
 O,-4.87235653,-5.22141589,10.52266241\O,-1.61223239,-3.51810198,5.2512
 3209\O,-7.83620124,0.26548005,5.17738503\O,-8.04794718,-0.15799908,12.
 74332675\O,-1.31708768,-2.84664182,12.76678655\W,-1.25897252,-0.518280
 84,8.83675601\W,-8.14830049,-2.52958508,8.87416847\W,-5.88588042,1.853
 50963,9.04851176\W,-3.48528844,-4.90121992,9.16807156\O,-4.2219829,-3.
 10149805,6.06717539\O,-5.16451974,-0.04948532,6.00834583\O,-6.17576893
 ,-1.99454313,11.91174263\O,-3.17241266,-0.9681271,11.93532976\O,-4.365
 45366,1.57881833,7.83872127\O,-5.00572161,-4.67531548,7.92121653\O,-2.
 33497743,0.58582083,10.08263655\O,-7.05837926,-3.61126722,10.13478825\
 O,-2.57403284,-3.88999274,7.86585189\O,-6.81940447,0.78539979,7.808075
 23\O,-7.83278731,-1.17412886,10.14082466\O,-1.57268502,-1.85276855,10.
 13836123\O,-3.36691004,-1.14646218,8.00251614\O,-6.03049142,-1.9536521
 ,8.03398076\O,-5.12130662,-0.19877753,9.94892423\O,-4.24157676,-2.8338
 2846,9.9761531\K,-3.21744429,-6.13933499,5.64632361\K,-0.11238596,0.05
 661096,12.35640842\K,-9.29095314,-2.88056799,12.43640716\V,-4.69311019
 ,-1.52861942,8.98713176\\Version=ES64L-G16RevC.01\HF=-7327.7011424\RMS
 D=2.567e-09\RMSF=6.563e-03\Dipole=10.4777647,-22.1414581,2.5236248\Qua
 drupole=-80.5119617,48.4304574,32.0815043,342.1986945,343.0975771,-359
 .6339428\PG=C01 [X(C8H8Cl1K3O40V1W12)]\\@
 The archive entry for this job was punched.


 THE ATTENTION SPAN OF A COMPUTER IS AS LONG
 AS ITS EXTENSION CORD.
 Job cpu time:       0 days  9 hours 58 minutes  1.2 seconds.
 Elapsed time:       0 days  0 hours 11 minutes 21.0 seconds.
 File lengths (MBytes):  RWF=   1253 Int=      0 D2E=      0 Chk=    249 Scr=      1
 Normal termination of Gaussian 16 at Sun Jun  2 08:01:50 2024.
