 Entering Gaussian System, Link 0=g16
 Input=JOBS/35_A.gjf
 Output=JOBS/35_A.log
 Initial command:
 /data/app/gaussian/C01-avx2//g16/l1.exe "/tmp/Gau-644944.inp" -scrdir="/tmp/"
 Entering Link 1 = /data/app/gaussian/C01-avx2//g16/l1.exe PID=    644945.
  
 Copyright (c) 1988-2019, Gaussian, Inc.  All Rights Reserved.
  
 This is part of the Gaussian(R) 16 program.  It is based on
 the Gaussian(R) 09 system (copyright 2009, Gaussian, Inc.),
 the Gaussian(R) 03 system (copyright 2003, Gaussian, Inc.),
 the Gaussian(R) 98 system (copyright 1998, Gaussian, Inc.),
 the Gaussian(R) 94 system (copyright 1995, Gaussian, Inc.),
 the Gaussian 92(TM) system (copyright 1992, Gaussian, Inc.),
 the Gaussian 90(TM) system (copyright 1990, Gaussian, Inc.),
 the Gaussian 88(TM) system (copyright 1988, Gaussian, Inc.),
 the Gaussian 86(TM) system (copyright 1986, Carnegie Mellon
 University), and the Gaussian 82(TM) system (copyright 1983,
 Carnegie Mellon University). Gaussian is a federally registered
 trademark of Gaussian, Inc.
  
 This software contains proprietary and confidential information,
 including trade secrets, belonging to Gaussian, Inc.
  
 This software is provided under written license and may be
 used, copied, transmitted, or stored only in accord with that
 written license.
  
 The following legend is applicable only to US Government
 contracts under FAR:
  
                    RESTRICTED RIGHTS LEGEND
  
 Use, reproduction and disclosure by the US Government is
 subject to restrictions as set forth in subparagraphs (a)
 and (c) of the Commercial Computer Software - Restricted
 Rights clause in FAR 52.227-19.
  
 Gaussian, Inc.
 340 Quinnipiac St., Bldg. 40, Wallingford CT 06492
  
  
 ---------------------------------------------------------------
 Warning -- This program may not be used in any manner that
 competes with the business of Gaussian, Inc. or will provide
 assistance to any competitor of Gaussian, Inc.  The licensee
 of this program is prohibited from giving any competitor of
 Gaussian, Inc. access to this program.  By using this program,
 the user acknowledges that Gaussian, Inc. is engaged in the
 business of creating and licensing software in the field of
 computational chemistry and represents and warrants to the
 licensee that it is not a competitor of Gaussian, Inc. and that
 it will not use this program in any manner prohibited above.
 ---------------------------------------------------------------
  

 Cite this work as:
 Gaussian 16, Revision C.01,
 M. J. Frisch, G. W. Trucks, H. B. Schlegel, G. E. Scuseria, 
 M. A. Robb, J. R. Cheeseman, G. Scalmani, V. Barone, 
 G. A. Petersson, H. Nakatsuji, X. Li, M. Caricato, A. V. Marenich, 
 J. Bloino, B. G. Janesko, R. Gomperts, B. Mennucci, H. P. Hratchian, 
 J. V. Ortiz, A. F. Izmaylov, J. L. Sonnenberg, D. Williams-Young, 
 F. Ding, F. Lipparini, F. Egidi, J. Goings, B. Peng, A. Petrone, 
 T. Henderson, D. Ranasinghe, V. G. Zakrzewski, J. Gao, N. Rega, 
 G. Zheng, W. Liang, M. Hada, M. Ehara, K. Toyota, R. Fukuda, 
 J. Hasegawa, M. Ishida, T. Nakajima, Y. Honda, O. Kitao, H. Nakai, 
 T. Vreven, K. Throssell, J. A. Montgomery, Jr., J. E. Peralta, 
 F. Ogliaro, M. J. Bearpark, J. J. Heyd, E. N. Brothers, K. N. Kudin, 
 V. N. Staroverov, T. A. Keith, R. Kobayashi, J. Normand, 
 K. Raghavachari, A. P. Rendell, J. C. Burant, S. S. Iyengar, 
 J. Tomasi, M. Cossi, J. M. Millam, M. Klene, C. Adamo, R. Cammi, 
 J. W. Ochterski, R. L. Martin, K. Morokuma, O. Farkas, 
 J. B. Foresman, and D. J. Fox, Gaussian, Inc., Wallingford CT, 2019.
 
 ******************************************
 Gaussian 16:  ES64L-G16RevC.01  3-Jul-2019
                 2-Jun-2024 
 ******************************************
 %chk=a.chk
 %nprocshared=56
 Will use up to   56 processors via shared memory.
 %mem=96gb
 ----------------------------------------------------------------------
 # def2svp wb97xd scrf=(smd,solvent=acetonitrile) g09default scf=(xqc,m
 axcycle=64) force guess=read nosymm
 ----------------------------------------------------------------------
 1/10=7,30=1,38=1,158=3,167=1/1,3;
 2/12=2,15=1,17=6,18=5,40=1/2;
 3/5=43,7=101,11=2,25=1,27=10,30=1,70=32201,71=1,72=2,74=-58,75=-4,116=-2,158=3/1,2,3;
 4/5=1,60=-1/1;
 5/5=2,7=64,8=3,13=1,38=6,53=2,87=10/2,8;
 6/7=2,8=2,9=2,10=2,28=1,87=10/1;
 7/29=1,30=1,87=10/1,2,3,16;
 1/10=7,30=1,158=3,167=1/3;
 99//99;
 Using 2006 physical constants.
 ----------
 Title Card
 ----------
 Symbolic Z-matrix:
 Charge = -1 Multiplicity = 1
 17                   -9.82828   8.21243   10.54944 
 6                    -8.3262    4.23477   12.22349 
 6                    -9.11124   3.91962   11.09935 
 6                    -10.02905   2.85803   11.20803 
 6                    -10.20093   2.17828   12.40954 
 6                    -9.44669   2.53453   13.52856 
 6                    -8.49428   3.55076   13.42365 
 1                    -7.57109   5.0207    12.15698 
 1                    -10.61239   2.56751   10.3294 
 1                    -10.9174   1.35542   12.47255 
 1                    -9.58192   2.00433   14.47399 
 1                    -7.87261   3.80814   14.28482 
 6                    -9.01535   4.65148   9.83478 
 6                    -8.27715   5.75371   9.58994 
 1                    -9.62706   4.24882   9.01988 
 1                    -8.24144   6.17308   8.58238 
 1                    -7.62203   6.21344   10.33169 
 8                    -0.98693  -1.78174   7.46414 
 8                    -8.40734  -1.334     7.46101 
 8                    -7.03628   1.34738   10.47573 
 8                    -2.33281  -4.37777   10.55365 
 74                   -3.41176   0.69958   6.47649 
 74                   -5.999    -3.81917   6.56693 
 74                   -3.62205   0.888     11.42137 
 74                   -5.76696  -3.85843   11.47515 
 74                   -2.44337  -2.5796    6.39749 
 74                   -6.94562  -0.53502   6.36906 
 74                   -6.82601  -0.24724   11.56564 
 74                   -2.55209  -2.71642   11.60794 
 8                    -3.17195   1.88867   5.30272 
 8                    -6.13782  -5.06929   5.4244 
 8                    -2.70727   1.73782   12.57487 
 8                    -6.67475  -4.6677    12.66069 
 8                    -2.66659  -0.9011    5.58262 
 8                    -6.71162  -2.26839   5.6232 
 8                    -5.3191    0.55814   12.36261 
 8                    -4.05371  -3.5213    12.40373 
 8                     0.29999  -0.00059   9.27915 
 8                    -9.7071   -3.03472   9.32478 
 8                    -6.35968   3.42578   8.67147 
 8                    -2.99342  -6.47797   8.75761 
 8                    -1.79139   0.76346   7.47502 
 8                    -7.60565  -3.88365   7.5481 
 8                    -4.50765   2.20997   10.43214 
 8                    -4.8732   -5.22241   10.52276 
 8                    -1.61026  -3.52322   5.25319 
 8                    -7.83521   0.26753   5.17867 
 8                    -8.04888  -0.15948   12.74096 
 8                    -1.31424  -2.8481    12.76462 
 74                   -1.25765  -0.51903   8.8366 
 74                   -8.14701  -2.53143   8.87423 
 74                   -5.88255   1.85436   9.04816 
 74                   -3.48682  -4.90356   9.16754 
 8                    -4.22015  -3.1029    6.06724 
 8                    -5.16318  -0.05112   6.00879 
 8                    -6.17527  -1.99455   11.91079 
 8                    -3.17124  -0.97027   11.9349 
 8                    -4.36382   1.57908   7.83704 
 8                    -5.00548  -4.67585   7.92088 
 8                    -2.33372   0.58367   10.08267 
 8                    -7.05716  -3.6116    10.13426 
 8                    -2.57305  -3.89298   7.86591 
 8                    -6.81769   0.78657   7.80745 
 8                    -7.83195  -1.17446   10.14001 
 8                    -1.5713   -1.85457   10.13815 
 8                    -3.36517  -1.14815   8.00235 
 8                    -6.02973  -1.95418   8.03377 
 8                    -5.12047  -0.19949   9.94823 
 8                    -4.24051  -2.83541   9.97567 
 19                   -3.21627  -6.13935   5.64563 
 19                   -0.11052   0.05711   12.35521 
 19                   -9.29129  -2.87469   12.43713 
 23                   -4.69192  -1.52973   8.98688 
 

 GradGradGradGradGradGradGradGradGradGradGradGradGradGradGradGradGradGrad
 Berny optimization.
 Initialization pass.
 Trust Radius=3.00D-01 FncErr=1.00D-07 GrdErr=1.00D-07 EigMax=2.50D+02 EigMin=1.00D-04
 Number of steps in this run=      2 maximum allowed number of steps=      2.
 GradGradGradGradGradGradGradGradGradGradGradGradGradGradGradGradGradGrad

 Symmetry turned off by external request.
 Stoichiometry    C8H8ClK3O40VW12(1-)
 Framework group  C1[X(C8H8ClK3O40VW12)]
 Deg. of freedom   213
 Full point group                 C1      NOp   1
                          Input orientation:                          
 ---------------------------------------------------------------------
 Center     Atomic      Atomic             Coordinates (Angstroms)
 Number     Number       Type             X           Y           Z
 ---------------------------------------------------------------------
      1         17           0       -9.828278    8.212430   10.549437
      2          6           0       -8.326197    4.234774   12.223494
      3          6           0       -9.111244    3.919621   11.099351
      4          6           0      -10.029048    2.858030   11.208030
      5          6           0      -10.200934    2.178285   12.409537
      6          6           0       -9.446687    2.534532   13.528558
      7          6           0       -8.494283    3.550757   13.423650
      8          1           0       -7.571087    5.020699   12.156978
      9          1           0      -10.612393    2.567511   10.329396
     10          1           0      -10.917396    1.355416   12.472550
     11          1           0       -9.581923    2.004332   14.473993
     12          1           0       -7.872614    3.808145   14.284815
     13          6           0       -9.015353    4.651484    9.834784
     14          6           0       -8.277147    5.753709    9.589943
     15          1           0       -9.627063    4.248819    9.019876
     16          1           0       -8.241437    6.173079    8.582384
     17          1           0       -7.622031    6.213438   10.331687
     18          8           0       -0.986926   -1.781739    7.464136
     19          8           0       -8.407338   -1.333996    7.461009
     20          8           0       -7.036276    1.347375   10.475733
     21          8           0       -2.332812   -4.377766   10.553655
     22         74           0       -3.411761    0.699582    6.476490
     23         74           0       -5.998999   -3.819168    6.566932
     24         74           0       -3.622046    0.888002   11.421369
     25         74           0       -5.766959   -3.858427   11.475150
     26         74           0       -2.443367   -2.579602    6.397492
     27         74           0       -6.945621   -0.535018    6.369063
     28         74           0       -6.826014   -0.247237   11.565639
     29         74           0       -2.552095   -2.716423   11.607938
     30          8           0       -3.171953    1.888673    5.302718
     31          8           0       -6.137823   -5.069292    5.424405
     32          8           0       -2.707272    1.737821   12.574869
     33          8           0       -6.674745   -4.667698   12.660692
     34          8           0       -2.666589   -0.901102    5.582623
     35          8           0       -6.711620   -2.268387    5.623202
     36          8           0       -5.319101    0.558138   12.362606
     37          8           0       -4.053710   -3.521303   12.403731
     38          8           0        0.299986   -0.000592    9.279146
     39          8           0       -9.707100   -3.034717    9.324781
     40          8           0       -6.359679    3.425781    8.671472
     41          8           0       -2.993421   -6.477965    8.757614
     42          8           0       -1.791394    0.763459    7.475022
     43          8           0       -7.605652   -3.883646    7.548096
     44          8           0       -4.507645    2.209968   10.432135
     45          8           0       -4.873198   -5.222407   10.522762
     46          8           0       -1.610263   -3.523218    5.253191
     47          8           0       -7.835210    0.267534    5.178672
     48          8           0       -8.048881   -0.159479   12.740960
     49          8           0       -1.314236   -2.848105   12.764620
     50         74           0       -1.257649   -0.519027    8.836596
     51         74           0       -8.147013   -2.531427    8.874230
     52         74           0       -5.882546    1.854360    9.048164
     53         74           0       -3.486821   -4.903556    9.167539
     54          8           0       -4.220146   -3.102898    6.067238
     55          8           0       -5.163178   -0.051117    6.008789
     56          8           0       -6.175268   -1.994550   11.910788
     57          8           0       -3.171240   -0.970272   11.934898
     58          8           0       -4.363822    1.579076    7.837043
     59          8           0       -5.005482   -4.675855    7.920884
     60          8           0       -2.333720    0.583666   10.082670
     61          8           0       -7.057162   -3.611598   10.134259
     62          8           0       -2.573054   -3.892978    7.865913
     63          8           0       -6.817688    0.786570    7.807445
     64          8           0       -7.831947   -1.174460   10.140006
     65          8           0       -1.571303   -1.854567   10.138147
     66          8           0       -3.365175   -1.148149    8.002353
     67          8           0       -6.029729   -1.954176    8.033769
     68          8           0       -5.120472   -0.199489    9.948233
     69          8           0       -4.240513   -2.835410    9.975675
     70         19           0       -3.216269   -6.139345    5.645633
     71         19           0       -0.110524    0.057110   12.355206
     72         19           0       -9.291295   -2.874692   12.437129
     73         23           0       -4.691922   -1.529732    8.986883
 ---------------------------------------------------------------------
 Rotational constants (GHZ):           0.0172027           0.0132383           0.0130102
 Standard basis: def2SVP (5D, 7F)
  1217 basis functions,  2313 primitive gaussians,  1337 cartesian basis functions
   321 alpha electrons      321 beta electrons
       nuclear repulsion energy     20975.6569174108 Hartrees.
 NAtoms=   73 NActive=   73 NUniq=   73 SFac= 1.00D+00 NAtFMM=   60 NAOKFM=T Big=T
 Integral buffers will be    131072 words long.
 Raffenetti 2 integral format.
 Two-electron integral symmetry is turned off.
 Nuclear repulsion after empirical dispersion term =    20975.3799291990 Hartrees.
 Force PCM accuracy= 1.00D-10.
 ------------------------------------------------------------------------------
 Polarizable Continuum Model (PCM)
 =================================
 Model                : PCM (using non-symmetric T matrix).
 Atomic radii         : SMD-Coulomb.
 Polarization charges : Total charges.
 Charge compensation  : None.
 Solution method      : On-the-fly selection.
 Cavity type          : VdW (van der Waals Surface) (Alpha=1.000).
 Cavity algorithm     : GePol (No added spheres)
                        Default sphere list used, NSphG=   73.
                        Lebedev-Laikov grids with approx.  5.0 points / Ang**2.
                        Smoothing algorithm: York/Karplus (Gamma=1.0000).
                        Polarization charges: spherical gaussians, with
                                              point-specific exponents (IZeta= 3).
                        Self-potential: point-specific (ISelfS= 7).
                        Self-field    : sphere-specific E.n sum rule (ISelfD= 2).
 1st derivatives      : Analytical E(r).r(x)/FMM algorithm (CHGder, D1EAlg=3).
                        Cavity 1st derivative terms included.
 Solvent              : Acetonitrile, Eps=  35.688000 Eps(inf)=   1.806874
 ------------------------------------------------------------------------------
 ------------------------------------------------------------------------------
 Atomic radii for non-electrostatic terms: SMD-CDS.
 ------------------------------------------------------------------------------
 Nuclear repulsion after PCM non-electrostatic terms =    20975.3741485441 Hartrees.
 One-electron integrals computed using PRISM.
   1 Symmetry operations used in ECPInt.
 ECPInt:  NShTT=  127765 NPrTT=  468030 LenC2=   96637 LenP2D=  221090.
 LDataN:  DoStor=T MaxTD1= 8 Len=  415
 NBasis=  1217 RedAO= T EigKep=  1.37D-04  NBF=  1217
 NBsUse=  1217 1.00D-06 EigRej= -1.00D+00 NBFU=  1217
 Defaulting to unpruned grid for atomic number  74.
 Defaulting to unpruned grid for atomic number  74.
 Defaulting to unpruned grid for atomic number  74.
 Defaulting to unpruned grid for atomic number  74.
 Defaulting to unpruned grid for atomic number  74.
 Defaulting to unpruned grid for atomic number  74.
 Defaulting to unpruned grid for atomic number  74.
 Defaulting to unpruned grid for atomic number  74.
 Initial guess from the checkpoint file:  "a.chk"
 B after Tr=     0.003187   -0.004953   -0.000226
         Rot=    1.000000   -0.000007    0.000001    0.000215 Ang=  -0.02 deg.
 Requested convergence on RMS density matrix=1.00D-08 within  64 cycles.
 Requested convergence on MAX density matrix=1.00D-06.
 Requested convergence on             energy=1.00D-06.
 No special actions if energy rises.
 Defaulting to unpruned grid for atomic number  74.
 Defaulting to unpruned grid for atomic number  74.
 Defaulting to unpruned grid for atomic number  74.
 Defaulting to unpruned grid for atomic number  74.
 Defaulting to unpruned grid for atomic number  74.
 Defaulting to unpruned grid for atomic number  74.
 Defaulting to unpruned grid for atomic number  74.
 Defaulting to unpruned grid for atomic number  74.
 Defaulting to unpruned grid for atomic number  74.
 Defaulting to unpruned grid for atomic number  74.
 Defaulting to unpruned grid for atomic number  74.
 Defaulting to unpruned grid for atomic number  74.
 Defaulting to unpruned grid for atomic number  74.
 Defaulting to unpruned grid for atomic number  74.
 Defaulting to unpruned grid for atomic number  74.
 Defaulting to unpruned grid for atomic number  74.
 Defaulting to unpruned grid for atomic number  74.
 Defaulting to unpruned grid for atomic number  74.
 Defaulting to unpruned grid for atomic number  74.
 Defaulting to unpruned grid for atomic number  74.
 Defaulting to unpruned grid for atomic number  74.
 Defaulting to unpruned grid for atomic number  74.
 Defaulting to unpruned grid for atomic number  74.
 Defaulting to unpruned grid for atomic number  74.
 Defaulting to unpruned grid for atomic number  74.
 Defaulting to unpruned grid for atomic number  74.
 Defaulting to unpruned grid for atomic number  74.
 Defaulting to unpruned grid for atomic number  74.
 Defaulting to unpruned grid for atomic number  74.
 Defaulting to unpruned grid for atomic number  74.
 Defaulting to unpruned grid for atomic number  74.
 Defaulting to unpruned grid for atomic number  74.
 Defaulting to unpruned grid for atomic number  74.
 Defaulting to unpruned grid for atomic number  74.
 Defaulting to unpruned grid for atomic number  74.
 Defaulting to unpruned grid for atomic number  74.
 Defaulting to unpruned grid for atomic number  74.
 Defaulting to unpruned grid for atomic number  74.
 Defaulting to unpruned grid for atomic number  74.
 Defaulting to unpruned grid for atomic number  74.
 Defaulting to unpruned grid for atomic number  74.
 Defaulting to unpruned grid for atomic number  74.
 Defaulting to unpruned grid for atomic number  74.
 Defaulting to unpruned grid for atomic number  74.
 Defaulting to unpruned grid for atomic number  74.
 Defaulting to unpruned grid for atomic number  74.
 Defaulting to unpruned grid for atomic number  74.
 Defaulting to unpruned grid for atomic number  74.
 Defaulting to unpruned grid for atomic number  74.
 Defaulting to unpruned grid for atomic number  74.
 Defaulting to unpruned grid for atomic number  74.
 Defaulting to unpruned grid for atomic number  74.
 Defaulting to unpruned grid for atomic number  74.
 Defaulting to unpruned grid for atomic number  74.
 Defaulting to unpruned grid for atomic number  74.
 Defaulting to unpruned grid for atomic number  74.
 Inv3:  Mode=1 IEnd=    86833200.
 Iteration    1 A*A^-1 deviation from unit magnitude is 3.55D-15 for   1972.
 Iteration    1 A*A^-1 deviation from orthogonality  is 2.66D-15 for   3919   1262.
 Iteration    1 A^-1*A deviation from unit magnitude is 4.11D-15 for   3434.
 Iteration    1 A^-1*A deviation from orthogonality  is 8.48D-12 for   1091   1038.
 Error on total polarization charges =  0.01599
 SCF Done:  E(RwB97XD) =  -7327.70122251     A.U. after   12 cycles
            NFock= 12  Conv=0.35D-08     -V/T= 2.0832
 SMD-CDS (non-electrostatic) energy       (kcal/mol) =      -3.63
 (included in total energy above)
 QCSCF skips out because SCF is already converged.

 **********************************************************************

            Population analysis using the SCF Density.

 **********************************************************************

 Alpha  occ. eigenvalues -- -197.29731-130.00175-130.00143-130.00068-101.47896
 Alpha  occ. eigenvalues --  -22.62826 -19.33755 -19.33744 -19.33734 -19.33706
 Alpha  occ. eigenvalues --  -19.30709 -19.30672 -19.30666 -19.30658 -19.30657
 Alpha  occ. eigenvalues --  -19.30650 -19.30639 -19.30604 -19.30519 -19.30362
 Alpha  occ. eigenvalues --  -19.30310 -19.30126 -19.29312 -19.29306 -19.29282
 Alpha  occ. eigenvalues --  -19.29271 -19.29267 -19.29267 -19.29232 -19.29184
 Alpha  occ. eigenvalues --  -19.29181 -19.29156 -19.29137 -19.29134 -19.29122
 Alpha  occ. eigenvalues --  -19.29112 -19.29087 -19.29076 -19.29074 -19.29057
 Alpha  occ. eigenvalues --  -19.29047 -19.28968 -19.28965 -19.28938 -19.28917
 Alpha  occ. eigenvalues --  -19.28820 -19.11786 -19.11778 -19.11768 -13.37582
 Alpha  occ. eigenvalues --  -13.37548 -13.37466 -10.70510 -10.70504 -10.70502
 Alpha  occ. eigenvalues --  -10.70477 -10.70470 -10.70469 -10.70396 -10.70389
 Alpha  occ. eigenvalues --  -10.70385 -10.29901 -10.29370 -10.29321 -10.29130
 Alpha  occ. eigenvalues --  -10.29055 -10.29024 -10.28267 -10.27813  -9.38351
 Alpha  occ. eigenvalues --   -7.13176  -7.13133  -7.13129  -3.23297  -3.23292
 Alpha  occ. eigenvalues --   -3.23281  -3.23277  -3.23274  -3.23262  -3.23238
 Alpha  occ. eigenvalues --   -3.23222  -3.23178  -3.22964  -3.22958  -3.22740
 Alpha  occ. eigenvalues --   -2.91993  -1.94348  -1.94319  -1.94311  -1.87706
 Alpha  occ. eigenvalues --   -1.87651  -1.87634  -1.87590  -1.87468  -1.87463
 Alpha  occ. eigenvalues --   -1.87447  -1.87426  -1.87388  -1.87269  -1.87227
 Alpha  occ. eigenvalues --   -1.87061  -1.86609  -1.86490  -1.86483  -1.86461
 Alpha  occ. eigenvalues --   -1.86440  -1.86409  -1.86327  -1.86316  -1.86296
 Alpha  occ. eigenvalues --   -1.86276  -1.86263  -1.86230  -1.86127  -1.86113
 Alpha  occ. eigenvalues --   -1.86108  -1.86087  -1.86032  -1.85994  -1.85969
 Alpha  occ. eigenvalues --   -1.85910  -1.85886  -1.85789  -1.85677  -1.85629
 Alpha  occ. eigenvalues --   -1.51261  -1.51232  -1.51153  -1.13118  -1.11360
 Alpha  occ. eigenvalues --   -1.11280  -1.11266  -1.08974  -1.08530  -1.08485
 Alpha  occ. eigenvalues --   -1.08276  -1.07572  -1.07519  -1.07504  -1.06896
 Alpha  occ. eigenvalues --   -1.06859  -1.06849  -1.06312  -1.06289  -1.05294
 Alpha  occ. eigenvalues --   -1.05283  -1.04969  -1.04957  -1.04945  -1.04170
 Alpha  occ. eigenvalues --   -1.04166  -1.04151  -1.04002  -1.03982  -1.03967
 Alpha  occ. eigenvalues --   -1.03924  -1.03883  -1.03864  -1.03738  -1.03700
 Alpha  occ. eigenvalues --   -1.03596  -1.03540  -1.03289  -1.03230  -1.03092
 Alpha  occ. eigenvalues --   -1.03078  -1.03016  -1.02939  -0.94427  -0.86721
 Alpha  occ. eigenvalues --   -0.86695  -0.86621  -0.86586  -0.86535  -0.86521
 Alpha  occ. eigenvalues --   -0.86505  -0.86502  -0.86435  -0.86406  -0.82850
 Alpha  occ. eigenvalues --   -0.79865  -0.71046  -0.69802  -0.68088  -0.64585
 Alpha  occ. eigenvalues --   -0.63942  -0.63904  -0.63898  -0.63361  -0.63331
 Alpha  occ. eigenvalues --   -0.63215  -0.63071  -0.62715  -0.62625  -0.62048
 Alpha  occ. eigenvalues --   -0.61625  -0.61612  -0.61521  -0.61222  -0.61204
 Alpha  occ. eigenvalues --   -0.61160  -0.60401  -0.59484  -0.59453  -0.59439
 Alpha  occ. eigenvalues --   -0.59420  -0.59380  -0.58688  -0.57979  -0.57957
 Alpha  occ. eigenvalues --   -0.57877  -0.57106  -0.57068  -0.57034  -0.56298
 Alpha  occ. eigenvalues --   -0.56257  -0.56088  -0.55684  -0.54846  -0.54777
 Alpha  occ. eigenvalues --   -0.54743  -0.54596  -0.54224  -0.54103  -0.54070
 Alpha  occ. eigenvalues --   -0.54012  -0.53949  -0.53208  -0.53174  -0.53043
 Alpha  occ. eigenvalues --   -0.52991  -0.52873  -0.52690  -0.52633  -0.52616
 Alpha  occ. eigenvalues --   -0.52571  -0.52539  -0.52469  -0.52450  -0.51573
 Alpha  occ. eigenvalues --   -0.51547  -0.51357  -0.51320  -0.51288  -0.51235
 Alpha  occ. eigenvalues --   -0.51174  -0.51159  -0.51014  -0.50721  -0.50539
 Alpha  occ. eigenvalues --   -0.50534  -0.50505  -0.49872  -0.49851  -0.49319
 Alpha  occ. eigenvalues --   -0.49271  -0.49243  -0.49190  -0.49145  -0.49045
 Alpha  occ. eigenvalues --   -0.48895  -0.48076  -0.48024  -0.47925  -0.47748
 Alpha  occ. eigenvalues --   -0.47357  -0.47278  -0.47226  -0.47007  -0.46934
 Alpha  occ. eigenvalues --   -0.46820  -0.46551  -0.46470  -0.46459  -0.46219
 Alpha  occ. eigenvalues --   -0.46158  -0.46107  -0.45642  -0.45078  -0.44901
 Alpha  occ. eigenvalues --   -0.44869  -0.44180  -0.44151  -0.44037  -0.43618
 Alpha  occ. eigenvalues --   -0.43276  -0.43225  -0.43103  -0.43083  -0.43046
 Alpha  occ. eigenvalues --   -0.42695  -0.42668  -0.42648  -0.42584  -0.42580
 Alpha  occ. eigenvalues --   -0.42493  -0.42450  -0.42432  -0.42270  -0.42253
 Alpha  occ. eigenvalues --   -0.42230  -0.42005  -0.41891  -0.41838  -0.41821
 Alpha  occ. eigenvalues --   -0.41248  -0.41150  -0.41130  -0.41009  -0.40531
 Alpha  occ. eigenvalues --   -0.40506  -0.40502  -0.40430  -0.39434  -0.39415
 Alpha  occ. eigenvalues --   -0.36987  -0.32567  -0.28969  -0.24732  -0.24711
 Alpha  occ. eigenvalues --   -0.23535
 Alpha virt. eigenvalues --   -0.09681  -0.09465  -0.08477  -0.08423  -0.07023
 Alpha virt. eigenvalues --   -0.06995  -0.06863  -0.04663  -0.04323  -0.04292
 Alpha virt. eigenvalues --   -0.03720  -0.03541  -0.03465  -0.03246  -0.03152
 Alpha virt. eigenvalues --   -0.03098  -0.03066  -0.02208  -0.02163  -0.02131
 Alpha virt. eigenvalues --   -0.01516  -0.01489  -0.01438  -0.01293  -0.01237
 Alpha virt. eigenvalues --   -0.00080  -0.00074  -0.00008   0.01424   0.01451
 Alpha virt. eigenvalues --    0.01909   0.01939   0.02026   0.02147   0.02180
 Alpha virt. eigenvalues --    0.02181   0.02239   0.02310   0.02765   0.02841
 Alpha virt. eigenvalues --    0.02908   0.02969   0.03005   0.04176   0.04544
 Alpha virt. eigenvalues --    0.06743   0.07252   0.07528   0.07571   0.07790
 Alpha virt. eigenvalues --    0.08019   0.08440   0.08496   0.08771   0.09155
 Alpha virt. eigenvalues --    0.09339   0.09382   0.09663   0.09888   0.10298
 Alpha virt. eigenvalues --    0.10327   0.10392   0.10445   0.10472   0.10641
 Alpha virt. eigenvalues --    0.10873   0.11049   0.11065   0.11659   0.11735
 Alpha virt. eigenvalues --    0.12234   0.13090   0.13219   0.13313   0.13567
 Alpha virt. eigenvalues --    0.13735   0.14345   0.14533   0.14648   0.14968
 Alpha virt. eigenvalues --    0.15536   0.16140   0.16327   0.16571   0.16740
 Alpha virt. eigenvalues --    0.16770   0.16880   0.17081   0.17240   0.17662
 Alpha virt. eigenvalues --    0.17864   0.18156   0.18204   0.18356   0.18585
 Alpha virt. eigenvalues --    0.18728   0.19051   0.19322   0.19415   0.19533
 Alpha virt. eigenvalues --    0.19662   0.20193   0.20282   0.20491   0.20606
 Alpha virt. eigenvalues --    0.20757   0.20863   0.20939   0.21340   0.21392
 Alpha virt. eigenvalues --    0.21502   0.21624   0.21692   0.21871   0.22023
 Alpha virt. eigenvalues --    0.22385   0.22697   0.22888   0.23129   0.23238
 Alpha virt. eigenvalues --    0.23474   0.23829   0.23980   0.24250   0.24542
 Alpha virt. eigenvalues --    0.24708   0.25204   0.25468   0.25641   0.25849
 Alpha virt. eigenvalues --    0.26014   0.26219   0.26404   0.26595   0.26687
 Alpha virt. eigenvalues --    0.26984   0.27201   0.27328   0.27453   0.27720
 Alpha virt. eigenvalues --    0.27974   0.28257   0.28334   0.28676   0.28731
 Alpha virt. eigenvalues --    0.29213   0.29415   0.29850   0.30085   0.30428
 Alpha virt. eigenvalues --    0.30613   0.30881   0.31172   0.31558   0.31768
 Alpha virt. eigenvalues --    0.32237   0.34713   0.35190   0.35786   0.36278
 Alpha virt. eigenvalues --    0.36667   0.36877   0.37170   0.38066   0.38377
 Alpha virt. eigenvalues --    0.38639   0.39193   0.39538   0.39641   0.40217
 Alpha virt. eigenvalues --    0.40710   0.40848   0.41005   0.41105   0.41735
 Alpha virt. eigenvalues --    0.42112   0.42366   0.42786   0.43293   0.43561
 Alpha virt. eigenvalues --    0.43729   0.44547   0.44787   0.44895   0.45259
 Alpha virt. eigenvalues --    0.45739   0.46308   0.46482   0.46714   0.47262
 Alpha virt. eigenvalues --    0.47379   0.47643   0.47979   0.48064   0.48242
 Alpha virt. eigenvalues --    0.48379   0.48446   0.48681   0.48706   0.48976
 Alpha virt. eigenvalues --    0.49152   0.49418   0.49495   0.49822   0.49908
 Alpha virt. eigenvalues --    0.50215   0.50593   0.50738   0.50844   0.51026
 Alpha virt. eigenvalues --    0.51620   0.51696   0.51891   0.52247   0.52427
 Alpha virt. eigenvalues --    0.52682   0.52842   0.53031   0.53129   0.53273
 Alpha virt. eigenvalues --    0.53684   0.54062   0.54323   0.54350   0.54548
 Alpha virt. eigenvalues --    0.54956   0.55408   0.55646   0.56379   0.56439
 Alpha virt. eigenvalues --    0.56864   0.57397   0.57751   0.58037   0.58268
 Alpha virt. eigenvalues --    0.58581   0.59070   0.59403   0.60153   0.60712
 Alpha virt. eigenvalues --    0.61346   0.62097   0.62548   0.62743   0.63085
 Alpha virt. eigenvalues --    0.64013   0.65303   0.65613   0.65659   0.65828
 Alpha virt. eigenvalues --    0.66051   0.66662   0.66987   0.67282   0.67364
 Alpha virt. eigenvalues --    0.67737   0.68294   0.69735   0.70299   0.70989
 Alpha virt. eigenvalues --    0.71334   0.71820   0.72006   0.72116   0.72163
 Alpha virt. eigenvalues --    0.72418   0.72566   0.73147   0.73343   0.73930
 Alpha virt. eigenvalues --    0.74609   0.74844   0.75493   0.75687   0.75823
 Alpha virt. eigenvalues --    0.76160   0.76710   0.76860   0.77255   0.77392
 Alpha virt. eigenvalues --    0.77501   0.78398   0.78972   0.79452   0.79645
 Alpha virt. eigenvalues --    0.79790   0.80287   0.80672   0.80806   0.81515
 Alpha virt. eigenvalues --    0.81550   0.81701   0.81986   0.82574   0.83062
 Alpha virt. eigenvalues --    0.84055   0.84249   0.84836   0.85307   0.85953
 Alpha virt. eigenvalues --    0.87176   0.87534   0.87973   0.88071   0.88741
 Alpha virt. eigenvalues --    0.88927   0.89104   0.89465   0.89671   0.90249
 Alpha virt. eigenvalues --    0.90734   0.90906   0.91261   0.91468   0.91662
 Alpha virt. eigenvalues --    0.92825   0.93024   0.93659   0.93964   0.94089
 Alpha virt. eigenvalues --    0.94331   0.94749   0.95858   0.96044   0.96791
 Alpha virt. eigenvalues --    0.96837   0.97072   0.97303   0.97713   0.97838
 Alpha virt. eigenvalues --    0.98129   0.98301   0.98493   0.98583   0.98796
 Alpha virt. eigenvalues --    0.98930   0.99549   1.00069   1.00318   1.00477
 Alpha virt. eigenvalues --    1.00904   1.01367   1.01618   1.01727   1.02093
 Alpha virt. eigenvalues --    1.02204   1.02448   1.02509   1.02598   1.02624
 Alpha virt. eigenvalues --    1.02972   1.03633   1.03846   1.03857   1.03944
 Alpha virt. eigenvalues --    1.04199   1.04248   1.04407   1.04563   1.04702
 Alpha virt. eigenvalues --    1.04792   1.05051   1.05209   1.05404   1.05817
 Alpha virt. eigenvalues --    1.05954   1.06334   1.06430   1.07028   1.07222
 Alpha virt. eigenvalues --    1.07527   1.07854   1.08686   1.09084   1.09188
 Alpha virt. eigenvalues --    1.09381   1.09829   1.10022   1.10170   1.10208
 Alpha virt. eigenvalues --    1.10666   1.10869   1.10924   1.11080   1.11237
 Alpha virt. eigenvalues --    1.11504   1.11625   1.11731   1.11974   1.12558
 Alpha virt. eigenvalues --    1.12884   1.13501   1.13792   1.14322   1.14787
 Alpha virt. eigenvalues --    1.15287   1.15950   1.16059   1.16476   1.16648
 Alpha virt. eigenvalues --    1.16960   1.17657   1.17862   1.18627   1.18785
 Alpha virt. eigenvalues --    1.19219   1.20756   1.20988   1.21233   1.21340
 Alpha virt. eigenvalues --    1.21472   1.21972   1.22206   1.23029   1.23536
 Alpha virt. eigenvalues --    1.25129   1.25973   1.26583   1.26711   1.27079
 Alpha virt. eigenvalues --    1.27503   1.27886   1.28251   1.28524   1.28576
 Alpha virt. eigenvalues --    1.28909   1.29166   1.29220   1.29384   1.29621
 Alpha virt. eigenvalues --    1.30048   1.30269   1.30370   1.30837   1.30905
 Alpha virt. eigenvalues --    1.31300   1.32105   1.32318   1.33012   1.33175
 Alpha virt. eigenvalues --    1.33251   1.33342   1.33747   1.33943   1.33997
 Alpha virt. eigenvalues --    1.34214   1.34318   1.34514   1.34696   1.34829
 Alpha virt. eigenvalues --    1.34924   1.35191   1.35337   1.35604   1.35708
 Alpha virt. eigenvalues --    1.36058   1.36166   1.36540   1.36777   1.36874
 Alpha virt. eigenvalues --    1.37085   1.37229   1.37314   1.37693   1.37859
 Alpha virt. eigenvalues --    1.37911   1.38450   1.38663   1.38737   1.39111
 Alpha virt. eigenvalues --    1.39193   1.39485   1.39602   1.39768   1.40189
 Alpha virt. eigenvalues --    1.40302   1.40473   1.40590   1.40773   1.40937
 Alpha virt. eigenvalues --    1.41038   1.41208   1.41459   1.41948   1.42181
 Alpha virt. eigenvalues --    1.42570   1.43086   1.43299   1.43449   1.43550
 Alpha virt. eigenvalues --    1.43969   1.44247   1.44575   1.44989   1.45666
 Alpha virt. eigenvalues --    1.46450   1.46772   1.47683   1.47765   1.48086
 Alpha virt. eigenvalues --    1.48280   1.48787   1.49244   1.49661   1.50045
 Alpha virt. eigenvalues --    1.50505   1.51022   1.51383   1.51968   1.53362
 Alpha virt. eigenvalues --    1.53760   1.55364   1.55779   1.55818   1.55952
 Alpha virt. eigenvalues --    1.56140   1.56333   1.56666   1.56743   1.57202
 Alpha virt. eigenvalues --    1.57263   1.58079   1.58266   1.59226   1.59256
 Alpha virt. eigenvalues --    1.59778   1.60174   1.60371   1.60471   1.60535
 Alpha virt. eigenvalues --    1.60704   1.61176   1.61972   1.62230   1.62514
 Alpha virt. eigenvalues --    1.63874   1.64382   1.65111   1.65619   1.66832
 Alpha virt. eigenvalues --    1.67531   1.67900   1.69995   1.70521   1.70845
 Alpha virt. eigenvalues --    1.71376   1.71624   1.72373   1.72841   1.74061
 Alpha virt. eigenvalues --    1.75167   1.75325   1.75532   1.75870   1.76837
 Alpha virt. eigenvalues --    1.76863   1.76932   1.77464   1.77843   1.78652
 Alpha virt. eigenvalues --    1.78851   1.79212   1.79807   1.80375   1.80669
 Alpha virt. eigenvalues --    1.81112   1.81339   1.81743   1.82114   1.82731
 Alpha virt. eigenvalues --    1.82950   1.83255   1.83873   1.84172   1.84439
 Alpha virt. eigenvalues --    1.85150   1.85250   1.85642   1.86090   1.86363
 Alpha virt. eigenvalues --    1.86485   1.87121   1.87502   1.88210   1.88593
 Alpha virt. eigenvalues --    1.89376   1.89974   1.90185   1.90280   1.90432
 Alpha virt. eigenvalues --    1.90797   1.91070   1.91382   1.92363   1.93390
 Alpha virt. eigenvalues --    1.94871   1.95394   1.95567   1.95813   1.96109
 Alpha virt. eigenvalues --    1.98095   1.99336   1.99490   1.99640   2.04430
 Alpha virt. eigenvalues --    2.06340   2.07393   2.08137   2.08592   2.08858
 Alpha virt. eigenvalues --    2.09038   2.09327   2.09542   2.10329   2.11210
 Alpha virt. eigenvalues --    2.11562   2.11943   2.12836   2.14820   2.15185
 Alpha virt. eigenvalues --    2.15976   2.16812   2.17232   2.17550   2.17728
 Alpha virt. eigenvalues --    2.19888   2.20188   2.20371   2.20704   2.21027
 Alpha virt. eigenvalues --    2.21092   2.22205   2.24536   2.25308   2.25988
 Alpha virt. eigenvalues --    2.26397   2.26769   2.27521   2.28502   2.28949
 Alpha virt. eigenvalues --    2.29171   2.29881   2.30283   2.33229   2.35652
 Alpha virt. eigenvalues --    2.36445   2.40221   2.40949   2.41090   2.43691
 Alpha virt. eigenvalues --    2.44195   2.50057   2.51367   2.57273   2.64756
 Alpha virt. eigenvalues --    2.64829   2.64955   2.65486   2.66002   2.66585
 Alpha virt. eigenvalues --    2.66754   2.66835   2.66943   2.67023   2.67062
 Alpha virt. eigenvalues --    2.67119   2.67174   2.67345   2.67370   2.67426
 Alpha virt. eigenvalues --    2.67681   2.67689   2.67793   2.67831   2.67910
 Alpha virt. eigenvalues --    2.68679   2.68937   2.69285   2.69380   2.70024
 Alpha virt. eigenvalues --    2.70195   2.70297   2.70527   2.70702   2.70829
 Alpha virt. eigenvalues --    2.70919   2.71391   2.71448   2.71523   2.71585
 Alpha virt. eigenvalues --    2.71688   2.71986   2.72639   2.72955   2.72983
 Alpha virt. eigenvalues --    2.73185   2.73245   2.73288   2.73353   2.73376
 Alpha virt. eigenvalues --    2.73511   2.73825   2.73912   2.73933   2.74021
 Alpha virt. eigenvalues --    2.74104   2.74219   2.74356   2.74582   2.74763
 Alpha virt. eigenvalues --    2.74800   2.74989   2.75139   2.75602   2.76053
 Alpha virt. eigenvalues --    2.76200   2.76323   2.76458   2.76761   2.76968
 Alpha virt. eigenvalues --    2.77132   2.77239   2.77289   2.78490   2.78642
 Alpha virt. eigenvalues --    2.78659   2.78983   2.79845   2.80117   2.80219
 Alpha virt. eigenvalues --    2.81222   2.81763   2.81817   2.82025   2.82195
 Alpha virt. eigenvalues --    2.82319   2.82667   2.82974   2.83211   2.83671
 Alpha virt. eigenvalues --    2.83755   2.83916   2.84018   2.84242   2.85007
 Alpha virt. eigenvalues --    2.85504   2.86092   2.86253   2.86290   2.86429
 Alpha virt. eigenvalues --    2.86603   2.86796   2.86900   2.88223   2.88478
 Alpha virt. eigenvalues --    2.88625   2.89104   2.89655   2.89696   2.89792
 Alpha virt. eigenvalues --    2.89830   2.89959   2.90066   2.90559   2.90689
 Alpha virt. eigenvalues --    2.90755   2.91743   2.91878   2.91999   2.92037
 Alpha virt. eigenvalues --    2.92209   2.92489   2.92726   2.92915   2.93102
 Alpha virt. eigenvalues --    2.93305   2.93429   2.93691   2.93921   2.94070
 Alpha virt. eigenvalues --    2.94195   2.95032   2.95186   2.95422   2.95675
 Alpha virt. eigenvalues --    2.95712   2.95820   2.96221   2.96441   2.96525
 Alpha virt. eigenvalues --    2.96622   2.96771   2.96888   2.97180   2.97403
 Alpha virt. eigenvalues --    2.97540   2.97724   2.97972   2.98299   2.99080
 Alpha virt. eigenvalues --    2.99311   2.99399   2.99646   2.99694   3.00045
 Alpha virt. eigenvalues --    3.00149   3.00427   3.01027   3.01259   3.01336
 Alpha virt. eigenvalues --    3.02447   3.02938   3.03237   3.03592   3.05195
 Alpha virt. eigenvalues --    3.06476   3.06730   3.07157   3.10931   3.11549
 Alpha virt. eigenvalues --    3.11702   3.11788   3.12173   3.12624   3.13721
 Alpha virt. eigenvalues --    3.13805   3.13994   3.16524   3.20006   3.21700
 Alpha virt. eigenvalues --    3.22032   3.23914   3.32566   3.41180   3.41747
 Alpha virt. eigenvalues --    3.42396   3.43139   3.45003   3.45084   3.45932
 Alpha virt. eigenvalues --    3.46180   3.46303   3.47328   3.47668   3.47862
 Alpha virt. eigenvalues --    3.47980   3.51267   3.51854   3.52412   3.53699
 Alpha virt. eigenvalues --    3.53871   3.54472   3.54779   3.54896   3.55105
 Alpha virt. eigenvalues --    3.55276   3.55624   3.55988   3.56734   3.57599
 Alpha virt. eigenvalues --    3.57783   3.58469   3.59521   3.59679   3.60454
 Alpha virt. eigenvalues --    3.60746   3.61276   3.61620   3.62073   3.62473
 Alpha virt. eigenvalues --    3.69369   3.74759  68.64249  68.65340  68.66419
 Alpha virt. eigenvalues --   68.68548  68.72649  68.73567  68.81754  68.82747
 Alpha virt. eigenvalues --   68.83338  68.85673  68.86791  68.88131 576.22686
 Alpha virt. eigenvalues --  576.23752 576.24809 576.26892 576.31001 576.31908
 Alpha virt. eigenvalues --  576.39942 576.40914 576.41486 576.43724 576.44817
 Alpha virt. eigenvalues --  576.46149
          Condensed to atoms (all electrons):
 Mulliken charges:
               1
     1  Cl  -0.922450
     2  C   -0.077218
     3  C    0.044112
     4  C   -0.075813
     5  C   -0.033637
     6  C   -0.032035
     7  C   -0.049945
     8  H    0.030269
     9  H    0.030810
    10  H    0.041637
    11  H    0.037625
    12  H    0.040395
    13  C   -0.109371
    14  C    0.015422
    15  H    0.022977
    16  H    0.042499
    17  H    0.030830
    18  O   -0.663997
    19  O   -0.662123
    20  O   -0.654833
    21  O   -0.662906
    22  W    1.737406
    23  W    1.675324
    24  W    1.684615
    25  W    1.695399
    26  W    1.677707
    27  W    1.729748
    28  W    1.621592
    29  W    1.686499
    30  O   -0.320232
    31  O   -0.365556
    32  O   -0.366450
    33  O   -0.361420
    34  O   -0.666089
    35  O   -0.671219
    36  O   -0.662350
    37  O   -0.664729
    38  O   -0.367677
    39  O   -0.365441
    40  O   -0.295688
    41  O   -0.365146
    42  O   -0.670438
    43  O   -0.663843
    44  O   -0.661351
    45  O   -0.666120
    46  O   -0.368981
    47  O   -0.321181
    48  O   -0.359096
    49  O   -0.362766
    50  W    1.675036
    51  W    1.678953
    52  W    1.685141
    53  W    1.685954
    54  O   -0.724368
    55  O   -0.708816
    56  O   -0.726419
    57  O   -0.722759
    58  O   -0.708415
    59  O   -0.727408
    60  O   -0.725285
    61  O   -0.721501
    62  O   -0.725244
    63  O   -0.710078
    64  O   -0.723966
    65  O   -0.727054
    66  O   -0.803687
    67  O   -0.802377
    68  O   -0.799709
    69  O   -0.808847
    70  K    0.865312
    71  K    0.866322
    72  K    0.862692
    73  V    1.191756
 Sum of Mulliken charges =  -1.00000
 Mulliken charges with hydrogens summed into heavy atoms:
               1
     1  Cl  -0.922450
     2  C   -0.046949
     3  C    0.044112
     4  C   -0.045003
     5  C    0.008000
     6  C    0.005590
     7  C   -0.009550
    13  C   -0.086394
    14  C    0.088751
    18  O   -0.663997
    19  O   -0.662123
    20  O   -0.654833
    21  O   -0.662906
    22  W    1.737406
    23  W    1.675324
    24  W    1.684615
    25  W    1.695399
    26  W    1.677707
    27  W    1.729748
    28  W    1.621592
    29  W    1.686499
    30  O   -0.320232
    31  O   -0.365556
    32  O   -0.366450
    33  O   -0.361420
    34  O   -0.666089
    35  O   -0.671219
    36  O   -0.662350
    37  O   -0.664729
    38  O   -0.367677
    39  O   -0.365441
    40  O   -0.295688
    41  O   -0.365146
    42  O   -0.670438
    43  O   -0.663843
    44  O   -0.661351
    45  O   -0.666120
    46  O   -0.368981
    47  O   -0.321181
    48  O   -0.359096
    49  O   -0.362766
    50  W    1.675036
    51  W    1.678953
    52  W    1.685141
    53  W    1.685954
    54  O   -0.724368
    55  O   -0.708816
    56  O   -0.726419
    57  O   -0.722759
    58  O   -0.708415
    59  O   -0.727408
    60  O   -0.725285
    61  O   -0.721501
    62  O   -0.725244
    63  O   -0.710078
    64  O   -0.723966
    65  O   -0.727054
    66  O   -0.803687
    67  O   -0.802377
    68  O   -0.799709
    69  O   -0.808847
    70  K    0.865312
    71  K    0.866322
    72  K    0.862692
    73  V    1.191756
 Electronic spatial extent (au):  <R**2>=         317522.5296
 Charge=             -1.0000 electrons
 Dipole moment (field-independent basis, Debye):
    X=             51.3662    Y=            -51.7754    Z=            -38.5596  Tot=             82.4986
 Quadrupole moment (field-independent basis, Debye-Ang):
   XX=          -1060.1741   YY=           -890.0909   ZZ=           -910.7751
   XY=            459.8600   XZ=            460.4563   YZ=           -484.1364
 Traceless Quadrupole moment (field-independent basis, Debye-Ang):
   XX=           -106.4941   YY=             63.5891   ZZ=             42.9050
   XY=            459.8600   XZ=            460.4563   YZ=           -484.1364
 Octapole moment (field-independent basis, Debye-Ang**2):
  XXX=          13484.5329  YYY=          -1117.3697  ZZZ=         -19072.0496  XYY=           6122.5107
  XXY=          -3728.2352  XXZ=          -9467.1703  XZZ=           7353.3316  YZZ=          -4248.7974
  YYZ=          -9063.5538  XYZ=           4869.0936
 Hexadecapole moment (field-independent basis, Debye-Ang**3):
 XXXX=        -159585.0703 YYYY=         -53796.5213 ZZZZ=        -345128.9884 XXXY=          37845.6917
 XXXZ=         123197.4038 YYYX=          21360.3090 YYYZ=         -13284.0445 ZZZX=         127638.5917
 ZZZY=         -36547.8841 XXYY=         -56401.1664 XXZZ=        -108176.4467 YYZZ=        -100062.7035
 XXYZ=         -43170.5505 YYXZ=          62085.3834 ZZXY=          51255.1420
 N-N= 2.097537414854D+04 E-N=-5.903485350574D+04  KE= 6.765090805972D+03
   1 Symmetry operations used in ECPInt.
 ECPInt:  NShTT=  127765 NPrTT=  468030 LenC2=   96637 LenP2D=  221090.
 LDataN:  DoStor=T MaxTD1= 9 Len=  602
 D1PCM: PCM CHGder 1st derivatives, ID1Alg=3 FixD1E=F DoIter=F DoCFld=F I1PDM=0.
 Calling FoFJK, ICntrl=      2127 FMM=T ISym2X=0 I1Cent= 0 IOpClX= 0 NMat=1 NMatS=1 NMatT=0.
 Defaulting to unpruned grid for atomic number  74.
 Defaulting to unpruned grid for atomic number  74.
 Defaulting to unpruned grid for atomic number  74.
 Defaulting to unpruned grid for atomic number  74.
 Defaulting to unpruned grid for atomic number  74.
 Defaulting to unpruned grid for atomic number  74.
 Defaulting to unpruned grid for atomic number  74.
 Defaulting to unpruned grid for atomic number  74.
 Defaulting to unpruned grid for atomic number  74.
 Defaulting to unpruned grid for atomic number  74.
 Defaulting to unpruned grid for atomic number  74.
 Defaulting to unpruned grid for atomic number  74.
 Defaulting to unpruned grid for atomic number  74.
 Defaulting to unpruned grid for atomic number  74.
 Defaulting to unpruned grid for atomic number  74.
 Defaulting to unpruned grid for atomic number  74.
 Defaulting to unpruned grid for atomic number  74.
 Defaulting to unpruned grid for atomic number  74.
 Defaulting to unpruned grid for atomic number  74.
 Defaulting to unpruned grid for atomic number  74.
 Defaulting to unpruned grid for atomic number  74.
 Defaulting to unpruned grid for atomic number  74.
 Defaulting to unpruned grid for atomic number  74.
 Defaulting to unpruned grid for atomic number  74.
 Defaulting to unpruned grid for atomic number  74.
 Defaulting to unpruned grid for atomic number  74.
 Defaulting to unpruned grid for atomic number  74.
 Defaulting to unpruned grid for atomic number  74.
 Defaulting to unpruned grid for atomic number  74.
 Defaulting to unpruned grid for atomic number  74.
 Defaulting to unpruned grid for atomic number  74.
 Defaulting to unpruned grid for atomic number  74.
 Defaulting to unpruned grid for atomic number  74.
 Defaulting to unpruned grid for atomic number  74.
 Defaulting to unpruned grid for atomic number  74.
 Defaulting to unpruned grid for atomic number  74.
 Defaulting to unpruned grid for atomic number  74.
 Defaulting to unpruned grid for atomic number  74.
 Defaulting to unpruned grid for atomic number  74.
 Defaulting to unpruned grid for atomic number  74.
 Defaulting to unpruned grid for atomic number  74.
 Defaulting to unpruned grid for atomic number  74.
 Defaulting to unpruned grid for atomic number  74.
 Defaulting to unpruned grid for atomic number  74.
 Defaulting to unpruned grid for atomic number  74.
 Defaulting to unpruned grid for atomic number  74.
 Defaulting to unpruned grid for atomic number  74.
 Defaulting to unpruned grid for atomic number  74.
 Defaulting to unpruned grid for atomic number  74.
 Defaulting to unpruned grid for atomic number  74.
 Defaulting to unpruned grid for atomic number  74.
 Defaulting to unpruned grid for atomic number  74.
 Defaulting to unpruned grid for atomic number  74.
 Defaulting to unpruned grid for atomic number  74.
 Defaulting to unpruned grid for atomic number  74.
 Defaulting to unpruned grid for atomic number  74.
 -------------------------------------------------------------------
 Center     Atomic                   Forces (Hartrees/Bohr)
 Number     Number              X              Y              Z
 -------------------------------------------------------------------
      1       17          -0.001317703    0.005212839    0.001382465
      2        6          -0.001668651   -0.000492737   -0.001889908
      3        6          -0.000817535   -0.001655731    0.003750714
      4        6           0.001405366    0.002219555    0.000220050
      5        6           0.000937543   -0.000191496    0.001397459
      6        6           0.000419285   -0.000593339    0.000619068
      7        6          -0.000838546   -0.001269397    0.000286231
      8        1          -0.000134104    0.000686419    0.000135384
      9        1          -0.000557019    0.000617723    0.000194891
     10        1          -0.000443851    0.000343515    0.000069558
     11        1           0.000308835   -0.000212657   -0.000100840
     12        1          -0.000251701    0.000378421    0.000389363
     13        6           0.008873520    0.011070338   -0.007854370
     14        6          -0.003976798   -0.016795306    0.000703339
     15        1          -0.000130934   -0.000377998   -0.000322878
     16        1          -0.001835902    0.002334359    0.001150173
     17        1          -0.002103219    0.000626038    0.000246105
     18        8          -0.003683023    0.000487110    0.000859944
     19        8           0.003771467   -0.000777650    0.001067746
     20        8           0.002860855   -0.003059239   -0.000457789
     21        8          -0.002670404    0.002294931   -0.000803848
     22       74           0.001730002    0.011593874   -0.010442661
     23       74          -0.002546315   -0.011454667   -0.011238445
     24       74           0.007199860    0.009107869    0.010762041
     25       74          -0.007655090   -0.008035255    0.011225160
     26       74           0.009013114   -0.008225846   -0.011698725
     27       74          -0.009172229    0.009095241   -0.011848333
     28       74          -0.012388026    0.003272694    0.011629185
     29       74           0.011697987   -0.002211478    0.011603398
     30        8          -0.001117989   -0.002879583    0.003273392
     31        8           0.000728670    0.003559500    0.003633107
     32        8          -0.002087973   -0.002622903   -0.003856867
     33        8           0.001999636    0.002105246   -0.003334939
     34        8          -0.001398038   -0.000698830    0.003726042
     35        8           0.001666808    0.000184284    0.003711469
     36        8           0.000842373   -0.001619800   -0.003490153
     37        8          -0.000425027    0.001212651   -0.003361187
     38        8          -0.004679342   -0.002078595   -0.001451750
     39        8           0.004941934    0.001704536   -0.001196067
     40        8           0.002657647   -0.006575981   -0.000178928
     41        8          -0.001501588    0.005194554    0.000761449
     42        8          -0.002279728   -0.003045264    0.001391680
     43        8           0.002706963    0.002878302    0.001056844
     44        8          -0.000407700   -0.004213904   -0.000911475
     45        8           0.001096952    0.003545683   -0.001029091
     46        8          -0.002938522    0.003500305    0.003472160
     47        8           0.003706757   -0.002229930    0.003733948
     48        8           0.004462378   -0.001022906   -0.003555380
     49        8          -0.003954010    0.000841723   -0.003362452
     50       74           0.015346962    0.005101418    0.003401252
     51       74          -0.015266285   -0.004101261    0.003617368
     52       74          -0.006398400    0.017279782   -0.003766234
     53       74           0.005154838   -0.015630145   -0.003082363
     54        8          -0.000721765    0.001565116    0.002483919
     55        8           0.000894189   -0.001717510    0.002303567
     56        8           0.001841034   -0.000300547   -0.002226163
     57        8          -0.001849798   -0.000824572   -0.002467482
     58        8           0.000244886   -0.002412250    0.001118772
     59        8           0.000333796    0.002269639    0.001772077
     60        8          -0.001462274   -0.002023790   -0.001797843
     61        8           0.001924051    0.001372620   -0.001579236
     62        8          -0.001268086    0.001994900    0.000816304
     63        8           0.000936101   -0.002399213    0.000267047
     64        8           0.002364532   -0.000282111   -0.000819679
     65        8          -0.002252114   -0.000378830   -0.000593952
     66        8          -0.028645888   -0.005160226    0.018994509
     67        8           0.029318317    0.005996351    0.018438294
     68        8           0.012043037   -0.027805352   -0.018798608
     69        8          -0.012250465    0.026157608   -0.018934407
     70       19           0.000136513   -0.000563948   -0.000436529
     71       19           0.000423203    0.000045201    0.000225759
     72       19          -0.000531547    0.000021682    0.000280493
     73       23          -0.000361821    0.000068220    0.000716855
 -------------------------------------------------------------------
 Cartesian Forces:  Max     0.029318317 RMS     0.006602258

 GradGradGradGradGradGradGradGradGradGradGradGradGradGradGradGradGradGrad
 Berny optimization.
 Search for a local minimum.
 Step number   1 out of a maximum of    2
 All quantities printed in internal units (Hartrees-Bohrs-Radians)
 Second derivative matrix not updated -- first step.
 ITU=  0
     Eigenvalues ---    0.00000   0.00000   0.00000   0.00010   0.00092
     Eigenvalues ---    0.00094   0.00257   0.00559   0.00623   0.01642
     Eigenvalues ---    0.01972   0.02903   0.02932   0.03205   0.03412
     Eigenvalues ---    0.03445   0.03725   0.03729   0.04158   0.04487
     Eigenvalues ---    0.04599   0.04606   0.04617   0.04826   0.04841
     Eigenvalues ---    0.04989   0.05352   0.05560   0.05589   0.06358
     Eigenvalues ---    0.06393   0.06526   0.06783   0.06853   0.07043
     Eigenvalues ---    0.07297   0.07374   0.07596   0.08323   0.08372
     Eigenvalues ---    0.08703   0.08725   0.08897   0.08917   0.09737
     Eigenvalues ---    0.09934   0.10082   0.10380   0.10422   0.10496
     Eigenvalues ---    0.10808   0.10866   0.11544   0.11642   0.12018
     Eigenvalues ---    0.12030   0.12131   0.12470   0.12540   0.12636
     Eigenvalues ---    0.12646   0.12745   0.12835   0.12973   0.13077
     Eigenvalues ---    0.13848   0.13960   0.14268   0.14519   0.14744
     Eigenvalues ---    0.16867   0.16881   0.17075   0.17153   0.17558
     Eigenvalues ---    0.17663   0.18540   0.19768   0.19942   0.20253
     Eigenvalues ---    0.20846   0.20967   0.21881   0.22019   0.22072
     Eigenvalues ---    0.22404   0.23078   0.23357   0.23940   0.23958
     Eigenvalues ---    0.24571   0.24731   0.24877   0.25518   0.26101
     Eigenvalues ---    0.26303   0.26455   0.27544   0.27630   0.27881
     Eigenvalues ---    0.28223   0.28256   0.28728   0.29456   0.29934
     Eigenvalues ---    0.30441   0.30491   0.30528   0.30595   0.30623
     Eigenvalues ---    0.30803   0.31165   0.31345   0.31451   0.32105
     Eigenvalues ---    0.32308   0.32341   0.32647   0.32848   0.33373
     Eigenvalues ---    0.33464   0.35160   0.35497   0.35798   0.36863
     Eigenvalues ---    0.37372   0.37539   0.37657   0.38081   0.38437
     Eigenvalues ---    0.38809   0.39020   0.40068   0.40178   0.40990
     Eigenvalues ---    0.42097   0.42171   0.43544   0.44017   0.44892
     Eigenvalues ---    0.45144   0.45438   0.45879   0.47740   0.48105
     Eigenvalues ---    0.48442   0.48639   0.48673   0.49283   0.49460
     Eigenvalues ---    0.49889   0.50575   0.51381   0.51695   0.52123
     Eigenvalues ---    0.52926   0.53674   0.55742   0.58364   0.64414
     Eigenvalues ---    0.67548   0.76655   0.81404   0.82714   0.96695
     Eigenvalues ---    0.97249   0.98493   0.99231   1.01599   1.04349
     Eigenvalues ---    1.07043   1.10736   1.11312   1.12196   1.14999
     Eigenvalues ---    1.18489   1.19031   1.20427   1.22155   1.22477
     Eigenvalues ---    1.22821   1.25618   1.26440   1.26630   1.27098
     Eigenvalues ---    1.27694   1.29089   1.29335   1.45158   1.45615
     Eigenvalues ---    1.45801   1.48217   1.51316   1.51515   1.51903
     Eigenvalues ---    1.52432   1.55537   1.55706   1.56628   1.58255
     Eigenvalues ---    1.58359   1.59436   1.61472   1.64516   1.67805
     Eigenvalues ---    1.74876   1.80431   1.85242   1.88658   1.91658
     Eigenvalues ---    2.03252   2.09335   3.19954
 Eigenvalue     1 is   4.44D-16 Eigenvector:
                          Y11       Y10       Y6        Y12       Y5
   1                    0.17460   0.17460   0.17460   0.17460   0.17460
                          Y7        Y4        Y2        Y9        Y3
   1                    0.17460   0.17460   0.17460   0.17460   0.17460
 Eigenvalue     2 is   3.72D-07 Eigenvector:
                          Y16       X16       X11       Y11       Y14
   1                    0.33267  -0.26749   0.26244  -0.24745   0.24407
                          Y15       Y17       X14       Y13       X10
   1                    0.22618   0.21088  -0.19270   0.18579   0.18529
 Eigenvalue     3 is   3.14D-06 Eigenvector:
                          X9        Y12       X10       X12       Y9
   1                    0.33818   0.28566   0.28322  -0.26146  -0.25403
                          Y8        X15       Y10       X8        X4
   1                    0.24961   0.23220  -0.21796  -0.20810   0.20335
 Quadratic step=1.150D+01 exceeds max=3.000D-01 adjusted using Lamda=-6.678D-03.
 Angle between NR and scaled steps=  52.67 degrees.
 Angle between quadratic step and forces=  63.93 degrees.
 Linear search not attempted -- first point.
 B after Tr=     0.003081    0.003008    0.001657
         Rot=    1.000000   -0.000143    0.000051    0.000197 Ang=  -0.03 deg.
 Variable       Old X    -DE/DX   Delta X   Delta X   Delta X     New X
                                 (Linear)    (Quad)   (Total)
    X1      -18.57275  -0.00132   0.00000  -0.00124   0.00591 -18.56685
    Y1       15.51924   0.00521   0.00000   0.00530   0.00994  15.52918
    Z1       19.93555   0.00138   0.00000   0.00148   0.00566  19.94120
    X2      -15.73423  -0.00167   0.00000  -0.01410  -0.01023 -15.74447
    Y2        8.00256  -0.00049   0.00000  -0.00652  -0.00389   7.99867
    Z2       23.09906  -0.00189   0.00000  -0.01183  -0.00950  23.08955
    X3      -17.21776  -0.00082   0.00000   0.00594   0.00978 -17.20798
    Y3        7.40701  -0.00166   0.00000  -0.03636  -0.03256   7.37446
    Z3       20.97473   0.00375   0.00000  -0.01467  -0.01267  20.96206
    X4      -18.95215   0.00141   0.00000  -0.01149  -0.00846 -18.96061
    Y4        5.40089   0.00222   0.00000  -0.01043  -0.00600   5.39489
    Z4       21.18011   0.00022   0.00000   0.01747   0.01872  21.19883
    X5      -19.27697   0.00094   0.00000  -0.00612  -0.00382 -19.28079
    Y5        4.11636  -0.00019   0.00000   0.00005   0.00396   4.12032
    Z5       23.45063   0.00140   0.00000   0.02661   0.02747  23.47809
    X6      -17.85165   0.00042   0.00000   0.00768   0.01002 -17.84163
    Y6        4.78957  -0.00059   0.00000  -0.00421  -0.00147   4.78810
    Z6       25.56527   0.00062   0.00000   0.01663   0.01782  25.58309
    X7      -16.05187  -0.00084   0.00000  -0.00894  -0.00581 -16.05768
    Y7        6.70996  -0.00127   0.00000   0.00727   0.00937   6.71933
    Z7       25.36702   0.00029   0.00000   0.00068   0.00261  25.36963
    X8      -14.30728  -0.00013   0.00000  -0.02540  -0.02093 -14.32821
    Y8        9.48775   0.00069   0.00000   0.00602   0.00812   9.49587
    Z8       22.97336   0.00014   0.00000  -0.01550  -0.01260  22.96076
    X9      -20.05452  -0.00056   0.00000  -0.03310  -0.03011 -20.08463
    Y9        4.85189   0.00062   0.00000  -0.00251   0.00284   4.85473
    Z9       19.51973   0.00019   0.00000   0.02923   0.03022  19.54994
   X10      -20.63089  -0.00044   0.00000  -0.02120  -0.01953 -20.65042
   Y10        2.56137   0.00034   0.00000   0.01411   0.01852   2.57989
   Z10       23.56970   0.00007   0.00000   0.03758   0.03786  23.60756
   X11      -18.10721   0.00031   0.00000   0.02137   0.02314 -18.08407
   Y11        3.78764  -0.00021   0.00000  -0.00364  -0.00131   3.78632
   Z11       27.35188  -0.00010   0.00000   0.01849   0.01938  27.37126
   X12      -14.87708  -0.00025   0.00000  -0.01711  -0.01395 -14.89103
   Y12        7.19635   0.00038   0.00000   0.03095   0.03213   7.22848
   Z12       26.99439   0.00039   0.00000   0.00056   0.00275  26.99714
   X13      -17.03655   0.00887   0.00000   0.03794   0.04254 -16.99400
   Y13        8.79003   0.01107   0.00000  -0.08721  -0.08280   8.70723
   Z13       18.58505  -0.00785   0.00000  -0.05410  -0.05170  18.53335
   X14      -15.64154  -0.00398   0.00000   0.00615   0.01162 -15.62992
   Y14       10.87293  -0.01680   0.00000  -0.09619  -0.09218  10.78075
   Z14       18.12237   0.00070   0.00000  -0.04393  -0.04080  18.08157
   X15      -18.19251  -0.00013   0.00000   0.04536   0.04982 -18.14269
   Y15        8.02910  -0.00038   0.00000  -0.10276  -0.09745   7.93165
   Z15       17.04510  -0.00032   0.00000  -0.05231  -0.05025  16.99485
   X16      -15.57406  -0.00184   0.00000  -0.03372  -0.02772 -15.60178
   Y16       11.66543   0.00233   0.00000  -0.03520  -0.03066  11.63476
   Z16       16.21836   0.00115   0.00000  -0.01917  -0.01579  16.20256
   X17      -14.40355  -0.00210   0.00000  -0.05554  -0.04986 -14.45341
   Y17       11.74170   0.00063   0.00000  -0.05569  -0.05255  11.68915
   Z17       19.52406   0.00025   0.00000  -0.01603  -0.01252  19.51154
   X18       -1.86502  -0.00368   0.00000  -0.02097  -0.02066  -1.88568
   Y18       -3.36700   0.00049   0.00000  -0.00276  -0.00303  -3.37003
   Z18       14.10517   0.00086   0.00000   0.00965   0.01016  14.11533
   X19      -15.88757   0.00377   0.00000   0.02132   0.02197 -15.86559
   Y19       -2.52089  -0.00078   0.00000   0.01374   0.01897  -2.50192
   Z19       14.09926   0.00107   0.00000   0.01273   0.01205  14.11131
   X20      -13.29663   0.00286   0.00000   0.01703   0.01908 -13.27756
   Y20        2.54617  -0.00306   0.00000  -0.00967  -0.00708   2.53909
   Z20       19.79627  -0.00046   0.00000  -0.00496  -0.00394  19.79233
   X21       -4.40838  -0.00267   0.00000  -0.01456  -0.01678  -4.42515
   Y21       -8.27278   0.00229   0.00000   0.01210   0.01117  -8.26161
   Z21       19.94352  -0.00080   0.00000  -0.00910  -0.01025  19.93327
   X22       -6.44729   0.00173   0.00000  -0.00606  -0.00371  -6.45100
   Y22        1.32202   0.01159   0.00000   0.02261   0.02467   1.34669
   Z22       12.23879  -0.01044   0.00000  -0.00528  -0.00391  12.23489
   X23      -11.33646  -0.00255   0.00000   0.00635   0.00532 -11.33114
   Y23       -7.21718  -0.01145   0.00000  -0.00388   0.00005  -7.21713
   Z23       12.40970  -0.01124   0.00000  -0.00570  -0.00727  12.40244
   X24       -6.84468   0.00720   0.00000   0.02076   0.02229  -6.82239
   Y24        1.67808   0.00911   0.00000  -0.00142  -0.00188   1.67620
   Z24       21.58326   0.01076   0.00000   0.00601   0.00745  21.59071
   X25      -10.89797  -0.00766   0.00000  -0.01900  -0.02101 -10.91899
   Y25       -7.29137  -0.00804   0.00000   0.00242   0.00354  -7.28783
   Z25       21.68489   0.01123   0.00000   0.00887   0.00733  21.69223
   X26       -4.61730   0.00901   0.00000  -0.00627  -0.00635  -4.62364
   Y26       -4.87474  -0.00823   0.00000  -0.00718  -0.00579  -4.88053
   Z26       12.08951  -0.01170   0.00000  -0.00700  -0.00721  12.08230
   X27      -13.12532  -0.00917   0.00000   0.00280   0.00426 -13.12106
   Y27       -1.01104   0.00910   0.00000   0.02582   0.03056  -0.98047
   Z27       12.03579  -0.01185   0.00000  -0.00898  -0.00894  12.02684
   X28      -12.89930  -0.01239   0.00000  -0.00475  -0.00409 -12.90339
   Y28       -0.46721   0.00327   0.00000  -0.00402  -0.00217  -0.46938
   Z28       21.85589   0.01163   0.00000   0.01141   0.01161  21.86750
   X29       -4.82276   0.01170   0.00000   0.00747   0.00629  -4.81647
   Y29       -5.13330  -0.00221   0.00000   0.00644   0.00509  -5.12820
   Z29       21.93582   0.01160   0.00000   0.00849   0.00820  21.94402
   X30       -5.99412  -0.00112   0.00000   0.00994   0.01341  -5.98071
   Y30        3.56907  -0.00288   0.00000   0.01341   0.01592   3.58499
   Z30       10.02068   0.00327   0.00000   0.00057   0.00263  10.02332
   X31      -11.59880   0.00073   0.00000  -0.00791  -0.00965 -11.60845
   Y31       -9.57957   0.00356   0.00000   0.00486   0.00952  -9.57006
   Z31       10.25064   0.00363   0.00000  -0.00006  -0.00232  10.24832
   X32       -5.11600  -0.00209   0.00000   0.01123   0.01317  -5.10283
   Y32        3.28401  -0.00262   0.00000   0.00255   0.00079   3.28480
   Z32       23.76306  -0.00386   0.00000  -0.00262  -0.00054  23.76251
   X33      -12.61344   0.00200   0.00000  -0.00833  -0.01117 -12.62461
   Y33       -8.82067   0.00211   0.00000  -0.00287  -0.00171  -8.82238
   Z33       23.92524  -0.00333   0.00000   0.00199  -0.00016  23.92508
   X34       -5.03912  -0.00140   0.00000  -0.01594  -0.01461  -5.05373
   Y34       -1.70284  -0.00070   0.00000   0.00303   0.00502  -1.69782
   Z34       10.54963   0.00373   0.00000   0.01523   0.01589  10.56552
   X35      -12.68312   0.00167   0.00000   0.01467   0.01498 -12.66815
   Y35       -4.28663   0.00018   0.00000   0.01408   0.01904  -4.26759
   Z35       10.62631   0.00371   0.00000   0.01467   0.01381  10.64012
   X36      -10.05164   0.00084   0.00000   0.01285   0.01395 -10.03770
   Y36        1.05473  -0.00162   0.00000  -0.01318  -0.01288   1.04185
   Z36       23.36194  -0.00349   0.00000  -0.00908  -0.00816  23.35378
   X37       -7.66040  -0.00043   0.00000  -0.00766  -0.00960  -7.67000
   Y37       -6.65430   0.00121   0.00000   0.01204   0.01139  -6.64291
   Z37       23.43965  -0.00336   0.00000  -0.00941  -0.01043  23.42922
   X38        0.56689  -0.00468   0.00000   0.00702   0.00830   0.57519
   Y38       -0.00112  -0.00208   0.00000  -0.01400  -0.01622  -0.01734
   Z38       17.53504  -0.00145   0.00000  -0.00301  -0.00130  17.53374
   X39      -18.34376   0.00494   0.00000  -0.00374  -0.00471 -18.34847
   Y39       -5.73478   0.00170   0.00000   0.01747   0.02268  -5.71211
   Z39       17.62128  -0.00120   0.00000  -0.00017  -0.00203  17.61926
   X40      -12.01805   0.00266   0.00000   0.01361   0.01757 -12.00048
   Y40        6.47379  -0.00658   0.00000   0.00794   0.01100   6.48479
   Z40       16.38671  -0.00018   0.00000  -0.00708  -0.00481  16.38190
   X41       -5.65675  -0.00150   0.00000  -0.00138  -0.00481  -5.66156
   Y41      -12.24158   0.00519   0.00000   0.00269   0.00321 -12.23837
   Z41       16.54949   0.00076   0.00000  -0.00362  -0.00603  16.54346
   X42       -3.38524  -0.00228   0.00000  -0.01214  -0.00995  -3.39519
   Y42        1.44273  -0.00305   0.00000  -0.00665  -0.00633   1.43640
   Z42       14.12575   0.00139   0.00000   0.01315   0.01487  14.14061
   X43      -14.37260   0.00271   0.00000   0.01386   0.01260 -14.36000
   Y43       -7.33903   0.00288   0.00000   0.01741   0.02200  -7.31703
   Z43       14.26383   0.00106   0.00000   0.01082   0.00892  14.27275
   X44       -8.51821  -0.00041   0.00000   0.01109   0.01379  -8.50443
   Y44        4.17623  -0.00421   0.00000  -0.01731  -0.01657   4.15967
   Z44       19.71388  -0.00091   0.00000  -0.00854  -0.00657  19.70731
   X45       -9.20901   0.00110   0.00000  -0.00831  -0.01115  -9.22016
   Y45       -9.86892   0.00355   0.00000   0.01751   0.01848  -9.85044
   Z45       19.88514  -0.00103   0.00000  -0.00880  -0.01090  19.87424
   X46       -3.04296  -0.00294   0.00000  -0.00547  -0.00602  -3.04898
   Y46       -6.65792   0.00350   0.00000   0.01087   0.01225  -6.64567
   Z46        9.92709   0.00347   0.00000  -0.00613  -0.00668   9.92041
   X47      -14.80640   0.00371   0.00000   0.00376   0.00605 -14.80036
   Y47        0.50557  -0.00223   0.00000   0.01063   0.01668   0.52224
   Z47        9.78627   0.00373   0.00000  -0.00518  -0.00489   9.78138
   X48      -15.21018   0.00446   0.00000   0.00687   0.00736 -15.20282
   Y48       -0.30137  -0.00102   0.00000   0.00569   0.00782  -0.29355
   Z48       24.07693  -0.00356   0.00000   0.00855   0.00856  24.08549
   X49       -2.48355  -0.00395   0.00000  -0.00318  -0.00469  -2.48824
   Y49       -5.38214   0.00084   0.00000  -0.00424  -0.00713  -5.38927
   Z49       24.12164  -0.00336   0.00000   0.00506   0.00493  24.12656
   X50       -2.37661   0.01535   0.00000   0.00797   0.00895  -2.36766
   Y50       -0.98082   0.00510   0.00000   0.00022  -0.00061  -0.98143
   Z50       16.69875   0.00340   0.00000   0.01354   0.01467  16.71342
   X51      -15.39562  -0.01527   0.00000  -0.00623  -0.00675 -15.40237
   Y51       -4.78370  -0.00410   0.00000   0.00753   0.01181  -4.77189
   Z51       16.76986   0.00362   0.00000   0.01535   0.01406  16.78393
   X52      -11.11640  -0.00640   0.00000   0.00273   0.00545 -11.11095
   Y52        3.50423   0.01728   0.00000   0.01639   0.01890   3.52313
   Z52       17.09855  -0.00377   0.00000  -0.01343  -0.01190  17.08665
   X53       -6.58914   0.00515   0.00000  -0.00432  -0.00666  -6.59580
   Y53       -9.26638  -0.01563   0.00000  -0.00606  -0.00539  -9.27177
   Z53       17.32414  -0.00308   0.00000  -0.01369  -0.01535  17.30879
   X54       -7.97492  -0.00072   0.00000  -0.00182  -0.00222  -7.97714
   Y54       -5.86363   0.00157   0.00000  -0.00555  -0.00266  -5.86629
   Z54       11.46542   0.00248   0.00000  -0.00710  -0.00793  11.45749
   X55       -9.75699   0.00089   0.00000  -0.00036   0.00153  -9.75547
   Y55       -0.09660  -0.00172   0.00000   0.02495   0.02856  -0.06803
   Z55       11.35497   0.00230   0.00000  -0.00790  -0.00727  11.34770
   X56      -11.66956   0.00184   0.00000  -0.01074  -0.01146 -11.68102
   Y56       -3.76915  -0.00030   0.00000  -0.00344  -0.00225  -3.77141
   Z56       22.50813  -0.00223   0.00000   0.01146   0.01084  22.51897
   X57       -5.99277  -0.00185   0.00000   0.01221   0.01226  -5.98052
   Y57       -1.83355  -0.00082   0.00000   0.00319   0.00212  -1.83143
   Z57       22.55369  -0.00247   0.00000   0.00772   0.00824  22.56193
   X58       -8.24643   0.00024   0.00000  -0.00083   0.00191  -8.24452
   Y58        2.98402  -0.00241   0.00000   0.02024   0.02227   3.00629
   Z58       14.80987   0.00112   0.00000  -0.00825  -0.00658  14.80329
   X59       -9.45899   0.00033   0.00000   0.00051  -0.00142  -9.46041
   Y59       -8.83608   0.00227   0.00000  -0.00659  -0.00412  -8.84021
   Z59       14.96830   0.00177   0.00000  -0.00779  -0.00962  14.95868
   X60       -4.41009  -0.00146   0.00000   0.01742   0.01898  -4.39111
   Y60        1.10297  -0.00202   0.00000  -0.00130  -0.00199   1.10098
   Z60       19.05349  -0.00180   0.00000   0.00798   0.00950  19.06299
   X61      -13.33610   0.00192   0.00000  -0.01478  -0.01634 -13.35245
   Y61       -6.82493   0.00137   0.00000   0.00378   0.00659  -6.81834
   Z61       19.15097  -0.00158   0.00000   0.01000   0.00834  19.15932
   X62       -4.86237  -0.00127   0.00000  -0.00430  -0.00564  -4.86801
   Y62       -7.35666   0.00199   0.00000  -0.00617  -0.00548  -7.36214
   Z62       14.86442   0.00082   0.00000  -0.01093  -0.01187  14.85255
   X63      -12.88356   0.00094   0.00000   0.00026   0.00242 -12.88114
   Y63        1.48640  -0.00240   0.00000   0.02111   0.02499   1.51139
   Z63       14.75393   0.00027   0.00000  -0.01324  -0.01247  14.74146
   X64      -14.80023   0.00236   0.00000  -0.00598  -0.00574 -14.80597
   Y64       -2.21941  -0.00028   0.00000   0.00296   0.00633  -2.21308
   Z64       19.16183  -0.00082   0.00000   0.01473   0.01424  19.17607
   X65       -2.96933  -0.00225   0.00000   0.00793   0.00767  -2.96166
   Y65       -3.50462  -0.00038   0.00000   0.00054  -0.00075  -3.50538
   Z65       19.15832  -0.00059   0.00000   0.01122   0.01157  19.16989
   X66       -6.35926  -0.02865   0.00000  -0.05313  -0.05245  -6.41171
   Y66       -2.16969  -0.00516   0.00000  -0.00344  -0.00223  -2.17191
   Z66       15.12226   0.01899   0.00000   0.03425   0.03463  15.15689
   X67      -11.39454   0.02932   0.00000   0.05186   0.05193 -11.34260
   Y67       -3.69286   0.00600   0.00000   0.01723   0.02037  -3.67249
   Z67       15.18162   0.01844   0.00000   0.03341   0.03286  15.21449
   X68       -9.67629   0.01204   0.00000   0.02502   0.02601  -9.65028
   Y68       -0.37698  -0.02781   0.00000  -0.04439  -0.04293  -0.41991
   Z68       18.79944  -0.01880   0.00000  -0.03025  -0.02970  18.76973
   X69       -8.01341  -0.01225   0.00000  -0.02598  -0.02692  -8.04033
   Y69       -5.35815   0.02616   0.00000   0.04644   0.04725  -5.31089
   Z69       18.85129  -0.01893   0.00000  -0.02981  -0.03049  18.82080
   X70       -6.07787   0.00014   0.00000  -0.00340  -0.00598  -6.08385
   Y70      -11.60168  -0.00056   0.00000  -0.00384  -0.00148 -11.60316
   Z70       10.66870  -0.00044   0.00000  -0.01035  -0.01263  10.65607
   X71       -0.20886   0.00042   0.00000   0.01321   0.01394  -0.19492
   Y71        0.10792   0.00005   0.00000  -0.00219  -0.00576   0.10216
   Z71       23.34796   0.00023   0.00000   0.00673   0.00840  23.35635
   X72      -17.55800  -0.00053   0.00000  -0.01108  -0.01254 -17.57055
   Y72       -5.43238   0.00002   0.00000   0.00514   0.00836  -5.42402
   Z72       23.50277   0.00028   0.00000   0.01028   0.00859  23.51135
   X73       -8.86645  -0.00036   0.00000  -0.00097  -0.00077  -8.86721
   Y73       -2.89077   0.00007   0.00000   0.00342   0.00507  -2.88570
   Z73       16.98275   0.00072   0.00000   0.00323   0.00315  16.98590
         Item               Value     Threshold  Converged?
 Maximum Force            0.029318     0.000450     NO 
 RMS     Force            0.006602     0.000300     NO 
 Maximum Displacement     0.097455     0.001800     NO 
 RMS     Displacement     0.020161     0.001200     NO 
 Predicted change in Energy=-6.684384D-03
 GradGradGradGradGradGradGradGradGradGradGradGradGradGradGradGradGradGrad

 Unable to Open any file for archive entry.
 1\1\GINC-X11P1N2\Force\RwB97XD\def2SVP\C8H8Cl1K3O40V1W12(1-)\MAYUMIAO\
 02-Jun-2024\0\\# def2svp wb97xd scrf=(smd,solvent=acetonitrile) g09def
 ault scf=(xqc,maxcycle=64) force guess=read nosymm\\Title Card\\-1,1\C
 l,-9.82827789,8.21242994,10.5494366\C,-8.32619709,4.23477395,12.223493
 89\C,-9.11124427,3.91962105,11.09935123\C,-10.02904779,2.85803039,11.2
 0803001\C,-10.20093438,2.17828491,12.40953686\C,-9.44668666,2.53453191
 ,13.5285582\C,-8.49428255,3.55075702,13.42364999\H,-7.5710872,5.020698
 76,12.15697824\H,-10.61239343,2.56751137,10.32939579\H,-10.91739593,1.
 35541644,12.47255001\H,-9.58192295,2.00433184,14.47399299\H,-7.8726138
 9,3.8081448,14.28481513\C,-9.01535345,4.6514835,9.83478356\C,-8.277146
 69,5.75370866,9.58994316\H,-9.62706279,4.24881899,9.01987647\H,-8.2414
 3747,6.17307894,8.58238391\H,-7.6220307,6.2134384,10.3316873\O,-0.9869
 2629,-1.78173912,7.46413553\O,-8.40733804,-1.33399627,7.46100887\O,-7.
 03627594,1.34737529,10.47573309\O,-2.33281164,-4.37776646,10.55365493\
 W,-3.4117606,0.69958209,6.47649048\W,-5.9989986,-3.81916826,6.56693156
 \W,-3.62204612,0.88800224,11.42136882\W,-5.7669593,-3.85842693,11.4751
 5048\W,-2.44336736,-2.57960196,6.39749193\W,-6.94562134,-0.53501773,6.
 36906331\W,-6.82601402,-0.24723652,11.56563887\W,-2.5520948,-2.7164231
 2,11.60793802\O,-3.1719531,1.88867303,5.30271788\O,-6.13782319,-5.0692
 9211,5.42440494\O,-2.70727233,1.73782101,12.57486922\O,-6.67474511,-4.
 66769765,12.66069243\O,-2.66658949,-0.90110208,5.58262325\O,-6.7116201
 8,-2.26838666,5.62320166\O,-5.31910113,0.55813843,12.36260578\O,-4.053
 70955,-3.52130283,12.40373105\O,0.29998598,-0.00059204,9.2791457\O,-9.
 70710025,-3.03471703,9.32478095\O,-6.35967922,3.42578084,8.6714722\O,-
 2.99342117,-6.47796523,8.75761434\O,-1.79139428,0.76345874,7.47502234\
 O,-7.60565182,-3.88364637,7.54809554\O,-4.50764516,2.20996758,10.43213
 503\O,-4.87319795,-5.22240662,10.52276226\O,-1.61026278,-3.52321791,5.
 25319142\O,-7.83521034,0.26753396,5.17867241\O,-8.04888142,-0.15947881
 ,12.74096001\O,-1.31423595,-2.84810483,12.76461982\W,-1.2576485,-0.519
 02735,8.83659627\W,-8.14701341,-2.53142744,8.87423034\W,-5.88254593,1.
 8543595,9.04816448\W,-3.48682125,-4.90355564,9.16753856\O,-4.22014595,
 -3.10289791,6.06723824\O,-5.16317826,-0.05111702,6.00878872\O,-6.17526
 774,-1.99455016,11.91078785\O,-3.17123979,-0.97027243,11.93489841\O,-4
 .3638222,1.57907589,7.83704345\O,-5.00548247,-4.67585453,7.92088368\O,
 -2.33372009,0.58366585,10.08267017\O,-7.05716232,-3.61159835,10.134258
 65\O,-2.57305445,-3.89297751,7.86591296\O,-6.81768785,0.78657012,7.807
 44541\O,-7.83194701,-1.1744605,10.14000605\O,-1.57130332,-1.85456733,1
 0.13814682\O,-3.36517484,-1.14814915,8.00235316\O,-6.02972943,-1.95417
 559,8.0337687\O,-5.12047208,-0.1994889,9.94823276\O,-4.24051271,-2.835
 40985,9.97567496\K,-3.21626929,-6.13934511,5.64563269\K,-0.11052436,0.
 05711014,12.35520615\K,-9.29129498,-2.87469164,12.43712948\V,-4.691922
 35,-1.52973168,8.98688265\\Version=ES64L-G16RevC.01\HF=-7327.7012225\R
 MSD=3.547e-09\RMSF=6.602e-03\Dipole=10.4399378,-22.1481017,2.5250517\Q
 uadrupole=-79.1757315,47.2769447,31.8987868,341.8946355,342.3379563,-3
 59.9435386\PG=C01 [X(C8H8Cl1K3O40V1W12)]\\@
 The archive entry for this job was punched.


 FORGIVE MY NONSENSE AS I ALSO FORGIVE THOSE WHO THINK THEY TALK SENSE

                                                       -- ROBERT FROST
 Job cpu time:       0 days  9 hours 34 minutes 58.9 seconds.
 Elapsed time:       0 days  0 hours 10 minutes 54.0 seconds.
 File lengths (MBytes):  RWF=   1253 Int=      0 D2E=      0 Chk=    249 Scr=      1
 Normal termination of Gaussian 16 at Sun Jun  2 08:42:47 2024.
