 Entering Gaussian System, Link 0=g16
 Input=JOBS/36_A.gjf
 Output=JOBS/36_A.log
 Initial command:
 /data/app/gaussian/C01-avx2//g16/l1.exe "/tmp/Gau-646963.inp" -scrdir="/tmp/"
 Entering Link 1 = /data/app/gaussian/C01-avx2//g16/l1.exe PID=    646964.
  
 Copyright (c) 1988-2019, Gaussian, Inc.  All Rights Reserved.
  
 This is part of the Gaussian(R) 16 program.  It is based on
 the Gaussian(R) 09 system (copyright 2009, Gaussian, Inc.),
 the Gaussian(R) 03 system (copyright 2003, Gaussian, Inc.),
 the Gaussian(R) 98 system (copyright 1998, Gaussian, Inc.),
 the Gaussian(R) 94 system (copyright 1995, Gaussian, Inc.),
 the Gaussian 92(TM) system (copyright 1992, Gaussian, Inc.),
 the Gaussian 90(TM) system (copyright 1990, Gaussian, Inc.),
 the Gaussian 88(TM) system (copyright 1988, Gaussian, Inc.),
 the Gaussian 86(TM) system (copyright 1986, Carnegie Mellon
 University), and the Gaussian 82(TM) system (copyright 1983,
 Carnegie Mellon University). Gaussian is a federally registered
 trademark of Gaussian, Inc.
  
 This software contains proprietary and confidential information,
 including trade secrets, belonging to Gaussian, Inc.
  
 This software is provided under written license and may be
 used, copied, transmitted, or stored only in accord with that
 written license.
  
 The following legend is applicable only to US Government
 contracts under FAR:
  
                    RESTRICTED RIGHTS LEGEND
  
 Use, reproduction and disclosure by the US Government is
 subject to restrictions as set forth in subparagraphs (a)
 and (c) of the Commercial Computer Software - Restricted
 Rights clause in FAR 52.227-19.
  
 Gaussian, Inc.
 340 Quinnipiac St., Bldg. 40, Wallingford CT 06492
  
  
 ---------------------------------------------------------------
 Warning -- This program may not be used in any manner that
 competes with the business of Gaussian, Inc. or will provide
 assistance to any competitor of Gaussian, Inc.  The licensee
 of this program is prohibited from giving any competitor of
 Gaussian, Inc. access to this program.  By using this program,
 the user acknowledges that Gaussian, Inc. is engaged in the
 business of creating and licensing software in the field of
 computational chemistry and represents and warrants to the
 licensee that it is not a competitor of Gaussian, Inc. and that
 it will not use this program in any manner prohibited above.
 ---------------------------------------------------------------
  

 Cite this work as:
 Gaussian 16, Revision C.01,
 M. J. Frisch, G. W. Trucks, H. B. Schlegel, G. E. Scuseria, 
 M. A. Robb, J. R. Cheeseman, G. Scalmani, V. Barone, 
 G. A. Petersson, H. Nakatsuji, X. Li, M. Caricato, A. V. Marenich, 
 J. Bloino, B. G. Janesko, R. Gomperts, B. Mennucci, H. P. Hratchian, 
 J. V. Ortiz, A. F. Izmaylov, J. L. Sonnenberg, D. Williams-Young, 
 F. Ding, F. Lipparini, F. Egidi, J. Goings, B. Peng, A. Petrone, 
 T. Henderson, D. Ranasinghe, V. G. Zakrzewski, J. Gao, N. Rega, 
 G. Zheng, W. Liang, M. Hada, M. Ehara, K. Toyota, R. Fukuda, 
 J. Hasegawa, M. Ishida, T. Nakajima, Y. Honda, O. Kitao, H. Nakai, 
 T. Vreven, K. Throssell, J. A. Montgomery, Jr., J. E. Peralta, 
 F. Ogliaro, M. J. Bearpark, J. J. Heyd, E. N. Brothers, K. N. Kudin, 
 V. N. Staroverov, T. A. Keith, R. Kobayashi, J. Normand, 
 K. Raghavachari, A. P. Rendell, J. C. Burant, S. S. Iyengar, 
 J. Tomasi, M. Cossi, J. M. Millam, M. Klene, C. Adamo, R. Cammi, 
 J. W. Ochterski, R. L. Martin, K. Morokuma, O. Farkas, 
 J. B. Foresman, and D. J. Fox, Gaussian, Inc., Wallingford CT, 2019.
 
 ******************************************
 Gaussian 16:  ES64L-G16RevC.01  3-Jul-2019
                 2-Jun-2024 
 ******************************************
 %chk=a.chk
 %nprocshared=56
 Will use up to   56 processors via shared memory.
 %mem=96gb
 ----------------------------------------------------------------------
 # def2svp wb97xd scrf=(smd,solvent=acetonitrile) g09default scf=(xqc,m
 axcycle=64) force guess=read nosymm
 ----------------------------------------------------------------------
 1/10=7,30=1,38=1,158=3,167=1/1,3;
 2/12=2,15=1,17=6,18=5,40=1/2;
 3/5=43,7=101,11=2,25=1,27=10,30=1,70=32201,71=1,72=2,74=-58,75=-4,116=-2,158=3/1,2,3;
 4/5=1,60=-1/1;
 5/5=2,7=64,8=3,13=1,38=6,53=2,87=10/2,8;
 6/7=2,8=2,9=2,10=2,28=1,87=10/1;
 7/29=1,30=1,87=10/1,2,3,16;
 1/10=7,30=1,158=3,167=1/3;
 99//99;
 Using 2006 physical constants.
 ----------
 Title Card
 ----------
 Symbolic Z-matrix:
 Charge = -1 Multiplicity = 1
 17                   -9.81162   8.22703   10.55227 
 6                    -8.32766   4.23504   12.22275 
 6                    -9.11451   3.92084   11.09974 
 6                    -10.03091   2.85772   11.20867 
 6                    -10.20148   2.17785   12.41053 
 6                    -9.44719   2.53512   13.52918 
 6                    -8.49449   3.55099   13.42296 
 1                    -7.57134   5.02004   12.15539 
 1                    -10.61445   2.56622   10.33081 
 1                    -10.91729   1.35464   12.47389 
 1                    -9.58274   2.00611   14.47521 
 1                    -7.87178   3.80802   14.28352 
 6                    -9.02227   4.65437   9.83568 
 6                    -8.29149   5.76171   9.59201 
 1                    -9.62972   4.24726   9.01965 
 1                    -8.25741   6.18125   8.58435 
 1                    -7.64052   6.22634   10.33435 
 8                    -0.98537  -1.78362   7.46471 
 8                    -8.40631  -1.33425   7.46097 
 8                    -7.03483   1.34751   10.47496 
 8                    -2.33307  -4.37995   10.55346 
 74                   -3.41113   0.69732   6.47575 
 74                   -5.99783  -3.81895   6.56552 
 74                   -3.62089   0.88546   11.42186 
 74                   -5.76616  -3.85823   11.47571 
 74                   -2.44123  -2.58198   6.3983 
 74                   -6.94579  -0.53437   6.36982 
 74                   -6.82568  -0.24723   11.5643 
 74                   -2.55047  -2.71849   11.60665 
 8                    -3.1715    1.88555   5.30084 
 8                    -6.13588  -5.06894   5.42368 
 8                    -2.70498   1.73458   12.57498 
 8                    -6.67539  -4.66622   12.66144 
 8                    -2.66479  -0.90356   5.58295 
 8                    -6.7106   -2.26805   5.62303 
 8                    -5.31847   0.55716   12.36228 
 8                    -4.05293  -3.52199   12.40344 
 8                     0.30078  -0.00148   9.28035 
 8                    -9.7057   -3.0358    9.32568 
 8                    -6.35737   3.42679   8.67133 
 8                    -2.99553  -6.47994   8.75624 
 8                    -1.79039   0.76186   7.47491 
 8                    -7.60459  -3.88388   7.54745 
 8                    -4.50569   2.20832   10.43178 
 8                    -4.87378  -5.22325   10.52299 
 8                    -1.60879  -3.52703   5.25482 
 8                    -7.83399   0.26911   5.17995 
 8                    -8.04962  -0.1608    12.73929 
 8                    -1.31183  -2.84921   12.76306 
 74                   -1.2567   -0.51982   8.83646 
 74                   -8.14547  -2.53269   8.8742 
 74                   -5.87995   1.85487   9.04788 
 74                   -3.48799  -4.90551   9.16712 
 8                    -4.21871  -3.10402   6.06737 
 8                    -5.16201  -0.05245   6.00919 
 8                    -6.17487  -1.99464   11.9101 
 8                    -3.17043  -0.9721    11.93446 
 8                    -4.36253   1.57937   7.8357 
 8                    -5.00532  -4.67635   7.9207 
 8                    -2.33263   0.58184   10.08263 
 8                    -7.05618  -3.61193   10.13382 
 8                    -2.57224  -3.89543   7.86594 
 8                    -6.81639   0.78764   7.80686 
 8                    -7.83134  -1.17477   10.13946 
 8                    -1.57003  -1.85608   10.13808 
 8                    -3.3638   -1.14952   8.0024 
 8                    -6.02905  -1.95461   8.03359 
 8                    -5.11986  -0.20021   9.94761 
 8                    -4.23967  -2.83671   9.97526 
 19                   -3.21539  -6.1392    5.64518 
 19                   -0.10923   0.05738   12.35403 
 19                   -9.2914   -2.86982   12.43753 
 23                   -4.69091  -1.53069   8.98685 
 

 GradGradGradGradGradGradGradGradGradGradGradGradGradGradGradGradGradGrad
 Berny optimization.
 Initialization pass.
 Trust Radius=3.00D-01 FncErr=1.00D-07 GrdErr=1.00D-07 EigMax=2.50D+02 EigMin=1.00D-04
 Number of steps in this run=      2 maximum allowed number of steps=      2.
 GradGradGradGradGradGradGradGradGradGradGradGradGradGradGradGradGradGrad

 Symmetry turned off by external request.
 Stoichiometry    C8H8ClK3O40VW12(1-)
 Framework group  C1[X(C8H8ClK3O40VW12)]
 Deg. of freedom   213
 Full point group                 C1      NOp   1
                          Input orientation:                          
 ---------------------------------------------------------------------
 Center     Atomic      Atomic             Coordinates (Angstroms)
 Number     Number       Type             X           Y           Z
 ---------------------------------------------------------------------
      1         17           0       -9.811621    8.227025   10.552273
      2          6           0       -8.327658    4.235044   12.222750
      3          6           0       -9.114512    3.920841   11.099740
      4          6           0      -10.030907    2.857724   11.208675
      5          6           0      -10.201484    2.177854   12.410534
      6          6           0       -9.447187    2.535121   13.529180
      7          6           0       -8.494487    3.550993   13.422962
      8          1           0       -7.571344    5.020035   12.155394
      9          1           0      -10.614448    2.566221   10.330814
     10          1           0      -10.917294    1.354642   12.473888
     11          1           0       -9.582736    2.006109   14.475207
     12          1           0       -7.871781    3.808023   14.283517
     13          6           0       -9.022268    4.654372    9.835683
     14          6           0       -8.291487    5.761713    9.592013
     15          1           0       -9.629725    4.247259    9.019648
     16          1           0       -8.257413    6.181254    8.584351
     17          1           0       -7.640515    6.226336   10.334354
     18          8           0       -0.985374   -1.783619    7.464707
     19          8           0       -8.406309   -1.334248    7.460967
     20          8           0       -7.034831    1.347511   10.474957
     21          8           0       -2.333074   -4.379954   10.553456
     22         74           0       -3.411127    0.697320    6.475747
     23         74           0       -5.997825   -3.818949    6.565524
     24         74           0       -3.620886    0.885463   11.421865
     25         74           0       -5.766161   -3.858226   11.475707
     26         74           0       -2.441226   -2.581979    6.398297
     27         74           0       -6.945787   -0.534369    6.369815
     28         74           0       -6.825680   -0.247226   11.564295
     29         74           0       -2.550467   -2.718487   11.606649
     30          8           0       -3.171500    1.885554    5.300838
     31          8           0       -6.135882   -5.068938    5.423682
     32          8           0       -2.704981    1.734583   12.574975
     33          8           0       -6.675395   -4.666219   12.661440
     34          8           0       -2.664789   -0.903555    5.582947
     35          8           0       -6.710601   -2.268054    5.623035
     36          8           0       -5.318466    0.557158   12.362276
     37          8           0       -4.052933   -3.521988   12.403444
     38          8           0        0.300779   -0.001483    9.280353
     39          8           0       -9.705701   -3.035798    9.325679
     40          8           0       -6.357370    3.426795    8.671329
     41          8           0       -2.995533   -6.479939    8.756236
     42          8           0       -1.790394    0.761861    7.474909
     43          8           0       -7.604591   -3.883883    7.547449
     44          8           0       -4.505695    2.208321   10.431776
     45          8           0       -4.873784   -5.223254   10.522993
     46          8           0       -1.608791   -3.527033    5.254817
     47          8           0       -7.833991    0.269108    5.179945
     48          8           0       -8.049623   -0.160801   12.739288
     49          8           0       -1.311828   -2.849208   12.763064
     50         74           0       -1.256703   -0.519816    8.836459
     51         74           0       -8.145474   -2.532690    8.874204
     52         74           0       -5.879945    1.854869    9.047881
     53         74           0       -3.487995   -4.905510    9.167123
     54          8           0       -4.218708   -3.104022    6.067373
     55          8           0       -5.162008   -0.052452    6.009193
     56          8           0       -6.174871   -1.994641   11.910101
     57          8           0       -3.170433   -0.972099   11.934456
     58          8           0       -4.362527    1.579372    7.835696
     59          8           0       -5.005321   -4.676353    7.920703
     60          8           0       -2.332625    0.581844   10.082626
     61          8           0       -7.056179   -3.611926   10.133818
     62          8           0       -2.572236   -3.895429    7.865945
     63          8           0       -6.816391    0.787638    7.806862
     64          8           0       -7.831339   -1.174772   10.139456
     65          8           0       -1.570032   -1.856080   10.138079
     66          8           0       -3.363796   -1.149521    8.002400
     67          8           0       -6.029054   -1.954609    8.033592
     68          8           0       -5.119865   -0.200210    9.947611
     69          8           0       -4.239668   -2.836707    9.975261
     70         19           0       -3.215387   -6.139197    5.645182
     71         19           0       -0.109231    0.057382   12.354030
     72         19           0       -9.291398   -2.869825   12.437530
     73         23           0       -4.690909   -1.530687    8.986854
 ---------------------------------------------------------------------
 Rotational constants (GHZ):           0.0172037           0.0132341           0.0130057
 Standard basis: def2SVP (5D, 7F)
  1217 basis functions,  2313 primitive gaussians,  1337 cartesian basis functions
   321 alpha electrons      321 beta electrons
       nuclear repulsion energy     20974.3924236459 Hartrees.
 NAtoms=   73 NActive=   73 NUniq=   73 SFac= 1.00D+00 NAtFMM=   60 NAOKFM=T Big=T
 Integral buffers will be    131072 words long.
 Raffenetti 2 integral format.
 Two-electron integral symmetry is turned off.
 Nuclear repulsion after empirical dispersion term =    20974.1155030312 Hartrees.
 Force PCM accuracy= 1.00D-10.
 ------------------------------------------------------------------------------
 Polarizable Continuum Model (PCM)
 =================================
 Model                : PCM (using non-symmetric T matrix).
 Atomic radii         : SMD-Coulomb.
 Polarization charges : Total charges.
 Charge compensation  : None.
 Solution method      : On-the-fly selection.
 Cavity type          : VdW (van der Waals Surface) (Alpha=1.000).
 Cavity algorithm     : GePol (No added spheres)
                        Default sphere list used, NSphG=   73.
                        Lebedev-Laikov grids with approx.  5.0 points / Ang**2.
                        Smoothing algorithm: York/Karplus (Gamma=1.0000).
                        Polarization charges: spherical gaussians, with
                                              point-specific exponents (IZeta= 3).
                        Self-potential: point-specific (ISelfS= 7).
                        Self-field    : sphere-specific E.n sum rule (ISelfD= 2).
 1st derivatives      : Analytical E(r).r(x)/FMM algorithm (CHGder, D1EAlg=3).
                        Cavity 1st derivative terms included.
 Solvent              : Acetonitrile, Eps=  35.688000 Eps(inf)=   1.806874
 ------------------------------------------------------------------------------
 ------------------------------------------------------------------------------
 Atomic radii for non-electrostatic terms: SMD-CDS.
 ------------------------------------------------------------------------------
 Nuclear repulsion after PCM non-electrostatic terms =    20974.1097274030 Hartrees.
 One-electron integrals computed using PRISM.
   1 Symmetry operations used in ECPInt.
 ECPInt:  NShTT=  127765 NPrTT=  468030 LenC2=   96623 LenP2D=  221056.
 LDataN:  DoStor=T MaxTD1= 8 Len=  415
 NBasis=  1217 RedAO= T EigKep=  1.37D-04  NBF=  1217
 NBsUse=  1217 1.00D-06 EigRej= -1.00D+00 NBFU=  1217
 Defaulting to unpruned grid for atomic number  74.
 Defaulting to unpruned grid for atomic number  74.
 Defaulting to unpruned grid for atomic number  74.
 Defaulting to unpruned grid for atomic number  74.
 Defaulting to unpruned grid for atomic number  74.
 Defaulting to unpruned grid for atomic number  74.
 Defaulting to unpruned grid for atomic number  74.
 Defaulting to unpruned grid for atomic number  74.
 Initial guess from the checkpoint file:  "a.chk"
 B after Tr=     0.002731   -0.004055   -0.000232
         Rot=    1.000000   -0.000007    0.000003    0.000175 Ang=  -0.02 deg.
 Requested convergence on RMS density matrix=1.00D-08 within  64 cycles.
 Requested convergence on MAX density matrix=1.00D-06.
 Requested convergence on             energy=1.00D-06.
 No special actions if energy rises.
 Defaulting to unpruned grid for atomic number  74.
 Defaulting to unpruned grid for atomic number  74.
 Defaulting to unpruned grid for atomic number  74.
 Defaulting to unpruned grid for atomic number  74.
 Defaulting to unpruned grid for atomic number  74.
 Defaulting to unpruned grid for atomic number  74.
 Defaulting to unpruned grid for atomic number  74.
 Defaulting to unpruned grid for atomic number  74.
 Defaulting to unpruned grid for atomic number  74.
 Defaulting to unpruned grid for atomic number  74.
 Defaulting to unpruned grid for atomic number  74.
 Defaulting to unpruned grid for atomic number  74.
 Defaulting to unpruned grid for atomic number  74.
 Defaulting to unpruned grid for atomic number  74.
 Defaulting to unpruned grid for atomic number  74.
 Defaulting to unpruned grid for atomic number  74.
 Defaulting to unpruned grid for atomic number  74.
 Defaulting to unpruned grid for atomic number  74.
 Defaulting to unpruned grid for atomic number  74.
 Defaulting to unpruned grid for atomic number  74.
 Defaulting to unpruned grid for atomic number  74.
 Defaulting to unpruned grid for atomic number  74.
 Defaulting to unpruned grid for atomic number  74.
 Defaulting to unpruned grid for atomic number  74.
 Defaulting to unpruned grid for atomic number  74.
 Defaulting to unpruned grid for atomic number  74.
 Defaulting to unpruned grid for atomic number  74.
 Defaulting to unpruned grid for atomic number  74.
 Defaulting to unpruned grid for atomic number  74.
 Defaulting to unpruned grid for atomic number  74.
 Defaulting to unpruned grid for atomic number  74.
 Defaulting to unpruned grid for atomic number  74.
 Defaulting to unpruned grid for atomic number  74.
 Defaulting to unpruned grid for atomic number  74.
 Defaulting to unpruned grid for atomic number  74.
 Defaulting to unpruned grid for atomic number  74.
 Defaulting to unpruned grid for atomic number  74.
 Defaulting to unpruned grid for atomic number  74.
 Defaulting to unpruned grid for atomic number  74.
 Defaulting to unpruned grid for atomic number  74.
 Defaulting to unpruned grid for atomic number  74.
 Defaulting to unpruned grid for atomic number  74.
 Defaulting to unpruned grid for atomic number  74.
 Defaulting to unpruned grid for atomic number  74.
 Defaulting to unpruned grid for atomic number  74.
 Defaulting to unpruned grid for atomic number  74.
 Defaulting to unpruned grid for atomic number  74.
 Defaulting to unpruned grid for atomic number  74.
 Defaulting to unpruned grid for atomic number  74.
 Defaulting to unpruned grid for atomic number  74.
 Defaulting to unpruned grid for atomic number  74.
 Defaulting to unpruned grid for atomic number  74.
 Defaulting to unpruned grid for atomic number  74.
 Defaulting to unpruned grid for atomic number  74.
 Defaulting to unpruned grid for atomic number  74.
 Defaulting to unpruned grid for atomic number  74.
 Inv3:  Mode=1 IEnd=    87026988.
 Iteration    1 A*A^-1 deviation from unit magnitude is 3.22D-15 for   1982.
 Iteration    1 A*A^-1 deviation from orthogonality  is 3.13D-15 for    527    217.
 Iteration    1 A^-1*A deviation from unit magnitude is 3.55D-15 for   2767.
 Iteration    1 A^-1*A deviation from orthogonality  is 3.17D-10 for    942    936.
 Iteration    2 A*A^-1 deviation from unit magnitude is 4.66D-15 for   2767.
 Iteration    2 A*A^-1 deviation from orthogonality  is 3.33D-15 for   4713   1821.
 Iteration    2 A^-1*A deviation from unit magnitude is 1.33D-15 for   1872.
 Iteration    2 A^-1*A deviation from orthogonality  is 5.26D-16 for   2519   2478.
 Error on total polarization charges =  0.01600
 SCF Done:  E(RwB97XD) =  -7327.70127901     A.U. after   19 cycles
            NFock= 19  Conv=0.16D-08     -V/T= 2.0832
 SMD-CDS (non-electrostatic) energy       (kcal/mol) =      -3.62
 (included in total energy above)
 QCSCF skips out because SCF is already converged.

 **********************************************************************

            Population analysis using the SCF Density.

 **********************************************************************

 Alpha  occ. eigenvalues -- -197.29737-130.00168-130.00136-130.00054-101.47925
 Alpha  occ. eigenvalues --  -22.62831 -19.33759 -19.33746 -19.33730 -19.33714
 Alpha  occ. eigenvalues --  -19.30721 -19.30670 -19.30668 -19.30660 -19.30658
 Alpha  occ. eigenvalues --  -19.30655 -19.30644 -19.30599 -19.30518 -19.30363
 Alpha  occ. eigenvalues --  -19.30325 -19.30129 -19.29312 -19.29308 -19.29286
 Alpha  occ. eigenvalues --  -19.29277 -19.29268 -19.29266 -19.29230 -19.29187
 Alpha  occ. eigenvalues --  -19.29177 -19.29157 -19.29142 -19.29140 -19.29126
 Alpha  occ. eigenvalues --  -19.29113 -19.29088 -19.29077 -19.29070 -19.29056
 Alpha  occ. eigenvalues --  -19.29050 -19.28971 -19.28966 -19.28942 -19.28913
 Alpha  occ. eigenvalues --  -19.28827 -19.11792 -19.11783 -19.11774 -13.37575
 Alpha  occ. eigenvalues --  -13.37541 -13.37452 -10.70504 -10.70497 -10.70495
 Alpha  occ. eigenvalues --  -10.70470 -10.70463 -10.70462 -10.70383 -10.70376
 Alpha  occ. eigenvalues --  -10.70371 -10.29906 -10.29370 -10.29321 -10.29129
 Alpha  occ. eigenvalues --  -10.29055 -10.29024 -10.28261 -10.27809  -9.38382
 Alpha  occ. eigenvalues --   -7.13207  -7.13163  -7.13159  -3.23301  -3.23297
 Alpha  occ. eigenvalues --   -3.23286  -3.23280  -3.23279  -3.23265  -3.23249
 Alpha  occ. eigenvalues --   -3.23225  -3.23186  -3.22969  -3.22963  -3.22751
 Alpha  occ. eigenvalues --   -2.91997  -1.94352  -1.94322  -1.94315  -1.87708
 Alpha  occ. eigenvalues --   -1.87655  -1.87640  -1.87597  -1.87471  -1.87463
 Alpha  occ. eigenvalues --   -1.87450  -1.87429  -1.87393  -1.87273  -1.87238
 Alpha  occ. eigenvalues --   -1.87063  -1.86612  -1.86493  -1.86487  -1.86465
 Alpha  occ. eigenvalues --   -1.86443  -1.86416  -1.86331  -1.86319  -1.86298
 Alpha  occ. eigenvalues --   -1.86279  -1.86270  -1.86237  -1.86130  -1.86118
 Alpha  occ. eigenvalues --   -1.86112  -1.86092  -1.86036  -1.86001  -1.85973
 Alpha  occ. eigenvalues --   -1.85913  -1.85890  -1.85793  -1.85685  -1.85638
 Alpha  occ. eigenvalues --   -1.51254  -1.51226  -1.51141  -1.13120  -1.11363
 Alpha  occ. eigenvalues --   -1.11282  -1.11268  -1.08977  -1.08533  -1.08489
 Alpha  occ. eigenvalues --   -1.08279  -1.07575  -1.07521  -1.07508  -1.06898
 Alpha  occ. eigenvalues --   -1.06863  -1.06852  -1.06315  -1.06294  -1.05296
 Alpha  occ. eigenvalues --   -1.05284  -1.04971  -1.04959  -1.04949  -1.04173
 Alpha  occ. eigenvalues --   -1.04168  -1.04154  -1.04009  -1.03983  -1.03969
 Alpha  occ. eigenvalues --   -1.03926  -1.03886  -1.03866  -1.03742  -1.03700
 Alpha  occ. eigenvalues --   -1.03596  -1.03540  -1.03289  -1.03246  -1.03091
 Alpha  occ. eigenvalues --   -1.03078  -1.03017  -1.02940  -0.94424  -0.86715
 Alpha  occ. eigenvalues --   -0.86689  -0.86609  -0.86581  -0.86529  -0.86515
 Alpha  occ. eigenvalues --   -0.86499  -0.86496  -0.86423  -0.86393  -0.82848
 Alpha  occ. eigenvalues --   -0.79865  -0.71080  -0.69792  -0.68087  -0.64590
 Alpha  occ. eigenvalues --   -0.63947  -0.63908  -0.63902  -0.63363  -0.63333
 Alpha  occ. eigenvalues --   -0.63215  -0.63065  -0.62717  -0.62625  -0.62051
 Alpha  occ. eigenvalues --   -0.61628  -0.61615  -0.61523  -0.61227  -0.61209
 Alpha  occ. eigenvalues --   -0.61163  -0.60402  -0.59489  -0.59457  -0.59444
 Alpha  occ. eigenvalues --   -0.59424  -0.59383  -0.58680  -0.57981  -0.57960
 Alpha  occ. eigenvalues --   -0.57877  -0.57107  -0.57069  -0.57035  -0.56299
 Alpha  occ. eigenvalues --   -0.56262  -0.56092  -0.55686  -0.54849  -0.54781
 Alpha  occ. eigenvalues --   -0.54746  -0.54591  -0.54225  -0.54105  -0.54071
 Alpha  occ. eigenvalues --   -0.54012  -0.53949  -0.53211  -0.53175  -0.53045
 Alpha  occ. eigenvalues --   -0.52994  -0.52877  -0.52689  -0.52637  -0.52619
 Alpha  occ. eigenvalues --   -0.52572  -0.52541  -0.52470  -0.52451  -0.51577
 Alpha  occ. eigenvalues --   -0.51549  -0.51356  -0.51320  -0.51286  -0.51235
 Alpha  occ. eigenvalues --   -0.51174  -0.51161  -0.51010  -0.50724  -0.50542
 Alpha  occ. eigenvalues --   -0.50531  -0.50514  -0.49872  -0.49850  -0.49317
 Alpha  occ. eigenvalues --   -0.49275  -0.49244  -0.49195  -0.49148  -0.49048
 Alpha  occ. eigenvalues --   -0.48896  -0.48078  -0.48025  -0.47928  -0.47751
 Alpha  occ. eigenvalues --   -0.47362  -0.47279  -0.47228  -0.47007  -0.46932
 Alpha  occ. eigenvalues --   -0.46820  -0.46553  -0.46469  -0.46464  -0.46220
 Alpha  occ. eigenvalues --   -0.46158  -0.46109  -0.45640  -0.45082  -0.44904
 Alpha  occ. eigenvalues --   -0.44869  -0.44183  -0.44152  -0.44040  -0.43612
 Alpha  occ. eigenvalues --   -0.43276  -0.43223  -0.43105  -0.43084  -0.43046
 Alpha  occ. eigenvalues --   -0.42696  -0.42669  -0.42648  -0.42584  -0.42581
 Alpha  occ. eigenvalues --   -0.42495  -0.42448  -0.42433  -0.42270  -0.42255
 Alpha  occ. eigenvalues --   -0.42230  -0.42006  -0.41893  -0.41837  -0.41822
 Alpha  occ. eigenvalues --   -0.41241  -0.41149  -0.41131  -0.41009  -0.40533
 Alpha  occ. eigenvalues --   -0.40507  -0.40502  -0.40429  -0.39435  -0.39418
 Alpha  occ. eigenvalues --   -0.36991  -0.32565  -0.28988  -0.24757  -0.24737
 Alpha  occ. eigenvalues --   -0.23549
 Alpha virt. eigenvalues --   -0.09687  -0.09468  -0.08490  -0.08434  -0.07032
 Alpha virt. eigenvalues --   -0.07008  -0.06873  -0.04672  -0.04327  -0.04294
 Alpha virt. eigenvalues --   -0.03725  -0.03543  -0.03470  -0.03252  -0.03158
 Alpha virt. eigenvalues --   -0.03105  -0.03073  -0.02214  -0.02169  -0.02136
 Alpha virt. eigenvalues --   -0.01520  -0.01497  -0.01448  -0.01298  -0.01246
 Alpha virt. eigenvalues --   -0.00086  -0.00082  -0.00014   0.01419   0.01446
 Alpha virt. eigenvalues --    0.01904   0.01934   0.02022   0.02140   0.02174
 Alpha virt. eigenvalues --    0.02180   0.02238   0.02304   0.02763   0.02835
 Alpha virt. eigenvalues --    0.02904   0.02966   0.03001   0.04184   0.04537
 Alpha virt. eigenvalues --    0.06740   0.07249   0.07525   0.07565   0.07788
 Alpha virt. eigenvalues --    0.08018   0.08443   0.08500   0.08770   0.09155
 Alpha virt. eigenvalues --    0.09340   0.09382   0.09663   0.09889   0.10296
 Alpha virt. eigenvalues --    0.10327   0.10392   0.10444   0.10470   0.10643
 Alpha virt. eigenvalues --    0.10874   0.11046   0.11063   0.11653   0.11735
 Alpha virt. eigenvalues --    0.12228   0.13091   0.13220   0.13312   0.13567
 Alpha virt. eigenvalues --    0.13735   0.14349   0.14533   0.14650   0.14967
 Alpha virt. eigenvalues --    0.15538   0.16138   0.16327   0.16571   0.16738
 Alpha virt. eigenvalues --    0.16770   0.16880   0.17078   0.17240   0.17664
 Alpha virt. eigenvalues --    0.17867   0.18157   0.18205   0.18356   0.18582
 Alpha virt. eigenvalues --    0.18732   0.19052   0.19323   0.19415   0.19536
 Alpha virt. eigenvalues --    0.19662   0.20193   0.20279   0.20493   0.20602
 Alpha virt. eigenvalues --    0.20759   0.20864   0.20944   0.21344   0.21396
 Alpha virt. eigenvalues --    0.21507   0.21623   0.21700   0.21873   0.22020
 Alpha virt. eigenvalues --    0.22387   0.22701   0.22891   0.23129   0.23234
 Alpha virt. eigenvalues --    0.23473   0.23826   0.23981   0.24254   0.24546
 Alpha virt. eigenvalues --    0.24708   0.25207   0.25459   0.25639   0.25847
 Alpha virt. eigenvalues --    0.26012   0.26217   0.26402   0.26597   0.26678
 Alpha virt. eigenvalues --    0.26981   0.27200   0.27326   0.27449   0.27721
 Alpha virt. eigenvalues --    0.27974   0.28258   0.28335   0.28680   0.28731
 Alpha virt. eigenvalues --    0.29208   0.29414   0.29852   0.30084   0.30433
 Alpha virt. eigenvalues --    0.30620   0.30879   0.31183   0.31547   0.31776
 Alpha virt. eigenvalues --    0.32241   0.34709   0.35189   0.35779   0.36276
 Alpha virt. eigenvalues --    0.36666   0.36878   0.37173   0.38063   0.38368
 Alpha virt. eigenvalues --    0.38630   0.39187   0.39533   0.39630   0.40214
 Alpha virt. eigenvalues --    0.40706   0.40843   0.41000   0.41101   0.41732
 Alpha virt. eigenvalues --    0.42113   0.42371   0.42788   0.43292   0.43559
 Alpha virt. eigenvalues --    0.43729   0.44546   0.44787   0.44897   0.45262
 Alpha virt. eigenvalues --    0.45744   0.46313   0.46483   0.46713   0.47272
 Alpha virt. eigenvalues --    0.47379   0.47643   0.47970   0.48062   0.48241
 Alpha virt. eigenvalues --    0.48386   0.48445   0.48666   0.48705   0.48978
 Alpha virt. eigenvalues --    0.49151   0.49419   0.49490   0.49811   0.49903
 Alpha virt. eigenvalues --    0.50213   0.50590   0.50739   0.50823   0.51020
 Alpha virt. eigenvalues --    0.51620   0.51688   0.51886   0.52235   0.52423
 Alpha virt. eigenvalues --    0.52680   0.52843   0.53031   0.53127   0.53278
 Alpha virt. eigenvalues --    0.53685   0.54057   0.54319   0.54351   0.54544
 Alpha virt. eigenvalues --    0.54950   0.55407   0.55647   0.56377   0.56434
 Alpha virt. eigenvalues --    0.56867   0.57398   0.57755   0.58032   0.58268
 Alpha virt. eigenvalues --    0.58579   0.59067   0.59403   0.60144   0.60707
 Alpha virt. eigenvalues --    0.61339   0.62091   0.62537   0.62744   0.63084
 Alpha virt. eigenvalues --    0.64007   0.65297   0.65616   0.65661   0.65836
 Alpha virt. eigenvalues --    0.66046   0.66651   0.66975   0.67288   0.67365
 Alpha virt. eigenvalues --    0.67738   0.68292   0.69725   0.70288   0.70993
 Alpha virt. eigenvalues --    0.71339   0.71820   0.72015   0.72118   0.72169
 Alpha virt. eigenvalues --    0.72428   0.72575   0.73152   0.73343   0.73928
 Alpha virt. eigenvalues --    0.74607   0.74839   0.75489   0.75684   0.75805
 Alpha virt. eigenvalues --    0.76155   0.76719   0.76858   0.77255   0.77447
 Alpha virt. eigenvalues --    0.77494   0.78396   0.78961   0.79457   0.79671
 Alpha virt. eigenvalues --    0.79782   0.80287   0.80658   0.80787   0.81511
 Alpha virt. eigenvalues --    0.81540   0.81712   0.81983   0.82564   0.83059
 Alpha virt. eigenvalues --    0.84042   0.84238   0.84828   0.85305   0.85928
 Alpha virt. eigenvalues --    0.87177   0.87539   0.87967   0.88067   0.88738
 Alpha virt. eigenvalues --    0.88909   0.89093   0.89459   0.89665   0.90236
 Alpha virt. eigenvalues --    0.90735   0.90911   0.91251   0.91469   0.91667
 Alpha virt. eigenvalues --    0.92831   0.93018   0.93652   0.93954   0.94080
 Alpha virt. eigenvalues --    0.94317   0.94741   0.95845   0.96033   0.96774
 Alpha virt. eigenvalues --    0.96827   0.97062   0.97300   0.97708   0.97827
 Alpha virt. eigenvalues --    0.98122   0.98297   0.98482   0.98575   0.98791
 Alpha virt. eigenvalues --    0.98917   0.99534   1.00048   1.00325   1.00488
 Alpha virt. eigenvalues --    1.00899   1.01357   1.01613   1.01723   1.02086
 Alpha virt. eigenvalues --    1.02203   1.02439   1.02490   1.02555   1.02619
 Alpha virt. eigenvalues --    1.02965   1.03621   1.03824   1.03839   1.03926
 Alpha virt. eigenvalues --    1.04188   1.04231   1.04405   1.04577   1.04693
 Alpha virt. eigenvalues --    1.04787   1.05041   1.05202   1.05395   1.05807
 Alpha virt. eigenvalues --    1.05944   1.06325   1.06412   1.07020   1.07206
 Alpha virt. eigenvalues --    1.07526   1.07845   1.08670   1.09080   1.09182
 Alpha virt. eigenvalues --    1.09377   1.09826   1.10003   1.10165   1.10200
 Alpha virt. eigenvalues --    1.10667   1.10866   1.10914   1.11068   1.11232
 Alpha virt. eigenvalues --    1.11494   1.11622   1.11733   1.11971   1.12546
 Alpha virt. eigenvalues --    1.12877   1.13491   1.13778   1.14300   1.14761
 Alpha virt. eigenvalues --    1.15281   1.15944   1.16025   1.16457   1.16621
 Alpha virt. eigenvalues --    1.16949   1.17652   1.17857   1.18623   1.18758
 Alpha virt. eigenvalues --    1.19195   1.20738   1.20982   1.21225   1.21334
 Alpha virt. eigenvalues --    1.21470   1.21960   1.22208   1.23029   1.23527
 Alpha virt. eigenvalues --    1.25124   1.25988   1.26592   1.26708   1.27091
 Alpha virt. eigenvalues --    1.27518   1.27871   1.28259   1.28518   1.28571
 Alpha virt. eigenvalues --    1.28901   1.29162   1.29221   1.29393   1.29627
 Alpha virt. eigenvalues --    1.30049   1.30269   1.30373   1.30836   1.30902
 Alpha virt. eigenvalues --    1.31313   1.32115   1.32355   1.33018   1.33177
 Alpha virt. eigenvalues --    1.33276   1.33340   1.33738   1.33930   1.34018
 Alpha virt. eigenvalues --    1.34217   1.34324   1.34523   1.34701   1.34841
 Alpha virt. eigenvalues --    1.34919   1.35203   1.35420   1.35622   1.35704
 Alpha virt. eigenvalues --    1.36047   1.36165   1.36557   1.36778   1.36878
 Alpha virt. eigenvalues --    1.37084   1.37223   1.37294   1.37693   1.37857
 Alpha virt. eigenvalues --    1.37917   1.38449   1.38662   1.38728   1.39096
 Alpha virt. eigenvalues --    1.39189   1.39478   1.39589   1.39754   1.40177
 Alpha virt. eigenvalues --    1.40284   1.40458   1.40575   1.40757   1.40918
 Alpha virt. eigenvalues --    1.41016   1.41195   1.41443   1.41941   1.42147
 Alpha virt. eigenvalues --    1.42577   1.43072   1.43300   1.43456   1.43548
 Alpha virt. eigenvalues --    1.43962   1.44257   1.44577   1.44974   1.45667
 Alpha virt. eigenvalues --    1.46451   1.46813   1.47676   1.47758   1.48092
 Alpha virt. eigenvalues --    1.48270   1.48783   1.49231   1.49648   1.50015
 Alpha virt. eigenvalues --    1.50506   1.51019   1.51375   1.51967   1.53363
 Alpha virt. eigenvalues --    1.53767   1.55350   1.55779   1.55816   1.55959
 Alpha virt. eigenvalues --    1.56133   1.56327   1.56659   1.56740   1.57188
 Alpha virt. eigenvalues --    1.57249   1.58065   1.58258   1.59221   1.59262
 Alpha virt. eigenvalues --    1.59785   1.60179   1.60349   1.60468   1.60524
 Alpha virt. eigenvalues --    1.60694   1.61173   1.61948   1.62223   1.62491
 Alpha virt. eigenvalues --    1.63845   1.64394   1.65112   1.65626   1.66819
 Alpha virt. eigenvalues --    1.67516   1.67891   1.69995   1.70507   1.70835
 Alpha virt. eigenvalues --    1.71356   1.71609   1.72366   1.72833   1.74056
 Alpha virt. eigenvalues --    1.75187   1.75342   1.75538   1.75879   1.76856
 Alpha virt. eigenvalues --    1.76874   1.76927   1.77480   1.77849   1.78650
 Alpha virt. eigenvalues --    1.78860   1.79223   1.79847   1.80377   1.80672
 Alpha virt. eigenvalues --    1.81104   1.81322   1.81761   1.82102   1.82739
 Alpha virt. eigenvalues --    1.82940   1.83253   1.83882   1.84167   1.84444
 Alpha virt. eigenvalues --    1.85157   1.85254   1.85649   1.86092   1.86359
 Alpha virt. eigenvalues --    1.86485   1.87116   1.87492   1.88210   1.88598
 Alpha virt. eigenvalues --    1.89377   1.89966   1.90180   1.90275   1.90415
 Alpha virt. eigenvalues --    1.90778   1.91046   1.91355   1.92356   1.93354
 Alpha virt. eigenvalues --    1.94876   1.95394   1.95566   1.95811   1.96089
 Alpha virt. eigenvalues --    1.98064   1.99326   1.99486   1.99634   2.04368
 Alpha virt. eigenvalues --    2.06303   2.07416   2.08141   2.08595   2.08844
 Alpha virt. eigenvalues --    2.09043   2.09289   2.09545   2.10314   2.11204
 Alpha virt. eigenvalues --    2.11555   2.11943   2.12825   2.14806   2.15186
 Alpha virt. eigenvalues --    2.15975   2.16819   2.17236   2.17545   2.17727
 Alpha virt. eigenvalues --    2.19874   2.20169   2.20355   2.20700   2.20989
 Alpha virt. eigenvalues --    2.21067   2.22203   2.24528   2.25295   2.25987
 Alpha virt. eigenvalues --    2.26391   2.26779   2.27518   2.28496   2.28951
 Alpha virt. eigenvalues --    2.29165   2.29881   2.30276   2.33215   2.35665
 Alpha virt. eigenvalues --    2.36454   2.40231   2.40960   2.41090   2.43671
 Alpha virt. eigenvalues --    2.44191   2.50050   2.51360   2.57272   2.64750
 Alpha virt. eigenvalues --    2.64820   2.64945   2.65462   2.65990   2.66588
 Alpha virt. eigenvalues --    2.66743   2.66827   2.66939   2.67001   2.67060
 Alpha virt. eigenvalues --    2.67113   2.67172   2.67343   2.67369   2.67423
 Alpha virt. eigenvalues --    2.67675   2.67684   2.67787   2.67827   2.67902
 Alpha virt. eigenvalues --    2.68650   2.68931   2.69278   2.69380   2.70020
 Alpha virt. eigenvalues --    2.70194   2.70300   2.70547   2.70706   2.70831
 Alpha virt. eigenvalues --    2.70921   2.71386   2.71443   2.71518   2.71584
 Alpha virt. eigenvalues --    2.71681   2.71979   2.72643   2.72955   2.72977
 Alpha virt. eigenvalues --    2.73182   2.73242   2.73283   2.73353   2.73370
 Alpha virt. eigenvalues --    2.73507   2.73821   2.73907   2.73930   2.74015
 Alpha virt. eigenvalues --    2.74100   2.74210   2.74353   2.74570   2.74754
 Alpha virt. eigenvalues --    2.74797   2.74979   2.75125   2.75592   2.76041
 Alpha virt. eigenvalues --    2.76193   2.76326   2.76456   2.76755   2.76959
 Alpha virt. eigenvalues --    2.77126   2.77231   2.77279   2.78485   2.78634
 Alpha virt. eigenvalues --    2.78653   2.78977   2.79832   2.80110   2.80209
 Alpha virt. eigenvalues --    2.81213   2.81762   2.81814   2.82045   2.82202
 Alpha virt. eigenvalues --    2.82318   2.82656   2.82969   2.83204   2.83661
 Alpha virt. eigenvalues --    2.83748   2.83912   2.84013   2.84231   2.85018
 Alpha virt. eigenvalues --    2.85500   2.86088   2.86249   2.86271   2.86413
 Alpha virt. eigenvalues --    2.86593   2.86796   2.86897   2.88245   2.88490
 Alpha virt. eigenvalues --    2.88630   2.89097   2.89655   2.89701   2.89793
 Alpha virt. eigenvalues --    2.89835   2.89965   2.90063   2.90563   2.90690
 Alpha virt. eigenvalues --    2.90756   2.91736   2.91876   2.92006   2.92038
 Alpha virt. eigenvalues --    2.92207   2.92492   2.92728   2.92913   2.93095
 Alpha virt. eigenvalues --    2.93304   2.93422   2.93686   2.93915   2.94068
 Alpha virt. eigenvalues --    2.94189   2.95023   2.95187   2.95413   2.95670
 Alpha virt. eigenvalues --    2.95708   2.95809   2.96219   2.96443   2.96525
 Alpha virt. eigenvalues --    2.96620   2.96777   2.96883   2.97168   2.97391
 Alpha virt. eigenvalues --    2.97537   2.97722   2.97959   2.98275   2.99091
 Alpha virt. eigenvalues --    2.99300   2.99387   2.99636   2.99678   3.00033
 Alpha virt. eigenvalues --    3.00137   3.00405   3.01006   3.01244   3.01304
 Alpha virt. eigenvalues --    3.02445   3.02917   3.03225   3.03575   3.05190
 Alpha virt. eigenvalues --    3.06480   3.06729   3.07158   3.10924   3.11559
 Alpha virt. eigenvalues --    3.11713   3.11800   3.12168   3.12629   3.13715
 Alpha virt. eigenvalues --    3.13804   3.13996   3.16521   3.19969   3.21713
 Alpha virt. eigenvalues --    3.22022   3.23901   3.32564   3.41198   3.41751
 Alpha virt. eigenvalues --    3.42403   3.43158   3.45014   3.45101   3.45957
 Alpha virt. eigenvalues --    3.46208   3.46313   3.47332   3.47688   3.47838
 Alpha virt. eigenvalues --    3.47994   3.51275   3.51864   3.52435   3.53707
 Alpha virt. eigenvalues --    3.53885   3.54464   3.54782   3.54871   3.55087
 Alpha virt. eigenvalues --    3.55268   3.55619   3.55946   3.56754   3.57610
 Alpha virt. eigenvalues --    3.57774   3.58498   3.59534   3.59683   3.60455
 Alpha virt. eigenvalues --    3.60735   3.61281   3.61625   3.62099   3.62481
 Alpha virt. eigenvalues --    3.69353   3.74741  68.64216  68.65320  68.66390
 Alpha virt. eigenvalues --   68.68496  68.72624  68.73549  68.81742  68.82735
 Alpha virt. eigenvalues --   68.83341  68.85646  68.86765  68.88107 576.22654
 Alpha virt. eigenvalues --  576.23733 576.24780 576.26842 576.30976 576.31890
 Alpha virt. eigenvalues --  576.39932 576.40902 576.41489 576.43697 576.44791
 Alpha virt. eigenvalues --  576.46125
          Condensed to atoms (all electrons):
 Mulliken charges:
               1
     1  Cl  -0.920688
     2  C   -0.077326
     3  C    0.044531
     4  C   -0.075875
     5  C   -0.033668
     6  C   -0.032126
     7  C   -0.050029
     8  H    0.030490
     9  H    0.030721
    10  H    0.041603
    11  H    0.037607
    12  H    0.040432
    13  C   -0.110670
    14  C    0.015457
    15  H    0.023093
    16  H    0.042371
    17  H    0.030170
    18  O   -0.664032
    19  O   -0.662390
    20  O   -0.654861
    21  O   -0.663077
    22  W    1.737559
    23  W    1.675748
    24  W    1.685084
    25  W    1.695916
    26  W    1.677818
    27  W    1.729968
    28  W    1.621810
    29  W    1.686956
    30  O   -0.320296
    31  O   -0.365112
    32  O   -0.366485
    33  O   -0.361530
    34  O   -0.666190
    35  O   -0.671417
    36  O   -0.662364
    37  O   -0.664831
    38  O   -0.367918
    39  O   -0.365696
    40  O   -0.296216
    41  O   -0.365114
    42  O   -0.670506
    43  O   -0.663988
    44  O   -0.661562
    45  O   -0.666155
    46  O   -0.369066
    47  O   -0.320610
    48  O   -0.359830
    49  O   -0.362899
    50  W    1.675437
    51  W    1.679478
    52  W    1.685543
    53  W    1.686327
    54  O   -0.724527
    55  O   -0.709034
    56  O   -0.726446
    57  O   -0.722899
    58  O   -0.708380
    59  O   -0.727584
    60  O   -0.725337
    61  O   -0.721538
    62  O   -0.725342
    63  O   -0.710094
    64  O   -0.724016
    65  O   -0.727106
    66  O   -0.803677
    67  O   -0.802266
    68  O   -0.799628
    69  O   -0.808839
    70  K    0.865071
    71  K    0.866080
    72  K    0.862401
    73  V    1.191565
 Sum of Mulliken charges =  -1.00000
 Mulliken charges with hydrogens summed into heavy atoms:
               1
     1  Cl  -0.920688
     2  C   -0.046836
     3  C    0.044531
     4  C   -0.045154
     5  C    0.007935
     6  C    0.005481
     7  C   -0.009597
    13  C   -0.087577
    14  C    0.087999
    18  O   -0.664032
    19  O   -0.662390
    20  O   -0.654861
    21  O   -0.663077
    22  W    1.737559
    23  W    1.675748
    24  W    1.685084
    25  W    1.695916
    26  W    1.677818
    27  W    1.729968
    28  W    1.621810
    29  W    1.686956
    30  O   -0.320296
    31  O   -0.365112
    32  O   -0.366485
    33  O   -0.361530
    34  O   -0.666190
    35  O   -0.671417
    36  O   -0.662364
    37  O   -0.664831
    38  O   -0.367918
    39  O   -0.365696
    40  O   -0.296216
    41  O   -0.365114
    42  O   -0.670506
    43  O   -0.663988
    44  O   -0.661562
    45  O   -0.666155
    46  O   -0.369066
    47  O   -0.320610
    48  O   -0.359830
    49  O   -0.362899
    50  W    1.675437
    51  W    1.679478
    52  W    1.685543
    53  W    1.686327
    54  O   -0.724527
    55  O   -0.709034
    56  O   -0.726446
    57  O   -0.722899
    58  O   -0.708380
    59  O   -0.727584
    60  O   -0.725337
    61  O   -0.721538
    62  O   -0.725342
    63  O   -0.710094
    64  O   -0.724016
    65  O   -0.727106
    66  O   -0.803677
    67  O   -0.802266
    68  O   -0.799628
    69  O   -0.808839
    70  K    0.865071
    71  K    0.866080
    72  K    0.862401
    73  V    1.191565
 Electronic spatial extent (au):  <R**2>=         317517.8094
 Charge=             -1.0000 electrons
 Dipole moment (field-independent basis, Debye):
    X=             51.2876    Y=            -51.7909    Z=            -38.5926  Tot=             82.4749
 Quadrupole moment (field-independent basis, Debye-Ang):
   XX=          -1058.6374   YY=           -890.9727   ZZ=           -911.3614
   XY=            459.4007   XZ=            459.8984   YZ=           -484.2909
 Traceless Quadrupole moment (field-independent basis, Debye-Ang):
   XX=           -104.9803   YY=             62.6845   ZZ=             42.2958
   XY=            459.4007   XZ=            459.8984   YZ=           -484.2909
 Octapole moment (field-independent basis, Debye-Ang**2):
  XXX=          13460.4076  YYY=          -1125.9890  ZZZ=         -19080.3130  XYY=           6125.1185
  XXY=          -3717.3086  XXZ=          -9453.6113  XZZ=           7348.7496  YZZ=          -4250.3916
  YYZ=          -9073.6335  XYZ=           4864.2637
 Hexadecapole moment (field-independent basis, Debye-Ang**3):
 XXXX=        -159257.5954 YYYY=         -53948.6425 ZZZZ=        -345235.9728 XXXY=          37683.6232
 XXXZ=         122971.8123 YYYX=          21411.6339 YYYZ=         -13385.7552 ZZZX=         127596.8963
 ZZZY=         -36566.9290 XXYY=         -56380.4576 XXZZ=        -108046.4223 YYZZ=        -100182.9683
 XXYZ=         -43057.9114 YYXZ=          62123.8085 ZZXY=          51207.0074
 N-N= 2.097410972740D+04 E-N=-5.903229996461D+04  KE= 6.765084208083D+03
   1 Symmetry operations used in ECPInt.
 ECPInt:  NShTT=  127765 NPrTT=  468030 LenC2=   96623 LenP2D=  221056.
 LDataN:  DoStor=T MaxTD1= 9 Len=  602
 D1PCM: PCM CHGder 1st derivatives, ID1Alg=3 FixD1E=F DoIter=F DoCFld=F I1PDM=0.
 Calling FoFJK, ICntrl=      2127 FMM=T ISym2X=0 I1Cent= 0 IOpClX= 0 NMat=1 NMatS=1 NMatT=0.
 Defaulting to unpruned grid for atomic number  74.
 Defaulting to unpruned grid for atomic number  74.
 Defaulting to unpruned grid for atomic number  74.
 Defaulting to unpruned grid for atomic number  74.
 Defaulting to unpruned grid for atomic number  74.
 Defaulting to unpruned grid for atomic number  74.
 Defaulting to unpruned grid for atomic number  74.
 Defaulting to unpruned grid for atomic number  74.
 Defaulting to unpruned grid for atomic number  74.
 Defaulting to unpruned grid for atomic number  74.
 Defaulting to unpruned grid for atomic number  74.
 Defaulting to unpruned grid for atomic number  74.
 Defaulting to unpruned grid for atomic number  74.
 Defaulting to unpruned grid for atomic number  74.
 Defaulting to unpruned grid for atomic number  74.
 Defaulting to unpruned grid for atomic number  74.
 Defaulting to unpruned grid for atomic number  74.
 Defaulting to unpruned grid for atomic number  74.
 Defaulting to unpruned grid for atomic number  74.
 Defaulting to unpruned grid for atomic number  74.
 Defaulting to unpruned grid for atomic number  74.
 Defaulting to unpruned grid for atomic number  74.
 Defaulting to unpruned grid for atomic number  74.
 Defaulting to unpruned grid for atomic number  74.
 Defaulting to unpruned grid for atomic number  74.
 Defaulting to unpruned grid for atomic number  74.
 Defaulting to unpruned grid for atomic number  74.
 Defaulting to unpruned grid for atomic number  74.
 Defaulting to unpruned grid for atomic number  74.
 Defaulting to unpruned grid for atomic number  74.
 Defaulting to unpruned grid for atomic number  74.
 Defaulting to unpruned grid for atomic number  74.
 Defaulting to unpruned grid for atomic number  74.
 Defaulting to unpruned grid for atomic number  74.
 Defaulting to unpruned grid for atomic number  74.
 Defaulting to unpruned grid for atomic number  74.
 Defaulting to unpruned grid for atomic number  74.
 Defaulting to unpruned grid for atomic number  74.
 Defaulting to unpruned grid for atomic number  74.
 Defaulting to unpruned grid for atomic number  74.
 Defaulting to unpruned grid for atomic number  74.
 Defaulting to unpruned grid for atomic number  74.
 Defaulting to unpruned grid for atomic number  74.
 Defaulting to unpruned grid for atomic number  74.
 Defaulting to unpruned grid for atomic number  74.
 Defaulting to unpruned grid for atomic number  74.
 Defaulting to unpruned grid for atomic number  74.
 Defaulting to unpruned grid for atomic number  74.
 Defaulting to unpruned grid for atomic number  74.
 Defaulting to unpruned grid for atomic number  74.
 Defaulting to unpruned grid for atomic number  74.
 Defaulting to unpruned grid for atomic number  74.
 Defaulting to unpruned grid for atomic number  74.
 Defaulting to unpruned grid for atomic number  74.
 Defaulting to unpruned grid for atomic number  74.
 Defaulting to unpruned grid for atomic number  74.
 -------------------------------------------------------------------
 Center     Atomic                   Forces (Hartrees/Bohr)
 Number     Number              X              Y              Z
 -------------------------------------------------------------------
      1       17          -0.001486007    0.005221328    0.001443109
      2        6          -0.001490816   -0.000302821   -0.001901589
      3        6          -0.000960847   -0.001863420    0.003570513
      4        6           0.001555586    0.002300410    0.000568364
      5        6           0.000997053    0.000000004    0.001220531
      6        6           0.000440068   -0.000562434    0.000572061
      7        6          -0.000897073   -0.001347457    0.000439527
      8        1          -0.000275819    0.000651763    0.000096974
      9        1          -0.000645512    0.000631757    0.000039152
     10        1          -0.000510684    0.000263377    0.000091470
     11        1           0.000363585   -0.000259568   -0.000097743
     12        1          -0.000250499    0.000396351    0.000364473
     13        6           0.008755756    0.010876347   -0.007859189
     14        6          -0.003456271   -0.016719449    0.000621665
     15        1          -0.000157281   -0.000310854   -0.000255904
     16        1          -0.001841948    0.002306010    0.001210678
     17        1          -0.002123506    0.000506474    0.000192505
     18        8          -0.003693481    0.000484967    0.000855876
     19        8           0.003779716   -0.000728221    0.001037276
     20        8           0.002872620   -0.003078069   -0.000461235
     21        8          -0.002652743    0.002320691   -0.000823520
     22       74           0.001775667    0.011757204   -0.010680837
     23       74          -0.002522275   -0.010811639   -0.010706941
     24       74           0.007203872    0.009154114    0.010743635
     25       74          -0.007911458   -0.008248881    0.011492948
     26       74           0.008869506   -0.008112929   -0.011565870
     27       74          -0.008650011    0.008584122   -0.011255521
     28       74          -0.012769184    0.003276664    0.011970753
     29       74           0.012018333   -0.002247863    0.011902285
     30        8          -0.001089197   -0.003026531    0.003440201
     31        8           0.000596912    0.003082404    0.003146120
     32        8          -0.002154474   -0.002579887   -0.003828607
     33        8           0.002258801    0.002216504   -0.003577081
     34        8          -0.001407458   -0.000688045    0.003730290
     35        8           0.001637538    0.000176333    0.003681796
     36        8           0.000874638   -0.001597898   -0.003507812
     37        8          -0.000443538    0.001199147   -0.003353151
     38        8          -0.004821549   -0.002109331   -0.001586612
     39        8           0.005235899    0.001789108   -0.001361691
     40        8           0.002747894   -0.007037258    0.000059330
     41        8          -0.001487698    0.005167335    0.000848227
     42        8          -0.002252936   -0.003050424    0.001388574
     43        8           0.002709470    0.002856485    0.001006780
     44        8          -0.000387955   -0.004193395   -0.000867744
     45        8           0.001138936    0.003545223   -0.001028155
     46        8          -0.002841289    0.003529572    0.003330881
     47        8           0.003269862   -0.001945341    0.003180010
     48        8           0.004817212   -0.000931378   -0.003827520
     49        8          -0.004286200    0.000783445   -0.003569238
     50       74           0.015557572    0.005156003    0.003442086
     51       74          -0.015690260   -0.004271709    0.003648809
     52       74          -0.006592648    0.017823705   -0.003949182
     53       74           0.005135226   -0.015604435   -0.003116614
     54        8          -0.000720907    0.001560608    0.002490321
     55        8           0.000846749   -0.001731283    0.002309987
     56        8           0.001920100   -0.000262132   -0.002261504
     57        8          -0.001901429   -0.000824797   -0.002511647
     58        8           0.000271157   -0.002508601    0.001203249
     59        8           0.000320549    0.002275961    0.001770872
     60        8          -0.001525534   -0.002020602   -0.001796772
     61        8           0.001990093    0.001395666   -0.001565705
     62        8          -0.001299361    0.002066217    0.000884743
     63        8           0.000957237   -0.002460937    0.000324599
     64        8           0.002446324   -0.000232127   -0.000849816
     65        8          -0.002322957   -0.000403530   -0.000665167
     66        8          -0.028740467   -0.005165131    0.019052859
     67        8           0.029531732    0.006054436    0.018587439
     68        8           0.012088756   -0.027809731   -0.018752457
     69        8          -0.012275565    0.026224235   -0.018900859
     70       19           0.000139401   -0.000609041   -0.000452895
     71       19           0.000431326    0.000037135    0.000238519
     72       19          -0.000543017    0.000000933    0.000281942
     73       23          -0.000475293   -0.000014886    0.000457152
 -------------------------------------------------------------------
 Cartesian Forces:  Max     0.029531732 RMS     0.006624584

 GradGradGradGradGradGradGradGradGradGradGradGradGradGradGradGradGradGrad
 Berny optimization.
 Search for a local minimum.
 Step number   1 out of a maximum of    2
 All quantities printed in internal units (Hartrees-Bohrs-Radians)
 Second derivative matrix not updated -- first step.
 ITU=  0
     Eigenvalues ---    0.00000   0.00000   0.00000   0.00010   0.00092
     Eigenvalues ---    0.00094   0.00256   0.00558   0.00624   0.01642
     Eigenvalues ---    0.01972   0.02903   0.02931   0.03206   0.03415
     Eigenvalues ---    0.03446   0.03725   0.03730   0.04159   0.04487
     Eigenvalues ---    0.04600   0.04607   0.04620   0.04829   0.04842
     Eigenvalues ---    0.04988   0.05353   0.05562   0.05592   0.06360
     Eigenvalues ---    0.06394   0.06527   0.06784   0.06853   0.07043
     Eigenvalues ---    0.07295   0.07377   0.07597   0.08327   0.08372
     Eigenvalues ---    0.08705   0.08729   0.08898   0.08917   0.09737
     Eigenvalues ---    0.09939   0.10085   0.10386   0.10426   0.10504
     Eigenvalues ---    0.10810   0.10870   0.11550   0.11651   0.12024
     Eigenvalues ---    0.12037   0.12137   0.12479   0.12538   0.12642
     Eigenvalues ---    0.12650   0.12754   0.12835   0.12983   0.13088
     Eigenvalues ---    0.13846   0.13967   0.14276   0.14524   0.14746
     Eigenvalues ---    0.16876   0.16893   0.17083   0.17154   0.17560
     Eigenvalues ---    0.17666   0.18545   0.19778   0.19952   0.20254
     Eigenvalues ---    0.20856   0.20964   0.21901   0.22036   0.22080
     Eigenvalues ---    0.22424   0.23090   0.23372   0.23949   0.23971
     Eigenvalues ---    0.24579   0.24738   0.24891   0.25516   0.26120
     Eigenvalues ---    0.26321   0.26468   0.27555   0.27643   0.27897
     Eigenvalues ---    0.28230   0.28263   0.28739   0.29468   0.29921
     Eigenvalues ---    0.30449   0.30498   0.30539   0.30606   0.30634
     Eigenvalues ---    0.30819   0.31169   0.31354   0.31463   0.32131
     Eigenvalues ---    0.32323   0.32355   0.32658   0.32849   0.33376
     Eigenvalues ---    0.33470   0.35159   0.35511   0.35807   0.36872
     Eigenvalues ---    0.37376   0.37552   0.37681   0.38097   0.38459
     Eigenvalues ---    0.38834   0.39030   0.40073   0.40190   0.41010
     Eigenvalues ---    0.42113   0.42184   0.43550   0.44045   0.44882
     Eigenvalues ---    0.45157   0.45459   0.45892   0.47799   0.48135
     Eigenvalues ---    0.48469   0.48668   0.48705   0.49303   0.49483
     Eigenvalues ---    0.49914   0.50602   0.51374   0.51729   0.52165
     Eigenvalues ---    0.52947   0.53740   0.55844   0.58352   0.64415
     Eigenvalues ---    0.67551   0.76632   0.81397   0.82701   0.96682
     Eigenvalues ---    0.97248   0.98487   0.99225   1.01567   1.04346
     Eigenvalues ---    1.07043   1.10713   1.11288   1.12187   1.14983
     Eigenvalues ---    1.18462   1.19007   1.20410   1.22140   1.22455
     Eigenvalues ---    1.22793   1.25615   1.26445   1.26634   1.27083
     Eigenvalues ---    1.27709   1.29109   1.29336   1.45236   1.45586
     Eigenvalues ---    1.45791   1.48164   1.51342   1.51523   1.51858
     Eigenvalues ---    1.52433   1.55514   1.55716   1.56642   1.58299
     Eigenvalues ---    1.58361   1.59435   1.61467   1.64484   1.68303
     Eigenvalues ---    1.75572   1.81387   1.85932   1.89572   1.92886
     Eigenvalues ---    2.04127   2.10999   3.26516
 Eigenvalue     1 is   0.00D+00 Eigenvector:
                          Y11       Y10       Y6        Y5        Y12
   1                    0.17457   0.17457   0.17457   0.17457   0.17457
                          Y7        Y4        Y9        Y2        Y3
   1                    0.17457   0.17457   0.17457   0.17457   0.17457
 Eigenvalue     2 is   3.76D-07 Eigenvector:
                          Y16       X16       X11       Y11       Y14
   1                    0.33172  -0.26790   0.26258  -0.24730   0.24319
                          Y15       Y17       X14       Y13       X10
   1                    0.22642   0.20956  -0.19299   0.18556   0.18495
 Eigenvalue     3 is   3.16D-06 Eigenvector:
                          X9        Y12       X10       X12       Y9
   1                    0.33866   0.28514   0.28356  -0.26113  -0.25312
                          Y8        X15       Y10       X8        X4
   1                    0.24994   0.23286  -0.21776  -0.20759   0.20372
 Quadratic step=1.223D+01 exceeds max=3.000D-01 adjusted using Lamda=-6.870D-03.
 Angle between NR and scaled steps=  51.79 degrees.
 Angle between quadratic step and forces=  63.88 degrees.
 Linear search not attempted -- first point.
 B after Tr=     0.002496    0.003576    0.001571
         Rot=    1.000000   -0.000141    0.000043    0.000173 Ang=  -0.03 deg.
 Variable       Old X    -DE/DX   Delta X   Delta X   Delta X     New X
                                 (Linear)    (Quad)   (Total)
    X1      -18.54128  -0.00149   0.00000  -0.00142   0.00472 -18.53656
    Y1       15.54682   0.00522   0.00000   0.00530   0.00964  15.55647
    Z1       19.94091   0.00144   0.00000   0.00154   0.00590  19.94681
    X2      -15.73699  -0.00149   0.00000  -0.01344  -0.01018 -15.74717
    Y2        8.00307  -0.00030   0.00000  -0.00641  -0.00392   7.99916
    Z2       23.09765  -0.00190   0.00000  -0.01221  -0.00974  23.08791
    X3      -17.22393  -0.00096   0.00000   0.00741   0.01064 -17.21329
    Y3        7.40932  -0.00186   0.00000  -0.03686  -0.03327   7.37605
    Z3       20.97547   0.00357   0.00000  -0.01567  -0.01350  20.96197
    X4      -18.95567   0.00156   0.00000  -0.01156  -0.00904 -18.96470
    Y4        5.40031   0.00230   0.00000  -0.00913  -0.00500   5.39532
    Z4       21.18133   0.00057   0.00000   0.01691   0.01836  21.19968
    X5      -19.27801   0.00100   0.00000  -0.00626  -0.00438 -19.28239
    Y5        4.11555   0.00000   0.00000   0.00100   0.00459   4.12014
    Z5       23.45251   0.00122   0.00000   0.02545   0.02652  23.47903
    X6      -17.85260   0.00044   0.00000   0.00848   0.01041 -17.84219
    Y6        4.79069  -0.00056   0.00000  -0.00479  -0.00228   4.78840
    Z6       25.56644   0.00057   0.00000   0.01538   0.01676  25.58320
    X7      -16.05225  -0.00090   0.00000  -0.00861  -0.00600 -16.05825
    Y7        6.71040  -0.00135   0.00000   0.00713   0.00908   6.71948
    Z7       25.36572   0.00044   0.00000   0.00037   0.00245  25.36817
    X8      -14.30777  -0.00028   0.00000  -0.02606  -0.02227 -14.33004
    Y8        9.48649   0.00065   0.00000   0.00694   0.00897   9.49547
    Z8       22.97037   0.00010   0.00000  -0.01590  -0.01289  22.95748
    X9      -20.05840  -0.00065   0.00000  -0.03390  -0.03142 -20.08982
    Y9        4.84946   0.00063   0.00000   0.00005   0.00503   4.85449
    Z9       19.52241   0.00004   0.00000   0.02815   0.02935  19.55176
   X10      -20.63070  -0.00051   0.00000  -0.02181  -0.02047 -20.65116
   Y10        2.55990   0.00026   0.00000   0.01502   0.01905   2.57895
   Z10       23.57223   0.00009   0.00000   0.03634   0.03685  23.60909
   X11      -18.10875   0.00036   0.00000   0.02334   0.02477 -18.08397
   Y11        3.79100  -0.00026   0.00000  -0.00582  -0.00374   3.78726
   Z11       27.35418  -0.00010   0.00000   0.01659   0.01767  27.37185
   X12      -14.87551  -0.00025   0.00000  -0.01698  -0.01433 -14.88984
   Y12        7.19612   0.00040   0.00000   0.03083   0.03191   7.22804
   Z12       26.99193   0.00036   0.00000   0.00034   0.00267  26.99460
   X13      -17.04962   0.00876   0.00000   0.04201   0.04591 -17.00371
   Y13        8.79549   0.01088   0.00000  -0.08809  -0.08388   8.71161
   Z13       18.58675  -0.00786   0.00000  -0.05511  -0.05255  18.53420
   X14      -15.66864  -0.00346   0.00000   0.01727   0.02192 -15.64671
   Y14       10.88806  -0.01672   0.00000  -0.10152  -0.09766  10.79040
   Z14       18.12628   0.00062   0.00000  -0.04543  -0.04216  18.08412
   X15      -18.19754  -0.00016   0.00000   0.04458   0.04834 -18.14920
   Y15        8.02616  -0.00031   0.00000  -0.09870  -0.09366   7.93250
   Z15       17.04467  -0.00026   0.00000  -0.05180  -0.04956  16.99510
   X16      -15.60425  -0.00184   0.00000  -0.02368  -0.01857 -15.62282
   Y16       11.68088   0.00231   0.00000  -0.03878  -0.03438  11.64649
   Z16       16.22207   0.00121   0.00000  -0.01970  -0.01619  16.20588
   X17      -14.43848  -0.00212   0.00000  -0.04131  -0.03646 -14.47495
   Y17       11.76607   0.00051   0.00000  -0.06615  -0.06309  11.70298
   Z17       19.52910   0.00019   0.00000  -0.01808  -0.01445  19.51465
   X18       -1.86209  -0.00369   0.00000  -0.02157  -0.02146  -1.88355
   Y18       -3.37055   0.00048   0.00000  -0.00167  -0.00143  -3.37198
   Z18       14.10625   0.00086   0.00000   0.00946   0.00992  14.11617
   X19      -15.88562   0.00378   0.00000   0.02110   0.02151 -15.86411
   Y19       -2.52136  -0.00073   0.00000   0.01309   0.01816  -2.50321
   Z19       14.09918   0.00104   0.00000   0.01285   0.01234  14.11152
   X20      -13.29390   0.00287   0.00000   0.01609   0.01774 -13.27616
   Y20        2.54643  -0.00308   0.00000  -0.01022  -0.00765   2.53877
   Z20       19.79480  -0.00046   0.00000  -0.00437  -0.00324  19.79156
   X21       -4.40887  -0.00265   0.00000  -0.01428  -0.01636  -4.42524
   Y21       -8.27691   0.00232   0.00000   0.01288   0.01235  -8.26456
   Z21       19.94314  -0.00082   0.00000  -0.00915  -0.01030  19.93284
   X22       -6.44610   0.00178   0.00000  -0.00683  -0.00493  -6.45103
   Y22        1.31774   0.01176   0.00000   0.02320   0.02554   1.34329
   Z22       12.23739  -0.01068   0.00000  -0.00500  -0.00361  12.23378
   X23      -11.33425  -0.00252   0.00000   0.00618   0.00511 -11.32914
   Y23       -7.21677  -0.01081   0.00000  -0.00369   0.00030  -7.21647
   Z23       12.40704  -0.01071   0.00000  -0.00546  -0.00691  12.40013
   X24       -6.84248   0.00720   0.00000   0.01982   0.02102  -6.82146
   Y24        1.67328   0.00915   0.00000  -0.00093  -0.00110   1.67218
   Z24       21.58420   0.01074   0.00000   0.00624   0.00769  21.59189
   X25      -10.89647  -0.00791   0.00000  -0.01875  -0.02065 -10.91712
   Y25       -7.29099  -0.00825   0.00000   0.00205   0.00326  -7.28773
   Z25       21.68594   0.01149   0.00000   0.00901   0.00758  21.69352
   X26       -4.61325   0.00887   0.00000  -0.00682  -0.00706  -4.62031
   Y26       -4.87923  -0.00811   0.00000  -0.00605  -0.00430  -4.88353
   Z26       12.09103  -0.01157   0.00000  -0.00703  -0.00724  12.08379
   X27      -13.12564  -0.00865   0.00000   0.00255   0.00367 -13.12197
   Y27       -1.00981   0.00858   0.00000   0.02491   0.02962  -0.98019
   Z27       12.03721  -0.01126   0.00000  -0.00854  -0.00838  12.02882
   X28      -12.89867  -0.01277   0.00000  -0.00511  -0.00467 -12.90334
   Y28       -0.46719   0.00328   0.00000  -0.00432  -0.00247  -0.46966
   Z28       21.85335   0.01197   0.00000   0.01180   0.01212  21.86547
   X29       -4.81968   0.01202   0.00000   0.00712   0.00594  -4.81374
   Y29       -5.13720  -0.00225   0.00000   0.00681   0.00584  -5.13135
   Z29       21.93339   0.01190   0.00000   0.00865   0.00835  21.94174
   X30       -5.99327  -0.00109   0.00000   0.00943   0.01229  -5.98097
   Y30        3.56318  -0.00303   0.00000   0.01399   0.01680   3.57998
   Z30       10.01713   0.00344   0.00000   0.00147   0.00354  10.02067
   X31      -11.59514   0.00060   0.00000  -0.00833  -0.01003 -11.60516
   Y31       -9.57891   0.00308   0.00000   0.00431   0.00899  -9.56991
   Z31       10.24927   0.00315   0.00000  -0.00081  -0.00295  10.24632
   X32       -5.11167  -0.00215   0.00000   0.00988   0.01145  -5.10023
   Y32        3.27789  -0.00258   0.00000   0.00333   0.00194   3.27983
   Z32       23.76326  -0.00383   0.00000  -0.00227  -0.00021  23.76305
   X33      -12.61467   0.00226   0.00000  -0.00720  -0.00982 -12.62449
   Y33       -8.81788   0.00222   0.00000  -0.00351  -0.00234  -8.82022
   Z33       23.92665  -0.00358   0.00000   0.00169  -0.00033  23.92633
   X34       -5.03572  -0.00141   0.00000  -0.01674  -0.01575  -5.05147
   Y34       -1.70747  -0.00069   0.00000   0.00404   0.00637  -1.70110
   Z34       10.55024   0.00373   0.00000   0.01523   0.01588  10.56612
   X35      -12.68120   0.00164   0.00000   0.01430   0.01440 -12.66680
   Y35       -4.28600   0.00018   0.00000   0.01362   0.01856  -4.26744
   Z35       10.62600   0.00368   0.00000   0.01483   0.01410  10.64010
   X36      -10.05044   0.00087   0.00000   0.01225   0.01308 -10.03737
   Y36        1.05288  -0.00160   0.00000  -0.01299  -0.01255   1.04033
   Z36       23.36132  -0.00351   0.00000  -0.00881  -0.00782  23.35350
   X37       -7.65893  -0.00044   0.00000  -0.00769  -0.00952  -7.66845
   Y37       -6.65559   0.00120   0.00000   0.01193   0.01153  -6.64407
   Z37       23.43911  -0.00335   0.00000  -0.00922  -0.01020  23.42892
   X38        0.56839  -0.00482   0.00000   0.00608   0.00705   0.57544
   Y38       -0.00280  -0.00211   0.00000  -0.01296  -0.01455  -0.01735
   Z38       17.53733  -0.00159   0.00000  -0.00367  -0.00206  17.53527
   X39      -18.34112   0.00524   0.00000  -0.00331  -0.00431 -18.34543
   Y39       -5.73683   0.00179   0.00000   0.01658   0.02151  -5.71531
   Z39       17.62298  -0.00136   0.00000  -0.00081  -0.00244  17.62054
   X40      -12.01369   0.00275   0.00000   0.01149   0.01481 -11.99888
   Y40        6.47570  -0.00704   0.00000   0.00683   0.00992   6.48562
   Z40       16.38644   0.00006   0.00000  -0.00493  -0.00257  16.38387
   X41       -5.66074  -0.00149   0.00000  -0.00068  -0.00385  -5.66458
   Y41      -12.24531   0.00517   0.00000   0.00324   0.00409 -12.24121
   Z41       16.54689   0.00085   0.00000  -0.00312  -0.00550  16.54139
   X42       -3.38335  -0.00225   0.00000  -0.01278  -0.01101  -3.39437
   Y42        1.43971  -0.00305   0.00000  -0.00593  -0.00518   1.43453
   Z42       14.12553   0.00139   0.00000   0.01314   0.01482  14.14035
   X43      -14.37059   0.00271   0.00000   0.01373   0.01246 -14.35813
   Y43       -7.33948   0.00286   0.00000   0.01702   0.02152  -7.31796
   Z43       14.26261   0.00101   0.00000   0.01071   0.00897  14.27158
   X44       -8.51453  -0.00039   0.00000   0.00983   0.01205  -8.50248
   Y44        4.17312  -0.00419   0.00000  -0.01686  -0.01592   4.15720
   Z44       19.71320  -0.00087   0.00000  -0.00793  -0.00592  19.70728
   X45       -9.21012   0.00114   0.00000  -0.00759  -0.01021  -9.22033
   Y45       -9.87052   0.00355   0.00000   0.01746   0.01860  -9.85192
   Z45       19.88557  -0.00103   0.00000  -0.00860  -0.01062  19.87496
   X46       -3.04017  -0.00284   0.00000  -0.00553  -0.00619  -3.04636
   Y46       -6.66513   0.00353   0.00000   0.01249   0.01431  -6.65081
   Z46        9.93016   0.00333   0.00000  -0.00662  -0.00719   9.92297
   X47      -14.80410   0.00327   0.00000   0.00226   0.00408 -14.80001
   Y47        0.50854  -0.00195   0.00000   0.00950   0.01542   0.52396
   Z47        9.78868   0.00318   0.00000  -0.00595  -0.00552   9.78316
   X48      -15.21158   0.00482   0.00000   0.00728   0.00759 -15.20400
   Y48       -0.30387  -0.00093   0.00000   0.00569   0.00771  -0.29616
   Z48       24.07377  -0.00383   0.00000   0.00856   0.00873  24.08249
   X49       -2.47899  -0.00429   0.00000  -0.00425  -0.00571  -2.48470
   Y49       -5.38422   0.00078   0.00000  -0.00414  -0.00653  -5.39075
   Z49       24.11869  -0.00357   0.00000   0.00494   0.00477  24.12346
   X50       -2.37482   0.01556   0.00000   0.00728   0.00799  -2.36684
   Y50       -0.98231   0.00516   0.00000   0.00104   0.00071  -0.98160
   Z50       16.69849   0.00344   0.00000   0.01342   0.01451  16.71300
   X51      -15.39272  -0.01569   0.00000  -0.00637  -0.00698 -15.39970
   Y51       -4.78609  -0.00427   0.00000   0.00685   0.01100  -4.77509
   Z51       16.76982   0.00365   0.00000   0.01533   0.01421  16.78403
   X52      -11.11149  -0.00659   0.00000   0.00148   0.00371 -11.10777
   Y52        3.50520   0.01782   0.00000   0.01621   0.01879   3.52398
   Z52       17.09802  -0.00395   0.00000  -0.01270  -0.01109  17.08692
   X53       -6.59135   0.00514   0.00000  -0.00403  -0.00624  -6.59759
   Y53       -9.27007  -0.01560   0.00000  -0.00550  -0.00454  -9.27461
   Z53       17.32335  -0.00312   0.00000  -0.01357  -0.01519  17.30816
   X54       -7.97220  -0.00072   0.00000  -0.00222  -0.00274  -7.97494
   Y54       -5.86575   0.00156   0.00000  -0.00497  -0.00188  -5.86763
   Z54       11.46567   0.00249   0.00000  -0.00701  -0.00779  11.45788
   X55       -9.75478   0.00085   0.00000  -0.00098   0.00051  -9.75427
   Y55       -0.09912  -0.00173   0.00000   0.02489   0.02862  -0.07050
   Z55       11.35573   0.00231   0.00000  -0.00757  -0.00687  11.34886
   X56      -11.66882   0.00192   0.00000  -0.01054  -0.01130 -11.68011
   Y56       -3.76933  -0.00026   0.00000  -0.00366  -0.00241  -3.77174
   Z56       22.50683  -0.00226   0.00000   0.01158   0.01108  22.51790
   X57       -5.99125  -0.00190   0.00000   0.01143   0.01134  -5.97991
   Y57       -1.83700  -0.00082   0.00000   0.00354   0.00280  -1.83420
   Z57       22.55285  -0.00251   0.00000   0.00773   0.00826  22.56112
   X58       -8.24398   0.00027   0.00000  -0.00170   0.00055  -8.24343
   Y58        2.98458  -0.00251   0.00000   0.02008   0.02232   3.00690
   Z58       14.80732   0.00120   0.00000  -0.00734  -0.00563  14.80169
   X59       -9.45869   0.00032   0.00000   0.00056  -0.00129  -9.45998
   Y59       -8.83703   0.00228   0.00000  -0.00633  -0.00371  -8.84074
   Z59       14.96796   0.00177   0.00000  -0.00764  -0.00939  14.95857
   X60       -4.40802  -0.00153   0.00000   0.01638   0.01760  -4.39042
   Y60        1.09953  -0.00202   0.00000  -0.00060  -0.00090   1.09863
   Z60       19.05340  -0.00180   0.00000   0.00804   0.00955  19.06295
   X61      -13.33425   0.00199   0.00000  -0.01447  -0.01599 -13.35023
   Y61       -6.82555   0.00140   0.00000   0.00331   0.00608  -6.81947
   Z61       19.15014  -0.00157   0.00000   0.01008   0.00857  19.15871
   X62       -4.86082  -0.00130   0.00000  -0.00449  -0.00582  -4.86665
   Y62       -7.36129   0.00207   0.00000  -0.00504  -0.00398  -7.36528
   Z62       14.86448   0.00088   0.00000  -0.01073  -0.01167  14.85282
   X63      -12.88111   0.00096   0.00000  -0.00038   0.00136 -12.87975
   Y63        1.48842  -0.00246   0.00000   0.02014   0.02399   1.51241
   Z63       14.75283   0.00032   0.00000  -0.01244  -0.01156  14.74128
   X64      -14.79909   0.00245   0.00000  -0.00598  -0.00591 -14.80500
   Y64       -2.22000  -0.00023   0.00000   0.00247   0.00574  -2.21426
   Z64       19.16080  -0.00085   0.00000   0.01479   0.01445  19.17525
   X65       -2.96693  -0.00232   0.00000   0.00717   0.00679  -2.96014
   Y65       -3.50748  -0.00040   0.00000   0.00115   0.00033  -3.50716
   Z65       19.15819  -0.00067   0.00000   0.01100   0.01132  19.16952
   X66       -6.35665  -0.02874   0.00000  -0.05387  -0.05344  -6.41009
   Y66       -2.17228  -0.00517   0.00000  -0.00293  -0.00143  -2.17371
   Z66       15.12234   0.01905   0.00000   0.03433   0.03473  15.15708
   X67      -11.39326   0.02953   0.00000   0.05191   0.05182 -11.34144
   Y67       -3.69368   0.00605   0.00000   0.01706   0.02026  -3.67342
   Z67       15.18129   0.01859   0.00000   0.03376   0.03331  15.21460
   X68       -9.67514   0.01209   0.00000   0.02447   0.02519  -9.64995
   Y68       -0.37834  -0.02781   0.00000  -0.04436  -0.04276  -0.42110
   Z68       18.79826  -0.01875   0.00000  -0.02999  -0.02937  18.76889
   X69       -8.01181  -0.01228   0.00000  -0.02618  -0.02715  -8.03896
   Y69       -5.36060   0.02622   0.00000   0.04673   0.04776  -5.31283
   Z69       18.85051  -0.01890   0.00000  -0.02971  -0.03034  18.82018
   X70       -6.07620   0.00014   0.00000  -0.00317  -0.00560  -6.08180
   Y70      -11.60140  -0.00061   0.00000  -0.00343  -0.00076 -11.60217
   Z70       10.66785  -0.00045   0.00000  -0.01053  -0.01276  10.65509
   X71       -0.20642   0.00043   0.00000   0.01245   0.01296  -0.19345
   Y71        0.10844   0.00004   0.00000  -0.00151  -0.00447   0.10396
   Z71       23.34573   0.00024   0.00000   0.00682   0.00840  23.35413
   X72      -17.55820  -0.00054   0.00000  -0.01087  -0.01229 -17.57048
   Y72       -5.42318   0.00000   0.00000   0.00436   0.00736  -5.41583
   Z72       23.50353   0.00028   0.00000   0.01035   0.00886  23.51239
   X73       -8.86453  -0.00048   0.00000  -0.00143  -0.00141  -8.86594
   Y73       -2.89258  -0.00001   0.00000   0.00350   0.00533  -2.88724
   Z73       16.98269   0.00046   0.00000   0.00315   0.00314  16.98583
         Item               Value     Threshold  Converged?
 Maximum Force            0.029532     0.000450     NO 
 RMS     Force            0.006625     0.000300     NO 
 Maximum Displacement     0.097656     0.001800     NO 
 RMS     Displacement     0.020203     0.001200     NO 
 Predicted change in Energy=-6.742709D-03
 GradGradGradGradGradGradGradGradGradGradGradGradGradGradGradGradGradGrad

 Unable to Open any file for archive entry.
 1\1\GINC-X11P1N2\Force\RwB97XD\def2SVP\C8H8Cl1K3O40V1W12(1-)\MAYUMIAO\
 02-Jun-2024\0\\# def2svp wb97xd scrf=(smd,solvent=acetonitrile) g09def
 ault scf=(xqc,maxcycle=64) force guess=read nosymm\\Title Card\\-1,1\C
 l,-9.81162111,8.22702538,10.55227257\C,-8.32765845,4.23504407,12.22274
 973\C,-9.11451213,3.92084079,11.0997401\C,-10.03090696,2.85772357,11.2
 0867462\C,-10.20148447,2.17785354,12.41053363\C,-9.44718708,2.53512142
 ,13.52917951\C,-8.49448654,3.55099333,13.42296192\H,-7.57134418,5.0200
 3519,12.1553939\H,-10.61444814,2.5662214,10.33081439\H,-10.91729376,1.
 354642,12.47388795\H,-9.58273568,2.0061086,14.47520671\H,-7.87178105,3
 .808023,14.28351675\C,-9.02226848,4.65437227,9.83568349\C,-8.29148653,
 5.76171308,9.59201305\H,-9.62972462,4.24725889,9.01964826\H,-8.2574131
 9,6.18125374,8.58435089\H,-7.64051532,6.2263355,10.33435394\O,-0.98537
 385,-1.78361894,7.46470698\O,-8.40630927,-1.3342476,7.46096701\O,-7.03
 48307,1.34751123,10.47495695\O,-2.33307394,-4.37995367,10.55345605\W,-
 3.41112691,0.69731963,6.47574668\W,-5.99782543,-3.81894935,6.5655243\W
 ,-3.62088565,0.88546288,11.42186454\W,-5.76616141,-3.85822573,11.47570
 655\W,-2.44122644,-2.58197921,6.39829664\W,-6.94578695,-0.53436911,6.3
 6981527\W,-6.82567986,-0.24722573,11.56429547\W,-2.55046701,-2.7184869
 5,11.6066491\O,-3.17150008,1.885554,5.30083848\O,-6.13588224,-5.068938
 42,5.42368201\O,-2.70498129,1.73458254,12.57497521\O,-6.675395,-4.6662
 1941,12.66143997\O,-2.66478917,-0.90355505,5.58294695\O,-6.71060112,-2
 .26805361,5.62303491\O,-5.31846587,0.55715819,12.36227573\O,-4.0529327
 1,-3.52198765,12.40344373\O,0.30077936,-0.00148321,9.28035348\O,-9.705
 70102,-3.03579836,9.32567927\O,-6.35736973,3.42679475,8.67132909\O,-2.
 99553322,-6.47993858,8.75623621\O,-1.7903939,0.76186099,7.47490946\O,-
 7.60459054,-3.88388296,7.54744868\O,-4.50569497,2.20832059,10.4317765\
 O,-4.873784,-5.22325434,10.52299289\O,-1.60879116,-3.52703282,5.254816
 91\O,-7.8339911,0.26910842,5.17994522\O,-8.04962347,-0.16080123,12.739
 28791\O,-1.31182755,-2.84920781,12.76306352\W,-1.25670251,-0.51981635,
 8.83645947\W,-8.14547448,-2.5326901,8.87420405\W,-5.87994546,1.8548693
 9,9.0478807\W,-3.48799463,-4.90550986,9.16712302\O,-4.21870792,-3.1040
 2183,6.06737298\O,-5.1620078,-0.05245176,6.00919311\O,-6.17487107,-1.9
 9464105,11.91010069\O,-3.170433,-0.97209892,11.93445612\O,-4.36252729,
 1.57937201,7.83569609\O,-5.00532062,-4.67635269,7.92070263\O,-2.332625
 12,0.58184411,10.08262627\O,-7.05617945,-3.61192575,10.13381823\O,-2.5
 7223579,-3.89542939,7.86594472\O,-6.81639062,0.78763827,7.80686247\O,-
 7.83133929,-1.17477152,10.13945631\O,-1.57003239,-1.85608031,10.138079
 08\O,-3.36379602,-1.14952105,8.00240003\O,-6.02905366,-1.95460885,8.03
 359172\O,-5.119865,-0.20020982,9.94761088\O,-4.23966789,-2.8367065,9.9
 7526112\K,-3.21538662,-6.13919709,5.6451819\K,-0.10923051,0.05738193,1
 2.35402986\K,-9.2913985,-2.86982463,12.43752979\V,-4.69090868,-1.53068
 655,8.9868538\\Version=ES64L-G16RevC.01\HF=-7327.701279\RMSD=1.592e-09
 \RMSF=6.625e-03\Dipole=10.4107395,-22.1543772,2.5118883\Quadrupole=-78
 .0502551,46.6043708,31.4458843,341.5531737,341.9232206,-360.058465\PG=
 C01 [X(C8H8Cl1K3O40V1W12)]\\@
 The archive entry for this job was punched.


 WE'RE IN THE POSITION OF A VISITOR FROM ANOTHER
 DIMENSION WHO COMES TO EARTH AND SEES A CHESS MATCH.
 ASSUMING HE KNOWS IT'S A GAME, HE'S GOT TWO PROBLEMS:
 FIRST, FIGURE OUT THE RULES, AND SECOND, FIGURE OUT HOW TO WIN.
 NINETY PERCENT OF SCIENCE (INCLUDING VIRTUALLY ALL OF CHEMISRY)
 IS IN THAT SECOND CATEGORY.  THEY'RE TRYING TO APPLY
 THE LAWS THAT ARE ALREADY KNOWN.

                     -- SHELDON GLASHOW, 1979
 Job cpu time:       0 days 12 hours 10 minutes 44.8 seconds.
 Elapsed time:       0 days  0 hours 13 minutes 55.5 seconds.
 File lengths (MBytes):  RWF=   1254 Int=      0 D2E=      0 Chk=    249 Scr=      1
 Normal termination of Gaussian 16 at Sun Jun  2 09:23:25 2024.
