 Entering Gaussian System, Link 0=g16
 Input=JOBS/37_A.gjf
 Output=JOBS/37_A.log
 Initial command:
 /data/app/gaussian/C01-avx2//g16/l1.exe "/tmp/Gau-648972.inp" -scrdir="/tmp/"
 Entering Link 1 = /data/app/gaussian/C01-avx2//g16/l1.exe PID=    648973.
  
 Copyright (c) 1988-2019, Gaussian, Inc.  All Rights Reserved.
  
 This is part of the Gaussian(R) 16 program.  It is based on
 the Gaussian(R) 09 system (copyright 2009, Gaussian, Inc.),
 the Gaussian(R) 03 system (copyright 2003, Gaussian, Inc.),
 the Gaussian(R) 98 system (copyright 1998, Gaussian, Inc.),
 the Gaussian(R) 94 system (copyright 1995, Gaussian, Inc.),
 the Gaussian 92(TM) system (copyright 1992, Gaussian, Inc.),
 the Gaussian 90(TM) system (copyright 1990, Gaussian, Inc.),
 the Gaussian 88(TM) system (copyright 1988, Gaussian, Inc.),
 the Gaussian 86(TM) system (copyright 1986, Carnegie Mellon
 University), and the Gaussian 82(TM) system (copyright 1983,
 Carnegie Mellon University). Gaussian is a federally registered
 trademark of Gaussian, Inc.
  
 This software contains proprietary and confidential information,
 including trade secrets, belonging to Gaussian, Inc.
  
 This software is provided under written license and may be
 used, copied, transmitted, or stored only in accord with that
 written license.
  
 The following legend is applicable only to US Government
 contracts under FAR:
  
                    RESTRICTED RIGHTS LEGEND
  
 Use, reproduction and disclosure by the US Government is
 subject to restrictions as set forth in subparagraphs (a)
 and (c) of the Commercial Computer Software - Restricted
 Rights clause in FAR 52.227-19.
  
 Gaussian, Inc.
 340 Quinnipiac St., Bldg. 40, Wallingford CT 06492
  
  
 ---------------------------------------------------------------
 Warning -- This program may not be used in any manner that
 competes with the business of Gaussian, Inc. or will provide
 assistance to any competitor of Gaussian, Inc.  The licensee
 of this program is prohibited from giving any competitor of
 Gaussian, Inc. access to this program.  By using this program,
 the user acknowledges that Gaussian, Inc. is engaged in the
 business of creating and licensing software in the field of
 computational chemistry and represents and warrants to the
 licensee that it is not a competitor of Gaussian, Inc. and that
 it will not use this program in any manner prohibited above.
 ---------------------------------------------------------------
  

 Cite this work as:
 Gaussian 16, Revision C.01,
 M. J. Frisch, G. W. Trucks, H. B. Schlegel, G. E. Scuseria, 
 M. A. Robb, J. R. Cheeseman, G. Scalmani, V. Barone, 
 G. A. Petersson, H. Nakatsuji, X. Li, M. Caricato, A. V. Marenich, 
 J. Bloino, B. G. Janesko, R. Gomperts, B. Mennucci, H. P. Hratchian, 
 J. V. Ortiz, A. F. Izmaylov, J. L. Sonnenberg, D. Williams-Young, 
 F. Ding, F. Lipparini, F. Egidi, J. Goings, B. Peng, A. Petrone, 
 T. Henderson, D. Ranasinghe, V. G. Zakrzewski, J. Gao, N. Rega, 
 G. Zheng, W. Liang, M. Hada, M. Ehara, K. Toyota, R. Fukuda, 
 J. Hasegawa, M. Ishida, T. Nakajima, Y. Honda, O. Kitao, H. Nakai, 
 T. Vreven, K. Throssell, J. A. Montgomery, Jr., J. E. Peralta, 
 F. Ogliaro, M. J. Bearpark, J. J. Heyd, E. N. Brothers, K. N. Kudin, 
 V. N. Staroverov, T. A. Keith, R. Kobayashi, J. Normand, 
 K. Raghavachari, A. P. Rendell, J. C. Burant, S. S. Iyengar, 
 J. Tomasi, M. Cossi, J. M. Millam, M. Klene, C. Adamo, R. Cammi, 
 J. W. Ochterski, R. L. Martin, K. Morokuma, O. Farkas, 
 J. B. Foresman, and D. J. Fox, Gaussian, Inc., Wallingford CT, 2019.
 
 ******************************************
 Gaussian 16:  ES64L-G16RevC.01  3-Jul-2019
                 2-Jun-2024 
 ******************************************
 %chk=a.chk
 %nprocshared=56
 Will use up to   56 processors via shared memory.
 %mem=96gb
 ----------------------------------------------------------------------
 # def2svp wb97xd scrf=(smd,solvent=acetonitrile) g09default scf=(xqc,m
 axcycle=64) force guess=read nosymm
 ----------------------------------------------------------------------
 1/10=7,30=1,38=1,158=3,167=1/1,3;
 2/12=2,15=1,17=6,18=5,40=1/2;
 3/5=43,7=101,11=2,25=1,27=10,30=1,70=32201,71=1,72=2,74=-58,75=-4,116=-2,158=3/1,2,3;
 4/5=1,60=-1/1;
 5/5=2,7=64,8=3,13=1,38=6,53=2,87=10/2,8;
 6/7=2,8=2,9=2,10=2,28=1,87=10/1;
 7/29=1,30=1,87=10/1,2,3,16;
 1/10=7,30=1,158=3,167=1/3;
 99//99;
 Using 2006 physical constants.
 ----------
 Title Card
 ----------
 Symbolic Z-matrix:
 Charge = -1 Multiplicity = 1
 17                   -9.79819   8.23693   10.55394 
 6                    -8.32874   4.23553   12.22221 
 6                    -9.11716   3.92189   11.09991 
 6                    -10.03234   2.85769   11.20931 
 6                    -10.20179   2.17757   12.41114 
 6                    -9.44727   2.53542   13.52951 
 6                    -8.49456   3.55113   13.42241 
 1                    -7.57174   5.01978   12.15429 
 1                    -10.61631   2.56556   10.33195 
 1                    -10.91739   1.35428   12.47491 
 1                    -9.58316   2.00739   14.47601 
 1                    -7.8713    3.80812   14.28256 
 6                    -9.02768   4.65649   9.83638 
 6                    -8.30252   5.76803   9.59363 
 1                    -9.63168   4.24599   9.01942 
 1                    -8.27034   6.18825   8.58628 
 1                    -7.65489   6.23591   10.33662 
 8                    -0.98421  -1.7851    7.46511 
 8                    -8.40541  -1.33435   7.46091 
 8                    -7.03369   1.34763   10.47445 
 8                    -2.33327  -4.38169   10.55342 
 74                   -3.41062   0.69583   6.47516 
 74                   -5.99689  -3.81846   6.5648 
 74                   -3.6199    0.88355   11.42217 
 74                   -5.7657   -3.85829   11.47631 
 74                   -2.43971  -2.58366   6.39894 
 74                   -6.94548  -0.53423   6.37072 
 74                   -6.82555  -0.24727   11.56358 
 74                   -2.54916  -2.72018   11.60586 
 8                    -3.1713    1.88322   5.29949 
 8                    -6.13435  -5.06903   5.42286 
 8                    -2.70308   1.73201   12.57483 
 8                    -6.67595  -4.66509   12.66192 
 8                    -2.66349  -0.90535   5.58329 
 8                    -6.70976  -2.26782   5.6229 
 8                    -5.31787   0.55641   12.36204 
 8                    -4.0524   -3.52259   12.40335 
 8                     0.30139  -0.00233   9.28117 
 8                    -9.70443  -3.03659   9.32638 
 8                    -6.35549   3.42718   8.67095 
 8                    -2.99719  -6.48144   8.75497 
 8                    -1.78962   0.76058   7.47482 
 8                    -7.60375  -3.88401   7.5469 
 8                    -4.50421   2.20696   10.43145 
 8                    -4.87411  -5.22395   10.52332 
 8                    -1.60767  -3.52972   5.25592 
 8                    -7.83311   0.27067   5.18048 
 8                    -8.04984  -0.16197   12.73797 
 8                    -1.31017  -2.84994   12.76184 
 74                   -1.25588  -0.52056   8.8364 
 74                   -8.14426  -2.53362   8.87418 
 74                   -5.87827   1.8557    9.04743 
 74                   -3.48887  -4.90696   9.16677 
 8                    -4.21765  -3.10491   6.06755 
 8                    -5.16106  -0.05347   6.00955 
 8                    -6.17454  -1.99479   11.90964 
 8                    -3.17     -0.97357   11.93399 
 8                    -4.36156   1.57967   7.83472 
 8                    -5.00523  -4.67683   7.92064 
 8                    -2.33174   0.58037   10.08254 
 8                    -7.05536  -3.61224   10.13349 
 8                    -2.57158  -3.89735   7.86597 
 8                    -6.8155    0.78857   7.80633 
 8                    -7.83089  -1.175     10.13918 
 8                    -1.56892  -1.85731   10.13813 
 8                    -3.36274  -1.15055   8.00263 
 8                    -6.02837  -1.95492   8.03358 
 8                    -5.11951  -0.20079   9.94717 
 8                    -4.23902  -2.83779   9.97501 
 19                   -3.21478  -6.13892   5.64496 
 19                   -0.10848   0.05743   12.3529 
 19                   -9.29128  -2.86597   12.43762 
 23                   -4.6902   -1.53159   8.98675 
 

 GradGradGradGradGradGradGradGradGradGradGradGradGradGradGradGradGradGrad
 Berny optimization.
 Initialization pass.
 Trust Radius=3.00D-01 FncErr=1.00D-07 GrdErr=1.00D-07 EigMax=2.50D+02 EigMin=1.00D-04
 Number of steps in this run=      2 maximum allowed number of steps=      2.
 GradGradGradGradGradGradGradGradGradGradGradGradGradGradGradGradGradGrad

 Symmetry turned off by external request.
 Stoichiometry    C8H8ClK3O40VW12(1-)
 Framework group  C1[X(C8H8ClK3O40VW12)]
 Deg. of freedom   213
 Full point group                 C1      NOp   1
                          Input orientation:                          
 ---------------------------------------------------------------------
 Center     Atomic      Atomic             Coordinates (Angstroms)
 Number     Number       Type             X           Y           Z
 ---------------------------------------------------------------------
      1         17           0       -9.798187    8.236931   10.553943
      2          6           0       -8.328743    4.235533   12.222213
      3          6           0       -9.117158    3.921891   11.099910
      4          6           0      -10.032343    2.857691   11.209306
      5          6           0      -10.201788    2.177571   12.411137
      6          6           0       -9.447272    2.535421   13.529512
      7          6           0       -8.494557    3.551134   13.422409
      8          1           0       -7.571744    5.019780   12.154293
      9          1           0      -10.616311    2.565560   10.331947
     10          1           0      -10.917392    1.354280   12.474906
     11          1           0       -9.583161    2.007388   14.476010
     12          1           0       -7.871302    3.808119   14.282559
     13          6           0       -9.027685    4.656491    9.836378
     14          6           0       -8.302516    5.768033    9.593631
     15          1           0       -9.631678    4.245994    9.019424
     16          1           0       -8.270338    6.188255    8.586279
     17          1           0       -7.654891    6.235912   10.336622
     18          8           0       -0.984214   -1.785102    7.465107
     19          8           0       -8.405410   -1.334350    7.460907
     20          8           0       -7.033690    1.347635   10.474450
     21          8           0       -2.333267   -4.381689   10.553417
     22         74           0       -3.410620    0.695834    6.475156
     23         74           0       -5.996892   -3.818460    6.564795
     24         74           0       -3.619904    0.883551   11.422165
     25         74           0       -5.765705   -3.858293   11.476313
     26         74           0       -2.439712   -2.583657    6.398944
     27         74           0       -6.945485   -0.534227    6.370716
     28         74           0       -6.825554   -0.247268   11.563582
     29         74           0       -2.549165   -2.720176   11.605858
     30          8           0       -3.171297    1.883217    5.299491
     31          8           0       -6.134345   -5.069031    5.422856
     32          8           0       -2.703078    1.732010   12.574827
     33          8           0       -6.675952   -4.665093   12.661925
     34          8           0       -2.663491   -0.905354    5.583294
     35          8           0       -6.709763   -2.267817    5.622896
     36          8           0       -5.317874    0.556408   12.362035
     37          8           0       -4.052397   -3.522591   12.403353
     38          8           0        0.301386   -0.002334    9.281167
     39          8           0       -9.704434   -3.036586    9.326383
     40          8           0       -6.355490    3.427183    8.670949
     41          8           0       -2.997189   -6.481437    8.754975
     42          8           0       -1.789616    0.760583    7.474822
     43          8           0       -7.603748   -3.884013    7.546896
     44          8           0       -4.504212    2.206965   10.431447
     45          8           0       -4.874107   -5.223945   10.523318
     46          8           0       -1.607673   -3.529719    5.255923
     47          8           0       -7.833106    0.270672    5.180484
     48          8           0       -8.049841   -0.161968   12.737971
     49          8           0       -1.310168   -2.849938   12.761838
     50         74           0       -1.255879   -0.520560    8.836402
     51         74           0       -8.144264   -2.533623    8.874184
     52         74           0       -5.878274    1.855699    9.047433
     53         74           0       -3.488873   -4.906964    9.166774
     54          8           0       -4.217646   -3.104909    6.067554
     55          8           0       -5.161062   -0.053474    6.009555
     56          8           0       -6.174539   -1.994786   11.909638
     57          8           0       -3.170003   -0.973571   11.933989
     58          8           0       -4.361564    1.579671    7.834722
     59          8           0       -5.005227   -4.676832    7.920643
     60          8           0       -2.331742    0.580368   10.082538
     61          8           0       -7.055360   -3.612237   10.133490
     62          8           0       -2.571583   -3.897348    7.865967
     63          8           0       -6.815501    0.788573    7.806330
     64          8           0       -7.830890   -1.175005   10.139179
     65          8           0       -1.568923   -1.857311   10.138129
     66          8           0       -3.362741   -1.150548    8.002633
     67          8           0       -6.028366   -1.954919    8.033575
     68          8           0       -5.119507   -0.200790    9.947167
     69          8           0       -4.239021   -2.837790    9.975009
     70         19           0       -3.214776   -6.138920    5.644957
     71         19           0       -0.108477    0.057431   12.352898
     72         19           0       -9.291280   -2.865972   12.437621
     73         23           0       -4.690204   -1.531587    8.986754
 ---------------------------------------------------------------------
 Rotational constants (GHZ):           0.0172046           0.0132312           0.0130027
 Standard basis: def2SVP (5D, 7F)
  1217 basis functions,  2313 primitive gaussians,  1337 cartesian basis functions
   321 alpha electrons      321 beta electrons
       nuclear repulsion energy     20973.6244008732 Hartrees.
 NAtoms=   73 NActive=   73 NUniq=   73 SFac= 1.00D+00 NAtFMM=   60 NAOKFM=T Big=T
 Integral buffers will be    131072 words long.
 Raffenetti 2 integral format.
 Two-electron integral symmetry is turned off.
 Nuclear repulsion after empirical dispersion term =    20973.3475298623 Hartrees.
 Force PCM accuracy= 1.00D-10.
 ------------------------------------------------------------------------------
 Polarizable Continuum Model (PCM)
 =================================
 Model                : PCM (using non-symmetric T matrix).
 Atomic radii         : SMD-Coulomb.
 Polarization charges : Total charges.
 Charge compensation  : None.
 Solution method      : On-the-fly selection.
 Cavity type          : VdW (van der Waals Surface) (Alpha=1.000).
 Cavity algorithm     : GePol (No added spheres)
                        Default sphere list used, NSphG=   73.
                        Lebedev-Laikov grids with approx.  5.0 points / Ang**2.
                        Smoothing algorithm: York/Karplus (Gamma=1.0000).
                        Polarization charges: spherical gaussians, with
                                              point-specific exponents (IZeta= 3).
                        Self-potential: point-specific (ISelfS= 7).
                        Self-field    : sphere-specific E.n sum rule (ISelfD= 2).
 1st derivatives      : Analytical E(r).r(x)/FMM algorithm (CHGder, D1EAlg=3).
                        Cavity 1st derivative terms included.
 Solvent              : Acetonitrile, Eps=  35.688000 Eps(inf)=   1.806874
 ------------------------------------------------------------------------------
 ------------------------------------------------------------------------------
 Atomic radii for non-electrostatic terms: SMD-CDS.
 ------------------------------------------------------------------------------
 Nuclear repulsion after PCM non-electrostatic terms =    20973.3417587991 Hartrees.
 One-electron integrals computed using PRISM.
   1 Symmetry operations used in ECPInt.
 ECPInt:  NShTT=  127765 NPrTT=  468030 LenC2=   96622 LenP2D=  221047.
 LDataN:  DoStor=T MaxTD1= 8 Len=  415
 NBasis=  1217 RedAO= T EigKep=  1.37D-04  NBF=  1217
 NBsUse=  1217 1.00D-06 EigRej= -1.00D+00 NBFU=  1217
 Defaulting to unpruned grid for atomic number  74.
 Defaulting to unpruned grid for atomic number  74.
 Defaulting to unpruned grid for atomic number  74.
 Defaulting to unpruned grid for atomic number  74.
 Defaulting to unpruned grid for atomic number  74.
 Defaulting to unpruned grid for atomic number  74.
 Defaulting to unpruned grid for atomic number  74.
 Defaulting to unpruned grid for atomic number  74.
 Initial guess from the checkpoint file:  "a.chk"
 B after Tr=     0.002153   -0.003160   -0.000085
         Rot=    1.000000   -0.000004    0.000004    0.000135 Ang=  -0.02 deg.
 Requested convergence on RMS density matrix=1.00D-08 within  64 cycles.
 Requested convergence on MAX density matrix=1.00D-06.
 Requested convergence on             energy=1.00D-06.
 No special actions if energy rises.
 Defaulting to unpruned grid for atomic number  74.
 Defaulting to unpruned grid for atomic number  74.
 Defaulting to unpruned grid for atomic number  74.
 Defaulting to unpruned grid for atomic number  74.
 Defaulting to unpruned grid for atomic number  74.
 Defaulting to unpruned grid for atomic number  74.
 Defaulting to unpruned grid for atomic number  74.
 Defaulting to unpruned grid for atomic number  74.
 Defaulting to unpruned grid for atomic number  74.
 Defaulting to unpruned grid for atomic number  74.
 Defaulting to unpruned grid for atomic number  74.
 Defaulting to unpruned grid for atomic number  74.
 Defaulting to unpruned grid for atomic number  74.
 Defaulting to unpruned grid for atomic number  74.
 Defaulting to unpruned grid for atomic number  74.
 Defaulting to unpruned grid for atomic number  74.
 Defaulting to unpruned grid for atomic number  74.
 Defaulting to unpruned grid for atomic number  74.
 Defaulting to unpruned grid for atomic number  74.
 Defaulting to unpruned grid for atomic number  74.
 Defaulting to unpruned grid for atomic number  74.
 Defaulting to unpruned grid for atomic number  74.
 Defaulting to unpruned grid for atomic number  74.
 Defaulting to unpruned grid for atomic number  74.
 Defaulting to unpruned grid for atomic number  74.
 Defaulting to unpruned grid for atomic number  74.
 Defaulting to unpruned grid for atomic number  74.
 Defaulting to unpruned grid for atomic number  74.
 Defaulting to unpruned grid for atomic number  74.
 Defaulting to unpruned grid for atomic number  74.
 Defaulting to unpruned grid for atomic number  74.
 Defaulting to unpruned grid for atomic number  74.
 Defaulting to unpruned grid for atomic number  74.
 Defaulting to unpruned grid for atomic number  74.
 Defaulting to unpruned grid for atomic number  74.
 Defaulting to unpruned grid for atomic number  74.
 Defaulting to unpruned grid for atomic number  74.
 Defaulting to unpruned grid for atomic number  74.
 Defaulting to unpruned grid for atomic number  74.
 Defaulting to unpruned grid for atomic number  74.
 Defaulting to unpruned grid for atomic number  74.
 Defaulting to unpruned grid for atomic number  74.
 Defaulting to unpruned grid for atomic number  74.
 Defaulting to unpruned grid for atomic number  74.
 Defaulting to unpruned grid for atomic number  74.
 Defaulting to unpruned grid for atomic number  74.
 Defaulting to unpruned grid for atomic number  74.
 Defaulting to unpruned grid for atomic number  74.
 Defaulting to unpruned grid for atomic number  74.
 Defaulting to unpruned grid for atomic number  74.
 Defaulting to unpruned grid for atomic number  74.
 Defaulting to unpruned grid for atomic number  74.
 Defaulting to unpruned grid for atomic number  74.
 Defaulting to unpruned grid for atomic number  74.
 Defaulting to unpruned grid for atomic number  74.
 Defaulting to unpruned grid for atomic number  74.
 Inv3:  Mode=1 IEnd=    87123963.
 Iteration    1 A*A^-1 deviation from unit magnitude is 3.55D-15 for   3060.
 Iteration    1 A*A^-1 deviation from orthogonality  is 2.78D-15 for   4777   1270.
 Iteration    1 A^-1*A deviation from unit magnitude is 4.00D-15 for   1093.
 Iteration    1 A^-1*A deviation from orthogonality  is 1.66D-12 for   1109   1045.
 Error on total polarization charges =  0.01601
 SCF Done:  E(RwB97XD) =  -7327.70131950     A.U. after   12 cycles
            NFock= 12  Conv=0.29D-08     -V/T= 2.0832
 SMD-CDS (non-electrostatic) energy       (kcal/mol) =      -3.62
 (included in total energy above)
 QCSCF skips out because SCF is already converged.

 **********************************************************************

            Population analysis using the SCF Density.

 **********************************************************************

 Alpha  occ. eigenvalues -- -197.29736-130.00162-130.00126-130.00046-101.47949
 Alpha  occ. eigenvalues --  -22.62830 -19.33756 -19.33745 -19.33737 -19.33707
 Alpha  occ. eigenvalues --  -19.30717 -19.30672 -19.30669 -19.30663 -19.30660
 Alpha  occ. eigenvalues --  -19.30658 -19.30646 -19.30602 -19.30523 -19.30368
 Alpha  occ. eigenvalues --  -19.30320 -19.30143 -19.29316 -19.29305 -19.29289
 Alpha  occ. eigenvalues --  -19.29278 -19.29270 -19.29266 -19.29232 -19.29187
 Alpha  occ. eigenvalues --  -19.29179 -19.29156 -19.29145 -19.29138 -19.29126
 Alpha  occ. eigenvalues --  -19.29111 -19.29091 -19.29074 -19.29069 -19.29059
 Alpha  occ. eigenvalues --  -19.29046 -19.28973 -19.28965 -19.28945 -19.28916
 Alpha  occ. eigenvalues --  -19.28826 -19.11790 -19.11782 -19.11773 -13.37569
 Alpha  occ. eigenvalues --  -13.37531 -13.37444 -10.70498 -10.70491 -10.70489
 Alpha  occ. eigenvalues --  -10.70461 -10.70454 -10.70453 -10.70374 -10.70368
 Alpha  occ. eigenvalues --  -10.70363 -10.29909 -10.29369 -10.29320 -10.29127
 Alpha  occ. eigenvalues --  -10.29054 -10.29025 -10.28256 -10.27805  -9.38407
 Alpha  occ. eigenvalues --   -7.13232  -7.13189  -7.13183  -3.23304  -3.23300
 Alpha  occ. eigenvalues --   -3.23289  -3.23284  -3.23281  -3.23266  -3.23251
 Alpha  occ. eigenvalues --   -3.23231  -3.23189  -3.22972  -3.22968  -3.22756
 Alpha  occ. eigenvalues --   -2.91996  -1.94351  -1.94321  -1.94313  -1.87710
 Alpha  occ. eigenvalues --   -1.87657  -1.87641  -1.87601  -1.87473  -1.87465
 Alpha  occ. eigenvalues --   -1.87452  -1.87431  -1.87398  -1.87276  -1.87236
 Alpha  occ. eigenvalues --   -1.87075  -1.86615  -1.86495  -1.86489  -1.86468
 Alpha  occ. eigenvalues --   -1.86446  -1.86417  -1.86333  -1.86322  -1.86302
 Alpha  occ. eigenvalues --   -1.86283  -1.86272  -1.86239  -1.86133  -1.86121
 Alpha  occ. eigenvalues --   -1.86114  -1.86096  -1.86038  -1.86004  -1.85977
 Alpha  occ. eigenvalues --   -1.85916  -1.85895  -1.85797  -1.85689  -1.85642
 Alpha  occ. eigenvalues --   -1.51249  -1.51217  -1.51133  -1.13119  -1.11361
 Alpha  occ. eigenvalues --   -1.11282  -1.11269  -1.08978  -1.08534  -1.08490
 Alpha  occ. eigenvalues --   -1.08281  -1.07575  -1.07522  -1.07507  -1.06899
 Alpha  occ. eigenvalues --   -1.06864  -1.06854  -1.06316  -1.06296  -1.05296
 Alpha  occ. eigenvalues --   -1.05285  -1.04971  -1.04960  -1.04950  -1.04174
 Alpha  occ. eigenvalues --   -1.04168  -1.04156  -1.04007  -1.03986  -1.03971
 Alpha  occ. eigenvalues --   -1.03926  -1.03889  -1.03869  -1.03743  -1.03703
 Alpha  occ. eigenvalues --   -1.03598  -1.03541  -1.03294  -1.03237  -1.03097
 Alpha  occ. eigenvalues --   -1.03082  -1.03017  -1.02946  -0.94421  -0.86710
 Alpha  occ. eigenvalues --   -0.86681  -0.86602  -0.86577  -0.86524  -0.86509
 Alpha  occ. eigenvalues --   -0.86491  -0.86487  -0.86417  -0.86385  -0.82847
 Alpha  occ. eigenvalues --   -0.79861  -0.71110  -0.69788  -0.68083  -0.64593
 Alpha  occ. eigenvalues --   -0.63951  -0.63909  -0.63904  -0.63361  -0.63333
 Alpha  occ. eigenvalues --   -0.63213  -0.63061  -0.62717  -0.62624  -0.62051
 Alpha  occ. eigenvalues --   -0.61629  -0.61616  -0.61524  -0.61230  -0.61213
 Alpha  occ. eigenvalues --   -0.61164  -0.60403  -0.59490  -0.59461  -0.59447
 Alpha  occ. eigenvalues --   -0.59425  -0.59383  -0.58673  -0.57983  -0.57961
 Alpha  occ. eigenvalues --   -0.57877  -0.57106  -0.57067  -0.57034  -0.56301
 Alpha  occ. eigenvalues --   -0.56264  -0.56095  -0.55688  -0.54850  -0.54783
 Alpha  occ. eigenvalues --   -0.54749  -0.54589  -0.54227  -0.54105  -0.54073
 Alpha  occ. eigenvalues --   -0.54013  -0.53950  -0.53212  -0.53178  -0.53046
 Alpha  occ. eigenvalues --   -0.52998  -0.52880  -0.52690  -0.52637  -0.52620
 Alpha  occ. eigenvalues --   -0.52571  -0.52542  -0.52470  -0.52453  -0.51579
 Alpha  occ. eigenvalues --   -0.51552  -0.51355  -0.51320  -0.51285  -0.51235
 Alpha  occ. eigenvalues --   -0.51176  -0.51165  -0.51005  -0.50727  -0.50542
 Alpha  occ. eigenvalues --   -0.50537  -0.50516  -0.49871  -0.49849  -0.49317
 Alpha  occ. eigenvalues --   -0.49278  -0.49246  -0.49198  -0.49150  -0.49050
 Alpha  occ. eigenvalues --   -0.48897  -0.48079  -0.48027  -0.47929  -0.47752
 Alpha  occ. eigenvalues --   -0.47364  -0.47279  -0.47230  -0.47007  -0.46931
 Alpha  occ. eigenvalues --   -0.46820  -0.46553  -0.46469  -0.46465  -0.46219
 Alpha  occ. eigenvalues --   -0.46158  -0.46110  -0.45639  -0.45083  -0.44906
 Alpha  occ. eigenvalues --   -0.44870  -0.44187  -0.44152  -0.44039  -0.43607
 Alpha  occ. eigenvalues --   -0.43274  -0.43223  -0.43105  -0.43084  -0.43049
 Alpha  occ. eigenvalues --   -0.42696  -0.42669  -0.42649  -0.42584  -0.42581
 Alpha  occ. eigenvalues --   -0.42494  -0.42449  -0.42433  -0.42270  -0.42255
 Alpha  occ. eigenvalues --   -0.42232  -0.42006  -0.41893  -0.41839  -0.41823
 Alpha  occ. eigenvalues --   -0.41240  -0.41148  -0.41131  -0.41008  -0.40534
 Alpha  occ. eigenvalues --   -0.40508  -0.40500  -0.40427  -0.39436  -0.39419
 Alpha  occ. eigenvalues --   -0.36994  -0.32564  -0.29001  -0.24778  -0.24758
 Alpha  occ. eigenvalues --   -0.23556
 Alpha virt. eigenvalues --   -0.09688  -0.09466  -0.08499  -0.08441  -0.07040
 Alpha virt. eigenvalues --   -0.07016  -0.06881  -0.04675  -0.04327  -0.04292
 Alpha virt. eigenvalues --   -0.03728  -0.03542  -0.03472  -0.03256  -0.03161
 Alpha virt. eigenvalues --   -0.03108  -0.03077  -0.02219  -0.02172  -0.02140
 Alpha virt. eigenvalues --   -0.01525  -0.01500  -0.01451  -0.01302  -0.01249
 Alpha virt. eigenvalues --   -0.00089  -0.00086  -0.00019   0.01415   0.01443
 Alpha virt. eigenvalues --    0.01902   0.01931   0.02021   0.02136   0.02170
 Alpha virt. eigenvalues --    0.02181   0.02237   0.02300   0.02761   0.02835
 Alpha virt. eigenvalues --    0.02900   0.02964   0.03001   0.04187   0.04532
 Alpha virt. eigenvalues --    0.06740   0.07248   0.07523   0.07559   0.07787
 Alpha virt. eigenvalues --    0.08017   0.08446   0.08504   0.08771   0.09155
 Alpha virt. eigenvalues --    0.09340   0.09382   0.09663   0.09889   0.10294
 Alpha virt. eigenvalues --    0.10328   0.10392   0.10443   0.10470   0.10644
 Alpha virt. eigenvalues --    0.10875   0.11045   0.11062   0.11652   0.11730
 Alpha virt. eigenvalues --    0.12227   0.13093   0.13221   0.13311   0.13568
 Alpha virt. eigenvalues --    0.13735   0.14352   0.14532   0.14652   0.14966
 Alpha virt. eigenvalues --    0.15539   0.16140   0.16328   0.16569   0.16739
 Alpha virt. eigenvalues --    0.16769   0.16881   0.17080   0.17242   0.17668
 Alpha virt. eigenvalues --    0.17871   0.18159   0.18208   0.18356   0.18581
 Alpha virt. eigenvalues --    0.18734   0.19057   0.19323   0.19415   0.19539
 Alpha virt. eigenvalues --    0.19664   0.20194   0.20278   0.20497   0.20599
 Alpha virt. eigenvalues --    0.20759   0.20866   0.20947   0.21349   0.21400
 Alpha virt. eigenvalues --    0.21512   0.21623   0.21705   0.21873   0.22018
 Alpha virt. eigenvalues --    0.22390   0.22705   0.22895   0.23128   0.23231
 Alpha virt. eigenvalues --    0.23473   0.23824   0.23982   0.24258   0.24550
 Alpha virt. eigenvalues --    0.24710   0.25209   0.25452   0.25638   0.25846
 Alpha virt. eigenvalues --    0.26010   0.26217   0.26402   0.26598   0.26673
 Alpha virt. eigenvalues --    0.26978   0.27200   0.27325   0.27448   0.27723
 Alpha virt. eigenvalues --    0.27976   0.28260   0.28335   0.28683   0.28731
 Alpha virt. eigenvalues --    0.29203   0.29415   0.29854   0.30088   0.30439
 Alpha virt. eigenvalues --    0.30627   0.30879   0.31191   0.31541   0.31782
 Alpha virt. eigenvalues --    0.32245   0.34706   0.35188   0.35773   0.36275
 Alpha virt. eigenvalues --    0.36666   0.36877   0.37174   0.38065   0.38362
 Alpha virt. eigenvalues --    0.38626   0.39182   0.39529   0.39623   0.40212
 Alpha virt. eigenvalues --    0.40703   0.40841   0.40997   0.41099   0.41730
 Alpha virt. eigenvalues --    0.42115   0.42377   0.42790   0.43292   0.43558
 Alpha virt. eigenvalues --    0.43729   0.44546   0.44788   0.44899   0.45264
 Alpha virt. eigenvalues --    0.45747   0.46316   0.46486   0.46714   0.47279
 Alpha virt. eigenvalues --    0.47382   0.47645   0.47960   0.48062   0.48239
 Alpha virt. eigenvalues --    0.48391   0.48445   0.48654   0.48705   0.48980
 Alpha virt. eigenvalues --    0.49149   0.49418   0.49486   0.49804   0.49899
 Alpha virt. eigenvalues --    0.50211   0.50587   0.50738   0.50808   0.51015
 Alpha virt. eigenvalues --    0.51620   0.51684   0.51882   0.52226   0.52421
 Alpha virt. eigenvalues --    0.52679   0.52845   0.53031   0.53128   0.53282
 Alpha virt. eigenvalues --    0.53684   0.54053   0.54316   0.54352   0.54542
 Alpha virt. eigenvalues --    0.54947   0.55408   0.55647   0.56376   0.56432
 Alpha virt. eigenvalues --    0.56869   0.57397   0.57759   0.58030   0.58269
 Alpha virt. eigenvalues --    0.58577   0.59066   0.59403   0.60137   0.60705
 Alpha virt. eigenvalues --    0.61335   0.62090   0.62531   0.62745   0.63084
 Alpha virt. eigenvalues --    0.64003   0.65293   0.65620   0.65664   0.65842
 Alpha virt. eigenvalues --    0.66046   0.66643   0.66969   0.67294   0.67367
 Alpha virt. eigenvalues --    0.67741   0.68293   0.69718   0.70282   0.70998
 Alpha virt. eigenvalues --    0.71344   0.71822   0.72024   0.72122   0.72175
 Alpha virt. eigenvalues --    0.72437   0.72585   0.73158   0.73346   0.73926
 Alpha virt. eigenvalues --    0.74604   0.74836   0.75487   0.75683   0.75795
 Alpha virt. eigenvalues --    0.76154   0.76725   0.76859   0.77254   0.77472
 Alpha virt. eigenvalues --    0.77508   0.78397   0.78958   0.79461   0.79704
 Alpha virt. eigenvalues --    0.79778   0.80287   0.80648   0.80772   0.81508
 Alpha virt. eigenvalues --    0.81533   0.81721   0.81982   0.82556   0.83057
 Alpha virt. eigenvalues --    0.84034   0.84232   0.84820   0.85303   0.85911
 Alpha virt. eigenvalues --    0.87176   0.87541   0.87965   0.88064   0.88736
 Alpha virt. eigenvalues --    0.88896   0.89086   0.89456   0.89660   0.90227
 Alpha virt. eigenvalues --    0.90737   0.90915   0.91245   0.91470   0.91668
 Alpha virt. eigenvalues --    0.92837   0.93015   0.93640   0.93946   0.94073
 Alpha virt. eigenvalues --    0.94304   0.94738   0.95832   0.96028   0.96756
 Alpha virt. eigenvalues --    0.96823   0.97060   0.97295   0.97703   0.97821
 Alpha virt. eigenvalues --    0.98121   0.98295   0.98474   0.98572   0.98790
 Alpha virt. eigenvalues --    0.98912   0.99524   1.00032   1.00330   1.00497
 Alpha virt. eigenvalues --    1.00897   1.01347   1.01610   1.01719   1.02082
 Alpha virt. eigenvalues --    1.02201   1.02430   1.02469   1.02528   1.02617
 Alpha virt. eigenvalues --    1.02961   1.03614   1.03800   1.03834   1.03911
 Alpha virt. eigenvalues --    1.04181   1.04218   1.04404   1.04587   1.04686
 Alpha virt. eigenvalues --    1.04788   1.05033   1.05197   1.05389   1.05800
 Alpha virt. eigenvalues --    1.05939   1.06318   1.06401   1.07013   1.07195
 Alpha virt. eigenvalues --    1.07525   1.07835   1.08659   1.09075   1.09183
 Alpha virt. eigenvalues --    1.09376   1.09827   1.09989   1.10163   1.10195
 Alpha virt. eigenvalues --    1.10670   1.10867   1.10910   1.11059   1.11232
 Alpha virt. eigenvalues --    1.11487   1.11620   1.11735   1.11970   1.12539
 Alpha virt. eigenvalues --    1.12872   1.13486   1.13766   1.14281   1.14745
 Alpha virt. eigenvalues --    1.15277   1.15937   1.16003   1.16439   1.16605
 Alpha virt. eigenvalues --    1.16946   1.17650   1.17854   1.18622   1.18735
 Alpha virt. eigenvalues --    1.19187   1.20724   1.20978   1.21220   1.21331
 Alpha virt. eigenvalues --    1.21469   1.21950   1.22207   1.23027   1.23519
 Alpha virt. eigenvalues --    1.25120   1.26002   1.26595   1.26704   1.27099
 Alpha virt. eigenvalues --    1.27524   1.27861   1.28267   1.28516   1.28571
 Alpha virt. eigenvalues --    1.28888   1.29160   1.29222   1.29397   1.29631
 Alpha virt. eigenvalues --    1.30051   1.30269   1.30374   1.30835   1.30900
 Alpha virt. eigenvalues --    1.31319   1.32123   1.32379   1.33024   1.33173
 Alpha virt. eigenvalues --    1.33286   1.33345   1.33731   1.33920   1.34026
 Alpha virt. eigenvalues --    1.34223   1.34330   1.34530   1.34706   1.34850
 Alpha virt. eigenvalues --    1.34917   1.35212   1.35460   1.35701   1.35710
 Alpha virt. eigenvalues --    1.36048   1.36167   1.36570   1.36779   1.36884
 Alpha virt. eigenvalues --    1.37083   1.37219   1.37287   1.37695   1.37861
 Alpha virt. eigenvalues --    1.37918   1.38450   1.38663   1.38725   1.39085
 Alpha virt. eigenvalues --    1.39187   1.39472   1.39583   1.39743   1.40166
 Alpha virt. eigenvalues --    1.40269   1.40446   1.40564   1.40743   1.40899
 Alpha virt. eigenvalues --    1.41002   1.41184   1.41434   1.41937   1.42113
 Alpha virt. eigenvalues --    1.42584   1.43061   1.43302   1.43461   1.43545
 Alpha virt. eigenvalues --    1.43955   1.44265   1.44577   1.44961   1.45668
 Alpha virt. eigenvalues --    1.46451   1.46846   1.47668   1.47752   1.48098
 Alpha virt. eigenvalues --    1.48265   1.48777   1.49222   1.49640   1.49994
 Alpha virt. eigenvalues --    1.50508   1.51018   1.51367   1.51965   1.53362
 Alpha virt. eigenvalues --    1.53770   1.55338   1.55781   1.55816   1.55964
 Alpha virt. eigenvalues --    1.56130   1.56321   1.56653   1.56742   1.57176
 Alpha virt. eigenvalues --    1.57239   1.58054   1.58253   1.59219   1.59270
 Alpha virt. eigenvalues --    1.59792   1.60186   1.60336   1.60467   1.60518
 Alpha virt. eigenvalues --    1.60687   1.61172   1.61932   1.62221   1.62473
 Alpha virt. eigenvalues --    1.63828   1.64401   1.65119   1.65632   1.66809
 Alpha virt. eigenvalues --    1.67506   1.67888   1.69994   1.70497   1.70828
 Alpha virt. eigenvalues --    1.71340   1.71607   1.72354   1.72825   1.74062
 Alpha virt. eigenvalues --    1.75206   1.75355   1.75544   1.75887   1.76869
 Alpha virt. eigenvalues --    1.76882   1.76923   1.77488   1.77855   1.78650
 Alpha virt. eigenvalues --    1.78866   1.79238   1.79875   1.80381   1.80674
 Alpha virt. eigenvalues --    1.81100   1.81311   1.81780   1.82096   1.82747
 Alpha virt. eigenvalues --    1.82934   1.83248   1.83890   1.84165   1.84451
 Alpha virt. eigenvalues --    1.85161   1.85257   1.85655   1.86098   1.86357
 Alpha virt. eigenvalues --    1.86484   1.87114   1.87488   1.88210   1.88606
 Alpha virt. eigenvalues --    1.89379   1.89959   1.90172   1.90273   1.90403
 Alpha virt. eigenvalues --    1.90765   1.91028   1.91336   1.92355   1.93327
 Alpha virt. eigenvalues --    1.94879   1.95392   1.95567   1.95810   1.96075
 Alpha virt. eigenvalues --    1.98046   1.99318   1.99484   1.99624   2.04323
 Alpha virt. eigenvalues --    2.06280   2.07431   2.08144   2.08598   2.08831
 Alpha virt. eigenvalues --    2.09045   2.09264   2.09548   2.10305   2.11200
 Alpha virt. eigenvalues --    2.11541   2.11946   2.12823   2.14797   2.15208
 Alpha virt. eigenvalues --    2.15978   2.16820   2.17241   2.17543   2.17728
 Alpha virt. eigenvalues --    2.19864   2.20163   2.20345   2.20698   2.20960
 Alpha virt. eigenvalues --    2.21056   2.22204   2.24518   2.25288   2.25987
 Alpha virt. eigenvalues --    2.26390   2.26787   2.27514   2.28493   2.28949
 Alpha virt. eigenvalues --    2.29159   2.29882   2.30277   2.33216   2.35678
 Alpha virt. eigenvalues --    2.36451   2.40237   2.40961   2.41095   2.43664
 Alpha virt. eigenvalues --    2.44190   2.50052   2.51358   2.57256   2.64745
 Alpha virt. eigenvalues --    2.64815   2.64940   2.65446   2.65982   2.66592
 Alpha virt. eigenvalues --    2.66736   2.66824   2.66937   2.66990   2.67059
 Alpha virt. eigenvalues --    2.67110   2.67171   2.67342   2.67367   2.67422
 Alpha virt. eigenvalues --    2.67671   2.67682   2.67783   2.67824   2.67898
 Alpha virt. eigenvalues --    2.68625   2.68927   2.69274   2.69380   2.70018
 Alpha virt. eigenvalues --    2.70193   2.70302   2.70561   2.70710   2.70833
 Alpha virt. eigenvalues --    2.70923   2.71383   2.71439   2.71517   2.71583
 Alpha virt. eigenvalues --    2.71678   2.71968   2.72648   2.72956   2.72978
 Alpha virt. eigenvalues --    2.73178   2.73241   2.73278   2.73354   2.73366
 Alpha virt. eigenvalues --    2.73505   2.73818   2.73904   2.73927   2.74011
 Alpha virt. eigenvalues --    2.74095   2.74205   2.74349   2.74568   2.74746
 Alpha virt. eigenvalues --    2.74792   2.74971   2.75110   2.75580   2.76032
 Alpha virt. eigenvalues --    2.76187   2.76329   2.76455   2.76752   2.76951
 Alpha virt. eigenvalues --    2.77123   2.77224   2.77271   2.78480   2.78630
 Alpha virt. eigenvalues --    2.78648   2.78969   2.79823   2.80106   2.80201
 Alpha virt. eigenvalues --    2.81204   2.81761   2.81812   2.82051   2.82205
 Alpha virt. eigenvalues --    2.82316   2.82649   2.82968   2.83202   2.83656
 Alpha virt. eigenvalues --    2.83751   2.83909   2.84011   2.84227   2.85021
 Alpha virt. eigenvalues --    2.85497   2.86087   2.86242   2.86262   2.86401
 Alpha virt. eigenvalues --    2.86588   2.86798   2.86895   2.88261   2.88504
 Alpha virt. eigenvalues --    2.88636   2.89100   2.89655   2.89707   2.89796
 Alpha virt. eigenvalues --    2.89839   2.89972   2.90064   2.90566   2.90690
 Alpha virt. eigenvalues --    2.90758   2.91733   2.91874   2.92011   2.92040
 Alpha virt. eigenvalues --    2.92208   2.92494   2.92730   2.92910   2.93090
 Alpha virt. eigenvalues --    2.93304   2.93421   2.93682   2.93913   2.94070
 Alpha virt. eigenvalues --    2.94188   2.95019   2.95179   2.95410   2.95672
 Alpha virt. eigenvalues --    2.95705   2.95805   2.96223   2.96451   2.96534
 Alpha virt. eigenvalues --    2.96624   2.96787   2.96883   2.97162   2.97385
 Alpha virt. eigenvalues --    2.97537   2.97718   2.97954   2.98262   2.99097
 Alpha virt. eigenvalues --    2.99293   2.99388   2.99628   2.99670   3.00024
 Alpha virt. eigenvalues --    3.00133   3.00401   3.00987   3.01235   3.01289
 Alpha virt. eigenvalues --    3.02449   3.02907   3.03219   3.03566   3.05185
 Alpha virt. eigenvalues --    3.06484   3.06728   3.07159   3.10932   3.11563
 Alpha virt. eigenvalues --    3.11720   3.11812   3.12164   3.12636   3.13710
 Alpha virt. eigenvalues --    3.13805   3.13999   3.16519   3.19929   3.21730
 Alpha virt. eigenvalues --    3.22020   3.23895   3.32568   3.41225   3.41760
 Alpha virt. eigenvalues --    3.42397   3.43175   3.45021   3.45107   3.45970
 Alpha virt. eigenvalues --    3.46227   3.46326   3.47335   3.47690   3.47813
 Alpha virt. eigenvalues --    3.47998   3.51277   3.51870   3.52454   3.53702
 Alpha virt. eigenvalues --    3.53899   3.54456   3.54769   3.54856   3.55074
 Alpha virt. eigenvalues --    3.55268   3.55619   3.55915   3.56770   3.57608
 Alpha virt. eigenvalues --    3.57773   3.58525   3.59546   3.59681   3.60456
 Alpha virt. eigenvalues --    3.60735   3.61286   3.61623   3.62111   3.62478
 Alpha virt. eigenvalues --    3.69342   3.74727  68.64195  68.65302  68.66355
 Alpha virt. eigenvalues --   68.68478  68.72603  68.73541  68.81734  68.82722
 Alpha virt. eigenvalues --   68.83344  68.85627  68.86753  68.88099 576.22634
 Alpha virt. eigenvalues --  576.23717 576.24747 576.26824 576.30957 576.31883
 Alpha virt. eigenvalues --  576.39924 576.40890 576.41493 576.43679 576.44779
 Alpha virt. eigenvalues --  576.46117
          Condensed to atoms (all electrons):
 Mulliken charges:
               1
     1  Cl  -0.919116
     2  C   -0.077329
     3  C    0.044916
     4  C   -0.075994
     5  C   -0.033712
     6  C   -0.032246
     7  C   -0.050054
     8  H    0.030573
     9  H    0.030697
    10  H    0.041597
    11  H    0.037586
    12  H    0.040431
    13  C   -0.111923
    14  C    0.015719
    15  H    0.023137
    16  H    0.042203
    17  H    0.029666
    18  O   -0.664054
    19  O   -0.662546
    20  O   -0.655007
    21  O   -0.663230
    22  W    1.737642
    23  W    1.676197
    24  W    1.685387
    25  W    1.696244
    26  W    1.677901
    27  W    1.730151
    28  W    1.621841
    29  W    1.687258
    30  O   -0.320149
    31  O   -0.365431
    32  O   -0.366508
    33  O   -0.361381
    34  O   -0.666242
    35  O   -0.671420
    36  O   -0.662437
    37  O   -0.664951
    38  O   -0.368017
    39  O   -0.365722
    40  O   -0.295957
    41  O   -0.365150
    42  O   -0.670588
    43  O   -0.663995
    44  O   -0.661777
    45  O   -0.666211
    46  O   -0.369200
    47  O   -0.321041
    48  O   -0.360010
    49  O   -0.362779
    50  W    1.675712
    51  W    1.679902
    52  W    1.685696
    53  W    1.686624
    54  O   -0.724638
    55  O   -0.709113
    56  O   -0.726501
    57  O   -0.723034
    58  O   -0.708375
    59  O   -0.727658
    60  O   -0.725388
    61  O   -0.721604
    62  O   -0.725400
    63  O   -0.710093
    64  O   -0.724077
    65  O   -0.727166
    66  O   -0.803623
    67  O   -0.802489
    68  O   -0.799305
    69  O   -0.808776
    70  K    0.864832
    71  K    0.865876
    72  K    0.862197
    73  V    1.191428
 Sum of Mulliken charges =  -1.00000
 Mulliken charges with hydrogens summed into heavy atoms:
               1
     1  Cl  -0.919116
     2  C   -0.046755
     3  C    0.044916
     4  C   -0.045297
     5  C    0.007885
     6  C    0.005340
     7  C   -0.009622
    13  C   -0.088787
    14  C    0.087588
    18  O   -0.664054
    19  O   -0.662546
    20  O   -0.655007
    21  O   -0.663230
    22  W    1.737642
    23  W    1.676197
    24  W    1.685387
    25  W    1.696244
    26  W    1.677901
    27  W    1.730151
    28  W    1.621841
    29  W    1.687258
    30  O   -0.320149
    31  O   -0.365431
    32  O   -0.366508
    33  O   -0.361381
    34  O   -0.666242
    35  O   -0.671420
    36  O   -0.662437
    37  O   -0.664951
    38  O   -0.368017
    39  O   -0.365722
    40  O   -0.295957
    41  O   -0.365150
    42  O   -0.670588
    43  O   -0.663995
    44  O   -0.661777
    45  O   -0.666211
    46  O   -0.369200
    47  O   -0.321041
    48  O   -0.360010
    49  O   -0.362779
    50  W    1.675712
    51  W    1.679902
    52  W    1.685696
    53  W    1.686624
    54  O   -0.724638
    55  O   -0.709113
    56  O   -0.726501
    57  O   -0.723034
    58  O   -0.708375
    59  O   -0.727658
    60  O   -0.725388
    61  O   -0.721604
    62  O   -0.725400
    63  O   -0.710093
    64  O   -0.724077
    65  O   -0.727166
    66  O   -0.803623
    67  O   -0.802489
    68  O   -0.799305
    69  O   -0.808776
    70  K    0.864832
    71  K    0.865876
    72  K    0.862197
    73  V    1.191428
 Electronic spatial extent (au):  <R**2>=         317510.3843
 Charge=             -1.0000 electrons
 Dipole moment (field-independent basis, Debye):
    X=             51.2217    Y=            -51.7708    Z=            -38.5858  Tot=             82.4181
 Quadrupole moment (field-independent basis, Debye-Ang):
   XX=          -1057.3457   YY=           -891.5125   ZZ=           -911.2936
   XY=            458.8018   XZ=            459.1620   YZ=           -484.1835
 Traceless Quadrupole moment (field-independent basis, Debye-Ang):
   XX=           -103.9618   YY=             61.8715   ZZ=             42.0903
   XY=            458.8018   XZ=            459.1620   YZ=           -484.1835
 Octapole moment (field-independent basis, Debye-Ang**2):
  XXX=          13440.3002  YYY=          -1130.0230  ZZZ=         -19079.8895  XYY=           6125.3076
  XXY=          -3706.7678  XXZ=          -9440.0509  XZZ=           7340.5757  YZZ=          -4249.8482
  YYZ=          -9079.2120  XYZ=           4858.3650
 Hexadecapole moment (field-independent basis, Debye-Ang**3):
 XXXX=        -158985.7279 YYYY=         -54049.2313 ZZZZ=        -345233.2492 XXXY=          37538.1132
 XXXZ=         122766.0909 YYYX=          21427.4618 YYYZ=         -13439.2560 ZZZX=         127505.4752
 ZZZY=         -36566.2716 XXYY=         -56343.4951 XXZZ=        -107901.9698 YYZZ=        -100247.6038
 XXYZ=         -42949.6640 YYXZ=          62129.9458 ZZXY=          51148.2785
 N-N= 2.097334175880D+04 E-N=-5.903075376991D+04  KE= 6.765081012925D+03
   1 Symmetry operations used in ECPInt.
 ECPInt:  NShTT=  127765 NPrTT=  468030 LenC2=   96622 LenP2D=  221047.
 LDataN:  DoStor=T MaxTD1= 9 Len=  602
 D1PCM: PCM CHGder 1st derivatives, ID1Alg=3 FixD1E=F DoIter=F DoCFld=F I1PDM=0.
 Calling FoFJK, ICntrl=      2127 FMM=T ISym2X=0 I1Cent= 0 IOpClX= 0 NMat=1 NMatS=1 NMatT=0.
 Defaulting to unpruned grid for atomic number  74.
 Defaulting to unpruned grid for atomic number  74.
 Defaulting to unpruned grid for atomic number  74.
 Defaulting to unpruned grid for atomic number  74.
 Defaulting to unpruned grid for atomic number  74.
 Defaulting to unpruned grid for atomic number  74.
 Defaulting to unpruned grid for atomic number  74.
 Defaulting to unpruned grid for atomic number  74.
 Defaulting to unpruned grid for atomic number  74.
 Defaulting to unpruned grid for atomic number  74.
 Defaulting to unpruned grid for atomic number  74.
 Defaulting to unpruned grid for atomic number  74.
 Defaulting to unpruned grid for atomic number  74.
 Defaulting to unpruned grid for atomic number  74.
 Defaulting to unpruned grid for atomic number  74.
 Defaulting to unpruned grid for atomic number  74.
 Defaulting to unpruned grid for atomic number  74.
 Defaulting to unpruned grid for atomic number  74.
 Defaulting to unpruned grid for atomic number  74.
 Defaulting to unpruned grid for atomic number  74.
 Defaulting to unpruned grid for atomic number  74.
 Defaulting to unpruned grid for atomic number  74.
 Defaulting to unpruned grid for atomic number  74.
 Defaulting to unpruned grid for atomic number  74.
 Defaulting to unpruned grid for atomic number  74.
 Defaulting to unpruned grid for atomic number  74.
 Defaulting to unpruned grid for atomic number  74.
 Defaulting to unpruned grid for atomic number  74.
 Defaulting to unpruned grid for atomic number  74.
 Defaulting to unpruned grid for atomic number  74.
 Defaulting to unpruned grid for atomic number  74.
 Defaulting to unpruned grid for atomic number  74.
 Defaulting to unpruned grid for atomic number  74.
 Defaulting to unpruned grid for atomic number  74.
 Defaulting to unpruned grid for atomic number  74.
 Defaulting to unpruned grid for atomic number  74.
 Defaulting to unpruned grid for atomic number  74.
 Defaulting to unpruned grid for atomic number  74.
 Defaulting to unpruned grid for atomic number  74.
 Defaulting to unpruned grid for atomic number  74.
 Defaulting to unpruned grid for atomic number  74.
 Defaulting to unpruned grid for atomic number  74.
 Defaulting to unpruned grid for atomic number  74.
 Defaulting to unpruned grid for atomic number  74.
 Defaulting to unpruned grid for atomic number  74.
 Defaulting to unpruned grid for atomic number  74.
 Defaulting to unpruned grid for atomic number  74.
 Defaulting to unpruned grid for atomic number  74.
 Defaulting to unpruned grid for atomic number  74.
 Defaulting to unpruned grid for atomic number  74.
 Defaulting to unpruned grid for atomic number  74.
 Defaulting to unpruned grid for atomic number  74.
 Defaulting to unpruned grid for atomic number  74.
 Defaulting to unpruned grid for atomic number  74.
 Defaulting to unpruned grid for atomic number  74.
 Defaulting to unpruned grid for atomic number  74.
 -------------------------------------------------------------------
 Center     Atomic                   Forces (Hartrees/Bohr)
 Number     Number              X              Y              Z
 -------------------------------------------------------------------
      1       17          -0.001620294    0.005244601    0.001493023
      2        6          -0.001580874   -0.000373000   -0.001986724
      3        6          -0.000849646   -0.001953387    0.003698775
      4        6           0.001534588    0.002309133    0.000550897
      5        6           0.001019258    0.000067437    0.001290679
      6        6           0.000379641   -0.000562493    0.000516034
      7        6          -0.000900788   -0.001297754    0.000464119
      8        1          -0.000299775    0.000714024    0.000062956
      9        1          -0.000648799    0.000668929    0.000019131
     10        1          -0.000522203    0.000226034    0.000091541
     11        1           0.000411758   -0.000307515   -0.000096658
     12        1          -0.000225954    0.000400691    0.000365444
     13        6           0.008845664    0.011051701   -0.008007010
     14        6          -0.003350977   -0.016986037    0.000693336
     15        1          -0.000219187   -0.000260188   -0.000228003
     16        1          -0.001805419    0.002298166    0.001153612
     17        1          -0.002049186    0.000467014    0.000189065
     18        8          -0.003699486    0.000473425    0.000847749
     19        8           0.003790065   -0.000750301    0.001074632
     20        8           0.002868902   -0.003061326   -0.000487357
     21        8          -0.002635887    0.002338319   -0.000854837
     22       74           0.001813592    0.011679534   -0.010546645
     23       74          -0.002548861   -0.011306775   -0.011117286
     24       74           0.007017227    0.009070153    0.010575481
     25       74          -0.007790677   -0.008149349    0.011403543
     26       74           0.008909368   -0.008098000   -0.011556951
     27       74          -0.009106266    0.009082129   -0.011882981
     28       74          -0.012418499    0.003307127    0.011659137
     29       74           0.011885792   -0.002206620    0.011808886
     30        8          -0.001019523   -0.002940403    0.003373786
     31        8           0.000580945    0.003475085    0.003465779
     32        8          -0.002115430   -0.002456621   -0.003685078
     33        8           0.002256051    0.002113841   -0.003500155
     34        8          -0.001426338   -0.000670685    0.003713299
     35        8           0.001644247    0.000142542    0.003679667
     36        8           0.000850312   -0.001590968   -0.003502317
     37        8          -0.000450960    0.001181947   -0.003343094
     38        8          -0.004786552   -0.002085071   -0.001647515
     39        8           0.005333026    0.001814738   -0.001468159
     40        8           0.002504791   -0.006409187    0.000016213
     41        8          -0.001489323    0.005190984    0.000936233
     42        8          -0.002245328   -0.003042494    0.001362165
     43        8           0.002684423    0.002863878    0.001015616
     44        8          -0.000400026   -0.004126053   -0.000868729
     45        8           0.001142599    0.003535422   -0.001032311
     46        8          -0.002843300    0.003615601    0.003315726
     47        8           0.003634282   -0.002385867    0.003694381
     48        8           0.004611886   -0.000810398   -0.003573860
     49        8          -0.004257793    0.000699802   -0.003454239
     50       74           0.015521484    0.005166577    0.003460007
     51       74          -0.015902164   -0.004313930    0.003761305
     52       74          -0.006330942    0.017062134   -0.003673074
     53       74           0.005159393   -0.015638360   -0.003071379
     54        8          -0.000738329    0.001592448    0.002517850
     55        8           0.000846990   -0.001771223    0.002337813
     56        8           0.001941398   -0.000254787   -0.002266788
     57        8          -0.001890910   -0.000853461   -0.002530387
     58        8           0.000284464   -0.002563770    0.001217506
     59        8           0.000293683    0.002334792    0.001780932
     60        8          -0.001533172   -0.002020935   -0.001812091
     61        8           0.001997921    0.001422069   -0.001586419
     62        8          -0.001334152    0.002139397    0.000928340
     63        8           0.000990102   -0.002516148    0.000380632
     64        8           0.002473130   -0.000247024   -0.000914685
     65        8          -0.002363261   -0.000416719   -0.000717851
     66        8          -0.028791252   -0.005189870    0.019034651
     67        8           0.029434718    0.006004996    0.018470590
     68        8           0.012172823   -0.027965710   -0.018828817
     69        8          -0.012304572    0.026281399   -0.018920614
     70       19           0.000130421   -0.000641419   -0.000468858
     71       19           0.000439254    0.000034301    0.000251551
     72       19          -0.000562998   -0.000022549    0.000287473
     73       23          -0.000345097    0.000176029    0.000671317
 -------------------------------------------------------------------
 Cartesian Forces:  Max     0.029434718 RMS     0.006629553

 GradGradGradGradGradGradGradGradGradGradGradGradGradGradGradGradGradGrad
 Berny optimization.
 Search for a local minimum.
 Step number   1 out of a maximum of    2
 All quantities printed in internal units (Hartrees-Bohrs-Radians)
 Second derivative matrix not updated -- first step.
 ITU=  0
     Eigenvalues ---    0.00000   0.00000   0.00000   0.00010   0.00092
     Eigenvalues ---    0.00094   0.00256   0.00557   0.00625   0.01642
     Eigenvalues ---    0.01970   0.02903   0.02930   0.03206   0.03417
     Eigenvalues ---    0.03447   0.03725   0.03730   0.04159   0.04486
     Eigenvalues ---    0.04600   0.04608   0.04623   0.04830   0.04844
     Eigenvalues ---    0.04987   0.05354   0.05564   0.05595   0.06362
     Eigenvalues ---    0.06395   0.06527   0.06784   0.06852   0.07043
     Eigenvalues ---    0.07295   0.07379   0.07598   0.08330   0.08373
     Eigenvalues ---    0.08707   0.08732   0.08899   0.08915   0.09737
     Eigenvalues ---    0.09943   0.10088   0.10390   0.10430   0.10510
     Eigenvalues ---    0.10812   0.10873   0.11554   0.11658   0.12030
     Eigenvalues ---    0.12041   0.12143   0.12487   0.12537   0.12649
     Eigenvalues ---    0.12655   0.12761   0.12834   0.12993   0.13097
     Eigenvalues ---    0.13842   0.13973   0.14282   0.14529   0.14748
     Eigenvalues ---    0.16882   0.16902   0.17088   0.17156   0.17561
     Eigenvalues ---    0.17668   0.18549   0.19785   0.19959   0.20255
     Eigenvalues ---    0.20865   0.20968   0.21914   0.22049   0.22089
     Eigenvalues ---    0.22440   0.23100   0.23383   0.23957   0.23980
     Eigenvalues ---    0.24584   0.24747   0.24901   0.25508   0.26134
     Eigenvalues ---    0.26333   0.26479   0.27562   0.27653   0.27910
     Eigenvalues ---    0.28237   0.28271   0.28749   0.29480   0.29914
     Eigenvalues ---    0.30458   0.30506   0.30550   0.30617   0.30644
     Eigenvalues ---    0.30833   0.31174   0.31362   0.31474   0.32151
     Eigenvalues ---    0.32341   0.32370   0.32669   0.32853   0.33378
     Eigenvalues ---    0.33476   0.35151   0.35522   0.35815   0.36879
     Eigenvalues ---    0.37385   0.37556   0.37703   0.38114   0.38477
     Eigenvalues ---    0.38854   0.39043   0.40076   0.40202   0.41033
     Eigenvalues ---    0.42128   0.42195   0.43555   0.44069   0.44875
     Eigenvalues ---    0.45170   0.45476   0.45904   0.47842   0.48160
     Eigenvalues ---    0.48493   0.48693   0.48735   0.49323   0.49505
     Eigenvalues ---    0.49934   0.50627   0.51374   0.51762   0.52199
     Eigenvalues ---    0.52968   0.53787   0.55930   0.58348   0.64425
     Eigenvalues ---    0.67548   0.76631   0.81394   0.82697   0.96695
     Eigenvalues ---    0.97249   0.98493   0.99220   1.01545   1.04350
     Eigenvalues ---    1.07054   1.10714   1.11270   1.12190   1.14973
     Eigenvalues ---    1.18457   1.18993   1.20400   1.22128   1.22441
     Eigenvalues ---    1.22777   1.25617   1.26451   1.26641   1.27082
     Eigenvalues ---    1.27722   1.29125   1.29338   1.45169   1.45556
     Eigenvalues ---    1.45802   1.48231   1.51372   1.51492   1.51899
     Eigenvalues ---    1.52451   1.55521   1.55711   1.56716   1.58330
     Eigenvalues ---    1.58355   1.59398   1.61502   1.64443   1.68822
     Eigenvalues ---    1.76315   1.81944   1.86540   1.90295   1.93686
     Eigenvalues ---    2.04991   2.12295   3.32742
 Eigenvalue     1 is   2.22D-16 Eigenvector:
                          Y16       Y17       Y14       Y15       Y13
   1                    0.17454   0.17454   0.17454   0.17454   0.17454
                          Y8        Y3        Y2        Y9        Y4
   1                    0.17454   0.17454   0.17454   0.17454   0.17454
 Eigenvalue     2 is   3.76D-07 Eigenvector:
                          Y16       X16       X11       Y11       Y14
   1                    0.33096  -0.26824   0.26268  -0.24713   0.24256
                          Y15       Y17       X14       Y13       X10
   1                    0.22648   0.20869  -0.19325   0.18534   0.18493
 Eigenvalue     3 is   3.17D-06 Eigenvector:
                          X9        Y12       X10       X12       Y9
   1                    0.33899   0.28483   0.28363  -0.26106  -0.25250
                          Y8        X15       Y10       X8        X4
   1                    0.25011   0.23354  -0.21751  -0.20722   0.20394
 Quadratic step=1.288D+01 exceeds max=3.000D-01 adjusted using Lamda=-7.107D-03.
 Angle between NR and scaled steps=  51.18 degrees.
 Angle between quadratic step and forces=  63.79 degrees.
 Linear search not attempted -- first point.
 B after Tr=     0.002074    0.003955    0.001507
         Rot=    1.000000   -0.000139    0.000038    0.000154 Ang=  -0.02 deg.
 Variable       Old X    -DE/DX   Delta X   Delta X   Delta X     New X
                                 (Linear)    (Quad)   (Total)
    X1      -18.51589  -0.00162   0.00000  -0.00157   0.00378 -18.51211
    Y1       15.56554   0.00524   0.00000   0.00532   0.00941  15.57495
    Z1       19.94406   0.00149   0.00000   0.00159   0.00603  19.95009
    X2      -15.73904  -0.00158   0.00000  -0.01311  -0.01033 -15.74937
    Y2        8.00400  -0.00037   0.00000  -0.00648  -0.00412   7.99988
    Z2       23.09664  -0.00199   0.00000  -0.01246  -0.00991  23.08672
    X3      -17.22893  -0.00085   0.00000   0.00846   0.01122 -17.21771
    Y3        7.41130  -0.00195   0.00000  -0.03680  -0.03339   7.37791
    Z3       20.97579   0.00370   0.00000  -0.01610  -0.01384  20.96195
    X4      -18.95838   0.00153   0.00000  -0.01169  -0.00956 -18.96794
    Y4        5.40025   0.00231   0.00000  -0.00807  -0.00419   5.39606
    Z4       21.18252   0.00055   0.00000   0.01625   0.01783  21.20034
    X5      -19.27859   0.00102   0.00000  -0.00648  -0.00491 -19.28350
    Y5        4.11501   0.00007   0.00000   0.00162   0.00496   4.11997
    Z5       23.45365   0.00129   0.00000   0.02464   0.02583  23.47948
    X6      -17.85276   0.00038   0.00000   0.00877   0.01038 -17.84237
    Y6        4.79125  -0.00056   0.00000  -0.00519  -0.00287   4.78838
    Z6       25.56707   0.00052   0.00000   0.01447   0.01596  25.58303
    X7      -16.05239  -0.00090   0.00000  -0.00842  -0.00620 -16.05859
    Y7        6.71067  -0.00130   0.00000   0.00697   0.00880   6.71947
    Z7       25.36468   0.00046   0.00000   0.00004   0.00221  25.36688
    X8      -14.30852  -0.00030   0.00000  -0.02641  -0.02315 -14.33168
    Y8        9.48601   0.00071   0.00000   0.00766   0.00962   9.49563
    Z8       22.96828   0.00006   0.00000  -0.01608  -0.01302  22.95527
    X9      -20.06192  -0.00065   0.00000  -0.03418  -0.03209 -20.09401
    Y9        4.84821   0.00067   0.00000   0.00208   0.00677   4.85497
    Z9       19.52455   0.00002   0.00000   0.02725   0.02859  19.55314
   X10      -20.63088  -0.00052   0.00000  -0.02186  -0.02078 -20.65166
   Y10        2.55922   0.00023   0.00000   0.01532   0.01904   2.57826
   Z10       23.57416   0.00009   0.00000   0.03517   0.03583  23.60999
   X11      -18.10955   0.00041   0.00000   0.02473   0.02590 -18.08365
   Y11        3.79341  -0.00031   0.00000  -0.00765  -0.00576   3.78765
   Z11       27.35569  -0.00010   0.00000   0.01511   0.01631  27.37200
   X12      -14.87461  -0.00023   0.00000  -0.01650  -0.01425 -14.88885
   Y12        7.19630   0.00040   0.00000   0.03026   0.03128   7.22758
   Z12       26.99012   0.00037   0.00000  -0.00000   0.00239  26.99252
   X13      -17.05985   0.00885   0.00000   0.04440   0.04775 -17.01210
   Y13        8.79949   0.01105   0.00000  -0.08735  -0.08333   8.71616
   Z13       18.58806  -0.00801   0.00000  -0.05540  -0.05275  18.53531
   X14      -15.68948  -0.00335   0.00000   0.02522   0.02924 -15.66024
   Y14       10.90000  -0.01699   0.00000  -0.10492  -0.10119  10.79881
   Z14       18.12934   0.00069   0.00000  -0.04607  -0.04274  18.08660
   X15      -18.20123  -0.00022   0.00000   0.04231   0.04553 -18.15570
   Y15        8.02377  -0.00026   0.00000  -0.09357  -0.08877   7.93499
   Z15       17.04424  -0.00023   0.00000  -0.05077  -0.04842  16.99582
   X16      -15.62867  -0.00181   0.00000  -0.01620  -0.01177 -15.64044
   Y16       11.69411   0.00230   0.00000  -0.04134  -0.03709  11.65701
   Z16       16.22572   0.00115   0.00000  -0.02007  -0.01650  16.20922
   X17      -14.46565  -0.00205   0.00000  -0.02968  -0.02549 -14.49113
   Y17       11.78417   0.00047   0.00000  -0.07369  -0.07072  11.71345
   Z17       19.53338   0.00019   0.00000  -0.01963  -0.01596  19.51742
   X18       -1.85989  -0.00370   0.00000  -0.02187  -0.02190  -1.88179
   Y18       -3.37335   0.00047   0.00000  -0.00091  -0.00031  -3.37366
   Z18       14.10701   0.00085   0.00000   0.00930   0.00972  14.11673
   X19      -15.88392   0.00379   0.00000   0.02060   0.02083 -15.86309
   Y19       -2.52156  -0.00075   0.00000   0.01235   0.01725  -2.50430
   Z19       14.09907   0.00107   0.00000   0.01284   0.01244  14.11151
   X20      -13.29175   0.00287   0.00000   0.01559   0.01695 -13.27480
   Y20        2.54666  -0.00306   0.00000  -0.01087  -0.00835   2.53831
   Z20       19.79384  -0.00049   0.00000  -0.00415  -0.00295  19.79090
   X21       -4.40924  -0.00264   0.00000  -0.01401  -0.01598  -4.42522
   Y21       -8.28019   0.00234   0.00000   0.01356   0.01332  -8.26687
   Z21       19.94307  -0.00085   0.00000  -0.00929  -0.01042  19.93264
   X22       -6.44514   0.00181   0.00000  -0.00725  -0.00569  -6.45082
   Y22        1.31494   0.01168   0.00000   0.02348   0.02601   1.34095
   Z22       12.23627  -0.01055   0.00000  -0.00462  -0.00323  12.23304
   X23      -11.33248  -0.00255   0.00000   0.00596   0.00488 -11.32760
   Y23       -7.21584  -0.01131   0.00000  -0.00406  -0.00007  -7.21592
   Z23       12.40566  -0.01112   0.00000  -0.00566  -0.00702  12.39864
   X24       -6.84063   0.00702   0.00000   0.01906   0.02001  -6.82062
   Y24        1.66967   0.00907   0.00000  -0.00070  -0.00066   1.66901
   Z24       21.58476   0.01058   0.00000   0.00625   0.00771  21.59247
   X25      -10.89560  -0.00779   0.00000  -0.01838  -0.02018 -10.91579
   Y25       -7.29112  -0.00815   0.00000   0.00192   0.00319  -7.28793
   Z25       21.68709   0.01140   0.00000   0.00891   0.00756  21.69465
   X26       -4.61039   0.00891   0.00000  -0.00709  -0.00743  -4.61781
   Y26       -4.88240  -0.00810   0.00000  -0.00529  -0.00328  -4.88568
   Z26       12.09225  -0.01156   0.00000  -0.00707  -0.00728  12.08497
   X27      -13.12506  -0.00911   0.00000   0.00191   0.00278 -13.12229
   Y27       -1.00954   0.00908   0.00000   0.02442   0.02906  -0.98049
   Z27       12.03891  -0.01188   0.00000  -0.00866  -0.00842  12.03049
   X28      -12.89843  -0.01242   0.00000  -0.00507  -0.00479 -12.90322
   Y28       -0.46727   0.00331   0.00000  -0.00458  -0.00275  -0.47002
   Z28       21.85200   0.01166   0.00000   0.01167   0.01207  21.86407
   X29       -4.81722   0.01189   0.00000   0.00678   0.00562  -4.81160
   Y29       -5.14039  -0.00221   0.00000   0.00714   0.00646  -5.13393
   Z29       21.93189   0.01181   0.00000   0.00860   0.00831  21.94020
   X30       -5.99288  -0.00102   0.00000   0.00930   0.01172  -5.98116
   Y30        3.55876  -0.00294   0.00000   0.01468   0.01768   3.57645
   Z30       10.01459   0.00337   0.00000   0.00201   0.00406  10.01864
   X31      -11.59223   0.00058   0.00000  -0.00857  -0.01022 -11.60245
   Y31       -9.57908   0.00348   0.00000   0.00469   0.00936  -9.56972
   Z31       10.24771   0.00347   0.00000  -0.00046  -0.00250  10.24521
   X32       -5.10808  -0.00212   0.00000   0.00884   0.01013  -5.09795
   Y32        3.27303  -0.00246   0.00000   0.00404   0.00295   3.27597
   Z32       23.76298  -0.00369   0.00000  -0.00191   0.00013  23.76311
   X33      -12.61572   0.00226   0.00000  -0.00653  -0.00897 -12.62469
   Y33       -8.81575   0.00211   0.00000  -0.00420  -0.00303  -8.81878
   Z33       23.92757  -0.00350   0.00000   0.00172  -0.00019  23.92738
   X34       -5.03327  -0.00143   0.00000  -0.01724  -0.01649  -5.04976
   Y34       -1.71087  -0.00067   0.00000   0.00471   0.00728  -1.70359
   Z34       10.55090   0.00371   0.00000   0.01514   0.01579  10.56669
   X35      -12.67961   0.00164   0.00000   0.01384   0.01380 -12.66582
   Y35       -4.28555   0.00014   0.00000   0.01306   0.01795  -4.26761
   Z35       10.62573   0.00368   0.00000   0.01459   0.01395  10.63969
   X36      -10.04932   0.00085   0.00000   0.01177   0.01240 -10.03692
   Y36        1.05146  -0.00159   0.00000  -0.01295  -0.01241   1.03905
   Z36       23.36086  -0.00350   0.00000  -0.00883  -0.00779  23.35307
   X37       -7.65792  -0.00045   0.00000  -0.00766  -0.00940  -7.66732
   Y37       -6.65673   0.00118   0.00000   0.01189   0.01167  -6.64506
   Z37       23.43894  -0.00334   0.00000  -0.00925  -0.01018  23.42876
   X38        0.56954  -0.00479   0.00000   0.00567   0.00642   0.57595
   Y38       -0.00441  -0.00209   0.00000  -0.01205  -0.01315  -0.01757
   Z38       17.53886  -0.00165   0.00000  -0.00408  -0.00253  17.53633
   X39      -18.33872   0.00533   0.00000  -0.00336  -0.00438 -18.34310
   Y39       -5.73832   0.00181   0.00000   0.01568   0.02036  -5.71795
   Z39       17.62431  -0.00147   0.00000  -0.00117  -0.00265  17.62166
   X40      -12.01014   0.00250   0.00000   0.00946   0.01228 -11.99785
   Y40        6.47644  -0.00641   0.00000   0.00712   0.01020   6.48664
   Z40       16.38572   0.00002   0.00000  -0.00340  -0.00100  16.38472
   X41       -5.66387  -0.00149   0.00000  -0.00018  -0.00312  -5.66699
   Y41      -12.24814   0.00519   0.00000   0.00377   0.00486 -12.24328
   Z41       16.54450   0.00094   0.00000  -0.00254  -0.00487  16.53963
   X42       -3.38188  -0.00225   0.00000  -0.01312  -0.01168  -3.39356
   Y42        1.43729  -0.00304   0.00000  -0.00543  -0.00437   1.43292
   Z42       14.12537   0.00136   0.00000   0.01309   0.01474  14.14011
   X43      -14.36900   0.00268   0.00000   0.01343   0.01218 -14.35682
   Y43       -7.33972   0.00286   0.00000   0.01644   0.02083  -7.31889
   Z43       14.26157   0.00102   0.00000   0.01057   0.00896  14.27052
   X44       -8.51173  -0.00040   0.00000   0.00892   0.01078  -8.50094
   Y44        4.17056  -0.00413   0.00000  -0.01667  -0.01559   4.15497
   Z44       19.71258  -0.00087   0.00000  -0.00760  -0.00558  19.70700
   X45       -9.21073   0.00114   0.00000  -0.00706  -0.00951  -9.22024
   Y45       -9.87183   0.00354   0.00000   0.01750   0.01875  -9.85308
   Z45       19.88619  -0.00103   0.00000  -0.00856  -0.01050  19.87569
   X46       -3.03806  -0.00284   0.00000  -0.00564  -0.00636  -3.04442
   Y46       -6.67020   0.00362   0.00000   0.01367   0.01580  -6.65441
   Z46        9.93226   0.00332   0.00000  -0.00684  -0.00742   9.92484
   X47      -14.80242   0.00363   0.00000   0.00191   0.00340 -14.79902
   Y47        0.51150  -0.00239   0.00000   0.00764   0.01341   0.52491
   Z47        9.78970   0.00369   0.00000  -0.00523  -0.00469   9.78500
   X48      -15.21199   0.00461   0.00000   0.00696   0.00712 -15.20488
   Y48       -0.30608  -0.00081   0.00000   0.00585   0.00777  -0.29831
   Z48       24.07128  -0.00357   0.00000   0.00888   0.00915  24.08043
   X49       -2.47586  -0.00426   0.00000  -0.00465  -0.00605  -2.48191
   Y49       -5.38560   0.00070   0.00000  -0.00410  -0.00610  -5.39170
   Z49       24.11638  -0.00345   0.00000   0.00520   0.00502  24.12140
   X50       -2.37327   0.01552   0.00000   0.00683   0.00734  -2.36593
   Y50       -0.98371   0.00517   0.00000   0.00167   0.00170  -0.98202
   Z50       16.69838   0.00346   0.00000   0.01332   0.01437  16.71275
   X51      -15.39043  -0.01590   0.00000  -0.00669  -0.00736 -15.39779
   Y51       -4.78785  -0.00431   0.00000   0.00622   0.01024  -4.77762
   Z51       16.76978   0.00376   0.00000   0.01526   0.01427  16.78405
   X52      -11.10833  -0.00633   0.00000   0.00086   0.00272 -11.10561
   Y52        3.50676   0.01706   0.00000   0.01543   0.01804   3.52481
   Z52       17.09717  -0.00367   0.00000  -0.01197  -0.01032  17.08685
   X53       -6.59301   0.00516   0.00000  -0.00378  -0.00586  -6.59888
   Y53       -9.27282  -0.01564   0.00000  -0.00502  -0.00386  -9.27667
   Z53       17.32269  -0.00307   0.00000  -0.01341  -0.01498  17.30771
   X54       -7.97020  -0.00074   0.00000  -0.00251  -0.00311  -7.97330
   Y54       -5.86743   0.00159   0.00000  -0.00465  -0.00144  -5.86887
   Z54       11.46601   0.00252   0.00000  -0.00698  -0.00771  11.45830
   X55       -9.75299   0.00085   0.00000  -0.00147  -0.00028  -9.75327
   Y55       -0.10105  -0.00177   0.00000   0.02469   0.02849  -0.07257
   Z55       11.35641   0.00234   0.00000  -0.00734  -0.00659  11.34982
   X56      -11.66819   0.00194   0.00000  -0.01032  -0.01110 -11.67929
   Y56       -3.76960  -0.00025   0.00000  -0.00383  -0.00255  -3.77215
   Z56       22.50595  -0.00227   0.00000   0.01152   0.01109  22.51704
   X57       -5.99044  -0.00189   0.00000   0.01096   0.01076  -5.97967
   Y57       -1.83978  -0.00085   0.00000   0.00375   0.00326  -1.83653
   Z57       22.55197  -0.00253   0.00000   0.00769   0.00823  22.56020
   X58       -8.24216   0.00028   0.00000  -0.00220  -0.00032  -8.24248
   Y58        2.98515  -0.00256   0.00000   0.01969   0.02205   3.00720
   Z58       14.80548   0.00122   0.00000  -0.00664  -0.00492  14.80056
   X59       -9.45851   0.00029   0.00000   0.00056  -0.00122  -9.45972
   Y59       -8.83793   0.00233   0.00000  -0.00611  -0.00341  -8.84134
   Z59       14.96785   0.00178   0.00000  -0.00758  -0.00925  14.95860
   X60       -4.40635  -0.00153   0.00000   0.01572   0.01669  -4.38966
   Y60        1.09674  -0.00202   0.00000  -0.00010  -0.00010   1.09664
   Z60       19.05324  -0.00181   0.00000   0.00800   0.00948  19.06272
   X61      -13.33270   0.00200   0.00000  -0.01429  -0.01576 -13.34846
   Y61       -6.82614   0.00142   0.00000   0.00302   0.00574  -6.82040
   Z61       19.14952  -0.00159   0.00000   0.00997   0.00857  19.15809
   X62       -4.85959  -0.00133   0.00000  -0.00460  -0.00592  -4.86550
   Y62       -7.36492   0.00214   0.00000  -0.00415  -0.00284  -7.36776
   Z62       14.86452   0.00093   0.00000  -0.01057  -0.01148  14.85304
   X63      -12.87943   0.00099   0.00000  -0.00077   0.00065 -12.87878
   Y63        1.49019  -0.00252   0.00000   0.01911   0.02292   1.51310
   Z63       14.75183   0.00038   0.00000  -0.01184  -0.01089  14.74093
   X64      -14.79824   0.00247   0.00000  -0.00600  -0.00606 -14.80430
   Y64       -2.22044  -0.00025   0.00000   0.00195   0.00511  -2.21532
   Z64       19.16027  -0.00091   0.00000   0.01453   0.01430  19.17457
   X65       -2.96484  -0.00236   0.00000   0.00667   0.00621  -2.95862
   Y65       -3.50981  -0.00042   0.00000   0.00164   0.00117  -3.50864
   Z65       19.15829  -0.00072   0.00000   0.01078   0.01109  19.16937
   X66       -6.35466  -0.02879   0.00000  -0.05418  -0.05392  -6.40858
   Y66       -2.17422  -0.00519   0.00000  -0.00258  -0.00087  -2.17509
   Z66       15.12279   0.01903   0.00000   0.03435   0.03477  15.15755
   X67      -11.39196   0.02943   0.00000   0.05153   0.05132 -11.34064
   Y67       -3.69426   0.00600   0.00000   0.01678   0.01998  -3.67428
   Z67       15.18126   0.01847   0.00000   0.03353   0.03315  15.21441
   X68       -9.67447   0.01217   0.00000   0.02438   0.02490  -9.64957
   Y68       -0.37944  -0.02797   0.00000  -0.04466  -0.04296  -0.42240
   Z68       18.79742  -0.01883   0.00000  -0.02995  -0.02929  18.76813
   X69       -8.01059  -0.01230   0.00000  -0.02619  -0.02718  -8.03776
   Y69       -5.36265   0.02628   0.00000   0.04706   0.04824  -5.31441
   Z69       18.85003  -0.01892   0.00000  -0.02969  -0.03027  18.81976
   X70       -6.07505   0.00013   0.00000  -0.00310  -0.00540  -6.08045
   Y70      -11.60088  -0.00064   0.00000  -0.00306  -0.00021 -11.60108
   Z70       10.66742  -0.00047   0.00000  -0.01053  -0.01271  10.65471
   X71       -0.20499   0.00044   0.00000   0.01198   0.01232  -0.19267
   Y71        0.10853   0.00003   0.00000  -0.00091  -0.00340   0.10513
   Z71       23.34360   0.00025   0.00000   0.00694   0.00846  23.35206
   X72      -17.55798  -0.00056   0.00000  -0.01088  -0.01225 -17.57023
   Y72       -5.41590  -0.00002   0.00000   0.00371   0.00651  -5.40939
   Z72       23.50370   0.00029   0.00000   0.01041   0.00908  23.51278
   X73       -8.86320  -0.00035   0.00000  -0.00151  -0.00161  -8.86481
   Y73       -2.89428   0.00018   0.00000   0.00372   0.00567  -2.88861
   Z73       16.98250   0.00067   0.00000   0.00329   0.00333  16.98583
         Item               Value     Threshold  Converged?
 Maximum Force            0.029435     0.000450     NO 
 RMS     Force            0.006630     0.000300     NO 
 Maximum Displacement     0.101190     0.001800     NO 
 RMS     Displacement     0.020156     0.001200     NO 
 Predicted change in Energy=-6.764662D-03
 GradGradGradGradGradGradGradGradGradGradGradGradGradGradGradGradGradGrad

 Unable to Open any file for archive entry.
 1\1\GINC-X11P1N2\Force\RwB97XD\def2SVP\C8H8Cl1K3O40V1W12(1-)\MAYUMIAO\
 02-Jun-2024\0\\# def2svp wb97xd scrf=(smd,solvent=acetonitrile) g09def
 ault scf=(xqc,maxcycle=64) force guess=read nosymm\\Title Card\\-1,1\C
 l,-9.79818679,8.23693098,10.55394251\C,-8.32874256,4.23553266,12.22221
 29\C,-9.1171576,3.92189147,11.09990999\C,-10.03234272,2.85769082,11.20
 93059\C,-10.20178846,2.177571,12.41113704\C,-9.44727212,2.53542063,13.
 52951202\C,-8.49455705,3.55113367,13.42240868\H,-7.57174374,5.01977957
 ,12.15429292\H,-10.61631142,2.56556004,10.33194722\H,-10.91739226,1.35
 427952,12.4749059\H,-9.58316088,2.00738786,14.47601027\H,-7.87130203,3
 .80811877,14.28255859\C,-9.02768488,4.65649103,9.83637784\C,-8.3025157
 1,5.76803256,9.59363137\H,-9.63167781,4.24599382,9.01942446\H,-8.27033
 795,6.18825482,8.5862788\H,-7.65489141,6.23591232,10.33662159\O,-0.984
 2137,-1.78510165,7.46510657\O,-8.40541012,-1.3343495,7.46090671\O,-7.0
 336903,1.34763467,10.47445031\O,-2.33326714,-4.38168916,10.55341707\W,
 -3.41061968,0.69583429,6.4751559\W,-5.99689151,-3.81845976,6.56479513\
 W,-3.61990418,0.88355141,11.42216538\W,-5.76570488,-3.85829327,11.4763
 1327\W,-2.43971199,-2.58365654,6.39894354\W,-6.94548461,-0.53422743,6.
 37071573\W,-6.82555374,-0.24726784,11.56358223\W,-2.54916481,-2.720175
 52,11.60585751\O,-3.17129663,1.88321651,5.29949113\O,-6.13434504,-5.06
 903087,5.42285634\O,-2.7030776,1.73201027,12.57482706\O,-6.67595206,-4
 .66509278,12.66192454\O,-2.66349052,-0.90535434,5.58329448\O,-6.709763
 01,-2.26781719,5.6228962\O,-5.31787352,0.55640814,12.36203508\O,-4.052
 39675,-3.52259062,12.40335295\O,0.30138551,-0.002334,9.28116682\O,-9.7
 0443351,-3.03658565,9.32638323\O,-6.35549018,3.42718311,8.67094857\O,-
 2.99718879,-6.48143689,8.75497453\O,-1.78961616,0.76058305,7.47482238\
 O,-7.60374822,-3.8840129,7.54689622\O,-4.50421237,2.20696466,10.431447
 47\O,-4.87410703,-5.22394528,10.52331751\O,-1.60767272,-3.52971868,5.2
 5592348\O,-7.83310577,0.27067194,5.18048438\O,-8.04984103,-0.16196793,
 12.73797077\O,-1.31016752,-2.84993774,12.76183814\W,-1.25587872,-0.520
 55955,8.83640171\W,-8.1442639,-2.53362264,8.87418369\W,-5.87827448,1.8
 556992,9.04743283\W,-3.48887325,-4.90696418,9.1667736\O,-4.21764598,-3
 .10490917,6.06755361\O,-5.16106194,-0.05347397,6.00955495\O,-6.1745387
 4,-1.99478636,11.90963752\O,-3.17000284,-0.97357132,11.93398897\O,-4.3
 6156427,1.5796712,7.83472209\O,-5.0052271,-4.6768324,7.92064288\O,-2.3
 3174163,0.58036831,10.08253849\O,-7.05536022,-3.61223683,10.13348975\O
 ,-2.57158348,-3.8973483,7.86596709\O,-6.81550149,0.78857286,7.80632977
 \O,-7.83088997,-1.17500499,10.13917944\O,-1.56892347,-1.8573111,10.138
 12851\O,-3.36274091,-1.15054827,8.00263325\O,-6.02836602,-1.95491869,8
 .03357519\O,-5.11950748,-0.20079035,9.94716657\O,-4.23902061,-2.837790
 01,9.97500851\K,-3.21477591,-6.13891961,5.64495724\K,-0.10847692,0.057
 43133,12.35289846\K,-9.29128028,-2.86597165,12.43762093\V,-4.69020356,
 -1.53158662,8.98675436\\Version=ES64L-G16RevC.01\HF=-7327.7013195\RMSD
 =2.852e-09\RMSF=6.630e-03\Dipole=10.3861943,-22.1466051,2.5144284\Quad
 rupole=-77.2930424,45.9999306,31.2931117,341.1079132,341.3757126,-359.
 9785489\PG=C01 [X(C8H8Cl1K3O40V1W12)]\\@
 The archive entry for this job was punched.


 WHEN YOU'VE SEEN ONE NUCLEAR WAR YOU'VE SEEN THEM ALL.
 Job cpu time:       0 days  9 hours 40 minutes 47.0 seconds.
 Elapsed time:       0 days  0 hours 11 minutes  0.1 seconds.
 File lengths (MBytes):  RWF=   1255 Int=      0 D2E=      0 Chk=    249 Scr=      1
 Normal termination of Gaussian 16 at Sun Jun  2 10:00:57 2024.
