 Entering Gaussian System, Link 0=g16
 Input=JOBS/39_A.gjf
 Output=JOBS/39_A.log
 Initial command:
 /data/app/gaussian/C01-avx2//g16/l1.exe "/tmp/Gau-653022.inp" -scrdir="/tmp/"
 Entering Link 1 = /data/app/gaussian/C01-avx2//g16/l1.exe PID=    653023.
  
 Copyright (c) 1988-2019, Gaussian, Inc.  All Rights Reserved.
  
 This is part of the Gaussian(R) 16 program.  It is based on
 the Gaussian(R) 09 system (copyright 2009, Gaussian, Inc.),
 the Gaussian(R) 03 system (copyright 2003, Gaussian, Inc.),
 the Gaussian(R) 98 system (copyright 1998, Gaussian, Inc.),
 the Gaussian(R) 94 system (copyright 1995, Gaussian, Inc.),
 the Gaussian 92(TM) system (copyright 1992, Gaussian, Inc.),
 the Gaussian 90(TM) system (copyright 1990, Gaussian, Inc.),
 the Gaussian 88(TM) system (copyright 1988, Gaussian, Inc.),
 the Gaussian 86(TM) system (copyright 1986, Carnegie Mellon
 University), and the Gaussian 82(TM) system (copyright 1983,
 Carnegie Mellon University). Gaussian is a federally registered
 trademark of Gaussian, Inc.
  
 This software contains proprietary and confidential information,
 including trade secrets, belonging to Gaussian, Inc.
  
 This software is provided under written license and may be
 used, copied, transmitted, or stored only in accord with that
 written license.
  
 The following legend is applicable only to US Government
 contracts under FAR:
  
                    RESTRICTED RIGHTS LEGEND
  
 Use, reproduction and disclosure by the US Government is
 subject to restrictions as set forth in subparagraphs (a)
 and (c) of the Commercial Computer Software - Restricted
 Rights clause in FAR 52.227-19.
  
 Gaussian, Inc.
 340 Quinnipiac St., Bldg. 40, Wallingford CT 06492
  
  
 ---------------------------------------------------------------
 Warning -- This program may not be used in any manner that
 competes with the business of Gaussian, Inc. or will provide
 assistance to any competitor of Gaussian, Inc.  The licensee
 of this program is prohibited from giving any competitor of
 Gaussian, Inc. access to this program.  By using this program,
 the user acknowledges that Gaussian, Inc. is engaged in the
 business of creating and licensing software in the field of
 computational chemistry and represents and warrants to the
 licensee that it is not a competitor of Gaussian, Inc. and that
 it will not use this program in any manner prohibited above.
 ---------------------------------------------------------------
  

 Cite this work as:
 Gaussian 16, Revision C.01,
 M. J. Frisch, G. W. Trucks, H. B. Schlegel, G. E. Scuseria, 
 M. A. Robb, J. R. Cheeseman, G. Scalmani, V. Barone, 
 G. A. Petersson, H. Nakatsuji, X. Li, M. Caricato, A. V. Marenich, 
 J. Bloino, B. G. Janesko, R. Gomperts, B. Mennucci, H. P. Hratchian, 
 J. V. Ortiz, A. F. Izmaylov, J. L. Sonnenberg, D. Williams-Young, 
 F. Ding, F. Lipparini, F. Egidi, J. Goings, B. Peng, A. Petrone, 
 T. Henderson, D. Ranasinghe, V. G. Zakrzewski, J. Gao, N. Rega, 
 G. Zheng, W. Liang, M. Hada, M. Ehara, K. Toyota, R. Fukuda, 
 J. Hasegawa, M. Ishida, T. Nakajima, Y. Honda, O. Kitao, H. Nakai, 
 T. Vreven, K. Throssell, J. A. Montgomery, Jr., J. E. Peralta, 
 F. Ogliaro, M. J. Bearpark, J. J. Heyd, E. N. Brothers, K. N. Kudin, 
 V. N. Staroverov, T. A. Keith, R. Kobayashi, J. Normand, 
 K. Raghavachari, A. P. Rendell, J. C. Burant, S. S. Iyengar, 
 J. Tomasi, M. Cossi, J. M. Millam, M. Klene, C. Adamo, R. Cammi, 
 J. W. Ochterski, R. L. Martin, K. Morokuma, O. Farkas, 
 J. B. Foresman, and D. J. Fox, Gaussian, Inc., Wallingford CT, 2019.
 
 ******************************************
 Gaussian 16:  ES64L-G16RevC.01  3-Jul-2019
                 2-Jun-2024 
 ******************************************
 %chk=a.chk
 %nprocshared=56
 Will use up to   56 processors via shared memory.
 %mem=96gb
 ----------------------------------------------------------------------
 # def2svp wb97xd scrf=(smd,solvent=acetonitrile) g09default scf=(xqc,m
 axcycle=64) force guess=read nosymm
 ----------------------------------------------------------------------
 1/10=7,30=1,38=1,158=3,167=1/1,3;
 2/12=2,15=1,17=6,18=5,40=1/2;
 3/5=43,7=101,11=2,25=1,27=10,30=1,70=32201,71=1,72=2,74=-58,75=-4,116=-2,158=3/1,2,3;
 4/5=1,60=-1/1;
 5/5=2,7=64,8=3,13=1,38=6,53=2,87=10/2,8;
 6/7=2,8=2,9=2,10=2,28=1,87=10/1;
 7/29=1,30=1,87=10/1,2,3,16;
 1/10=7,30=1,158=3,167=1/3;
 99//99;
 Using 2006 physical constants.
 ----------
 Title Card
 ----------
 Symbolic Z-matrix:
 Charge = -1 Multiplicity = 1
 17                   -9.76842   8.25473   10.5563 
 6                    -8.33131   4.23694   12.221 
 6                    -9.12268   3.9243    11.10035 
 6                    -10.03557   2.85807   11.21064 
 6                    -10.20223   2.17713   12.41232 
 6                    -9.44689   2.53574   13.5298 
 6                    -8.49451   3.55155   13.42109 
 1                    -7.57312   5.02011   12.15213 
 1                    -10.62093   2.5651    10.3345 
 1                    -10.91799   1.35404   12.47703 
 1                    -9.58342   2.00975   14.47737 
 1                    -7.87057   3.8088    14.28064 
 6                    -9.03903   4.66105   9.83751 
 6                    -8.32621   5.78135   9.5974 
 1                    -9.63578   4.2433    9.01889 
 1                    -8.29925   6.20486   8.59122 
 1                    -7.68549   6.25541   10.34206 
 8                    -0.98183  -1.78837   7.46585 
 8                    -8.40323  -1.33442   7.46083 
 8                    -7.03122   1.34797   10.47354 
 8                    -2.3336   -4.38546   10.55353 
 74                   -3.40939   0.69307   6.47425 
 74                   -5.99494  -3.81808   6.56291 
 74                   -3.61797   0.8795    11.42234 
 74                   -5.76464  -3.85863   11.47763 
 74                   -2.4366   -2.58691   6.40027 
 74                   -6.94503  -0.53353   6.37178 
 74                   -6.82464  -0.24741   11.56198 
 74                   -2.5468   -2.72392   11.60427 
 8                    -3.17101   1.87864   5.29667 
 8                    -6.13099  -5.06897   5.4214 
 8                    -2.69868   1.72656   12.5742 
 8                    -6.67739  -4.66309   12.66307 
 8                    -2.66099  -0.90893   5.58421 
 8                    -6.70784  -2.26744   5.62255 
 8                    -5.31644   0.55484   12.36158 
 8                    -4.05141  -3.5241    12.40351 
 8                     0.30285  -0.00446   9.28249 
 8                    -9.70143  -3.03821   9.32774 
 8                    -6.35179   3.42849   8.66944 
 8                    -3.00079  -6.48452   8.75205 
 8                    -1.78791   0.75777   7.47457 
 8                    -7.60199  -3.88414   7.54564 
 8                    -4.50112   2.20406   10.43061 
 8                    -4.8745   -5.22554   10.52435 
 8                    -1.60541  -3.53454   5.25797 
 8                    -7.83039   0.27369   5.18188 
 8                    -8.05003  -0.16447   12.7358 
 8                    -1.3069   -2.85144   12.75961 
 74                   -1.25407  -0.52248   8.8364 
 74                   -8.1417   -2.53547   8.87428 
 74                   -5.87493   1.85675   9.04659 
 74                   -3.49061  -4.91004   9.1661 
 8                    -4.21553  -3.10676   6.06821 
 8                    -5.15892  -0.05573   6.01054 
 8                    -6.17371  -1.99525   11.90879 
 8                    -3.16951  -0.97695   11.93262 
 8                    -4.35954   1.5803    7.83284 
 8                    -5.00517  -4.67792   7.92074 
 8                    -2.32978   0.57704   10.08216 
 8                    -7.05346  -3.61296   10.13276 
 8                    -2.57025  -3.90129   7.86613 
 8                    -6.81376   0.79065   7.80515 
 8                    -7.8299   -1.17554   10.13876 
 8                    -1.56636  -1.86012   10.13834 
 8                    -3.36061  -1.15275   8.00359 
 8                    -6.02673  -1.95562   8.03355 
 8                    -5.11879  -0.20246   9.94607 
 8                    -4.23773  -2.84013   9.9745 
 19                   -3.21367  -6.13802   5.64474 
 19                   -0.10745   0.05714   12.34997 
 19                   -9.2906   -2.85757   12.43731 
 23                   -4.68856  -1.5335    8.98695 
 

 GradGradGradGradGradGradGradGradGradGradGradGradGradGradGradGradGradGrad
 Berny optimization.
 Initialization pass.
 Trust Radius=3.00D-01 FncErr=1.00D-07 GrdErr=1.00D-07 EigMax=2.50D+02 EigMin=1.00D-04
 Number of steps in this run=      2 maximum allowed number of steps=      2.
 GradGradGradGradGradGradGradGradGradGradGradGradGradGradGradGradGradGrad

 Symmetry turned off by external request.
 Stoichiometry    C8H8ClK3O40VW12(1-)
 Framework group  C1[X(C8H8ClK3O40VW12)]
 Deg. of freedom   213
 Full point group                 C1      NOp   1
                          Input orientation:                          
 ---------------------------------------------------------------------
 Center     Atomic      Atomic             Coordinates (Angstroms)
 Number     Number       Type             X           Y           Z
 ---------------------------------------------------------------------
      1         17           0       -9.768420    8.254730   10.556296
      2          6           0       -8.331306    4.236937   12.220995
      3          6           0       -9.122677    3.924305   11.100347
      4          6           0      -10.035573    2.858067   11.210641
      5          6           0      -10.202234    2.177127   12.412320
      6          6           0       -9.446889    2.535744   13.529797
      7          6           0       -8.494511    3.551551   13.421095
      8          1           0       -7.573117    5.020109   12.152134
      9          1           0      -10.620929    2.565097   10.334504
     10          1           0      -10.917992    1.354039   12.477030
     11          1           0       -9.583420    2.009748   14.477370
     12          1           0       -7.870569    3.808796   14.280644
     13          6           0       -9.039027    4.661047    9.837511
     14          6           0       -8.326209    5.781352    9.597404
     15          1           0       -9.635776    4.243299    9.018889
     16          1           0       -8.299251    6.204864    8.591215
     17          1           0       -7.685486    6.255409   10.342064
     18          8           0       -0.981828   -1.788371    7.465851
     19          8           0       -8.403225   -1.334425    7.460835
     20          8           0       -7.031218    1.347973   10.473540
     21          8           0       -2.333603   -4.385462   10.553528
     22         74           0       -3.409391    0.693070    6.474249
     23         74           0       -5.994944   -3.818075    6.562909
     24         74           0       -3.617966    0.879497   11.422343
     25         74           0       -5.764640   -3.858629   11.477634
     26         74           0       -2.436604   -2.586906    6.400272
     27         74           0       -6.945031   -0.533531    6.371783
     28         74           0       -6.824642   -0.247413   11.561985
     29         74           0       -2.546801   -2.723918   11.604274
     30          8           0       -3.171010    1.878645    5.296674
     31          8           0       -6.130995   -5.068967    5.421398
     32          8           0       -2.698683    1.726564   12.574201
     33          8           0       -6.677386   -4.663086   12.663072
     34          8           0       -2.660991   -0.908925    5.584206
     35          8           0       -6.707838   -2.267438    5.622552
     36          8           0       -5.316435    0.554839   12.361576
     37          8           0       -4.051407   -3.524103   12.403508
     38          8           0        0.302850   -0.004457    9.282488
     39          8           0       -9.701434   -3.038208    9.327737
     40          8           0       -6.351792    3.428494    8.669441
     41          8           0       -3.000789   -6.484517    8.752049
     42          8           0       -1.787907    0.757770    7.474572
     43          8           0       -7.601986   -3.884145    7.545636
     44          8           0       -4.501118    2.204059   10.430611
     45          8           0       -4.874505   -5.225544   10.524352
     46          8           0       -1.605406   -3.534543    5.257972
     47          8           0       -7.830387    0.273692    5.181885
     48          8           0       -8.050027   -0.164468   12.735804
     49          8           0       -1.306898   -2.851441   12.759612
     50         74           0       -1.254074   -0.522477    8.836397
     51         74           0       -8.141702   -2.535468    8.874275
     52         74           0       -5.874927    1.856755    9.046588
     53         74           0       -3.490612   -4.910041    9.166103
     54          8           0       -4.215534   -3.106758    6.068208
     55          8           0       -5.158918   -0.055730    6.010537
     56          8           0       -6.173711   -1.995254   11.908792
     57          8           0       -3.169509   -0.976945   11.932622
     58          8           0       -4.359535    1.580305    7.832838
     59          8           0       -5.005174   -4.677916    7.920742
     60          8           0       -2.329782    0.577038   10.082164
     61          8           0       -7.053464   -3.612963   10.132758
     62          8           0       -2.570252   -3.901292    7.866131
     63          8           0       -6.813761    0.790649    7.805147
     64          8           0       -7.829902   -1.175537   10.138764
     65          8           0       -1.566360   -1.860121   10.138339
     66          8           0       -3.360607   -1.152747    8.003586
     67          8           0       -6.026732   -1.955618    8.033552
     68          8           0       -5.118791   -0.202459    9.946070
     69          8           0       -4.237733   -2.840133    9.974498
     70         19           0       -3.213668   -6.138016    5.644736
     71         19           0       -0.107449    0.057136   12.349972
     72         19           0       -9.290602   -2.857569   12.437305
     73         23           0       -4.688558   -1.533498    8.986954
 ---------------------------------------------------------------------
 Rotational constants (GHZ):           0.0172065           0.0132259           0.0129978
 Standard basis: def2SVP (5D, 7F)
  1217 basis functions,  2313 primitive gaussians,  1337 cartesian basis functions
   321 alpha electrons      321 beta electrons
       nuclear repulsion energy     20972.5491894174 Hartrees.
 NAtoms=   73 NActive=   73 NUniq=   73 SFac= 1.00D+00 NAtFMM=   60 NAOKFM=T Big=T
 Integral buffers will be    131072 words long.
 Raffenetti 2 integral format.
 Two-electron integral symmetry is turned off.
 Nuclear repulsion after empirical dispersion term =    20972.2724220800 Hartrees.
 Force PCM accuracy= 1.00D-10.
 ------------------------------------------------------------------------------
 Polarizable Continuum Model (PCM)
 =================================
 Model                : PCM (using non-symmetric T matrix).
 Atomic radii         : SMD-Coulomb.
 Polarization charges : Total charges.
 Charge compensation  : None.
 Solution method      : On-the-fly selection.
 Cavity type          : VdW (van der Waals Surface) (Alpha=1.000).
 Cavity algorithm     : GePol (No added spheres)
                        Default sphere list used, NSphG=   73.
                        Lebedev-Laikov grids with approx.  5.0 points / Ang**2.
                        Smoothing algorithm: York/Karplus (Gamma=1.0000).
                        Polarization charges: spherical gaussians, with
                                              point-specific exponents (IZeta= 3).
                        Self-potential: point-specific (ISelfS= 7).
                        Self-field    : sphere-specific E.n sum rule (ISelfD= 2).
 1st derivatives      : Analytical E(r).r(x)/FMM algorithm (CHGder, D1EAlg=3).
                        Cavity 1st derivative terms included.
 Solvent              : Acetonitrile, Eps=  35.688000 Eps(inf)=   1.806874
 ------------------------------------------------------------------------------
 ------------------------------------------------------------------------------
 Atomic radii for non-electrostatic terms: SMD-CDS.
 ------------------------------------------------------------------------------
 Nuclear repulsion after PCM non-electrostatic terms =    20972.2666614179 Hartrees.
 One-electron integrals computed using PRISM.
   1 Symmetry operations used in ECPInt.
 ECPInt:  NShTT=  127765 NPrTT=  468030 LenC2=   96598 LenP2D=  220989.
 LDataN:  DoStor=T MaxTD1= 8 Len=  415
 NBasis=  1217 RedAO= T EigKep=  1.37D-04  NBF=  1217
 NBsUse=  1217 1.00D-06 EigRej= -1.00D+00 NBFU=  1217
 Defaulting to unpruned grid for atomic number  74.
 Defaulting to unpruned grid for atomic number  74.
 Defaulting to unpruned grid for atomic number  74.
 Defaulting to unpruned grid for atomic number  74.
 Defaulting to unpruned grid for atomic number  74.
 Defaulting to unpruned grid for atomic number  74.
 Defaulting to unpruned grid for atomic number  74.
 Defaulting to unpruned grid for atomic number  74.
 Initial guess from the checkpoint file:  "a.chk"
 B after Tr=     0.002488   -0.003453   -0.000087
         Rot=    1.000000   -0.000005    0.000008    0.000145 Ang=  -0.02 deg.
 Requested convergence on RMS density matrix=1.00D-08 within  64 cycles.
 Requested convergence on MAX density matrix=1.00D-06.
 Requested convergence on             energy=1.00D-06.
 No special actions if energy rises.
 Defaulting to unpruned grid for atomic number  74.
 Defaulting to unpruned grid for atomic number  74.
 Defaulting to unpruned grid for atomic number  74.
 Defaulting to unpruned grid for atomic number  74.
 Defaulting to unpruned grid for atomic number  74.
 Defaulting to unpruned grid for atomic number  74.
 Defaulting to unpruned grid for atomic number  74.
 Defaulting to unpruned grid for atomic number  74.
 Defaulting to unpruned grid for atomic number  74.
 Defaulting to unpruned grid for atomic number  74.
 Defaulting to unpruned grid for atomic number  74.
 Defaulting to unpruned grid for atomic number  74.
 Defaulting to unpruned grid for atomic number  74.
 Defaulting to unpruned grid for atomic number  74.
 Defaulting to unpruned grid for atomic number  74.
 Defaulting to unpruned grid for atomic number  74.
 Defaulting to unpruned grid for atomic number  74.
 Defaulting to unpruned grid for atomic number  74.
 Defaulting to unpruned grid for atomic number  74.
 Defaulting to unpruned grid for atomic number  74.
 Defaulting to unpruned grid for atomic number  74.
 Defaulting to unpruned grid for atomic number  74.
 Defaulting to unpruned grid for atomic number  74.
 Defaulting to unpruned grid for atomic number  74.
 Defaulting to unpruned grid for atomic number  74.
 Defaulting to unpruned grid for atomic number  74.
 Defaulting to unpruned grid for atomic number  74.
 Defaulting to unpruned grid for atomic number  74.
 Defaulting to unpruned grid for atomic number  74.
 Defaulting to unpruned grid for atomic number  74.
 Defaulting to unpruned grid for atomic number  74.
 Defaulting to unpruned grid for atomic number  74.
 Defaulting to unpruned grid for atomic number  74.
 Defaulting to unpruned grid for atomic number  74.
 Defaulting to unpruned grid for atomic number  74.
 Defaulting to unpruned grid for atomic number  74.
 Defaulting to unpruned grid for atomic number  74.
 Defaulting to unpruned grid for atomic number  74.
 Defaulting to unpruned grid for atomic number  74.
 Defaulting to unpruned grid for atomic number  74.
 Defaulting to unpruned grid for atomic number  74.
 Defaulting to unpruned grid for atomic number  74.
 Defaulting to unpruned grid for atomic number  74.
 Defaulting to unpruned grid for atomic number  74.
 Defaulting to unpruned grid for atomic number  74.
 Defaulting to unpruned grid for atomic number  74.
 Defaulting to unpruned grid for atomic number  74.
 Defaulting to unpruned grid for atomic number  74.
 Defaulting to unpruned grid for atomic number  74.
 Defaulting to unpruned grid for atomic number  74.
 Defaulting to unpruned grid for atomic number  74.
 Defaulting to unpruned grid for atomic number  74.
 Defaulting to unpruned grid for atomic number  74.
 Defaulting to unpruned grid for atomic number  74.
 Defaulting to unpruned grid for atomic number  74.
 Defaulting to unpruned grid for atomic number  74.
 Inv3:  Mode=1 IEnd=    87156300.
 Iteration    1 A*A^-1 deviation from unit magnitude is 4.11D-15 for    827.
 Iteration    1 A*A^-1 deviation from orthogonality  is 4.67D-15 for   1102    827.
 Iteration    1 A^-1*A deviation from unit magnitude is 3.55D-15 for   4976.
 Iteration    1 A^-1*A deviation from orthogonality  is 2.76D-10 for   1774    734.
 Iteration    2 A*A^-1 deviation from unit magnitude is 4.66D-15 for   5068.
 Iteration    2 A*A^-1 deviation from orthogonality  is 4.57D-15 for    420    267.
 Iteration    2 A^-1*A deviation from unit magnitude is 1.33D-15 for   1693.
 Iteration    2 A^-1*A deviation from orthogonality  is 6.53D-16 for    583    188.
 Error on total polarization charges =  0.01604
 SCF Done:  E(RwB97XD) =  -7327.70142012     A.U. after   12 cycles
            NFock= 12  Conv=0.29D-08     -V/T= 2.0832
 SMD-CDS (non-electrostatic) energy       (kcal/mol) =      -3.61
 (included in total energy above)
 QCSCF skips out because SCF is already converged.

 **********************************************************************

            Population analysis using the SCF Density.

 **********************************************************************

 Alpha  occ. eigenvalues -- -197.29718-130.00147-130.00110-130.00024-101.48008
 Alpha  occ. eigenvalues --  -22.62813 -19.33749 -19.33738 -19.33729 -19.33704
 Alpha  occ. eigenvalues --  -19.30722 -19.30674 -19.30671 -19.30669 -19.30665
 Alpha  occ. eigenvalues --  -19.30661 -19.30650 -19.30608 -19.30527 -19.30374
 Alpha  occ. eigenvalues --  -19.30331 -19.30153 -19.29317 -19.29302 -19.29296
 Alpha  occ. eigenvalues --  -19.29287 -19.29272 -19.29263 -19.29229 -19.29191
 Alpha  occ. eigenvalues --  -19.29175 -19.29156 -19.29154 -19.29145 -19.29128
 Alpha  occ. eigenvalues --  -19.29109 -19.29092 -19.29073 -19.29066 -19.29058
 Alpha  occ. eigenvalues --  -19.29047 -19.28978 -19.28965 -19.28954 -19.28914
 Alpha  occ. eigenvalues --  -19.28833 -19.11774 -19.11766 -19.11756 -13.37554
 Alpha  occ. eigenvalues --  -13.37515 -13.37422 -10.70483 -10.70476 -10.70475
 Alpha  occ. eigenvalues --  -10.70444 -10.70437 -10.70436 -10.70353 -10.70346
 Alpha  occ. eigenvalues --  -10.70341 -10.29910 -10.29365 -10.29316 -10.29119
 Alpha  occ. eigenvalues --  -10.29046 -10.29023 -10.28238 -10.27779  -9.38468
 Alpha  occ. eigenvalues --   -7.13293  -7.13249  -7.13243  -3.23309  -3.23306
 Alpha  occ. eigenvalues --   -3.23296  -3.23288  -3.23287  -3.23269  -3.23262
 Alpha  occ. eigenvalues --   -3.23239  -3.23200  -3.22978  -3.22975  -3.22770
 Alpha  occ. eigenvalues --   -2.91985  -1.94342  -1.94310  -1.94303  -1.87714
 Alpha  occ. eigenvalues --   -1.87663  -1.87647  -1.87610  -1.87478  -1.87468
 Alpha  occ. eigenvalues --   -1.87457  -1.87438  -1.87406  -1.87282  -1.87245
 Alpha  occ. eigenvalues --   -1.87084  -1.86619  -1.86500  -1.86494  -1.86474
 Alpha  occ. eigenvalues --   -1.86451  -1.86425  -1.86337  -1.86326  -1.86307
 Alpha  occ. eigenvalues --   -1.86288  -1.86280  -1.86247  -1.86137  -1.86127
 Alpha  occ. eigenvalues --   -1.86119  -1.86103  -1.86043  -1.86013  -1.85982
 Alpha  occ. eigenvalues --   -1.85920  -1.85901  -1.85802  -1.85699  -1.85652
 Alpha  occ. eigenvalues --   -1.51235  -1.51202  -1.51114  -1.13117  -1.11357
 Alpha  occ. eigenvalues --   -1.11278  -1.11266  -1.08980  -1.08536  -1.08492
 Alpha  occ. eigenvalues --   -1.08287  -1.07576  -1.07523  -1.07509  -1.06900
 Alpha  occ. eigenvalues --   -1.06869  -1.06858  -1.06319  -1.06301  -1.05299
 Alpha  occ. eigenvalues --   -1.05288  -1.04973  -1.04963  -1.04953  -1.04178
 Alpha  occ. eigenvalues --   -1.04171  -1.04160  -1.04012  -1.03991  -1.03977
 Alpha  occ. eigenvalues --   -1.03928  -1.03894  -1.03876  -1.03749  -1.03710
 Alpha  occ. eigenvalues --   -1.03602  -1.03541  -1.03299  -1.03248  -1.03100
 Alpha  occ. eigenvalues --   -1.03086  -1.03018  -1.02949  -0.94414  -0.86697
 Alpha  occ. eigenvalues --   -0.86667  -0.86584  -0.86562  -0.86511  -0.86496
 Alpha  occ. eigenvalues --   -0.86477  -0.86472  -0.86398  -0.86365  -0.82841
 Alpha  occ. eigenvalues --   -0.79850  -0.71180  -0.69770  -0.68073  -0.64599
 Alpha  occ. eigenvalues --   -0.63960  -0.63912  -0.63907  -0.63359  -0.63333
 Alpha  occ. eigenvalues --   -0.63208  -0.63045  -0.62716  -0.62622  -0.62048
 Alpha  occ. eigenvalues --   -0.61630  -0.61618  -0.61525  -0.61237  -0.61220
 Alpha  occ. eigenvalues --   -0.61166  -0.60404  -0.59492  -0.59468  -0.59452
 Alpha  occ. eigenvalues --   -0.59426  -0.59383  -0.58653  -0.57986  -0.57964
 Alpha  occ. eigenvalues --   -0.57876  -0.57104  -0.57063  -0.57030  -0.56303
 Alpha  occ. eigenvalues --   -0.56270  -0.56102  -0.55692  -0.54854  -0.54789
 Alpha  occ. eigenvalues --   -0.54755  -0.54579  -0.54230  -0.54106  -0.54076
 Alpha  occ. eigenvalues --   -0.54013  -0.53952  -0.53216  -0.53181  -0.53049
 Alpha  occ. eigenvalues --   -0.53006  -0.52887  -0.52689  -0.52642  -0.52623
 Alpha  occ. eigenvalues --   -0.52568  -0.52542  -0.52469  -0.52454  -0.51586
 Alpha  occ. eigenvalues --   -0.51559  -0.51352  -0.51319  -0.51283  -0.51235
 Alpha  occ. eigenvalues --   -0.51177  -0.51168  -0.50992  -0.50734  -0.50551
 Alpha  occ. eigenvalues --   -0.50539  -0.50528  -0.49871  -0.49848  -0.49311
 Alpha  occ. eigenvalues --   -0.49283  -0.49250  -0.49206  -0.49153  -0.49056
 Alpha  occ. eigenvalues --   -0.48899  -0.48082  -0.48030  -0.47932  -0.47750
 Alpha  occ. eigenvalues --   -0.47371  -0.47281  -0.47233  -0.47005  -0.46928
 Alpha  occ. eigenvalues --   -0.46819  -0.46555  -0.46475  -0.46465  -0.46216
 Alpha  occ. eigenvalues --   -0.46157  -0.46112  -0.45632  -0.45087  -0.44910
 Alpha  occ. eigenvalues --   -0.44872  -0.44193  -0.44153  -0.44040  -0.43592
 Alpha  occ. eigenvalues --   -0.43273  -0.43221  -0.43107  -0.43087  -0.43051
 Alpha  occ. eigenvalues --   -0.42696  -0.42669  -0.42649  -0.42585  -0.42581
 Alpha  occ. eigenvalues --   -0.42495  -0.42449  -0.42434  -0.42272  -0.42256
 Alpha  occ. eigenvalues --   -0.42234  -0.42009  -0.41897  -0.41840  -0.41824
 Alpha  occ. eigenvalues --   -0.41228  -0.41148  -0.41133  -0.41008  -0.40536
 Alpha  occ. eigenvalues --   -0.40509  -0.40498  -0.40421  -0.39437  -0.39422
 Alpha  occ. eigenvalues --   -0.36994  -0.32560  -0.29032  -0.24828  -0.24808
 Alpha  occ. eigenvalues --   -0.23568
 Alpha virt. eigenvalues --   -0.09677  -0.09450  -0.08517  -0.08455  -0.07054
 Alpha virt. eigenvalues --   -0.07029  -0.06897  -0.04671  -0.04315  -0.04276
 Alpha virt. eigenvalues --   -0.03732  -0.03540  -0.03476  -0.03263  -0.03164
 Alpha virt. eigenvalues --   -0.03115  -0.03085  -0.02226  -0.02178  -0.02144
 Alpha virt. eigenvalues --   -0.01529  -0.01508  -0.01463  -0.01309  -0.01258
 Alpha virt. eigenvalues --   -0.00097  -0.00094  -0.00026   0.01407   0.01438
 Alpha virt. eigenvalues --    0.01897   0.01926   0.02016   0.02126   0.02163
 Alpha virt. eigenvalues --    0.02181   0.02236   0.02293   0.02760   0.02829
 Alpha virt. eigenvalues --    0.02894   0.02961   0.02998   0.04211   0.04521
 Alpha virt. eigenvalues --    0.06740   0.07246   0.07520   0.07549   0.07785
 Alpha virt. eigenvalues --    0.08016   0.08454   0.08512   0.08772   0.09156
 Alpha virt. eigenvalues --    0.09341   0.09382   0.09664   0.09890   0.10288
 Alpha virt. eigenvalues --    0.10329   0.10391   0.10442   0.10471   0.10646
 Alpha virt. eigenvalues --    0.10879   0.11043   0.11060   0.11645   0.11727
 Alpha virt. eigenvalues --    0.12221   0.13097   0.13224   0.13311   0.13571
 Alpha virt. eigenvalues --    0.13736   0.14364   0.14533   0.14657   0.14967
 Alpha virt. eigenvalues --    0.15544   0.16141   0.16330   0.16567   0.16742
 Alpha virt. eigenvalues --    0.16768   0.16883   0.17081   0.17244   0.17676
 Alpha virt. eigenvalues --    0.17878   0.18160   0.18213   0.18358   0.18578
 Alpha virt. eigenvalues --    0.18741   0.19060   0.19322   0.19416   0.19545
 Alpha virt. eigenvalues --    0.19663   0.20196   0.20275   0.20500   0.20594
 Alpha virt. eigenvalues --    0.20759   0.20870   0.20956   0.21357   0.21408
 Alpha virt. eigenvalues --    0.21522   0.21624   0.21715   0.21874   0.22017
 Alpha virt. eigenvalues --    0.22398   0.22713   0.22902   0.23127   0.23227
 Alpha virt. eigenvalues --    0.23474   0.23820   0.23985   0.24266   0.24559
 Alpha virt. eigenvalues --    0.24714   0.25213   0.25439   0.25636   0.25845
 Alpha virt. eigenvalues --    0.26009   0.26215   0.26402   0.26601   0.26661
 Alpha virt. eigenvalues --    0.26975   0.27201   0.27325   0.27443   0.27726
 Alpha virt. eigenvalues --    0.27982   0.28264   0.28336   0.28688   0.28731
 Alpha virt. eigenvalues --    0.29197   0.29422   0.29860   0.30101   0.30452
 Alpha virt. eigenvalues --    0.30644   0.30881   0.31212   0.31528   0.31798
 Alpha virt. eigenvalues --    0.32257   0.34705   0.35188   0.35762   0.36276
 Alpha virt. eigenvalues --    0.36665   0.36881   0.37182   0.38071   0.38353
 Alpha virt. eigenvalues --    0.38618   0.39174   0.39523   0.39612   0.40210
 Alpha virt. eigenvalues --    0.40699   0.40837   0.40990   0.41096   0.41728
 Alpha virt. eigenvalues --    0.42120   0.42392   0.42792   0.43291   0.43556
 Alpha virt. eigenvalues --    0.43730   0.44543   0.44788   0.44901   0.45267
 Alpha virt. eigenvalues --    0.45756   0.46323   0.46493   0.46713   0.47292
 Alpha virt. eigenvalues --    0.47389   0.47645   0.47938   0.48064   0.48235
 Alpha virt. eigenvalues --    0.48405   0.48444   0.48631   0.48704   0.48985
 Alpha virt. eigenvalues --    0.49148   0.49417   0.49477   0.49791   0.49889
 Alpha virt. eigenvalues --    0.50206   0.50582   0.50733   0.50777   0.51007
 Alpha virt. eigenvalues --    0.51621   0.51678   0.51872   0.52211   0.52419
 Alpha virt. eigenvalues --    0.52677   0.52851   0.53030   0.53128   0.53290
 Alpha virt. eigenvalues --    0.53684   0.54045   0.54312   0.54352   0.54538
 Alpha virt. eigenvalues --    0.54940   0.55407   0.55648   0.56372   0.56427
 Alpha virt. eigenvalues --    0.56871   0.57396   0.57767   0.58026   0.58272
 Alpha virt. eigenvalues --    0.58573   0.59064   0.59406   0.60127   0.60706
 Alpha virt. eigenvalues --    0.61329   0.62103   0.62521   0.62747   0.63089
 Alpha virt. eigenvalues --    0.64007   0.65283   0.65629   0.65672   0.65858
 Alpha virt. eigenvalues --    0.66047   0.66625   0.66962   0.67310   0.67374
 Alpha virt. eigenvalues --    0.67752   0.68296   0.69705   0.70268   0.71013
 Alpha virt. eigenvalues --    0.71356   0.71829   0.72046   0.72130   0.72190
 Alpha virt. eigenvalues --    0.72459   0.72606   0.73172   0.73355   0.73927
 Alpha virt. eigenvalues --    0.74598   0.74830   0.75488   0.75676   0.75786
 Alpha virt. eigenvalues --    0.76154   0.76739   0.76861   0.77246   0.77468
 Alpha virt. eigenvalues --    0.77601   0.78401   0.78955   0.79468   0.79754
 Alpha virt. eigenvalues --    0.79809   0.80291   0.80625   0.80745   0.81501
 Alpha virt. eigenvalues --    0.81521   0.81741   0.81980   0.82543   0.83061
 Alpha virt. eigenvalues --    0.84016   0.84218   0.84807   0.85302   0.85876
 Alpha virt. eigenvalues --    0.87174   0.87547   0.87959   0.88056   0.88737
 Alpha virt. eigenvalues --    0.88871   0.89069   0.89453   0.89651   0.90213
 Alpha virt. eigenvalues --    0.90739   0.90924   0.91234   0.91474   0.91678
 Alpha virt. eigenvalues --    0.92846   0.93008   0.93623   0.93932   0.94057
 Alpha virt. eigenvalues --    0.94279   0.94733   0.95804   0.96012   0.96716
 Alpha virt. eigenvalues --    0.96816   0.97055   0.97292   0.97698   0.97810
 Alpha virt. eigenvalues --    0.98117   0.98293   0.98459   0.98562   0.98785
 Alpha virt. eigenvalues --    0.98903   0.99504   1.00000   1.00340   1.00518
 Alpha virt. eigenvalues --    1.00890   1.01328   1.01602   1.01711   1.02072
 Alpha virt. eigenvalues --    1.02200   1.02362   1.02439   1.02494   1.02613
 Alpha virt. eigenvalues --    1.02949   1.03596   1.03743   1.03822   1.03874
 Alpha virt. eigenvalues --    1.04164   1.04198   1.04401   1.04605   1.04672
 Alpha virt. eigenvalues --    1.04813   1.05024   1.05187   1.05379   1.05791
 Alpha virt. eigenvalues --    1.05926   1.06309   1.06382   1.06999   1.07173
 Alpha virt. eigenvalues --    1.07523   1.07820   1.08636   1.09062   1.09198
 Alpha virt. eigenvalues --    1.09371   1.09827   1.09961   1.10158   1.10186
 Alpha virt. eigenvalues --    1.10681   1.10867   1.10913   1.11037   1.11233
 Alpha virt. eigenvalues --    1.11478   1.11619   1.11738   1.11972   1.12520
 Alpha virt. eigenvalues --    1.12860   1.13472   1.13741   1.14243   1.14729
 Alpha virt. eigenvalues --    1.15270   1.15908   1.15977   1.16400   1.16591
 Alpha virt. eigenvalues --    1.16955   1.17648   1.17849   1.18621   1.18691
 Alpha virt. eigenvalues --    1.19187   1.20695   1.20968   1.21207   1.21324
 Alpha virt. eigenvalues --    1.21465   1.21933   1.22206   1.23025   1.23507
 Alpha virt. eigenvalues --    1.25112   1.26028   1.26587   1.26705   1.27110
 Alpha virt. eigenvalues --    1.27533   1.27842   1.28280   1.28514   1.28568
 Alpha virt. eigenvalues --    1.28861   1.29156   1.29216   1.29405   1.29644
 Alpha virt. eigenvalues --    1.30059   1.30265   1.30376   1.30830   1.30894
 Alpha virt. eigenvalues --    1.31323   1.32143   1.32428   1.33030   1.33175
 Alpha virt. eigenvalues --    1.33286   1.33362   1.33696   1.33902   1.34031
 Alpha virt. eigenvalues --    1.34239   1.34348   1.34544   1.34730   1.34866
 Alpha virt. eigenvalues --    1.34909   1.35228   1.35473   1.35713   1.36033
 Alpha virt. eigenvalues --    1.36050   1.36216   1.36605   1.36790   1.36894
 Alpha virt. eigenvalues --    1.37080   1.37238   1.37290   1.37702   1.37867
 Alpha virt. eigenvalues --    1.37923   1.38452   1.38670   1.38719   1.39059
 Alpha virt. eigenvalues --    1.39189   1.39462   1.39569   1.39721   1.40149
 Alpha virt. eigenvalues --    1.40241   1.40425   1.40542   1.40718   1.40860
 Alpha virt. eigenvalues --    1.40977   1.41159   1.41407   1.41925   1.42047
 Alpha virt. eigenvalues --    1.42593   1.43042   1.43304   1.43470   1.43536
 Alpha virt. eigenvalues --    1.43944   1.44278   1.44576   1.44937   1.45668
 Alpha virt. eigenvalues --    1.46447   1.46929   1.47650   1.47741   1.48106
 Alpha virt. eigenvalues --    1.48255   1.48762   1.49203   1.49620   1.49953
 Alpha virt. eigenvalues --    1.50508   1.51015   1.51352   1.51960   1.53362
 Alpha virt. eigenvalues --    1.53772   1.55318   1.55782   1.55815   1.55977
 Alpha virt. eigenvalues --    1.56127   1.56313   1.56643   1.56744   1.57152
 Alpha virt. eigenvalues --    1.57217   1.58036   1.58243   1.59214   1.59286
 Alpha virt. eigenvalues --    1.59808   1.60199   1.60310   1.60468   1.60507
 Alpha virt. eigenvalues --    1.60676   1.61174   1.61900   1.62217   1.62438
 Alpha virt. eigenvalues --    1.63808   1.64419   1.65125   1.65652   1.66794
 Alpha virt. eigenvalues --    1.67488   1.67885   1.69984   1.70481   1.70817
 Alpha virt. eigenvalues --    1.71313   1.71595   1.72336   1.72824   1.74071
 Alpha virt. eigenvalues --    1.75243   1.75381   1.75554   1.75903   1.76876
 Alpha virt. eigenvalues --    1.76907   1.76925   1.77513   1.77862   1.78652
 Alpha virt. eigenvalues --    1.78877   1.79269   1.79928   1.80390   1.80681
 Alpha virt. eigenvalues --    1.81096   1.81288   1.81832   1.82083   1.82772
 Alpha virt. eigenvalues --    1.82922   1.83243   1.83905   1.84165   1.84469
 Alpha virt. eigenvalues --    1.85175   1.85270   1.85673   1.86107   1.86347
 Alpha virt. eigenvalues --    1.86489   1.87108   1.87481   1.88211   1.88624
 Alpha virt. eigenvalues --    1.89381   1.89945   1.90162   1.90277   1.90381
 Alpha virt. eigenvalues --    1.90739   1.90992   1.91301   1.92351   1.93278
 Alpha virt. eigenvalues --    1.94884   1.95385   1.95563   1.95803   1.96048
 Alpha virt. eigenvalues --    1.98017   1.99300   1.99481   1.99607   2.04232
 Alpha virt. eigenvalues --    2.06245   2.07454   2.08144   2.08600   2.08801
 Alpha virt. eigenvalues --    2.09048   2.09207   2.09550   2.10280   2.11186
 Alpha virt. eigenvalues --    2.11522   2.11954   2.12818   2.14778   2.15251
 Alpha virt. eigenvalues --    2.15984   2.16824   2.17245   2.17532   2.17728
 Alpha virt. eigenvalues --    2.19850   2.20167   2.20331   2.20702   2.20902
 Alpha virt. eigenvalues --    2.21044   2.22207   2.24493   2.25284   2.25992
 Alpha virt. eigenvalues --    2.26392   2.26802   2.27496   2.28485   2.28947
 Alpha virt. eigenvalues --    2.29154   2.29884   2.30279   2.33229   2.35702
 Alpha virt. eigenvalues --    2.36469   2.40249   2.40975   2.41099   2.43644
 Alpha virt. eigenvalues --    2.44186   2.50077   2.51364   2.57236   2.64736
 Alpha virt. eigenvalues --    2.64804   2.64928   2.65419   2.65965   2.66595
 Alpha virt. eigenvalues --    2.66721   2.66817   2.66933   2.66970   2.67055
 Alpha virt. eigenvalues --    2.67103   2.67168   2.67339   2.67365   2.67421
 Alpha virt. eigenvalues --    2.67660   2.67679   2.67777   2.67821   2.67891
 Alpha virt. eigenvalues --    2.68579   2.68918   2.69264   2.69380   2.70011
 Alpha virt. eigenvalues --    2.70190   2.70303   2.70591   2.70715   2.70836
 Alpha virt. eigenvalues --    2.70928   2.71376   2.71432   2.71514   2.71582
 Alpha virt. eigenvalues --    2.71669   2.71951   2.72658   2.72953   2.72975
 Alpha virt. eigenvalues --    2.73169   2.73236   2.73268   2.73356   2.73358
 Alpha virt. eigenvalues --    2.73501   2.73808   2.73896   2.73921   2.74003
 Alpha virt. eigenvalues --    2.74086   2.74192   2.74342   2.74555   2.74730
 Alpha virt. eigenvalues --    2.74783   2.74954   2.75087   2.75572   2.76012
 Alpha virt. eigenvalues --    2.76175   2.76333   2.76456   2.76743   2.76936
 Alpha virt. eigenvalues --    2.77115   2.77210   2.77255   2.78469   2.78617
 Alpha virt. eigenvalues --    2.78640   2.78955   2.79806   2.80098   2.80188
 Alpha virt. eigenvalues --    2.81182   2.81763   2.81810   2.82068   2.82218
 Alpha virt. eigenvalues --    2.82315   2.82639   2.82972   2.83200   2.83646
 Alpha virt. eigenvalues --    2.83751   2.83906   2.84007   2.84218   2.85027
 Alpha virt. eigenvalues --    2.85492   2.86086   2.86213   2.86259   2.86377
 Alpha virt. eigenvalues --    2.86580   2.86798   2.86894   2.88284   2.88535
 Alpha virt. eigenvalues --    2.88652   2.89101   2.89655   2.89721   2.89802
 Alpha virt. eigenvalues --    2.89849   2.89986   2.90065   2.90571   2.90686
 Alpha virt. eigenvalues --    2.90763   2.91728   2.91873   2.92020   2.92048
 Alpha virt. eigenvalues --    2.92210   2.92500   2.92735   2.92906   2.93077
 Alpha virt. eigenvalues --    2.93307   2.93422   2.93673   2.93915   2.94077
 Alpha virt. eigenvalues --    2.94183   2.95011   2.95181   2.95400   2.95678
 Alpha virt. eigenvalues --    2.95712   2.95797   2.96239   2.96470   2.96553
 Alpha virt. eigenvalues --    2.96639   2.96813   2.96884   2.97149   2.97373
 Alpha virt. eigenvalues --    2.97541   2.97719   2.97935   2.98232   2.99116
 Alpha virt. eigenvalues --    2.99275   2.99389   2.99624   2.99649   3.00011
 Alpha virt. eigenvalues --    3.00122   3.00381   3.00965   3.01231   3.01259
 Alpha virt. eigenvalues --    3.02475   3.02901   3.03218   3.03557   3.05176
 Alpha virt. eigenvalues --    3.06491   3.06726   3.07158   3.10942   3.11576
 Alpha virt. eigenvalues --    3.11732   3.11831   3.12157   3.12643   3.13700
 Alpha virt. eigenvalues --    3.13804   3.13998   3.16531   3.19847   3.21759
 Alpha virt. eigenvalues --    3.21998   3.23874   3.32575   3.41256   3.41761
 Alpha virt. eigenvalues --    3.42393   3.43207   3.45031   3.45118   3.45998
 Alpha virt. eigenvalues --    3.46267   3.46355   3.47334   3.47691   3.47787
 Alpha virt. eigenvalues --    3.48007   3.51272   3.51888   3.52490   3.53694
 Alpha virt. eigenvalues --    3.53916   3.54436   3.54751   3.54821   3.55048
 Alpha virt. eigenvalues --    3.55262   3.55608   3.55827   3.56793   3.57609
 Alpha virt. eigenvalues --    3.57761   3.58573   3.59568   3.59673   3.60459
 Alpha virt. eigenvalues --    3.60719   3.61296   3.61619   3.62141   3.62481
 Alpha virt. eigenvalues --    3.69336   3.74710  68.64152  68.65277  68.66310
 Alpha virt. eigenvalues --   68.68415  68.72568  68.73530  68.81719  68.82699
 Alpha virt. eigenvalues --   68.83356  68.85592  68.86726  68.88078 576.22593
 Alpha virt. eigenvalues --  576.23692 576.24703 576.26763 576.30922 576.31873
 Alpha virt. eigenvalues --  576.39910 576.40868 576.41506 576.43645 576.44752
 Alpha virt. eigenvalues --  576.46096
          Condensed to atoms (all electrons):
 Mulliken charges:
               1
     1  Cl  -0.915352
     2  C   -0.077590
     3  C    0.045691
     4  C   -0.076384
     5  C   -0.033786
     6  C   -0.032528
     7  C   -0.050141
     8  H    0.030768
     9  H    0.030604
    10  H    0.041580
    11  H    0.037519
    12  H    0.040408
    13  C   -0.114523
    14  C    0.016817
    15  H    0.023073
    16  H    0.041642
    17  H    0.028468
    18  O   -0.664078
    19  O   -0.662980
    20  O   -0.655148
    21  O   -0.663530
    22  W    1.737671
    23  W    1.676874
    24  W    1.686079
    25  W    1.696913
    26  W    1.678001
    27  W    1.730405
    28  W    1.622106
    29  W    1.687951
    30  O   -0.320012
    31  O   -0.365381
    32  O   -0.366768
    33  O   -0.361309
    34  O   -0.666304
    35  O   -0.671603
    36  O   -0.662420
    37  O   -0.665112
    38  O   -0.368169
    39  O   -0.365604
    40  O   -0.296375
    41  O   -0.365197
    42  O   -0.670735
    43  O   -0.664134
    44  O   -0.662044
    45  O   -0.666285
    46  O   -0.369368
    47  O   -0.320718
    48  O   -0.360884
    49  O   -0.362720
    50  W    1.676252
    51  W    1.680674
    52  W    1.685981
    53  W    1.687216
    54  O   -0.724918
    55  O   -0.709351
    56  O   -0.726580
    57  O   -0.723296
    58  O   -0.708278
    59  O   -0.727876
    60  O   -0.725486
    61  O   -0.721718
    62  O   -0.725527
    63  O   -0.709971
    64  O   -0.724227
    65  O   -0.727260
    66  O   -0.803477
    67  O   -0.802444
    68  O   -0.799022
    69  O   -0.808832
    70  K    0.864359
    71  K    0.865375
    72  K    0.861683
    73  V    1.191334
 Sum of Mulliken charges =  -1.00000
 Mulliken charges with hydrogens summed into heavy atoms:
               1
     1  Cl  -0.915352
     2  C   -0.046823
     3  C    0.045691
     4  C   -0.045779
     5  C    0.007794
     6  C    0.004991
     7  C   -0.009733
    13  C   -0.091450
    14  C    0.086927
    18  O   -0.664078
    19  O   -0.662980
    20  O   -0.655148
    21  O   -0.663530
    22  W    1.737671
    23  W    1.676874
    24  W    1.686079
    25  W    1.696913
    26  W    1.678001
    27  W    1.730405
    28  W    1.622106
    29  W    1.687951
    30  O   -0.320012
    31  O   -0.365381
    32  O   -0.366768
    33  O   -0.361309
    34  O   -0.666304
    35  O   -0.671603
    36  O   -0.662420
    37  O   -0.665112
    38  O   -0.368169
    39  O   -0.365604
    40  O   -0.296375
    41  O   -0.365197
    42  O   -0.670735
    43  O   -0.664134
    44  O   -0.662044
    45  O   -0.666285
    46  O   -0.369368
    47  O   -0.320718
    48  O   -0.360884
    49  O   -0.362720
    50  W    1.676252
    51  W    1.680674
    52  W    1.685981
    53  W    1.687216
    54  O   -0.724918
    55  O   -0.709351
    56  O   -0.726580
    57  O   -0.723296
    58  O   -0.708278
    59  O   -0.727876
    60  O   -0.725486
    61  O   -0.721718
    62  O   -0.725527
    63  O   -0.709971
    64  O   -0.724227
    65  O   -0.727260
    66  O   -0.803477
    67  O   -0.802444
    68  O   -0.799022
    69  O   -0.808832
    70  K    0.864359
    71  K    0.865375
    72  K    0.861683
    73  V    1.191334
 Electronic spatial extent (au):  <R**2>=         317486.3391
 Charge=             -1.0000 electrons
 Dipole moment (field-independent basis, Debye):
    X=             51.0634    Y=            -51.7217    Z=            -38.6131  Tot=             82.3018
 Quadrupole moment (field-independent basis, Debye-Ang):
   XX=          -1054.3759   YY=           -892.3147   ZZ=           -911.8794
   XY=            457.3155   XZ=            457.7116   YZ=           -483.7171
 Traceless Quadrupole moment (field-independent basis, Debye-Ang):
   XX=           -101.5192   YY=             60.5420   ZZ=             40.9772
   XY=            457.3155   XZ=            457.7116   YZ=           -483.7171
 Octapole moment (field-independent basis, Debye-Ang**2):
  XXX=          13394.8000  YYY=          -1134.9675  ZZZ=         -19089.5652  XYY=           6121.8234
  XXY=          -3681.2715  XXZ=          -9411.4423  XZZ=           7326.2412  YZZ=          -4244.7324
  YYZ=          -9087.4937  XYZ=           4842.3372
 Hexadecapole moment (field-independent basis, Debye-Ang**3):
 XXXX=        -158373.9861 YYYY=         -54216.8199 ZZZZ=        -345375.0098 XXXY=          37190.6170
 XXXZ=         122320.6977 YYYX=          21419.4328 YYYZ=         -13507.5653 ZZZX=         127358.6284
 ZZZY=         -36508.0122 XXYY=         -56221.8297 XXZZ=        -107612.6817 YYZZ=        -100345.6708
 XXYZ=         -42677.1258 YYXZ=          62101.3546 ZZXY=          50975.3969
 N-N= 2.097226666142D+04 E-N=-5.902860455116D+04  KE= 6.765077928909D+03
   1 Symmetry operations used in ECPInt.
 ECPInt:  NShTT=  127765 NPrTT=  468030 LenC2=   96598 LenP2D=  220989.
 LDataN:  DoStor=T MaxTD1= 9 Len=  602
 D1PCM: PCM CHGder 1st derivatives, ID1Alg=3 FixD1E=F DoIter=F DoCFld=F I1PDM=0.
 Calling FoFJK, ICntrl=      2127 FMM=T ISym2X=0 I1Cent= 0 IOpClX= 0 NMat=1 NMatS=1 NMatT=0.
 Defaulting to unpruned grid for atomic number  74.
 Defaulting to unpruned grid for atomic number  74.
 Defaulting to unpruned grid for atomic number  74.
 Defaulting to unpruned grid for atomic number  74.
 Defaulting to unpruned grid for atomic number  74.
 Defaulting to unpruned grid for atomic number  74.
 Defaulting to unpruned grid for atomic number  74.
 Defaulting to unpruned grid for atomic number  74.
 Defaulting to unpruned grid for atomic number  74.
 Defaulting to unpruned grid for atomic number  74.
 Defaulting to unpruned grid for atomic number  74.
 Defaulting to unpruned grid for atomic number  74.
 Defaulting to unpruned grid for atomic number  74.
 Defaulting to unpruned grid for atomic number  74.
 Defaulting to unpruned grid for atomic number  74.
 Defaulting to unpruned grid for atomic number  74.
 Defaulting to unpruned grid for atomic number  74.
 Defaulting to unpruned grid for atomic number  74.
 Defaulting to unpruned grid for atomic number  74.
 Defaulting to unpruned grid for atomic number  74.
 Defaulting to unpruned grid for atomic number  74.
 Defaulting to unpruned grid for atomic number  74.
 Defaulting to unpruned grid for atomic number  74.
 Defaulting to unpruned grid for atomic number  74.
 Defaulting to unpruned grid for atomic number  74.
 Defaulting to unpruned grid for atomic number  74.
 Defaulting to unpruned grid for atomic number  74.
 Defaulting to unpruned grid for atomic number  74.
 Defaulting to unpruned grid for atomic number  74.
 Defaulting to unpruned grid for atomic number  74.
 Defaulting to unpruned grid for atomic number  74.
 Defaulting to unpruned grid for atomic number  74.
 Defaulting to unpruned grid for atomic number  74.
 Defaulting to unpruned grid for atomic number  74.
 Defaulting to unpruned grid for atomic number  74.
 Defaulting to unpruned grid for atomic number  74.
 Defaulting to unpruned grid for atomic number  74.
 Defaulting to unpruned grid for atomic number  74.
 Defaulting to unpruned grid for atomic number  74.
 Defaulting to unpruned grid for atomic number  74.
 Defaulting to unpruned grid for atomic number  74.
 Defaulting to unpruned grid for atomic number  74.
 Defaulting to unpruned grid for atomic number  74.
 Defaulting to unpruned grid for atomic number  74.
 Defaulting to unpruned grid for atomic number  74.
 Defaulting to unpruned grid for atomic number  74.
 Defaulting to unpruned grid for atomic number  74.
 Defaulting to unpruned grid for atomic number  74.
 Defaulting to unpruned grid for atomic number  74.
 Defaulting to unpruned grid for atomic number  74.
 Defaulting to unpruned grid for atomic number  74.
 Defaulting to unpruned grid for atomic number  74.
 Defaulting to unpruned grid for atomic number  74.
 Defaulting to unpruned grid for atomic number  74.
 Defaulting to unpruned grid for atomic number  74.
 Defaulting to unpruned grid for atomic number  74.
 -------------------------------------------------------------------
 Center     Atomic                   Forces (Hartrees/Bohr)
 Number     Number              X              Y              Z
 -------------------------------------------------------------------
      1       17          -0.001610706    0.005317285    0.001555189
      2        6          -0.001530104   -0.000405406   -0.001986218
      3        6          -0.000722569   -0.002122357    0.003590752
      4        6           0.001523413    0.002297902    0.000555808
      5        6           0.000903304    0.000128419    0.001302797
      6        6           0.000310624   -0.000494732    0.000613174
      7        6          -0.000976747   -0.001222736    0.000507043
      8        1          -0.000426576    0.000762881   -0.000014466
      9        1          -0.000644110    0.000737658   -0.000022205
     10        1          -0.000475741    0.000182076    0.000094622
     11        1           0.000524999   -0.000397285   -0.000147025
     12        1          -0.000157870    0.000396978    0.000341626
     13        6           0.008728348    0.011050690   -0.007987673
     14        6          -0.003057207   -0.017195047    0.000618046
     15        1          -0.000383936   -0.000126129   -0.000198368
     16        1          -0.001664369    0.002156403    0.001171496
     17        1          -0.002016055    0.000469186    0.000170047
     18        8          -0.003689944    0.000481474    0.000861909
     19        8           0.003769655   -0.000753781    0.001104088
     20        8           0.002871909   -0.003094692   -0.000519379
     21        8          -0.002605980    0.002391709   -0.000915179
     22       74           0.001836177    0.011547131   -0.010483203
     23       74          -0.002557965   -0.011072514   -0.010935658
     24       74           0.007021902    0.009134113    0.010588456
     25       74          -0.007830023   -0.008160555    0.011423872
     26       74           0.008823318   -0.008024302   -0.011463489
     27       74          -0.008840028    0.008817940   -0.011587556
     28       74          -0.012543581    0.003279324    0.011731358
     29       74           0.011927176   -0.002179561    0.011841615
     30        8          -0.000881242   -0.002875606    0.003383480
     31        8           0.000443540    0.003368250    0.003306616
     32        8          -0.002271928   -0.002412919   -0.003664459
     33        8           0.002447347    0.002082465   -0.003592952
     34        8          -0.001448909   -0.000646892    0.003671110
     35        8           0.001596509    0.000135442    0.003634628
     36        8           0.000850234   -0.001564591   -0.003510655
     37        8          -0.000441460    0.001169140   -0.003344248
     38        8          -0.004711960   -0.002029156   -0.001739891
     39        8           0.005178564    0.001769963   -0.001579146
     40        8           0.002452879   -0.006540722    0.000344187
     41        8          -0.001453401    0.005173373    0.001123998
     42        8          -0.002198215   -0.003024028    0.001350928
     43        8           0.002633115    0.002832069    0.001017648
     44        8          -0.000383726   -0.004037590   -0.000831331
     45        8           0.001134491    0.003518840   -0.001068170
     46        8          -0.002789792    0.003684361    0.003205424
     47        8           0.003370577   -0.002388483    0.003402313
     48        8           0.004786610   -0.000599553   -0.003644093
     49        8          -0.004427720    0.000556848   -0.003425704
     50       74           0.015455070    0.005156156    0.003424142
     51       74          -0.015856123   -0.004324593    0.003676243
     52       74          -0.006347619    0.017154512   -0.003714698
     53       74           0.005127347   -0.015615211   -0.003083901
     54        8          -0.000731461    0.001605912    0.002527222
     55        8           0.000806260   -0.001773299    0.002362754
     56        8           0.002014448   -0.000191534   -0.002311854
     57        8          -0.001883235   -0.000857213   -0.002585003
     58        8           0.000324516   -0.002697523    0.001297863
     59        8           0.000270680    0.002391753    0.001776747
     60        8          -0.001591462   -0.002002125   -0.001818290
     61        8           0.002032779    0.001474556   -0.001582378
     62        8          -0.001405271    0.002265505    0.001027031
     63        8           0.001065215   -0.002638916    0.000491501
     64        8           0.002566299   -0.000221879   -0.000998301
     65        8          -0.002458752   -0.000422700   -0.000824478
     66        8          -0.028722847   -0.005180370    0.018892591
     67        8           0.029400201    0.005968393    0.018409506
     68        8           0.012213907   -0.027792444   -0.018647662
     69        8          -0.012271635    0.026211628   -0.018757491
     70       19           0.000132798   -0.000715961   -0.000501217
     71       19           0.000458003    0.000026954    0.000290171
     72       19          -0.000606900   -0.000070781    0.000314214
     73       23          -0.000385046    0.000175896    0.000484123
 -------------------------------------------------------------------
 Cartesian Forces:  Max     0.029400201 RMS     0.006607190

 GradGradGradGradGradGradGradGradGradGradGradGradGradGradGradGradGradGrad
 Berny optimization.
 Search for a local minimum.
 Step number   1 out of a maximum of    2
 All quantities printed in internal units (Hartrees-Bohrs-Radians)
 Second derivative matrix not updated -- first step.
 ITU=  0
     Eigenvalues ---   -0.00000   0.00000   0.00000   0.00010   0.00092
     Eigenvalues ---    0.00094   0.00256   0.00554   0.00628   0.01641
     Eigenvalues ---    0.01968   0.02903   0.02930   0.03208   0.03421
     Eigenvalues ---    0.03449   0.03724   0.03731   0.04160   0.04485
     Eigenvalues ---    0.04600   0.04610   0.04629   0.04834   0.04847
     Eigenvalues ---    0.04984   0.05356   0.05568   0.05600   0.06365
     Eigenvalues ---    0.06399   0.06528   0.06784   0.06852   0.07043
     Eigenvalues ---    0.07294   0.07384   0.07600   0.08338   0.08377
     Eigenvalues ---    0.08712   0.08740   0.08900   0.08915   0.09737
     Eigenvalues ---    0.09952   0.10095   0.10400   0.10440   0.10525
     Eigenvalues ---    0.10817   0.10881   0.11565   0.11673   0.12042
     Eigenvalues ---    0.12051   0.12154   0.12506   0.12536   0.12665
     Eigenvalues ---    0.12666   0.12776   0.12836   0.13016   0.13117
     Eigenvalues ---    0.13834   0.13985   0.14296   0.14539   0.14753
     Eigenvalues ---    0.16897   0.16919   0.17098   0.17158   0.17565
     Eigenvalues ---    0.17673   0.18557   0.19802   0.19975   0.20256
     Eigenvalues ---    0.20883   0.20978   0.21941   0.22074   0.22110
     Eigenvalues ---    0.22481   0.23121   0.23410   0.23972   0.23999
     Eigenvalues ---    0.24597   0.24762   0.24925   0.25507   0.26164
     Eigenvalues ---    0.26357   0.26499   0.27581   0.27677   0.27937
     Eigenvalues ---    0.28254   0.28290   0.28775   0.29510   0.29901
     Eigenvalues ---    0.30480   0.30528   0.30578   0.30645   0.30669
     Eigenvalues ---    0.30866   0.31183   0.31380   0.31501   0.32201
     Eigenvalues ---    0.32382   0.32409   0.32692   0.32860   0.33386
     Eigenvalues ---    0.33492   0.35141   0.35547   0.35832   0.36894
     Eigenvalues ---    0.37401   0.37574   0.37748   0.38152   0.38519
     Eigenvalues ---    0.38898   0.39074   0.40093   0.40226   0.41085
     Eigenvalues ---    0.42167   0.42229   0.43563   0.44121   0.44865
     Eigenvalues ---    0.45205   0.45521   0.45931   0.47933   0.48220
     Eigenvalues ---    0.48541   0.48752   0.48801   0.49377   0.49560
     Eigenvalues ---    0.49978   0.50686   0.51362   0.51832   0.52280
     Eigenvalues ---    0.53016   0.53892   0.56127   0.58360   0.64434
     Eigenvalues ---    0.67536   0.76621   0.81397   0.82692   0.96701
     Eigenvalues ---    0.97249   0.98512   0.99233   1.01506   1.04347
     Eigenvalues ---    1.07091   1.10732   1.11277   1.12189   1.15000
     Eigenvalues ---    1.18465   1.18998   1.20384   1.22109   1.22426
     Eigenvalues ---    1.22750   1.25640   1.26474   1.26664   1.27070
     Eigenvalues ---    1.27750   1.29171   1.29351   1.45240   1.45539
     Eigenvalues ---    1.45798   1.48214   1.51460   1.51470   1.51927
     Eigenvalues ---    1.52488   1.55552   1.55717   1.56801   1.58387
     Eigenvalues ---    1.58401   1.59375   1.61542   1.64386   1.70055
     Eigenvalues ---    1.78041   1.83540   1.88042   1.92076   1.95311
     Eigenvalues ---    2.06677   2.14751   3.47087
 Eigenvalue     1 is  -1.11D-16 should be greater than     0.000000 Eigenvector:
                          Y11       Y6        Y10       Y12       Y5
   1                    0.17448   0.17448   0.17448   0.17448   0.17448
                          Y7        Y4        Y2        Y9        Y8
   1                    0.17448   0.17448   0.17448   0.17448   0.17448
 Eigenvalue     2 is   3.72D-07 Eigenvector:
                          Y16       X16       X11       Y11       Y14
   1                    0.32912  -0.26900   0.26300  -0.24691   0.24096
                          Y15       Y17       X14       Y13       X6
   1                    0.22729   0.20606  -0.19360   0.18510   0.18435
 Eigenvalue     3 is   3.19D-06 Eigenvector:
                          X9        X10       Y12       X12       Y9
   1                    0.33958   0.28451   0.28347  -0.26026  -0.25095
                          Y8        X15       Y10       X8        X4
   1                    0.25065   0.23441  -0.21763  -0.20662   0.20453
 Quadratic step=1.413D+01 exceeds max=3.000D-01 adjusted using Lamda=-7.562D-03.
 Angle between NR and scaled steps=  50.07 degrees.
 Angle between quadratic step and forces=  63.93 degrees.
 Linear search not attempted -- first point.
 B after Tr=     0.001689    0.004496    0.001523
         Rot=    1.000000   -0.000141    0.000034    0.000135 Ang=  -0.02 deg.
 Variable       Old X    -DE/DX   Delta X   Delta X   Delta X     New X
                                 (Linear)    (Quad)   (Total)
    X1      -18.45964  -0.00161   0.00000  -0.00156   0.00299 -18.45664
    Y1       15.59918   0.00532   0.00000   0.00539   0.00924  15.60842
    Z1       19.94851   0.00156   0.00000   0.00165   0.00632  19.95483
    X2      -15.74389  -0.00153   0.00000  -0.01325  -0.01096 -15.75485
    Y2        8.00665  -0.00041   0.00000  -0.00632  -0.00408   8.00257
    Z2       23.09433  -0.00199   0.00000  -0.01326  -0.01054  23.08379
    X3      -17.23936  -0.00072   0.00000   0.00862   0.01089 -17.22847
    Y3        7.41586  -0.00212   0.00000  -0.03676  -0.03353   7.38233
    Z3       20.97662   0.00359   0.00000  -0.01696  -0.01452  20.96209
    X4      -18.96449   0.00152   0.00000  -0.01262  -0.01091 -18.97540
    Y4        5.40096   0.00230   0.00000  -0.00697  -0.00334   5.39763
    Z4       21.18504   0.00056   0.00000   0.01562   0.01739  21.20243
    X5      -19.27943   0.00090   0.00000  -0.00710  -0.00589 -19.28532
    Y5        4.11417   0.00013   0.00000   0.00242   0.00550   4.11967
    Z5       23.45588   0.00130   0.00000   0.02402   0.02540  23.48129
    X6      -17.85203   0.00031   0.00000   0.00923   0.01048 -17.84156
    Y6        4.79186  -0.00049   0.00000  -0.00525  -0.00316   4.78871
    Z6       25.56761   0.00061   0.00000   0.01364   0.01531  25.58292
    X7      -16.05230  -0.00098   0.00000  -0.00825  -0.00646 -16.05876
    Y7        6.71146  -0.00122   0.00000   0.00727   0.00895   6.72041
    Z7       25.36219   0.00051   0.00000  -0.00064   0.00169  25.36388
    X8      -14.31112  -0.00043   0.00000  -0.02814  -0.02544 -14.33655
    Y8        9.48663   0.00076   0.00000   0.00916   0.01105   9.49768
    Z8       22.96421  -0.00001   0.00000  -0.01752  -0.01429  22.94991
    X9      -20.07065  -0.00064   0.00000  -0.03505  -0.03337 -20.10402
    Y9        4.84733   0.00074   0.00000   0.00428   0.00869   4.85602
    Z9       19.52938  -0.00002   0.00000   0.02623   0.02776  19.55714
   X10      -20.63202  -0.00048   0.00000  -0.02100  -0.02021 -20.65223
   Y10        2.55876   0.00018   0.00000   0.01482   0.01823   2.57699
   Z10       23.57817   0.00009   0.00000   0.03421   0.03506  23.61323
   X11      -18.11004   0.00052   0.00000   0.02818   0.02904 -18.08100
   Y11        3.79787  -0.00040   0.00000  -0.01057  -0.00892   3.78896
   Z11       27.35826  -0.00015   0.00000   0.01309   0.01446  27.37273
   X12      -14.87322  -0.00016   0.00000  -0.01477  -0.01296 -14.88618
   Y12        7.19758   0.00040   0.00000   0.02963   0.03054   7.22812
   Z12       26.98651   0.00034   0.00000  -0.00145   0.00110  26.98761
   X13      -17.08129   0.00873   0.00000   0.04514   0.04793 -17.03336
   Y13        8.80810   0.01105   0.00000  -0.08613  -0.08226   8.72584
   Z13       18.59020  -0.00799   0.00000  -0.05559  -0.05276  18.53744
   X14      -15.73425  -0.00306   0.00000   0.03461   0.03799 -15.69626
   Y14       10.92517  -0.01720   0.00000  -0.10956  -0.10592  10.81925
   Z14       18.13647   0.00062   0.00000  -0.04762  -0.04411  18.09236
   X15      -18.20898  -0.00038   0.00000   0.03551   0.03819 -18.17079
   Y15        8.01867  -0.00013   0.00000  -0.08564  -0.08104   7.93764
   Z15       17.04323  -0.00020   0.00000  -0.04883  -0.04630  16.99693
   X16      -15.68331  -0.00166   0.00000  -0.00460  -0.00086 -15.68417
   Y16       11.72549   0.00216   0.00000  -0.04801  -0.04385  11.68164
   Z16       16.23504   0.00117   0.00000  -0.02181  -0.01806  16.21698
   X17      -14.52346  -0.00202   0.00000  -0.01700  -0.01346 -14.53693
   Y17       11.82101   0.00047   0.00000  -0.08216  -0.07925  11.74177
   Z17       19.54367   0.00017   0.00000  -0.02224  -0.01839  19.52528
   X18       -1.85539  -0.00369   0.00000  -0.02212  -0.02230  -1.87768
   Y18       -3.37953   0.00048   0.00000  -0.00003   0.00099  -3.37854
   Z18       14.10841   0.00086   0.00000   0.00892   0.00937  14.11778
   X19      -15.87979   0.00377   0.00000   0.02016   0.02022 -15.85957
   Y19       -2.52170  -0.00075   0.00000   0.01154   0.01634  -2.50536
   Z19       14.09893   0.00110   0.00000   0.01282   0.01257  14.11150
   X20      -13.28708   0.00287   0.00000   0.01499   0.01603 -13.27105
   Y20        2.54730  -0.00309   0.00000  -0.01160  -0.00910   2.53820
   Z20       19.79212  -0.00052   0.00000  -0.00357  -0.00223  19.78989
   X21       -4.40987  -0.00261   0.00000  -0.01364  -0.01553  -4.42541
   Y21       -8.28732   0.00239   0.00000   0.01449   0.01457  -8.27276
   Z21       19.94328  -0.00092   0.00000  -0.00968  -0.01079  19.93249
   X22       -6.44282   0.00184   0.00000  -0.00736  -0.00614  -6.44896
   Y22        1.30971   0.01155   0.00000   0.02364   0.02643   1.33614
   Z22       12.23456  -0.01048   0.00000  -0.00404  -0.00258  12.23198
   X23      -11.32880  -0.00256   0.00000   0.00544   0.00434 -11.32446
   Y23       -7.21512  -0.01107   0.00000  -0.00410  -0.00004  -7.21516
   Z23       12.40210  -0.01094   0.00000  -0.00563  -0.00690  12.39520
   X24       -6.83696   0.00702   0.00000   0.01837   0.01905  -6.81792
   Y24        1.66201   0.00913   0.00000  -0.00011   0.00014   1.66215
   Z24       21.58510   0.01059   0.00000   0.00667   0.00820  21.59330
   X25      -10.89359  -0.00783   0.00000  -0.01784  -0.01958 -10.91318
   Y25       -7.29175  -0.00816   0.00000   0.00179   0.00312  -7.28863
   Z25       21.68959   0.01142   0.00000   0.00860   0.00733  21.69692
   X26       -4.60451   0.00882   0.00000  -0.00749  -0.00794  -4.61246
   Y26       -4.88854  -0.00802   0.00000  -0.00437  -0.00204  -4.89058
   Z26       12.09476  -0.01146   0.00000  -0.00735  -0.00752  12.08724
   X27      -13.12421  -0.00884   0.00000   0.00161   0.00222 -13.12198
   Y27       -1.00823   0.00882   0.00000   0.02322   0.02786  -0.98037
   Z27       12.04092  -0.01159   0.00000  -0.00829  -0.00793  12.03300
   X28      -12.89670  -0.01254   0.00000  -0.00503  -0.00495 -12.90165
   Y28       -0.46754   0.00328   0.00000  -0.00464  -0.00283  -0.47037
   Z28       21.84898   0.01173   0.00000   0.01180   0.01232  21.86130
   X29       -4.81276   0.01193   0.00000   0.00638   0.00520  -4.80756
   Y29       -5.14746  -0.00218   0.00000   0.00741   0.00702  -5.14044
   Z29       21.92890   0.01184   0.00000   0.00849   0.00824  21.93714
   X30       -5.99234  -0.00088   0.00000   0.01012   0.01210  -5.98024
   Y30        3.55012  -0.00288   0.00000   0.01558   0.01887   3.56899
   Z30       10.00926   0.00338   0.00000   0.00337   0.00549  10.01476
   X31      -11.58590   0.00044   0.00000  -0.00955  -0.01114 -11.59704
   Y31       -9.57896   0.00337   0.00000   0.00448   0.00922  -9.56974
   Z31       10.24496   0.00331   0.00000  -0.00073  -0.00269  10.24227
   X32       -5.09977  -0.00227   0.00000   0.00736   0.00832  -5.09145
   Y32        3.26273  -0.00241   0.00000   0.00484   0.00402   3.26675
   Z32       23.76180  -0.00366   0.00000  -0.00116   0.00094  23.76273
   X33      -12.61843   0.00245   0.00000  -0.00512  -0.00743 -12.62586
   Y33       -8.81196   0.00208   0.00000  -0.00491  -0.00376  -8.81571
   Z33       23.92974  -0.00359   0.00000   0.00134  -0.00048  23.92926
   X34       -5.02855  -0.00145   0.00000  -0.01780  -0.01728  -5.04583
   Y34       -1.71762  -0.00065   0.00000   0.00547   0.00835  -1.70927
   Z34       10.55262   0.00367   0.00000   0.01471   0.01541  10.56803
   X35      -12.67598   0.00160   0.00000   0.01309   0.01291 -12.66306
   Y35       -4.28484   0.00014   0.00000   0.01233   0.01724  -4.26759
   Z35       10.62508   0.00363   0.00000   0.01444   0.01391  10.63899
   X36      -10.04661   0.00085   0.00000   0.01134   0.01173 -10.03488
   Y36        1.04849  -0.00156   0.00000  -0.01256  -0.01194   1.03655
   Z36       23.35999  -0.00351   0.00000  -0.00853  -0.00740  23.35260
   X37       -7.65605  -0.00044   0.00000  -0.00754  -0.00923  -7.66528
   Y37       -6.65959   0.00117   0.00000   0.01171   0.01167  -6.64792
   Z37       23.43923  -0.00334   0.00000  -0.00945  -0.01032  23.42892
   X38        0.57230  -0.00471   0.00000   0.00535   0.00585   0.57816
   Y38       -0.00842  -0.00203   0.00000  -0.01096  -0.01157  -0.01999
   Z38       17.54136  -0.00174   0.00000  -0.00469  -0.00314  17.53822
   X39      -18.33305   0.00518   0.00000  -0.00379  -0.00484 -18.33789
   Y39       -5.74138   0.00177   0.00000   0.01477   0.01925  -5.72213
   Z39       17.62687  -0.00158   0.00000  -0.00196  -0.00329  17.62358
   X40      -12.00315   0.00245   0.00000   0.00727   0.00960 -11.99354
   Y40        6.47891  -0.00654   0.00000   0.00634   0.00946   6.48837
   Z40       16.38287   0.00034   0.00000   0.00079   0.00334  16.38621
   X41       -5.67067  -0.00145   0.00000   0.00031  -0.00243  -5.67310
   Y41      -12.25396   0.00517   0.00000   0.00424   0.00560 -12.24836
   Z41       16.53898   0.00112   0.00000  -0.00141  -0.00373  16.53525
   X42       -3.37866  -0.00220   0.00000  -0.01306  -0.01194  -3.39059
   Y42        1.43198  -0.00302   0.00000  -0.00499  -0.00356   1.42842
   Z42       14.12489   0.00135   0.00000   0.01299   0.01468  14.13958
   X43      -14.36567   0.00263   0.00000   0.01290   0.01165 -14.35402
   Y43       -7.33997   0.00283   0.00000   0.01588   0.02023  -7.31974
   Z43       14.25919   0.00102   0.00000   0.01045   0.00894  14.26813
   X44       -8.50588  -0.00038   0.00000   0.00814   0.00962  -8.49626
   Y44        4.16507  -0.00404   0.00000  -0.01597  -0.01474   4.15033
   Z44       19.71100  -0.00083   0.00000  -0.00658  -0.00446  19.70654
   X45       -9.21148   0.00113   0.00000  -0.00659  -0.00891  -9.22038
   Y45       -9.87485   0.00352   0.00000   0.01753   0.01891  -9.85594
   Z45       19.88814  -0.00107   0.00000  -0.00880  -0.01068  19.87747
   X46       -3.03378  -0.00279   0.00000  -0.00583  -0.00661  -3.04039
   Y46       -6.67932   0.00368   0.00000   0.01491   0.01743  -6.66189
   Z46        9.93613   0.00321   0.00000  -0.00747  -0.00804   9.92809
   X47      -14.79729   0.00337   0.00000   0.00042   0.00159 -14.79570
   Y47        0.51720  -0.00239   0.00000   0.00532   0.01105   0.52825
   Z47        9.79234   0.00340   0.00000  -0.00566  -0.00499   9.78735
   X48      -15.21235   0.00479   0.00000   0.00731   0.00729 -15.20505
   Y48       -0.31080  -0.00060   0.00000   0.00667   0.00848  -0.30232
   Z48       24.06718  -0.00364   0.00000   0.00885   0.00926  24.07644
   X49       -2.46968  -0.00443   0.00000  -0.00556  -0.00695  -2.47663
   Y49       -5.38844   0.00056   0.00000  -0.00454  -0.00617  -5.39461
   Z49       24.11217  -0.00343   0.00000   0.00533   0.00516  24.11733
   X50       -2.36986   0.01546   0.00000   0.00642   0.00671  -2.36315
   Y50       -0.98734   0.00516   0.00000   0.00234   0.00277  -0.98457
   Z50       16.69837   0.00342   0.00000   0.01301   0.01410  16.71247
   X51      -15.38559  -0.01586   0.00000  -0.00687  -0.00761 -15.39320
   Y51       -4.79134  -0.00432   0.00000   0.00566   0.00958  -4.78177
   Z51       16.76995   0.00368   0.00000   0.01493   0.01407  16.78402
   X52      -11.10200  -0.00635   0.00000   0.00027   0.00175 -11.10025
   Y52        3.50876   0.01715   0.00000   0.01483   0.01750   3.52626
   Z52       17.09557  -0.00371   0.00000  -0.01053  -0.00876  17.08681
   X53       -6.59630   0.00513   0.00000  -0.00358  -0.00557  -6.60187
   Y53       -9.27863  -0.01562   0.00000  -0.00439  -0.00299  -9.28163
   Z53       17.32142  -0.00308   0.00000  -0.01324  -0.01478  17.30664
   X54       -7.96621  -0.00073   0.00000  -0.00297  -0.00364  -7.96985
   Y54       -5.87092   0.00161   0.00000  -0.00421  -0.00080  -5.87172
   Z54       11.46725   0.00253   0.00000  -0.00705  -0.00773  11.45953
   X55       -9.74894   0.00081   0.00000  -0.00184  -0.00094  -9.74989
   Y55       -0.10531  -0.00177   0.00000   0.02443   0.02835  -0.07696
   Z55       11.35827   0.00236   0.00000  -0.00678  -0.00594  11.35233
   X56      -11.66662   0.00201   0.00000  -0.00978  -0.01063 -11.67725
   Y56       -3.77048  -0.00019   0.00000  -0.00376  -0.00246  -3.77295
   Z56       22.50436  -0.00231   0.00000   0.01132   0.01099  22.51534
   X57       -5.98950  -0.00188   0.00000   0.01049   0.01015  -5.97935
   Y57       -1.84616  -0.00086   0.00000   0.00408   0.00383  -1.84233
   Z57       22.54939  -0.00259   0.00000   0.00760   0.00820  22.55759
   X58       -8.23833   0.00032   0.00000  -0.00233  -0.00083  -8.23915
   Y58        2.98634  -0.00270   0.00000   0.01888   0.02143   3.00777
   Z58       14.80192   0.00130   0.00000  -0.00515  -0.00334  14.79858
   X59       -9.45841   0.00027   0.00000   0.00040  -0.00131  -9.45971
   Y59       -8.83998   0.00239   0.00000  -0.00571  -0.00288  -8.84286
   Z59       14.96803   0.00178   0.00000  -0.00747  -0.00908  14.95895
   X60       -4.40265  -0.00159   0.00000   0.01493   0.01563  -4.38702
   Y60        1.09044  -0.00200   0.00000   0.00064   0.00095   1.09139
   Z60       19.05253  -0.00182   0.00000   0.00806   0.00959  19.06212
   X61      -13.32912   0.00203   0.00000  -0.01393  -0.01538 -13.34449
   Y61       -6.82751   0.00147   0.00000   0.00289   0.00559  -6.82193
   Z61       19.14814  -0.00158   0.00000   0.00974   0.00844  19.15657
   X62       -4.85707  -0.00141   0.00000  -0.00495  -0.00625  -4.86333
   Y62       -7.37237   0.00227   0.00000  -0.00293  -0.00130  -7.37368
   Z62       14.86483   0.00103   0.00000  -0.01035  -0.01124  14.85359
   X63      -12.87614   0.00107   0.00000  -0.00067   0.00043 -12.87571
   Y63        1.49411  -0.00264   0.00000   0.01747   0.02128   1.51539
   Z63       14.74959   0.00049   0.00000  -0.01047  -0.00939  14.74020
   X64      -14.79637   0.00257   0.00000  -0.00567  -0.00588 -14.80225
   Y64       -2.22144  -0.00022   0.00000   0.00162   0.00470  -2.21674
   Z64       19.15949  -0.00100   0.00000   0.01412   0.01402  19.17350
   X65       -2.95999  -0.00246   0.00000   0.00589   0.00534  -2.95465
   Y65       -3.51512  -0.00042   0.00000   0.00217   0.00206  -3.51306
   Z65       19.15868  -0.00082   0.00000   0.01029   0.01062  19.16930
   X66       -6.35063  -0.02872   0.00000  -0.05424  -0.05417  -6.40480
   Y66       -2.17838  -0.00518   0.00000  -0.00219  -0.00024  -2.17862
   Z66       15.12459   0.01889   0.00000   0.03383   0.03431  15.15889
   X67      -11.38887   0.02940   0.00000   0.05123   0.05090 -11.33797
   Y67       -3.69558   0.00597   0.00000   0.01639   0.01966  -3.67592
   Z67       15.18121   0.01841   0.00000   0.03324   0.03296  15.21418
   X68       -9.67311   0.01221   0.00000   0.02429   0.02459  -9.64852
   Y68       -0.38259  -0.02779   0.00000  -0.04427  -0.04246  -0.42506
   Z68       18.79535  -0.01865   0.00000  -0.02948  -0.02872  18.76662
   X69       -8.00815  -0.01227   0.00000  -0.02613  -0.02715  -8.03530
   Y69       -5.36707   0.02621   0.00000   0.04720   0.04856  -5.31851
   Z69       18.84907  -0.01876   0.00000  -0.02964  -0.03016  18.81891
   X70       -6.07295   0.00013   0.00000  -0.00316  -0.00532  -6.07827
   Y70      -11.59917  -0.00072   0.00000  -0.00289   0.00024 -11.59893
   Z70       10.66700  -0.00050   0.00000  -0.01065  -0.01280  10.65420
   X71       -0.20305   0.00046   0.00000   0.01148   0.01162  -0.19143
   Y71        0.10797   0.00003   0.00000  -0.00037  -0.00241   0.10556
   Z71       23.33806   0.00029   0.00000   0.00724   0.00878  23.34684
   X72      -17.55669  -0.00061   0.00000  -0.01072  -0.01207 -17.56877
   Y72       -5.40002  -0.00007   0.00000   0.00314   0.00574  -5.39428
   Z72       23.50310   0.00031   0.00000   0.01046   0.00927  23.51237
   X73       -8.86009  -0.00039   0.00000  -0.00164  -0.00188  -8.86197
   Y73       -2.89789   0.00018   0.00000   0.00390   0.00599  -2.89190
   Z73       16.98288   0.00048   0.00000   0.00297   0.00308  16.98596
         Item               Value     Threshold  Converged?
 Maximum Force            0.029400     0.000450     NO 
 RMS     Force            0.006607     0.000300     NO 
 Maximum Displacement     0.105925     0.001800     NO 
 RMS     Displacement     0.020167     0.001200     NO 
 Predicted change in Energy=-6.738097D-03
 GradGradGradGradGradGradGradGradGradGradGradGradGradGradGradGradGradGrad

 Unable to Open any file for archive entry.
 1\1\GINC-X11P1N2\Force\RwB97XD\def2SVP\C8H8Cl1K3O40V1W12(1-)\MAYUMIAO\
 02-Jun-2024\0\\# def2svp wb97xd scrf=(smd,solvent=acetonitrile) g09def
 ault scf=(xqc,maxcycle=64) force guess=read nosymm\\Title Card\\-1,1\C
 l,-9.76841977,8.25472951,10.55629636\C,-8.33130636,4.23693653,12.22099
 53\C,-9.12267702,3.92430465,11.10034707\C,-10.03557329,2.85806679,11.2
 1064112\C,-10.20223407,2.17712681,12.41231957\C,-9.44688914,2.53574403
 ,13.52979683\C,-8.49451072,3.55155088,13.4210945\H,-7.57311684,5.02010
 87,12.15213391\H,-10.62092888,2.56509738,10.33450356\H,-10.91799242,1.
 35403859,12.47702998\H,-9.58341976,2.00974757,14.47736999\H,-7.8705687
 ,3.80879563,14.28064392\C,-9.03902712,4.66104715,9.83751066\C,-8.32620
 865,5.78135187,9.59740408\H,-9.6357761,4.24329933,9.01888929\H,-8.2992
 5062,6.20486372,8.59121537\H,-7.68548638,6.25540941,10.34206402\O,-0.9
 8182786,-1.78837084,7.4658514\O,-8.40322543,-1.33442494,7.46083483\O,-
 7.03121797,1.34797308,10.47354006\O,-2.33360331,-4.38546182,10.5535278
 5\W,-3.40939144,0.69306996,6.47424897\W,-5.99494383,-3.81807529,6.5629
 0943\W,-3.6179659,0.87949734,11.42234295\W,-5.76463997,-3.8586287,11.4
 7763417\W,-2.4366041,-2.58690586,6.40027211\W,-6.94503116,-0.53353094,
 6.37178256\W,-6.82464222,-0.24741261,11.56198483\W,-2.54680103,-2.7239
 1769,11.60427385\O,-3.17100972,1.87864469,5.29667416\O,-6.1309948,-5.0
 6896746,5.42139778\O,-2.69868263,1.72656368,12.57420077\O,-6.67738582,
 -4.66308576,12.66307171\O,-2.66099144,-0.90892534,5.58420567\O,-6.7078
 3798,-2.26743779,5.62255223\O,-5.31643546,0.55483896,12.36157593\O,-4.
 05140661,-3.52410306,12.40350806\O,0.30284956,-0.00445686,9.28248803\O
 ,-9.7014338,-3.03820803,9.32773663\O,-6.35179224,3.428494,8.6694409\O,
 -3.00078862,-6.48451674,8.7520493\O,-1.78790744,0.75777026,7.47457152\
 O,-7.60198574,-3.88414457,7.54563619\O,-4.50111778,2.20405867,10.43061
 15\O,-4.87450495,-5.22554395,10.52435226\O,-1.60540605,-3.53454284,5.2
 5797229\O,-7.83038689,0.27369173,5.18188461\O,-8.05002685,-0.16446786,
 12.73580356\O,-1.3068979,-2.85144085,12.75961164\W,-1.25407404,-0.5224
 7719,8.83639658\W,-8.141702,-2.53546842,8.87427516\W,-5.87492736,1.856
 75493,9.04658804\W,-3.49061156,-4.91004139,9.16610253\O,-4.21553427,-3
 .10675763,6.0682082\O,-5.15891754,-0.05573022,6.01053652\O,-6.17371119
 ,-1.99525378,11.90879178\O,-3.1695087,-0.97694534,11.93262161\O,-4.359
 53519,1.5803048,7.83283788\O,-5.00517364,-4.67791564,7.92074151\O,-2.3
 297818,0.57703824,10.08216356\O,-7.05346388,-3.61296349,10.13275753\O,
 -2.57025204,-3.90129202,7.8661311\O,-6.8137608,0.79064892,7.80514749\O
 ,-7.82990166,-1.17553707,10.13876365\O,-1.56635972,-1.86012146,10.1383
 3893\O,-3.36060723,-1.1527465,8.00358609\O,-6.02673167,-1.95561842,8.0
 335523\O,-5.11879112,-0.20245871,9.94607009\O,-4.23773251,-2.84013292,
 9.97449775\K,-3.21366778,-6.1380161,5.64473569\K,-0.10744902,0.0571357
 4,12.34997174\K,-9.29060238,-2.85756872,12.43730536\V,-4.68855784,-1.5
 3349778,8.98695365\\Version=ES64L-G16RevC.01\HF=-7327.7014201\RMSD=2.9
 08e-09\RMSF=6.607e-03\Dipole=10.3269145,-22.1278389,2.503307\Quadrupol
 e=-75.4770495,45.0114793,30.4655702,340.0028606,340.2973838,-359.63183
 05\PG=C01 [X(C8H8Cl1K3O40V1W12)]\\@
 The archive entry for this job was punched.


 IT IS BETTER TO THINK YOU ARE HALF DRY THAN TO KNOW YOU
 ARE ALL WET.  -- SNOOPY
 Job cpu time:       0 days  9 hours 32 minutes 51.1 seconds.
 Elapsed time:       0 days  0 hours 10 minutes 51.5 seconds.
 File lengths (MBytes):  RWF=   1255 Int=      0 D2E=      0 Chk=    249 Scr=      1
 Normal termination of Gaussian 16 at Sun Jun  2 11:17:49 2024.
