 Entering Gaussian System, Link 0=g16
 Input=JOBS/3_A.gjf
 Output=JOBS/3_A.log
 Initial command:
 /data/app/gaussian/C01-avx2//g16/l1.exe "/tmp/Gau-580410.inp" -scrdir="/tmp/"
 Entering Link 1 = /data/app/gaussian/C01-avx2//g16/l1.exe PID=    580411.
  
 Copyright (c) 1988-2019, Gaussian, Inc.  All Rights Reserved.
  
 This is part of the Gaussian(R) 16 program.  It is based on
 the Gaussian(R) 09 system (copyright 2009, Gaussian, Inc.),
 the Gaussian(R) 03 system (copyright 2003, Gaussian, Inc.),
 the Gaussian(R) 98 system (copyright 1998, Gaussian, Inc.),
 the Gaussian(R) 94 system (copyright 1995, Gaussian, Inc.),
 the Gaussian 92(TM) system (copyright 1992, Gaussian, Inc.),
 the Gaussian 90(TM) system (copyright 1990, Gaussian, Inc.),
 the Gaussian 88(TM) system (copyright 1988, Gaussian, Inc.),
 the Gaussian 86(TM) system (copyright 1986, Carnegie Mellon
 University), and the Gaussian 82(TM) system (copyright 1983,
 Carnegie Mellon University). Gaussian is a federally registered
 trademark of Gaussian, Inc.
  
 This software contains proprietary and confidential information,
 including trade secrets, belonging to Gaussian, Inc.
  
 This software is provided under written license and may be
 used, copied, transmitted, or stored only in accord with that
 written license.
  
 The following legend is applicable only to US Government
 contracts under FAR:
  
                    RESTRICTED RIGHTS LEGEND
  
 Use, reproduction and disclosure by the US Government is
 subject to restrictions as set forth in subparagraphs (a)
 and (c) of the Commercial Computer Software - Restricted
 Rights clause in FAR 52.227-19.
  
 Gaussian, Inc.
 340 Quinnipiac St., Bldg. 40, Wallingford CT 06492
  
  
 ---------------------------------------------------------------
 Warning -- This program may not be used in any manner that
 competes with the business of Gaussian, Inc. or will provide
 assistance to any competitor of Gaussian, Inc.  The licensee
 of this program is prohibited from giving any competitor of
 Gaussian, Inc. access to this program.  By using this program,
 the user acknowledges that Gaussian, Inc. is engaged in the
 business of creating and licensing software in the field of
 computational chemistry and represents and warrants to the
 licensee that it is not a competitor of Gaussian, Inc. and that
 it will not use this program in any manner prohibited above.
 ---------------------------------------------------------------
  

 Cite this work as:
 Gaussian 16, Revision C.01,
 M. J. Frisch, G. W. Trucks, H. B. Schlegel, G. E. Scuseria, 
 M. A. Robb, J. R. Cheeseman, G. Scalmani, V. Barone, 
 G. A. Petersson, H. Nakatsuji, X. Li, M. Caricato, A. V. Marenich, 
 J. Bloino, B. G. Janesko, R. Gomperts, B. Mennucci, H. P. Hratchian, 
 J. V. Ortiz, A. F. Izmaylov, J. L. Sonnenberg, D. Williams-Young, 
 F. Ding, F. Lipparini, F. Egidi, J. Goings, B. Peng, A. Petrone, 
 T. Henderson, D. Ranasinghe, V. G. Zakrzewski, J. Gao, N. Rega, 
 G. Zheng, W. Liang, M. Hada, M. Ehara, K. Toyota, R. Fukuda, 
 J. Hasegawa, M. Ishida, T. Nakajima, Y. Honda, O. Kitao, H. Nakai, 
 T. Vreven, K. Throssell, J. A. Montgomery, Jr., J. E. Peralta, 
 F. Ogliaro, M. J. Bearpark, J. J. Heyd, E. N. Brothers, K. N. Kudin, 
 V. N. Staroverov, T. A. Keith, R. Kobayashi, J. Normand, 
 K. Raghavachari, A. P. Rendell, J. C. Burant, S. S. Iyengar, 
 J. Tomasi, M. Cossi, J. M. Millam, M. Klene, C. Adamo, R. Cammi, 
 J. W. Ochterski, R. L. Martin, K. Morokuma, O. Farkas, 
 J. B. Foresman, and D. J. Fox, Gaussian, Inc., Wallingford CT, 2019.
 
 ******************************************
 Gaussian 16:  ES64L-G16RevC.01  3-Jul-2019
                 1-Jun-2024 
 ******************************************
 %chk=a.chk
 %nprocshared=56
 Will use up to   56 processors via shared memory.
 %mem=96gb
 ----------------------------------------------------------------------
 # def2svp wb97xd scrf=(smd,solvent=acetonitrile) g09default scf=(xqc,m
 axcycle=64) force guess=read nosymm
 ----------------------------------------------------------------------
 1/10=7,30=1,38=1,158=3,167=1/1,3;
 2/12=2,15=1,17=6,18=5,40=1/2;
 3/5=43,7=101,11=2,25=1,27=10,30=1,70=32201,71=1,72=2,74=-58,75=-4,116=-2,158=3/1,2,3;
 4/5=1,60=-1/1;
 5/5=2,7=64,8=3,13=1,38=6,53=2,87=10/2,8;
 6/7=2,8=2,9=2,10=2,28=1,87=10/1;
 7/29=1,30=1,87=10/1,2,3,16;
 1/10=7,30=1,158=3,167=1/3;
 99//99;
 Using 2006 physical constants.
 ----------
 Title Card
 ----------
 Symbolic Z-matrix:
 Charge = -1 Multiplicity = 1
 17                   -9.84389   7.5124    10.36382 
 6                    -8.30795   4.25598   12.24151 
 6                    -9.07741   3.94088   11.10279 
 6                    -10.01012   2.88975   11.19379 
 6                    -10.18491   2.19045   12.37898 
 6                    -9.42471   2.52415   13.50385 
 6                    -8.48275   3.55258   13.42588 
 1                    -7.57167   5.0614    12.1988 
 1                    -10.5998   2.6283    10.30919 
 1                    -10.91257   1.378     12.43354 
 1                    -9.55904   1.97552   14.43601 
 1                    -7.88254   3.80855   14.30332 
 6                    -8.94174   4.6566    9.84528 
 6                    -8.12021   5.70185   9.59806 
 1                    -9.61058   4.32123   9.04224 
 1                    -8.04313   6.11714   8.58794 
 1                    -7.36119   6.04149   10.3133 
 8                    -0.97626  -1.76383   7.44368 
 8                    -8.44467  -1.32341   7.4512 
 8                    -7.08525   1.36407   10.50608 
 8                    -2.31426  -4.37349   10.57771 
 74                   -3.42002   0.74778   6.52369 
 74                   -6.02495  -3.82523   6.60288 
 74                   -3.64401   0.92952   11.38454 
 74                   -5.768    -3.87598   11.45589 
 74                   -2.47561  -2.53279   6.37478 
 74                   -6.94488  -0.54631   6.35005 
 74                   -6.81709  -0.24886   11.60095 
 74                   -2.58583  -2.69408   11.63083 
 8                    -3.21003   1.93403   5.36241 
 8                    -6.13393  -5.07303   5.47243 
 8                    -2.71482   1.75635   12.52656 
 8                    -6.6893   -4.66696   12.62767 
 8                    -2.68316  -0.8592    5.57618 
 8                    -6.73     -2.27808   5.61601 
 8                    -5.32909   0.58469   12.37976 
 8                    -4.06579  -3.52507   12.42734 
 8                     0.28178  -0.00609   9.28256 
 8                    -9.70287  -3.01291   9.34456 
 8                    -6.45077   3.40409   8.67293 
 8                    -2.97351  -6.43518   8.73947 
 8                    -1.79183   0.79291   7.48314 
 8                    -7.63615  -3.88338   7.55514 
 8                    -4.54892   2.24842   10.43269 
 8                    -4.8597   -5.2335    10.5305 
 8                    -1.65638  -3.47359   5.23469 
 8                    -7.81004   0.25806   5.16513 
 8                    -8.02819  -0.18186   12.77416 
 8                    -1.35164  -2.78973   12.77916 
 74                   -1.25783  -0.53674   8.83098 
 74                   -8.16564  -2.49083   8.8755 
 74                   -5.96872   1.85412   9.06265 
 74                   -3.44992  -4.87468   9.17514 
 8                    -4.24299  -3.07141   6.08895 
 8                    -5.17031  -0.05338   6.03788 
 8                    -6.16594  -1.9899    11.90623 
 8                    -3.21604  -0.95852   11.91266 
 8                    -4.39901   1.58888   7.86834 
 8                    -5.01255  -4.64715   7.95026 
 8                    -2.36728   0.58994   10.06052 
 8                    -7.04529  -3.59583   10.12135 
 8                    -2.57118  -3.86109   7.87104 
 8                    -6.86014   0.786     7.81262 
 8                    -7.84575  -1.15956   10.15201 
 8                    -1.57589  -1.84458   10.14279 
 8                    -3.35793  -1.13813   8.01566 
 8                    -6.06261  -1.93385   8.04027 
 8                    -5.1704   -0.17593   9.94817 
 8                    -4.22622  -2.83279   9.98346 
 19                   -3.24714  -6.06834   5.70299 
 19                   -0.19907   0.01688   12.31254 
 19                   -9.21558  -2.91838   12.36579 
 23                   -4.70596  -1.51678   8.995 
 

 GradGradGradGradGradGradGradGradGradGradGradGradGradGradGradGradGradGrad
 Berny optimization.
 Initialization pass.
 Trust Radius=3.00D-01 FncErr=1.00D-07 GrdErr=1.00D-07 EigMax=2.50D+02 EigMin=1.00D-04
 Number of steps in this run=      2 maximum allowed number of steps=      2.
 GradGradGradGradGradGradGradGradGradGradGradGradGradGradGradGradGradGrad

 Symmetry turned off by external request.
 Stoichiometry    C8H8ClK3O40VW12(1-)
 Framework group  C1[X(C8H8ClK3O40VW12)]
 Deg. of freedom   213
 Full point group                 C1      NOp   1
                          Input orientation:                          
 ---------------------------------------------------------------------
 Center     Atomic      Atomic             Coordinates (Angstroms)
 Number     Number       Type             X           Y           Z
 ---------------------------------------------------------------------
      1         17           0       -9.843895    7.512402   10.363825
      2          6           0       -8.307954    4.255984   12.241514
      3          6           0       -9.077413    3.940877   11.102791
      4          6           0      -10.010124    2.889753   11.193786
      5          6           0      -10.184909    2.190451   12.378977
      6          6           0       -9.424709    2.524154   13.503853
      7          6           0       -8.482749    3.552585   13.425883
      8          1           0       -7.571671    5.061397   12.198796
      9          1           0      -10.599795    2.628297   10.309191
     10          1           0      -10.912572    1.377998   12.433543
     11          1           0       -9.559038    1.975519   14.436008
     12          1           0       -7.882544    3.808545   14.303322
     13          6           0       -8.941742    4.656598    9.845277
     14          6           0       -8.120209    5.701853    9.598059
     15          1           0       -9.610581    4.321232    9.042245
     16          1           0       -8.043127    6.117144    8.587943
     17          1           0       -7.361192    6.041486   10.313302
     18          8           0       -0.976255   -1.763829    7.443683
     19          8           0       -8.444666   -1.323411    7.451203
     20          8           0       -7.085252    1.364073   10.506083
     21          8           0       -2.314263   -4.373491   10.577705
     22         74           0       -3.420018    0.747783    6.523695
     23         74           0       -6.024952   -3.825230    6.602877
     24         74           0       -3.644013    0.929516   11.384537
     25         74           0       -5.768005   -3.875979   11.455887
     26         74           0       -2.475612   -2.532787    6.374777
     27         74           0       -6.944883   -0.546308    6.350054
     28         74           0       -6.817087   -0.248855   11.600946
     29         74           0       -2.585829   -2.694075   11.630834
     30          8           0       -3.210028    1.934030    5.362407
     31          8           0       -6.133931   -5.073027    5.472431
     32          8           0       -2.714824    1.756353   12.526563
     33          8           0       -6.689304   -4.666962   12.627666
     34          8           0       -2.683164   -0.859203    5.576178
     35          8           0       -6.730001   -2.278081    5.616013
     36          8           0       -5.329091    0.584692   12.379759
     37          8           0       -4.065790   -3.525065   12.427340
     38          8           0        0.281776   -0.006088    9.282562
     39          8           0       -9.702867   -3.012912    9.344555
     40          8           0       -6.450765    3.404085    8.672928
     41          8           0       -2.973506   -6.435182    8.739467
     42          8           0       -1.791828    0.792911    7.483138
     43          8           0       -7.636151   -3.883382    7.555136
     44          8           0       -4.548922    2.248415   10.432690
     45          8           0       -4.859703   -5.233496   10.530505
     46          8           0       -1.656376   -3.473594    5.234692
     47          8           0       -7.810043    0.258060    5.165132
     48          8           0       -8.028193   -0.181860   12.774159
     49          8           0       -1.351642   -2.789729   12.779155
     50         74           0       -1.257832   -0.536743    8.830984
     51         74           0       -8.165635   -2.490835    8.875503
     52         74           0       -5.968721    1.854117    9.062647
     53         74           0       -3.449921   -4.874680    9.175144
     54          8           0       -4.242987   -3.071414    6.088952
     55          8           0       -5.170309   -0.053385    6.037883
     56          8           0       -6.165945   -1.989898   11.906231
     57          8           0       -3.216041   -0.958519   11.912661
     58          8           0       -4.399010    1.588882    7.868337
     59          8           0       -5.012547   -4.647146    7.950258
     60          8           0       -2.367278    0.589937   10.060518
     61          8           0       -7.045286   -3.595826   10.121348
     62          8           0       -2.571176   -3.861093    7.871038
     63          8           0       -6.860137    0.785998    7.812625
     64          8           0       -7.845747   -1.159559   10.152008
     65          8           0       -1.575888   -1.844576   10.142786
     66          8           0       -3.357932   -1.138134    8.015659
     67          8           0       -6.062605   -1.933850    8.040274
     68          8           0       -5.170400   -0.175926    9.948173
     69          8           0       -4.226217   -2.832787    9.983457
     70         19           0       -3.247141   -6.068344    5.702985
     71         19           0       -0.199066    0.016878   12.312544
     72         19           0       -9.215583   -2.918378   12.365789
     73         23           0       -4.705961   -1.516776    8.995004
 ---------------------------------------------------------------------
 Rotational constants (GHZ):           0.0173030           0.0134429           0.0132242
 Standard basis: def2SVP (5D, 7F)
  1217 basis functions,  2313 primitive gaussians,  1337 cartesian basis functions
   321 alpha electrons      321 beta electrons
       nuclear repulsion energy     21073.4666941945 Hartrees.
 NAtoms=   73 NActive=   73 NUniq=   73 SFac= 1.00D+00 NAtFMM=   60 NAOKFM=T Big=T
 Integral buffers will be    131072 words long.
 Raffenetti 2 integral format.
 Two-electron integral symmetry is turned off.
 Nuclear repulsion after empirical dispersion term =    21073.1885526114 Hartrees.
 Force PCM accuracy= 1.00D-10.
 ------------------------------------------------------------------------------
 Polarizable Continuum Model (PCM)
 =================================
 Model                : PCM (using non-symmetric T matrix).
 Atomic radii         : SMD-Coulomb.
 Polarization charges : Total charges.
 Charge compensation  : None.
 Solution method      : On-the-fly selection.
 Cavity type          : VdW (van der Waals Surface) (Alpha=1.000).
 Cavity algorithm     : GePol (No added spheres)
                        Default sphere list used, NSphG=   73.
                        Lebedev-Laikov grids with approx.  5.0 points / Ang**2.
                        Smoothing algorithm: York/Karplus (Gamma=1.0000).
                        Polarization charges: spherical gaussians, with
                                              point-specific exponents (IZeta= 3).
                        Self-potential: point-specific (ISelfS= 7).
                        Self-field    : sphere-specific E.n sum rule (ISelfD= 2).
 1st derivatives      : Analytical E(r).r(x)/FMM algorithm (CHGder, D1EAlg=3).
                        Cavity 1st derivative terms included.
 Solvent              : Acetonitrile, Eps=  35.688000 Eps(inf)=   1.806874
 ------------------------------------------------------------------------------
 ------------------------------------------------------------------------------
 Atomic radii for non-electrostatic terms: SMD-CDS.
 ------------------------------------------------------------------------------
 Nuclear repulsion after PCM non-electrostatic terms =    21073.1828176376 Hartrees.
 One-electron integrals computed using PRISM.
   1 Symmetry operations used in ECPInt.
 ECPInt:  NShTT=  127765 NPrTT=  468030 LenC2=   96954 LenP2D=  222025.
 LDataN:  DoStor=T MaxTD1= 8 Len=  415
 NBasis=  1217 RedAO= T EigKep=  1.35D-04  NBF=  1217
 NBsUse=  1217 1.00D-06 EigRej= -1.00D+00 NBFU=  1217
 Defaulting to unpruned grid for atomic number  74.
 Defaulting to unpruned grid for atomic number  74.
 Defaulting to unpruned grid for atomic number  74.
 Defaulting to unpruned grid for atomic number  74.
 Defaulting to unpruned grid for atomic number  74.
 Defaulting to unpruned grid for atomic number  74.
 Defaulting to unpruned grid for atomic number  74.
 Defaulting to unpruned grid for atomic number  74.
 Initial guess from the checkpoint file:  "a.chk"
 B after Tr=    -0.000278    0.000858    0.000101
         Rot=    1.000000   -0.000008    0.000003    0.000022 Ang=  -0.00 deg.
 Requested convergence on RMS density matrix=1.00D-08 within  64 cycles.
 Requested convergence on MAX density matrix=1.00D-06.
 Requested convergence on             energy=1.00D-06.
 No special actions if energy rises.
 Defaulting to unpruned grid for atomic number  74.
 Defaulting to unpruned grid for atomic number  74.
 Defaulting to unpruned grid for atomic number  74.
 Defaulting to unpruned grid for atomic number  74.
 Defaulting to unpruned grid for atomic number  74.
 Defaulting to unpruned grid for atomic number  74.
 Defaulting to unpruned grid for atomic number  74.
 Defaulting to unpruned grid for atomic number  74.
 Defaulting to unpruned grid for atomic number  74.
 Defaulting to unpruned grid for atomic number  74.
 Defaulting to unpruned grid for atomic number  74.
 Defaulting to unpruned grid for atomic number  74.
 Defaulting to unpruned grid for atomic number  74.
 Defaulting to unpruned grid for atomic number  74.
 Defaulting to unpruned grid for atomic number  74.
 Defaulting to unpruned grid for atomic number  74.
 Defaulting to unpruned grid for atomic number  74.
 Defaulting to unpruned grid for atomic number  74.
 Defaulting to unpruned grid for atomic number  74.
 Defaulting to unpruned grid for atomic number  74.
 Defaulting to unpruned grid for atomic number  74.
 Defaulting to unpruned grid for atomic number  74.
 Defaulting to unpruned grid for atomic number  74.
 Defaulting to unpruned grid for atomic number  74.
 Defaulting to unpruned grid for atomic number  74.
 Defaulting to unpruned grid for atomic number  74.
 Defaulting to unpruned grid for atomic number  74.
 Defaulting to unpruned grid for atomic number  74.
 Defaulting to unpruned grid for atomic number  74.
 Defaulting to unpruned grid for atomic number  74.
 Defaulting to unpruned grid for atomic number  74.
 Defaulting to unpruned grid for atomic number  74.
 Defaulting to unpruned grid for atomic number  74.
 Defaulting to unpruned grid for atomic number  74.
 Defaulting to unpruned grid for atomic number  74.
 Defaulting to unpruned grid for atomic number  74.
 Defaulting to unpruned grid for atomic number  74.
 Defaulting to unpruned grid for atomic number  74.
 Defaulting to unpruned grid for atomic number  74.
 Defaulting to unpruned grid for atomic number  74.
 Defaulting to unpruned grid for atomic number  74.
 Defaulting to unpruned grid for atomic number  74.
 Defaulting to unpruned grid for atomic number  74.
 Defaulting to unpruned grid for atomic number  74.
 Defaulting to unpruned grid for atomic number  74.
 Defaulting to unpruned grid for atomic number  74.
 Defaulting to unpruned grid for atomic number  74.
 Defaulting to unpruned grid for atomic number  74.
 Defaulting to unpruned grid for atomic number  74.
 Defaulting to unpruned grid for atomic number  74.
 Defaulting to unpruned grid for atomic number  74.
 Defaulting to unpruned grid for atomic number  74.
 Defaulting to unpruned grid for atomic number  74.
 Defaulting to unpruned grid for atomic number  74.
 Defaulting to unpruned grid for atomic number  74.
 Defaulting to unpruned grid for atomic number  74.
 Inv3:  Mode=1 IEnd=    83698572.
 Iteration    1 A*A^-1 deviation from unit magnitude is 4.00D-15 for   4219.
 Iteration    1 A*A^-1 deviation from orthogonality  is 3.71D-15 for   3422   3148.
 Iteration    1 A^-1*A deviation from unit magnitude is 3.89D-15 for   4937.
 Iteration    1 A^-1*A deviation from orthogonality  is 1.30D-12 for   3674    790.
 Error on total polarization charges =  0.01640
 SCF Done:  E(RwB97XD) =  -7327.67541917     A.U. after   19 cycles
            NFock= 19  Conv=0.32D-09     -V/T= 2.0831
 SMD-CDS (non-electrostatic) energy       (kcal/mol) =      -3.60
 (included in total energy above)
 QCSCF skips out because SCF is already converged.

 **********************************************************************

            Population analysis using the SCF Density.

 **********************************************************************

 Alpha  occ. eigenvalues -- -197.30874-129.99965-129.99930-129.99825-101.48586
 Alpha  occ. eigenvalues --  -22.63834 -19.34023 -19.34014 -19.34003 -19.33967
 Alpha  occ. eigenvalues --  -19.30844 -19.30810 -19.30799 -19.30781 -19.30741
 Alpha  occ. eigenvalues --  -19.30724 -19.30722 -19.30674 -19.30533 -19.30458
 Alpha  occ. eigenvalues --  -19.30418 -19.30051 -19.29270 -19.29263 -19.29226
 Alpha  occ. eigenvalues --  -19.29201 -19.29189 -19.29185 -19.29182 -19.29165
 Alpha  occ. eigenvalues --  -19.29164 -19.29150 -19.29147 -19.29082 -19.29068
 Alpha  occ. eigenvalues --  -19.29067 -19.29035 -19.29033 -19.29031 -19.28955
 Alpha  occ. eigenvalues --  -19.28926 -19.28897 -19.28849 -19.28811 -19.28773
 Alpha  occ. eigenvalues --  -19.28627 -19.12816 -19.12806 -19.12786 -13.37359
 Alpha  occ. eigenvalues --  -13.37323 -13.37206 -10.70289 -10.70282 -10.70282
 Alpha  occ. eigenvalues --  -10.70254 -10.70246 -10.70246 -10.70139 -10.70131
 Alpha  occ. eigenvalues --  -10.70129 -10.29083 -10.28900 -10.28846 -10.28392
 Alpha  occ. eigenvalues --  -10.28260 -10.28239 -10.28020 -10.25547  -9.39111
 Alpha  occ. eigenvalues --   -7.13972  -7.13862  -7.13849  -3.23231  -3.23208
 Alpha  occ. eigenvalues --   -3.23191  -3.23173  -3.23172  -3.23167  -3.23108
 Alpha  occ. eigenvalues --   -3.23073  -3.23008  -3.22801  -3.22769  -3.22387
 Alpha  occ. eigenvalues --   -2.92636  -1.94902  -1.94848  -1.94842  -1.87826
 Alpha  occ. eigenvalues --   -1.87729  -1.87720  -1.87612  -1.87582  -1.87569
 Alpha  occ. eigenvalues --   -1.87520  -1.87501  -1.87402  -1.87342  -1.87317
 Alpha  occ. eigenvalues --   -1.86974  -1.86513  -1.86395  -1.86385  -1.86357
 Alpha  occ. eigenvalues --   -1.86332  -1.86274  -1.86216  -1.86188  -1.86166
 Alpha  occ. eigenvalues --   -1.86158  -1.86099  -1.86084  -1.86031  -1.85990
 Alpha  occ. eigenvalues --   -1.85978  -1.85944  -1.85919  -1.85830  -1.85803
 Alpha  occ. eigenvalues --   -1.85722  -1.85692  -1.85610  -1.85379  -1.85281
 Alpha  occ. eigenvalues --   -1.51065  -1.51031  -1.50917  -1.13238  -1.11557
 Alpha  occ. eigenvalues --   -1.11445  -1.11417  -1.08890  -1.08393  -1.08313
 Alpha  occ. eigenvalues --   -1.08057  -1.07492  -1.07404  -1.07380  -1.06716
 Alpha  occ. eigenvalues --   -1.06690  -1.06648  -1.06101  -1.06051  -1.05290
 Alpha  occ. eigenvalues --   -1.05270  -1.04850  -1.04826  -1.04812  -1.04311
 Alpha  occ. eigenvalues --   -1.04296  -1.04263  -1.04158  -1.04132  -1.04044
 Alpha  occ. eigenvalues --   -1.03953  -1.03908  -1.03894  -1.03876  -1.03801
 Alpha  occ. eigenvalues --   -1.03732  -1.03487  -1.03467  -1.03433  -1.03104
 Alpha  occ. eigenvalues --   -1.03008  -1.02923  -1.02846  -0.93764  -0.86556
 Alpha  occ. eigenvalues --   -0.86524  -0.86419  -0.86352  -0.86348  -0.86318
 Alpha  occ. eigenvalues --   -0.86312  -0.86209  -0.86195  -0.85667  -0.82379
 Alpha  occ. eigenvalues --   -0.79011  -0.71881  -0.69153  -0.67450  -0.64284
 Alpha  occ. eigenvalues --   -0.63713  -0.63633  -0.63613  -0.63467  -0.63417
 Alpha  occ. eigenvalues --   -0.63189  -0.62816  -0.62643  -0.62391  -0.62149
 Alpha  occ. eigenvalues --   -0.61647  -0.61622  -0.61511  -0.60986  -0.60972
 Alpha  occ. eigenvalues --   -0.60879  -0.60259  -0.59361  -0.59343  -0.59318
 Alpha  occ. eigenvalues --   -0.59276  -0.59195  -0.58037  -0.57885  -0.57850
 Alpha  occ. eigenvalues --   -0.57742  -0.57350  -0.57273  -0.57207  -0.56317
 Alpha  occ. eigenvalues --   -0.56286  -0.56123  -0.55764  -0.54977  -0.54927
 Alpha  occ. eigenvalues --   -0.54870  -0.54326  -0.54225  -0.54166  -0.54097
 Alpha  occ. eigenvalues --   -0.54066  -0.53899  -0.53251  -0.53194  -0.53063
 Alpha  occ. eigenvalues --   -0.53043  -0.52870  -0.52662  -0.52621  -0.52564
 Alpha  occ. eigenvalues --   -0.52499  -0.52411  -0.52344  -0.51938  -0.51723
 Alpha  occ. eigenvalues --   -0.51691  -0.51509  -0.51489  -0.51449  -0.51429
 Alpha  occ. eigenvalues --   -0.51377  -0.51300  -0.50966  -0.50792  -0.50779
 Alpha  occ. eigenvalues --   -0.50710  -0.50346  -0.49926  -0.49875  -0.49391
 Alpha  occ. eigenvalues --   -0.49327  -0.49304  -0.49184  -0.49067  -0.48968
 Alpha  occ. eigenvalues --   -0.48869  -0.48314  -0.48176  -0.48020  -0.47368
 Alpha  occ. eigenvalues --   -0.47321  -0.47244  -0.47001  -0.46952  -0.46803
 Alpha  occ. eigenvalues --   -0.46795  -0.46492  -0.46422  -0.46319  -0.46255
 Alpha  occ. eigenvalues --   -0.46195  -0.46172  -0.45179  -0.45088  -0.44909
 Alpha  occ. eigenvalues --   -0.44823  -0.44154  -0.44100  -0.43944  -0.43330
 Alpha  occ. eigenvalues --   -0.43268  -0.43165  -0.43125  -0.43060  -0.42898
 Alpha  occ. eigenvalues --   -0.42766  -0.42724  -0.42703  -0.42623  -0.42600
 Alpha  occ. eigenvalues --   -0.42562  -0.42505  -0.42452  -0.42343  -0.42294
 Alpha  occ. eigenvalues --   -0.42265  -0.42096  -0.42044  -0.41906  -0.41874
 Alpha  occ. eigenvalues --   -0.41166  -0.41153  -0.41002  -0.40660  -0.40461
 Alpha  occ. eigenvalues --   -0.40421  -0.40406  -0.39669  -0.39348  -0.39308
 Alpha  occ. eigenvalues --   -0.36456  -0.32202  -0.29485  -0.25468  -0.25340
 Alpha  occ. eigenvalues --   -0.21258
 Alpha virt. eigenvalues --   -0.10578  -0.10159  -0.08164  -0.08021  -0.06725
 Alpha virt. eigenvalues --   -0.06684  -0.06556  -0.05759  -0.04994  -0.04941
 Alpha virt. eigenvalues --   -0.03589  -0.03425  -0.03385  -0.03005  -0.02881
 Alpha virt. eigenvalues --   -0.02822  -0.02778  -0.02000  -0.01938  -0.01900
 Alpha virt. eigenvalues --   -0.01248  -0.01205  -0.01109  -0.01066  -0.00948
 Alpha virt. eigenvalues --    0.00002   0.00028   0.00107   0.01449   0.01518
 Alpha virt. eigenvalues --    0.01888   0.01921   0.02028   0.02134   0.02229
 Alpha virt. eigenvalues --    0.02242   0.02282   0.02351   0.02795   0.02923
 Alpha virt. eigenvalues --    0.02992   0.03051   0.03123   0.04628   0.05128
 Alpha virt. eigenvalues --    0.07211   0.07552   0.07682   0.07730   0.07966
 Alpha virt. eigenvalues --    0.08100   0.08598   0.08666   0.09092   0.09211
 Alpha virt. eigenvalues --    0.09360   0.09394   0.09706   0.09933   0.10250
 Alpha virt. eigenvalues --    0.10375   0.10433   0.10455   0.10579   0.10702
 Alpha virt. eigenvalues --    0.11004   0.11207   0.11240   0.11920   0.12023
 Alpha virt. eigenvalues --    0.12573   0.13303   0.13420   0.13559   0.13734
 Alpha virt. eigenvalues --    0.13871   0.14613   0.14727   0.14820   0.15459
 Alpha virt. eigenvalues --    0.15608   0.16347   0.16601   0.16740   0.17013
 Alpha virt. eigenvalues --    0.17124   0.17166   0.17418   0.17506   0.17867
 Alpha virt. eigenvalues --    0.18077   0.18248   0.18332   0.18444   0.18726
 Alpha virt. eigenvalues --    0.18899   0.19078   0.19347   0.19514   0.19619
 Alpha virt. eigenvalues --    0.19753   0.20320   0.20379   0.20470   0.20704
 Alpha virt. eigenvalues --    0.20787   0.20944   0.21030   0.21305   0.21441
 Alpha virt. eigenvalues --    0.21561   0.21706   0.21846   0.22011   0.22438
 Alpha virt. eigenvalues --    0.22753   0.22903   0.23146   0.23346   0.23526
 Alpha virt. eigenvalues --    0.23703   0.24060   0.24184   0.24375   0.24730
 Alpha virt. eigenvalues --    0.24902   0.25286   0.25545   0.25819   0.26065
 Alpha virt. eigenvalues --    0.26334   0.26425   0.26626   0.26761   0.26901
 Alpha virt. eigenvalues --    0.27318   0.27407   0.27560   0.27631   0.27867
 Alpha virt. eigenvalues --    0.28244   0.28434   0.28475   0.28771   0.28919
 Alpha virt. eigenvalues --    0.29493   0.29905   0.30075   0.30346   0.30676
 Alpha virt. eigenvalues --    0.30845   0.31202   0.31372   0.31897   0.31995
 Alpha virt. eigenvalues --    0.32386   0.34614   0.35596   0.36018   0.36064
 Alpha virt. eigenvalues --    0.36722   0.36999   0.37503   0.38428   0.38675
 Alpha virt. eigenvalues --    0.38822   0.39383   0.39770   0.39909   0.40536
 Alpha virt. eigenvalues --    0.40783   0.41029   0.41206   0.41310   0.41815
 Alpha virt. eigenvalues --    0.42283   0.42522   0.42854   0.43383   0.43593
 Alpha virt. eigenvalues --    0.43793   0.44521   0.44746   0.44909   0.45221
 Alpha virt. eigenvalues --    0.45657   0.46289   0.46607   0.46837   0.47193
 Alpha virt. eigenvalues --    0.47500   0.47816   0.48017   0.48191   0.48243
 Alpha virt. eigenvalues --    0.48511   0.48639   0.48787   0.49025   0.49113
 Alpha virt. eigenvalues --    0.49210   0.49336   0.49595   0.49729   0.49909
 Alpha virt. eigenvalues --    0.50109   0.50271   0.50742   0.50893   0.51557
 Alpha virt. eigenvalues --    0.51913   0.52001   0.52199   0.52257   0.52674
 Alpha virt. eigenvalues --    0.52752   0.53062   0.53120   0.53345   0.53568
 Alpha virt. eigenvalues --    0.53620   0.53960   0.54296   0.54472   0.54673
 Alpha virt. eigenvalues --    0.54932   0.55385   0.55880   0.56309   0.56407
 Alpha virt. eigenvalues --    0.56843   0.57220   0.57769   0.58142   0.58598
 Alpha virt. eigenvalues --    0.58931   0.59308   0.59692   0.60435   0.61028
 Alpha virt. eigenvalues --    0.61730   0.62764   0.62995   0.63198   0.64569
 Alpha virt. eigenvalues --    0.65081   0.65222   0.65855   0.65966   0.66152
 Alpha virt. eigenvalues --    0.66249   0.67128   0.67572   0.67659   0.67973
 Alpha virt. eigenvalues --    0.68437   0.68695   0.70477   0.71123   0.71535
 Alpha virt. eigenvalues --    0.71768   0.72359   0.72521   0.72583   0.72749
 Alpha virt. eigenvalues --    0.72941   0.73068   0.73493   0.73968   0.74264
 Alpha virt. eigenvalues --    0.74839   0.75184   0.75298   0.75948   0.76079
 Alpha virt. eigenvalues --    0.76377   0.76973   0.77195   0.77705   0.77788
 Alpha virt. eigenvalues --    0.78590   0.79061   0.79615   0.79860   0.79998
 Alpha virt. eigenvalues --    0.80232   0.80663   0.80927   0.81427   0.81629
 Alpha virt. eigenvalues --    0.81784   0.81854   0.82378   0.83046   0.83454
 Alpha virt. eigenvalues --    0.84422   0.84515   0.85230   0.85723   0.86325
 Alpha virt. eigenvalues --    0.86850   0.87283   0.88025   0.88098   0.88909
 Alpha virt. eigenvalues --    0.89295   0.89507   0.89535   0.89703   0.90554
 Alpha virt. eigenvalues --    0.90786   0.90865   0.91370   0.91737   0.92016
 Alpha virt. eigenvalues --    0.92394   0.92601   0.93653   0.93799   0.94161
 Alpha virt. eigenvalues --    0.94425   0.95047   0.95877   0.96096   0.97060
 Alpha virt. eigenvalues --    0.97132   0.97297   0.97405   0.97935   0.98075
 Alpha virt. eigenvalues --    0.98251   0.98409   0.98687   0.98770   0.98952
 Alpha virt. eigenvalues --    0.99038   0.99747   0.99898   0.99994   1.00339
 Alpha virt. eigenvalues --    1.00464   1.01013   1.01575   1.01641   1.01846
 Alpha virt. eigenvalues --    1.02065   1.02268   1.02594   1.02731   1.02892
 Alpha virt. eigenvalues --    1.03065   1.03207   1.03582   1.03990   1.04217
 Alpha virt. eigenvalues --    1.04459   1.04591   1.04651   1.04799   1.05055
 Alpha virt. eigenvalues --    1.05426   1.05659   1.05697   1.05926   1.06022
 Alpha virt. eigenvalues --    1.06315   1.06621   1.07100   1.07141   1.07503
 Alpha virt. eigenvalues --    1.08089   1.08264   1.08922   1.09220   1.09496
 Alpha virt. eigenvalues --    1.09562   1.10102   1.10316   1.10605   1.10704
 Alpha virt. eigenvalues --    1.11078   1.11120   1.11175   1.11348   1.11677
 Alpha virt. eigenvalues --    1.11912   1.11981   1.12357   1.12946   1.13200
 Alpha virt. eigenvalues --    1.13858   1.14185   1.14640   1.15379   1.15556
 Alpha virt. eigenvalues --    1.16095   1.16193   1.16646   1.17210   1.17501
 Alpha virt. eigenvalues --    1.17843   1.18014   1.18817   1.19244   1.19639
 Alpha virt. eigenvalues --    1.20739   1.20944   1.21235   1.21344   1.21418
 Alpha virt. eigenvalues --    1.21745   1.22087   1.22329   1.22948   1.23737
 Alpha virt. eigenvalues --    1.25039   1.25860   1.26443   1.26767   1.26834
 Alpha virt. eigenvalues --    1.27177   1.27986   1.28349   1.28469   1.28682
 Alpha virt. eigenvalues --    1.28739   1.28841   1.29076   1.29410   1.30027
 Alpha virt. eigenvalues --    1.30082   1.30285   1.30636   1.30815   1.31206
 Alpha virt. eigenvalues --    1.31918   1.32249   1.33063   1.33199   1.33434
 Alpha virt. eigenvalues --    1.33589   1.33733   1.33917   1.34082   1.34163
 Alpha virt. eigenvalues --    1.34363   1.34525   1.34672   1.34752   1.34918
 Alpha virt. eigenvalues --    1.35064   1.35694   1.35974   1.36217   1.36314
 Alpha virt. eigenvalues --    1.36474   1.37043   1.37106   1.37312   1.37419
 Alpha virt. eigenvalues --    1.37516   1.37698   1.37841   1.37947   1.38285
 Alpha virt. eigenvalues --    1.38599   1.38604   1.38953   1.39029   1.39362
 Alpha virt. eigenvalues --    1.39635   1.39780   1.39979   1.40309   1.40447
 Alpha virt. eigenvalues --    1.40574   1.40743   1.40897   1.41153   1.41365
 Alpha virt. eigenvalues --    1.41437   1.41714   1.42102   1.42292   1.42466
 Alpha virt. eigenvalues --    1.42940   1.43012   1.43153   1.43349   1.43455
 Alpha virt. eigenvalues --    1.43956   1.44296   1.44479   1.45568   1.46349
 Alpha virt. eigenvalues --    1.46902   1.47466   1.47640   1.47770   1.48263
 Alpha virt. eigenvalues --    1.48836   1.49401   1.49734   1.50173   1.50544
 Alpha virt. eigenvalues --    1.50945   1.51210   1.51644   1.52128   1.53296
 Alpha virt. eigenvalues --    1.53638   1.55363   1.55680   1.55682   1.55927
 Alpha virt. eigenvalues --    1.55976   1.56323   1.56616   1.56732   1.57231
 Alpha virt. eigenvalues --    1.57334   1.58107   1.58489   1.59016   1.59476
 Alpha virt. eigenvalues --    1.59929   1.60411   1.60756   1.60795   1.60900
 Alpha virt. eigenvalues --    1.60982   1.61498   1.62485   1.62538   1.63136
 Alpha virt. eigenvalues --    1.63571   1.64702   1.64900   1.65653   1.66935
 Alpha virt. eigenvalues --    1.67734   1.68253   1.69409   1.70827   1.71266
 Alpha virt. eigenvalues --    1.71791   1.72228   1.72872   1.74224   1.74444
 Alpha virt. eigenvalues --    1.74682   1.74873   1.75128   1.75695   1.75957
 Alpha virt. eigenvalues --    1.76027   1.76842   1.77182   1.77632   1.78127
 Alpha virt. eigenvalues --    1.78236   1.78419   1.78796   1.80589   1.80969
 Alpha virt. eigenvalues --    1.81411   1.81695   1.82015   1.82626   1.82946
 Alpha virt. eigenvalues --    1.83248   1.83826   1.84017   1.84835   1.84957
 Alpha virt. eigenvalues --    1.85163   1.85437   1.85952   1.86100   1.86505
 Alpha virt. eigenvalues --    1.86972   1.87515   1.87991   1.88509   1.88956
 Alpha virt. eigenvalues --    1.89832   1.90619   1.90819   1.91058   1.91273
 Alpha virt. eigenvalues --    1.91429   1.91809   1.92140   1.93231   1.94905
 Alpha virt. eigenvalues --    1.95380   1.95824   1.96048   1.96241   1.96994
 Alpha virt. eigenvalues --    1.98959   1.99120   1.99486   1.99801   2.05934
 Alpha virt. eigenvalues --    2.07447   2.07968   2.08373   2.08528   2.08760
 Alpha virt. eigenvalues --    2.09581   2.09911   2.10885   2.11625   2.12365
 Alpha virt. eigenvalues --    2.12714   2.13100   2.13957   2.15403   2.15590
 Alpha virt. eigenvalues --    2.16253   2.17100   2.17644   2.17694   2.18146
 Alpha virt. eigenvalues --    2.19549   2.19703   2.20603   2.21053   2.21237
 Alpha virt. eigenvalues --    2.22411   2.23599   2.24814   2.26115   2.26316
 Alpha virt. eigenvalues --    2.27174   2.27523   2.28375   2.29347   2.29965
 Alpha virt. eigenvalues --    2.30387   2.31254   2.31876   2.33072   2.36272
 Alpha virt. eigenvalues --    2.37524   2.40988   2.41746   2.41927   2.44651
 Alpha virt. eigenvalues --    2.45029   2.50530   2.52559   2.58809   2.64961
 Alpha virt. eigenvalues --    2.65070   2.65225   2.65632   2.66604   2.66868
 Alpha virt. eigenvalues --    2.66928   2.66957   2.67071   2.67097   2.67196
 Alpha virt. eigenvalues --    2.67238   2.67289   2.67415   2.67421   2.67725
 Alpha virt. eigenvalues --    2.67748   2.67808   2.67911   2.67924   2.68215
 Alpha virt. eigenvalues --    2.68831   2.69264   2.69338   2.69837   2.69973
 Alpha virt. eigenvalues --    2.70163   2.70418   2.70467   2.70563   2.70694
 Alpha virt. eigenvalues --    2.71035   2.71285   2.71417   2.71564   2.71639
 Alpha virt. eigenvalues --    2.71800   2.72149   2.72611   2.72871   2.73076
 Alpha virt. eigenvalues --    2.73131   2.73269   2.73414   2.73471   2.73531
 Alpha virt. eigenvalues --    2.73827   2.73927   2.73992   2.74027   2.74099
 Alpha virt. eigenvalues --    2.74215   2.74482   2.74537   2.74651   2.74758
 Alpha virt. eigenvalues --    2.74903   2.75266   2.75552   2.75890   2.76170
 Alpha virt. eigenvalues --    2.76240   2.76535   2.76645   2.76851   2.77222
 Alpha virt. eigenvalues --    2.77295   2.77415   2.77532   2.78522   2.78640
 Alpha virt. eigenvalues --    2.78872   2.79138   2.80051   2.80325   2.80445
 Alpha virt. eigenvalues --    2.81514   2.82015   2.82123   2.82410   2.82597
 Alpha virt. eigenvalues --    2.82658   2.82822   2.82911   2.83483   2.83805
 Alpha virt. eigenvalues --    2.84103   2.84200   2.84291   2.84494   2.85210
 Alpha virt. eigenvalues --    2.85614   2.85982   2.86211   2.86667   2.86754
 Alpha virt. eigenvalues --    2.86889   2.87019   2.87155   2.87532   2.88383
 Alpha virt. eigenvalues --    2.88556   2.89241   2.89318   2.89526   2.89608
 Alpha virt. eigenvalues --    2.89801   2.89846   2.90013   2.90338   2.90495
 Alpha virt. eigenvalues --    2.90662   2.91561   2.91795   2.91892   2.91999
 Alpha virt. eigenvalues --    2.92194   2.92387   2.92611   2.92827   2.92960
 Alpha virt. eigenvalues --    2.93241   2.93397   2.93750   2.94058   2.94320
 Alpha virt. eigenvalues --    2.94616   2.94875   2.95174   2.95408   2.95822
 Alpha virt. eigenvalues --    2.95854   2.96180   2.96300   2.96455   2.96661
 Alpha virt. eigenvalues --    2.96852   2.96955   2.97009   2.97332   2.97796
 Alpha virt. eigenvalues --    2.97958   2.98131   2.98520   2.99116   2.99439
 Alpha virt. eigenvalues --    2.99785   2.99858   3.00148   3.00292   3.00406
 Alpha virt. eigenvalues --    3.00749   3.00932   3.00937   3.01873   3.02007
 Alpha virt. eigenvalues --    3.02163   3.02618   3.03104   3.03528   3.05492
 Alpha virt. eigenvalues --    3.06359   3.06609   3.07177   3.10805   3.10965
 Alpha virt. eigenvalues --    3.11118   3.11517   3.11962   3.12652   3.13447
 Alpha virt. eigenvalues --    3.13604   3.13802   3.17068   3.19263   3.23626
 Alpha virt. eigenvalues --    3.23833   3.24813   3.33121   3.40669   3.41290
 Alpha virt. eigenvalues --    3.42117   3.43057   3.44145   3.44201   3.45397
 Alpha virt. eigenvalues --    3.45488   3.45633   3.46496   3.46962   3.47072
 Alpha virt. eigenvalues --    3.49276   3.50834   3.51932   3.52467   3.53372
 Alpha virt. eigenvalues --    3.53527   3.54313   3.54448   3.55090   3.55374
 Alpha virt. eigenvalues --    3.55574   3.55833   3.56185   3.56458   3.57419
 Alpha virt. eigenvalues --    3.57557   3.58300   3.59371   3.59840   3.60500
 Alpha virt. eigenvalues --    3.60762   3.61119   3.61302   3.61592   3.62610
 Alpha virt. eigenvalues --    3.67602   3.75665  68.65137  68.66149  68.67599
 Alpha virt. eigenvalues --   68.70187  68.73884  68.75251  68.82672  68.83684
 Alpha virt. eigenvalues --   68.84246  68.87478  68.88470  68.89843 576.23547
 Alpha virt. eigenvalues --  576.24534 576.25956 576.28484 576.32203 576.33556
 Alpha virt. eigenvalues --  576.40832 576.41819 576.42365 576.45485 576.46457
 Alpha virt. eigenvalues --  576.47822
          Condensed to atoms (all electrons):
 Mulliken charges:
               1
     1  Cl  -0.849604
     2  C   -0.095085
     3  C    0.053083
     4  C   -0.087804
     5  C   -0.032599
     6  C   -0.045977
     7  C   -0.049569
     8  H    0.018750
     9  H    0.022489
    10  H    0.035233
    11  H    0.028889
    12  H    0.034296
    13  C   -0.091389
    14  C    0.049430
    15  H   -0.006142
    16  H    0.030110
    17  H    0.034792
    18  O   -0.659712
    19  O   -0.657949
    20  O   -0.650303
    21  O   -0.660013
    22  W    1.725884
    23  W    1.663584
    24  W    1.673804
    25  W    1.685446
    26  W    1.670435
    27  W    1.726222
    28  W    1.616790
    29  W    1.682787
    30  O   -0.310324
    31  O   -0.359847
    32  O   -0.360246
    33  O   -0.357732
    34  O   -0.661262
    35  O   -0.670255
    36  O   -0.658979
    37  O   -0.661589
    38  O   -0.361698
    39  O   -0.362335
    40  O   -0.278388
    41  O   -0.360303
    42  O   -0.668826
    43  O   -0.660045
    44  O   -0.656028
    45  O   -0.662781
    46  O   -0.361582
    47  O   -0.310277
    48  O   -0.349239
    49  O   -0.359763
    50  W    1.668691
    51  W    1.672806
    52  W    1.665897
    53  W    1.678765
    54  O   -0.723566
    55  O   -0.707965
    56  O   -0.727277
    57  O   -0.721258
    58  O   -0.705849
    59  O   -0.727401
    60  O   -0.724668
    61  O   -0.722791
    62  O   -0.723216
    63  O   -0.708082
    64  O   -0.722333
    65  O   -0.727140
    66  O   -0.805460
    67  O   -0.805424
    68  O   -0.800659
    69  O   -0.814394
    70  K    0.859948
    71  K    0.859360
    72  K    0.854971
    73  V    1.172666
 Sum of Mulliken charges =  -1.00000
 Mulliken charges with hydrogens summed into heavy atoms:
               1
     1  Cl  -0.849604
     2  C   -0.076335
     3  C    0.053083
     4  C   -0.065315
     5  C    0.002634
     6  C   -0.017087
     7  C   -0.015273
    13  C   -0.097531
    14  C    0.114333
    18  O   -0.659712
    19  O   -0.657949
    20  O   -0.650303
    21  O   -0.660013
    22  W    1.725884
    23  W    1.663584
    24  W    1.673804
    25  W    1.685446
    26  W    1.670435
    27  W    1.726222
    28  W    1.616790
    29  W    1.682787
    30  O   -0.310324
    31  O   -0.359847
    32  O   -0.360246
    33  O   -0.357732
    34  O   -0.661262
    35  O   -0.670255
    36  O   -0.658979
    37  O   -0.661589
    38  O   -0.361698
    39  O   -0.362335
    40  O   -0.278388
    41  O   -0.360303
    42  O   -0.668826
    43  O   -0.660045
    44  O   -0.656028
    45  O   -0.662781
    46  O   -0.361582
    47  O   -0.310277
    48  O   -0.349239
    49  O   -0.359763
    50  W    1.668691
    51  W    1.672806
    52  W    1.665897
    53  W    1.678765
    54  O   -0.723566
    55  O   -0.707965
    56  O   -0.727277
    57  O   -0.721258
    58  O   -0.705849
    59  O   -0.727401
    60  O   -0.724668
    61  O   -0.722791
    62  O   -0.723216
    63  O   -0.708082
    64  O   -0.722333
    65  O   -0.727140
    66  O   -0.805460
    67  O   -0.805424
    68  O   -0.800659
    69  O   -0.814394
    70  K    0.859948
    71  K    0.859360
    72  K    0.854971
    73  V    1.172666
 Electronic spatial extent (au):  <R**2>=         316478.7578
 Charge=             -1.0000 electrons
 Dipole moment (field-independent basis, Debye):
    X=             51.0039    Y=            -46.4108    Z=            -38.9962  Tot=             79.2216
 Quadrupole moment (field-independent basis, Debye-Ang):
   XX=          -1062.2414   YY=           -824.3039   ZZ=           -923.9507
   XY=            408.8353   XZ=            459.0734   YZ=           -427.0992
 Traceless Quadrupole moment (field-independent basis, Debye-Ang):
   XX=           -125.4094   YY=            112.5281   ZZ=             12.8813
   XY=            408.8353   XZ=            459.0734   YZ=           -427.0992
 Octapole moment (field-independent basis, Debye-Ang**2):
  XXX=          13552.7683  YYY=           -364.2249  ZZZ=         -19353.1017  XYY=           5474.4421
  XXY=          -3234.2923  XXZ=          -9518.9579  XZZ=           7395.9965  YZZ=          -3623.8594
  YYZ=          -8312.4829  XYZ=           4293.1838
 Hexadecapole moment (field-independent basis, Debye-Ang**3):
 XXXX=        -160520.4612 YYYY=         -45695.6546 ZZZZ=        -350111.0860 XXXY=          32789.5527
 XXXZ=         124105.1031 YYYX=          14065.8463 YYYZ=          -5147.9303 ZZZX=         129070.2538
 ZZZY=         -29529.3208 XXYY=         -49853.9625 XXZZ=        -109294.3310 YYZZ=         -91492.4053
 XXYZ=         -37444.8438 YYXZ=          54836.1933 ZZXY=          44694.4269
 N-N= 2.107318281764D+04 E-N=-5.923319285299D+04  KE= 6.765331652775D+03
   1 Symmetry operations used in ECPInt.
 ECPInt:  NShTT=  127765 NPrTT=  468030 LenC2=   96954 LenP2D=  222025.
 LDataN:  DoStor=T MaxTD1= 9 Len=  602
 D1PCM: PCM CHGder 1st derivatives, ID1Alg=3 FixD1E=F DoIter=F DoCFld=F I1PDM=0.
 Calling FoFJK, ICntrl=      2127 FMM=T ISym2X=0 I1Cent= 0 IOpClX= 0 NMat=1 NMatS=1 NMatT=0.
 Defaulting to unpruned grid for atomic number  74.
 Defaulting to unpruned grid for atomic number  74.
 Defaulting to unpruned grid for atomic number  74.
 Defaulting to unpruned grid for atomic number  74.
 Defaulting to unpruned grid for atomic number  74.
 Defaulting to unpruned grid for atomic number  74.
 Defaulting to unpruned grid for atomic number  74.
 Defaulting to unpruned grid for atomic number  74.
 Defaulting to unpruned grid for atomic number  74.
 Defaulting to unpruned grid for atomic number  74.
 Defaulting to unpruned grid for atomic number  74.
 Defaulting to unpruned grid for atomic number  74.
 Defaulting to unpruned grid for atomic number  74.
 Defaulting to unpruned grid for atomic number  74.
 Defaulting to unpruned grid for atomic number  74.
 Defaulting to unpruned grid for atomic number  74.
 Defaulting to unpruned grid for atomic number  74.
 Defaulting to unpruned grid for atomic number  74.
 Defaulting to unpruned grid for atomic number  74.
 Defaulting to unpruned grid for atomic number  74.
 Defaulting to unpruned grid for atomic number  74.
 Defaulting to unpruned grid for atomic number  74.
 Defaulting to unpruned grid for atomic number  74.
 Defaulting to unpruned grid for atomic number  74.
 Defaulting to unpruned grid for atomic number  74.
 Defaulting to unpruned grid for atomic number  74.
 Defaulting to unpruned grid for atomic number  74.
 Defaulting to unpruned grid for atomic number  74.
 Defaulting to unpruned grid for atomic number  74.
 Defaulting to unpruned grid for atomic number  74.
 Defaulting to unpruned grid for atomic number  74.
 Defaulting to unpruned grid for atomic number  74.
 Defaulting to unpruned grid for atomic number  74.
 Defaulting to unpruned grid for atomic number  74.
 Defaulting to unpruned grid for atomic number  74.
 Defaulting to unpruned grid for atomic number  74.
 Defaulting to unpruned grid for atomic number  74.
 Defaulting to unpruned grid for atomic number  74.
 Defaulting to unpruned grid for atomic number  74.
 Defaulting to unpruned grid for atomic number  74.
 Defaulting to unpruned grid for atomic number  74.
 Defaulting to unpruned grid for atomic number  74.
 Defaulting to unpruned grid for atomic number  74.
 Defaulting to unpruned grid for atomic number  74.
 Defaulting to unpruned grid for atomic number  74.
 Defaulting to unpruned grid for atomic number  74.
 Defaulting to unpruned grid for atomic number  74.
 Defaulting to unpruned grid for atomic number  74.
 Defaulting to unpruned grid for atomic number  74.
 Defaulting to unpruned grid for atomic number  74.
 Defaulting to unpruned grid for atomic number  74.
 Defaulting to unpruned grid for atomic number  74.
 Defaulting to unpruned grid for atomic number  74.
 Defaulting to unpruned grid for atomic number  74.
 Defaulting to unpruned grid for atomic number  74.
 Defaulting to unpruned grid for atomic number  74.
 -------------------------------------------------------------------
 Center     Atomic                   Forces (Hartrees/Bohr)
 Number     Number              X              Y              Z
 -------------------------------------------------------------------
      1       17          -0.009314165    0.021529815    0.005586609
      2        6          -0.002838975   -0.001009961   -0.002618127
      3        6           0.001647183    0.001886628   -0.000450529
      4        6           0.000877325    0.001631626    0.000037931
      5        6           0.001858697    0.000437901    0.004299949
      6        6          -0.001070285   -0.000863631    0.000685097
      7        6          -0.001397349   -0.002101015    0.002238903
      8        1          -0.000199807    0.000116998   -0.000144180
      9        1           0.000141999    0.000101119    0.000501665
     10        1          -0.000554629   -0.000644811    0.000028576
     11        1          -0.000003972   -0.000961148    0.001536108
     12        1           0.000030179   -0.000036457    0.000197291
     13        6           0.013511693    0.000483591   -0.011620812
     14        6          -0.000987979   -0.019810968   -0.001357324
     15        1           0.000289794    0.001101357    0.000882322
     16        1          -0.001886309    0.000957907    0.003412791
     17        1          -0.004276641    0.000604059   -0.001520237
     18        8          -0.005975727    0.001139250    0.001686342
     19        8           0.005776216   -0.001675696    0.001666264
     20        8           0.004733633   -0.005632197   -0.000120196
     21        8          -0.004553102    0.003811464   -0.001813534
     22       74          -0.003216768   -0.000799666    0.001643388
     23       74          -0.000864280   -0.000146423   -0.002049499
     24       74          -0.000073291    0.002545652    0.002594590
     25       74          -0.000649023   -0.000149948    0.001701902
     26       74           0.003096724   -0.002056142   -0.003109955
     27       74           0.001475892    0.001889614    0.003236184
     28       74          -0.005419454    0.003791648    0.002486240
     29       74           0.002304193   -0.000552335    0.001936140
     30        8           0.001568498    0.009881407   -0.008757822
     31        8          -0.000719923   -0.007206115   -0.005886507
     32        8           0.004664744    0.004350341    0.005150103
     33        8          -0.005210792   -0.004696111    0.006028385
     34        8          -0.001379972   -0.001591022    0.005529949
     35        8           0.001899025    0.000312082    0.005771063
     36        8           0.001179888   -0.002268309   -0.005394141
     37        8          -0.000001694    0.001935525   -0.005626021
     38        8           0.006441619    0.001495325    0.001728743
     39        8          -0.006855000   -0.001717955    0.001871075
     40        8          -0.000326775    0.009194200   -0.005252833
     41        8           0.003174963   -0.007730366   -0.002028565
     42        8          -0.003192560   -0.004861259    0.001915439
     43        8           0.003997008    0.004371567    0.001510559
     44        8          -0.000539249   -0.006222793   -0.000769854
     45        8           0.001553415    0.005686102   -0.001790392
     46        8           0.003009768   -0.003593472   -0.005307947
     47        8          -0.006682526    0.006833094   -0.010555944
     48        8          -0.004206299   -0.000537668    0.004995665
     49        8           0.005905358   -0.000399555    0.006420066
     50       74           0.004138115    0.003092558    0.000892964
     51       74          -0.004286533   -0.001174822    0.000894072
     52       74          -0.000402929    0.000274845   -0.000512930
     53       74          -0.000018294   -0.002550929   -0.000053796
     54        8          -0.000472882    0.000863772    0.001982146
     55        8           0.000434857   -0.001101491    0.001666672
     56        8           0.001369562   -0.001124610   -0.002210224
     57        8          -0.000572348   -0.000618341   -0.002127482
     58        8           0.000696639   -0.002186144   -0.000186634
     59        8           0.001110602    0.001877009    0.001114659
     60        8          -0.000535593   -0.002062582   -0.001383440
     61        8           0.001060923    0.001458150   -0.001144749
     62        8          -0.001300742    0.001640633    0.000329258
     63        8           0.000937844   -0.002752647   -0.000819675
     64        8           0.001984670   -0.000900773   -0.000884097
     65        8          -0.002281335   -0.000300767   -0.000273631
     66        8          -0.037840721   -0.005658011    0.022770589
     67        8           0.038730482    0.005904001    0.022761901
     68        8           0.018656184   -0.035812277   -0.022611188
     69        8          -0.017511027    0.033074088   -0.023081291
     70       19           0.000561464   -0.001862680   -0.001365718
     71       19           0.001796311    0.000792930    0.001337764
     72       19          -0.001969497   -0.000448396    0.001480965
     73       23          -0.001027020    0.000753237    0.000318945
 -------------------------------------------------------------------
 Cartesian Forces:  Max     0.038730482 RMS     0.007192811

 GradGradGradGradGradGradGradGradGradGradGradGradGradGradGradGradGradGrad
 Berny optimization.
 Search for a local minimum.
 Step number   1 out of a maximum of    2
 All quantities printed in internal units (Hartrees-Bohrs-Radians)
 Second derivative matrix not updated -- first step.
 ITU=  0
     Eigenvalues ---   -0.00000   0.00000   0.00000   0.00010   0.00091
     Eigenvalues ---    0.00093   0.00278   0.00566   0.00617   0.01657
     Eigenvalues ---    0.01954   0.02899   0.02941   0.03214   0.03400
     Eigenvalues ---    0.03434   0.03704   0.03718   0.04126   0.04483
     Eigenvalues ---    0.04572   0.04581   0.04595   0.04831   0.04839
     Eigenvalues ---    0.05014   0.05334   0.05549   0.05565   0.06402
     Eigenvalues ---    0.06444   0.06546   0.06785   0.06852   0.07037
     Eigenvalues ---    0.07271   0.07418   0.07589   0.08373   0.08430
     Eigenvalues ---    0.08690   0.08744   0.08889   0.08931   0.09743
     Eigenvalues ---    0.09823   0.10051   0.10506   0.10522   0.10668
     Eigenvalues ---    0.10956   0.10989   0.11476   0.11567   0.12021
     Eigenvalues ---    0.12089   0.12107   0.12551   0.12667   0.12703
     Eigenvalues ---    0.12738   0.12833   0.13075   0.13198   0.13355
     Eigenvalues ---    0.13642   0.14037   0.14259   0.14420   0.14664
     Eigenvalues ---    0.16630   0.16694   0.16831   0.17159   0.17638
     Eigenvalues ---    0.17751   0.18503   0.19671   0.19779   0.20276
     Eigenvalues ---    0.20645   0.20737   0.21701   0.21801   0.21901
     Eigenvalues ---    0.22823   0.23331   0.23543   0.23850   0.23943
     Eigenvalues ---    0.24624   0.24891   0.24965   0.25184   0.25347
     Eigenvalues ---    0.26055   0.26168   0.27650   0.27843   0.27902
     Eigenvalues ---    0.28728   0.28785   0.29142   0.29738   0.30167
     Eigenvalues ---    0.30814   0.30902   0.31026   0.31094   0.31311
     Eigenvalues ---    0.31487   0.31676   0.31799   0.32107   0.32665
     Eigenvalues ---    0.32815   0.33059   0.33205   0.33281   0.33847
     Eigenvalues ---    0.33961   0.35391   0.35629   0.35866   0.36827
     Eigenvalues ---    0.37535   0.37673   0.37827   0.38120   0.38579
     Eigenvalues ---    0.38764   0.39710   0.40378   0.40462   0.42097
     Eigenvalues ---    0.42724   0.42920   0.43424   0.43582   0.45116
     Eigenvalues ---    0.45639   0.45778   0.46137   0.47027   0.47970
     Eigenvalues ---    0.48157   0.49143   0.49698   0.50019   0.50121
     Eigenvalues ---    0.50663   0.50917   0.51298   0.51528   0.51787
     Eigenvalues ---    0.52936   0.53921   0.55003   0.58472   0.64468
     Eigenvalues ---    0.67522   0.76991   0.82750   0.83560   0.96205
     Eigenvalues ---    0.97247   0.98713   0.99585   1.02291   1.04158
     Eigenvalues ---    1.07025   1.08777   1.09804   1.12227   1.12517
     Eigenvalues ---    1.17670   1.18670   1.20490   1.22926   1.23107
     Eigenvalues ---    1.23631   1.24812   1.26242   1.26890   1.27617
     Eigenvalues ---    1.27818   1.27944   1.28467   1.45694   1.50449
     Eigenvalues ---    1.51129   1.51333   1.53762   1.55600   1.56098
     Eigenvalues ---    1.56296   1.58898   1.59081   1.59230   1.60020
     Eigenvalues ---    1.61890   1.62075   1.64887   1.65108   1.76485
     Eigenvalues ---    1.86193   1.88567   1.89185   1.92553   1.99434
     Eigenvalues ---    2.09591   2.22446   3.30889
 Eigenvalue     1 is  -2.22D-16 should be greater than     0.000000 Eigenvector:
                          Y11       Y6        Y12       Y10       Y7
   1                    0.17538   0.17538   0.17538   0.17538   0.17538
                          Y5        Y2        Y4        Y8        Y9
   1                    0.17538   0.17538   0.17538   0.17538   0.17538
 Eigenvalue     2 is   3.25D-07 Eigenvector:
                          Y16       X16       X11       Y14       Y11
   1                    0.34237  -0.26240   0.26147   0.25042  -0.24876
                          Y15       Y17       Y13       X14       X6
   1                    0.22619   0.22313   0.18821  -0.18759   0.18323
 Eigenvalue     3 is   2.88D-06 Eigenvector:
                          X9        Y12       X10       Y9        X12
   1                    0.32971   0.28532   0.28502  -0.26327  -0.25952
                          Y8        Y10       X8        X15       Y17
   1                    0.24554  -0.22301  -0.21721   0.21672   0.20303
 Quadratic step=6.674D+01 exceeds max=3.000D-01 adjusted using Lamda=-4.753D-02.
 Angle between NR and scaled steps=  61.64 degrees.
 Angle between quadratic step and forces=  43.61 degrees.
 Linear search not attempted -- first point.
 B after Tr=     0.000341    0.001640    0.000523
         Rot=    1.000000   -0.000037    0.000014    0.000068 Ang=  -0.01 deg.
 Variable       Old X    -DE/DX   Delta X   Delta X   Delta X     New X
                                 (Linear)    (Quad)   (Total)
    X1      -18.60226  -0.00931   0.00000  -0.00899  -0.00724 -18.60950
    Y1       14.19638   0.02153   0.00000   0.02083   0.02357  14.21995
    Z1       19.58479   0.00559   0.00000   0.00572   0.00679  19.59158
    X2      -15.69976  -0.00284   0.00000  -0.00688  -0.00607 -15.70583
    Y2        8.04264  -0.00101   0.00000  -0.01083  -0.00874   8.03390
    Z2       23.13311  -0.00262   0.00000  -0.00396  -0.00328  23.12983
    X3      -17.15382   0.00165   0.00000   0.02374   0.02453 -17.12929
    Y3        7.44718   0.00189   0.00000  -0.02767  -0.02523   7.42195
    Z3       20.98123  -0.00045   0.00000  -0.01762  -0.01701  20.96422
    X4      -18.91639   0.00088   0.00000   0.00437   0.00489 -18.91151
    Y4        5.46084   0.00163   0.00000  -0.00482  -0.00215   5.45869
    Z4       21.15319   0.00004   0.00000   0.01064   0.01105  21.16424
    X5      -19.24669   0.00186   0.00000  -0.00206  -0.00178 -19.24847
    Y5        4.13935   0.00044   0.00000   0.00237   0.00492   4.14427
    Z5       23.39288   0.00430   0.00000   0.02048   0.02078  23.41366
    X6      -17.81012  -0.00107   0.00000  -0.00658  -0.00628 -17.81640
    Y6        4.76996  -0.00086   0.00000  -0.00425  -0.00206   4.76790
    Z6       25.51858   0.00069   0.00000   0.02091   0.02130  25.53988
    X7      -16.03007  -0.00140   0.00000  -0.01134  -0.01077 -16.04084
    Y7        6.71341  -0.00210   0.00000  -0.00258  -0.00061   6.71280
    Z7       25.37124   0.00224   0.00000   0.00899   0.00957  25.38082
    X8      -14.30838  -0.00020   0.00000  -0.00719  -0.00617 -14.31455
    Y8        9.56465   0.00012   0.00000  -0.00851  -0.00661   9.55805
    Z8       23.05238  -0.00014   0.00000  -0.00286  -0.00202  23.05036
    X9      -20.03071   0.00014   0.00000   0.00186   0.00235 -20.02836
    Y9        4.96676   0.00010   0.00000  -0.00660  -0.00366   4.96310
    Z9       19.48155   0.00050   0.00000   0.01315   0.01349  19.49504
   X10      -20.62177  -0.00055   0.00000  -0.00518  -0.00512 -20.62689
   Y10        2.60404  -0.00064   0.00000   0.00195   0.00468   2.60872
   Z10       23.49599   0.00003   0.00000   0.01311   0.01327  23.50926
   X11      -18.06396  -0.00000   0.00000  -0.00214  -0.00203 -18.06599
   Y11        3.73319  -0.00096   0.00000  -0.00743  -0.00533   3.72786
   Z11       27.28010   0.00154   0.00000   0.02216   0.02247  27.30257
   X12      -14.89585   0.00003   0.00000  -0.00724  -0.00665 -14.90250
   Y12        7.19711  -0.00004   0.00000   0.00351   0.00520   7.20230
   Z12       27.02936   0.00020   0.00000   0.00506   0.00571  27.03507
   X13      -16.89744   0.01351   0.00000   0.06870   0.06973 -16.82771
   Y13        8.79970   0.00048   0.00000  -0.08947  -0.08689   8.71280
   Z13       18.60488  -0.01162   0.00000  -0.05298  -0.05227  18.55261
   X14      -15.34497  -0.00099   0.00000   0.04369   0.04501 -15.29997
   Y14       10.77494  -0.01981   0.00000  -0.09906  -0.09666  10.67828
   Z14       18.13770  -0.00136   0.00000  -0.03732  -0.03642  18.10128
   X15      -18.16137   0.00029   0.00000   0.02557   0.02656 -18.13481
   Y15        8.16595   0.00110   0.00000  -0.04192  -0.03906   8.12689
   Z15       17.08737   0.00088   0.00000  -0.02854  -0.02791  17.05945
   X16      -15.19931  -0.00189   0.00000  -0.00633  -0.00485 -15.20415
   Y16       11.55973   0.00096   0.00000  -0.01957  -0.01704  11.54269
   Z16       16.22886   0.00341   0.00000  -0.00022   0.00074  16.22960
   X17      -13.91064  -0.00428   0.00000  -0.02007  -0.01869 -13.92933
   Y17       11.41675   0.00060   0.00000  -0.03063  -0.02852  11.38823
   Z17       19.48932  -0.00152   0.00000  -0.01216  -0.01117  19.47814
   X18       -1.84486  -0.00598   0.00000  -0.03315  -0.03364  -1.87850
   Y18       -3.33315   0.00114   0.00000   0.00501   0.00587  -3.32728
   Z18       14.06652   0.00169   0.00000   0.01499   0.01522  14.08174
   X19      -15.95811   0.00578   0.00000   0.02804   0.02766 -15.93045
   Y19       -2.50088  -0.00168   0.00000   0.00239   0.00517  -2.49571
   Z19       14.08073   0.00167   0.00000   0.01518   0.01509  14.09582
   X20      -13.38919   0.00473   0.00000   0.02161   0.02176 -13.36742
   Y20        2.57773  -0.00563   0.00000  -0.02299  -0.02098   2.55674
   Z20       19.85362  -0.00012   0.00000  -0.01021  -0.00986  19.84376
   X21       -4.37332  -0.00455   0.00000  -0.02114  -0.02246  -4.39579
   Y21       -8.26470   0.00381   0.00000   0.02649   0.02726  -8.23744
   Z21       19.98897  -0.00181   0.00000  -0.01492  -0.01512  19.97384
   X22       -6.46290  -0.00322   0.00000  -0.01677  -0.01656  -6.47946
   Y22        1.41310  -0.00080   0.00000   0.01544   0.01706   1.43016
   Z22       12.32800   0.00164   0.00000  -0.00473  -0.00428  12.32371
   X23      -11.38551  -0.00086   0.00000   0.01090   0.00991 -11.37560
   Y23       -7.22864  -0.00015   0.00000  -0.00278  -0.00050  -7.22914
   Z23       12.47763  -0.00205   0.00000  -0.00336  -0.00368  12.47395
   X24       -6.88619  -0.00007   0.00000   0.01530   0.01529  -6.87089
   Y24        1.75653   0.00255   0.00000  -0.00358  -0.00259   1.75394
   Z24       21.51366   0.00259   0.00000   0.00681   0.00727  21.52093
   X25      -10.89995  -0.00065   0.00000  -0.01824  -0.01949 -10.91944
   Y25       -7.32454  -0.00015   0.00000   0.00898   0.01052  -7.31402
   Z25       21.64849   0.00170   0.00000   0.00408   0.00377  21.65226
   X26       -4.67823   0.00310   0.00000  -0.00982  -0.01046  -4.68869
   Y26       -4.78627  -0.00206   0.00000  -0.00723  -0.00584  -4.79211
   Z26       12.04658  -0.00311   0.00000  -0.00292  -0.00288  12.04370
   X27      -13.12393   0.00148   0.00000   0.00420   0.00408 -13.11985
   Y27       -1.03237   0.00189   0.00000   0.02022   0.02277  -1.00960
   Z27       11.99986   0.00324   0.00000  -0.00149  -0.00140  11.99846
   X28      -12.88243  -0.00542   0.00000  -0.00777  -0.00809 -12.89052
   Y28       -0.47027   0.00379   0.00000  -0.00892  -0.00714  -0.47740
   Z28       21.92261   0.00249   0.00000   0.00456   0.00470  21.92731
   X29       -4.88651   0.00230   0.00000   0.00434   0.00339  -4.88312
   Y29       -5.09106  -0.00055   0.00000   0.01539   0.01608  -5.07498
   Z29       21.97909   0.00194   0.00000   0.00316   0.00317  21.98227
   X30       -6.06607   0.00157   0.00000   0.00596   0.00653  -6.05954
   Y30        3.65479   0.00988   0.00000   0.02712   0.02884   3.68363
   Z30       10.13348  -0.00876   0.00000  -0.01825  -0.01762  10.11586
   X31      -11.59145  -0.00072   0.00000  -0.00896  -0.01021 -11.60166
   Y31       -9.58663  -0.00721   0.00000  -0.01225  -0.00979  -9.59642
   Z31       10.34140  -0.00589   0.00000  -0.01287  -0.01337  10.32802
   X32       -5.13027   0.00466   0.00000   0.00997   0.01013  -5.12014
   Y32        3.31903   0.00435   0.00000   0.01850   0.01910   3.33812
   Z32       23.67177   0.00515   0.00000   0.01387   0.01450  23.68627
   X33      -12.64095  -0.00521   0.00000  -0.01452  -0.01604 -12.65699
   Y33       -8.81928  -0.00470   0.00000  -0.01239  -0.01078  -8.83006
   Z33       23.86283   0.00603   0.00000   0.01349   0.01301  23.87584
   X34       -5.07044  -0.00138   0.00000  -0.01762  -0.01778  -5.08823
   Y34       -1.62366  -0.00159   0.00000  -0.00113   0.00042  -1.62324
   Z34       10.53745   0.00553   0.00000   0.02149   0.02176  10.55921
   X35      -12.71786   0.00190   0.00000   0.01358   0.01304 -12.70481
   Y35       -4.30495   0.00031   0.00000   0.01149   0.01408  -4.29087
   Z35       10.61273   0.00577   0.00000   0.02373   0.02360  10.63632
   X36      -10.07052   0.00118   0.00000   0.00690   0.00676 -10.06377
   Y36        1.10491  -0.00227   0.00000  -0.01693  -0.01564   1.08927
   Z36       23.39435  -0.00539   0.00000  -0.01723  -0.01690  23.37746
   X37       -7.68323  -0.00000   0.00000  -0.00677  -0.00798  -7.69121
   Y37       -6.66141   0.00194   0.00000   0.01912   0.02008  -6.64132
   Z37       23.48427  -0.00563   0.00000  -0.02057  -0.02074  23.46353
   X38        0.53248   0.00644   0.00000   0.01555   0.01541   0.54789
   Y38       -0.01150   0.00150   0.00000   0.00292   0.00319  -0.00831
   Z38       17.54150   0.00173   0.00000   0.00158   0.00212  17.54362
   X39      -18.33576  -0.00686   0.00000  -0.02165  -0.02256 -18.35832
   Y39       -5.69358  -0.00172   0.00000   0.00543   0.00828  -5.68529
   Z39       17.65865   0.00187   0.00000   0.00145   0.00106  17.65971
   X40      -12.19018  -0.00033   0.00000   0.01735   0.01813 -12.17205
   Y40        6.43279   0.00919   0.00000   0.02073   0.02283   6.45562
   Z40       16.38946  -0.00525   0.00000  -0.01984  -0.01917  16.37029
   X41       -5.61911   0.00317   0.00000   0.00916   0.00739  -5.61172
   Y41      -12.16073  -0.00773   0.00000  -0.01085  -0.00966 -12.17039
   Z41       16.51520  -0.00203   0.00000  -0.00230  -0.00282  16.51238
   X42       -3.38606  -0.00319   0.00000  -0.02459  -0.02443  -3.41049
   Y42        1.49838  -0.00486   0.00000  -0.01008  -0.00902   1.48937
   Z42       14.14108   0.00192   0.00000   0.01266   0.01320  14.15428
   X43      -14.43023   0.00400   0.00000   0.02112   0.02007 -14.41017
   Y43       -7.33853   0.00437   0.00000   0.01756   0.02012  -7.31841
   Z43       14.27714   0.00151   0.00000   0.01306   0.01265  14.28979
   X44       -8.59622  -0.00054   0.00000   0.00424   0.00462  -8.59159
   Y44        4.24889  -0.00622   0.00000  -0.02720  -0.02584   4.22305
   Z44       19.71493  -0.00077   0.00000  -0.00676  -0.00616  19.70877
   X45       -9.18351   0.00155   0.00000  -0.00588  -0.00743  -9.19094
   Y45       -9.88987   0.00569   0.00000   0.02984   0.03127  -9.85860
   Z45       19.89977  -0.00179   0.00000  -0.01302  -0.01347  19.88630
   X46       -3.13010   0.00301   0.00000   0.00444   0.00362  -3.12648
   Y46       -6.56414  -0.00359   0.00000  -0.00018   0.00116  -6.56299
   Z46        9.89213  -0.00531   0.00000  -0.01544  -0.01549   9.87665
   X47      -14.75884  -0.00668   0.00000  -0.01750  -0.01736 -14.77620
   Y47        0.48766   0.00683   0.00000   0.01636   0.01931   0.50697
   Z47        9.76068  -0.01056   0.00000  -0.01978  -0.01962   9.74106
   X48      -15.17109  -0.00421   0.00000  -0.01134  -0.01170 -15.18279
   Y48       -0.34366  -0.00054   0.00000   0.00373   0.00567  -0.33800
   Z48       24.13966   0.00500   0.00000   0.01535   0.01543  24.15510
   X49       -2.55423   0.00591   0.00000   0.01027   0.00923  -2.54500
   Y49       -5.27182  -0.00040   0.00000  -0.00045  -0.00024  -5.27207
   Z49       24.14910   0.00642   0.00000   0.01617   0.01623  24.16534
   X50       -2.37696   0.00414   0.00000  -0.00276  -0.00301  -2.37997
   Y50       -1.01430   0.00309   0.00000   0.00866   0.00939  -1.00491
   Z50       16.68814   0.00089   0.00000   0.01563   0.01601  16.70415
   X51      -15.43081  -0.00429   0.00000  -0.00244  -0.00320 -15.43402
   Y51       -4.70700  -0.00117   0.00000   0.00055   0.00307  -4.70393
   Z51       16.77227   0.00089   0.00000   0.01626   0.01602  16.78829
   X52      -11.27925  -0.00040   0.00000   0.00791   0.00826 -11.27099
   Y52        3.50377   0.00027   0.00000   0.00195   0.00387   3.50765
   Z52       17.12592  -0.00051   0.00000  -0.01592  -0.01544  17.11048
   X53       -6.51941  -0.00002   0.00000  -0.00674  -0.00813  -6.52754
   Y53       -9.21181  -0.00255   0.00000   0.00293   0.00419  -9.20762
   Z53       17.33851  -0.00005   0.00000  -0.01496  -0.01529  17.32322
   X54       -8.01808  -0.00047   0.00000  -0.00119  -0.00195  -8.02004
   Y54       -5.80413   0.00086   0.00000  -0.00779  -0.00590  -5.81003
   Z54       11.50645   0.00198   0.00000  -0.00901  -0.00914  11.49732
   X55       -9.77047   0.00043   0.00000  -0.00521  -0.00519  -9.77566
   Y55       -0.10088  -0.00110   0.00000   0.01977   0.02191  -0.07897
   Z55       11.40995   0.00167   0.00000  -0.00826  -0.00801  11.40194
   X56      -11.65195   0.00137   0.00000  -0.01415  -0.01493 -11.66688
   Y56       -3.76036  -0.00112   0.00000  -0.00492  -0.00334  -3.76370
   Z56       22.49952  -0.00221   0.00000   0.00927   0.00920  22.50871
   X57       -6.07744  -0.00057   0.00000   0.01259   0.01208  -6.06536
   Y57       -1.81134  -0.00062   0.00000   0.00847   0.00928  -1.80206
   Z57       22.51167  -0.00213   0.00000   0.01008   0.01031  22.52198
   X58       -8.31292   0.00070   0.00000  -0.00299  -0.00264  -8.31556
   Y58        3.00255  -0.00219   0.00000   0.01190   0.01358   3.01613
   Z58       14.86900  -0.00019   0.00000  -0.01020  -0.00968  14.85933
   X59       -9.47234   0.00111   0.00000   0.00421   0.00294  -9.46940
   Y59       -8.78183   0.00188   0.00000  -0.00655  -0.00472  -8.78656
   Z59       15.02381   0.00111   0.00000  -0.00953  -0.00991  15.01390
   X60       -4.47351  -0.00054   0.00000   0.01334   0.01332  -4.46019
   Y60        1.11482  -0.00206   0.00000   0.00521   0.00606   1.12087
   Z60       19.01162  -0.00138   0.00000   0.01079   0.01127  19.02290
   X61      -13.31366   0.00106   0.00000  -0.01679  -0.01790 -13.33156
   Y61       -6.79513   0.00146   0.00000   0.00119   0.00324  -6.79189
   Z61       19.12658  -0.00114   0.00000   0.01012   0.00978  19.13636
   X62       -4.85882  -0.00130   0.00000  -0.00447  -0.00553  -4.86435
   Y62       -7.29641   0.00164   0.00000  -0.00334  -0.00213  -7.29854
   Z62       14.87411   0.00033   0.00000  -0.01108  -0.01123  14.86287
   X63      -12.96378   0.00094   0.00000   0.00204   0.00219 -12.96159
   Y63        1.48532  -0.00275   0.00000   0.00893   0.01126   1.49658
   Z63       14.76372  -0.00082   0.00000  -0.01136  -0.01108  14.75264
   X64      -14.82631   0.00198   0.00000  -0.00873  -0.00921 -14.83552
   Y64       -2.19125  -0.00090   0.00000  -0.00287  -0.00061  -2.19186
   Z64       19.18451  -0.00088   0.00000   0.01148   0.01144  19.19595
   X65       -2.97800  -0.00228   0.00000   0.00360   0.00295  -2.97505
   Y65       -3.48574  -0.00030   0.00000   0.00890   0.00953  -3.47621
   Z65       19.16709  -0.00027   0.00000   0.01097   0.01116  19.17825
   X66       -6.34557  -0.03784   0.00000  -0.07143  -0.07180  -6.41737
   Y66       -2.15076  -0.00566   0.00000  -0.00329  -0.00189  -2.15265
   Z66       15.14740   0.02277   0.00000   0.03805   0.03824  15.18564
   X67      -11.45666   0.03873   0.00000   0.06574   0.06517 -11.39150
   Y67       -3.65445   0.00590   0.00000   0.01336   0.01544  -3.63901
   Z67       15.19392   0.02276   0.00000   0.03962   0.03957  15.23348
   X68       -9.77064   0.01866   0.00000   0.03430   0.03408  -9.73656
   Y68       -0.33245  -0.03581   0.00000  -0.05861  -0.05702  -0.38947
   Z68       18.79932  -0.02261   0.00000  -0.03589  -0.03566  18.76366
   X69       -7.98639  -0.01751   0.00000  -0.03586  -0.03676  -8.02315
   Y69       -5.35319   0.03307   0.00000   0.06019   0.06154  -5.29165
   Z69       18.86600  -0.02308   0.00000  -0.03762  -0.03771  18.82829
   X70       -6.13621   0.00056   0.00000   0.00176   0.00024  -6.13597
   Y70      -11.46751  -0.00186   0.00000  -0.01064  -0.00896 -11.47646
   Z70       10.77708  -0.00137   0.00000  -0.01393  -0.01442  10.76266
   X71       -0.37618   0.00180   0.00000   0.01547   0.01519  -0.36099
   Y71        0.03189   0.00079   0.00000   0.00941   0.00938   0.04128
   Z71       23.26734   0.00134   0.00000   0.01341   0.01392  23.28126
   X72      -17.41493  -0.00197   0.00000  -0.01978  -0.02082 -17.43575
   Y72       -5.51494  -0.00045   0.00000  -0.00106   0.00124  -5.51369
   Z72       23.36795   0.00148   0.00000   0.01384   0.01349  23.38144
   X73       -8.89298  -0.00103   0.00000  -0.00308  -0.00359  -8.89657
   Y73       -2.86629   0.00075   0.00000   0.00315   0.00476  -2.86153
   Z73       16.99809   0.00032   0.00000   0.00181   0.00188  16.99998
         Item               Value     Threshold  Converged?
 Maximum Force            0.038730     0.000450     NO 
 RMS     Force            0.007193     0.000300     NO 
 Maximum Displacement     0.096657     0.001800     NO 
 RMS     Displacement     0.020246     0.001200     NO 
 Predicted change in Energy=-1.365472D-02
 GradGradGradGradGradGradGradGradGradGradGradGradGradGradGradGradGradGrad

 Unable to Open any file for archive entry.
 1\1\GINC-X11P1N2\Force\RwB97XD\def2SVP\C8H8Cl1K3O40V1W12(1-)\MAYUMIAO\
 01-Jun-2024\0\\# def2svp wb97xd scrf=(smd,solvent=acetonitrile) g09def
 ault scf=(xqc,maxcycle=64) force guess=read nosymm\\Title Card\\-1,1\C
 l,-9.84389459,7.51240172,10.36382492\C,-8.3079541,4.25598433,12.241513
 81\C,-9.07741267,3.94087723,11.10279086\C,-10.01012409,2.8897526,11.19
 378566\C,-10.18490866,2.19045131,12.37897686\C,-9.42470868,2.52415413,
 13.50385316\C,-8.48274864,3.55258497,13.42588285\H,-7.57167056,5.06139
 706,12.19879578\H,-10.59979526,2.62829729,10.30919128\H,-10.91257231,1
 .37799848,12.433543\H,-9.55903841,1.97551948,14.43600849\H,-7.88254421
 ,3.80854512,14.30332183\C,-8.94174239,4.65659823,9.84527749\C,-8.12020
 889,5.70185268,9.59805904\H,-9.61058119,4.321232,9.04224487\H,-8.04312
 695,6.11714419,8.58794323\H,-7.36119174,6.04148565,10.31330242\O,-0.97
 625536,-1.7638285,7.44368281\O,-8.44466636,-1.32341073,7.45120302\O,-7
 .08525192,1.3640734,10.50608275\O,-2.31426295,-4.37349115,10.57770508\
 W,-3.42001841,0.74778295,6.52369464\W,-6.02495204,-3.82523043,6.602877
 44\W,-3.64401304,0.92951576,11.38453705\W,-5.76800474,-3.87597938,11.4
 5588706\W,-2.47561186,-2.53278746,6.3747769\W,-6.94488326,-0.54630771,
 6.3500537\W,-6.8170872,-0.2488553,11.60094597\W,-2.58582909,-2.6940753
 8,11.63083405\O,-3.2100276,1.93403,5.36240675\O,-6.13393059,-5.0730267
 2,5.47243066\O,-2.71482361,1.75635284,12.52656251\O,-6.68930374,-4.666
 96197,12.62766601\O,-2.68316391,-0.8592033,5.57617777\O,-6.73000098,-2
 .27808067,5.61601289\O,-5.32909139,0.58469179,12.37975897\O,-4.0657898
 1,-3.52506513,12.42734039\O,0.28177647,-0.00608818,9.28256185\O,-9.702
 8671,-3.01291154,9.3445552\O,-6.45076527,3.40408513,8.67292791\O,-2.97
 350563,-6.43518234,8.73946682\O,-1.79182832,0.79291092,7.48313824\O,-7
 .63615119,-3.8833821,7.55513611\O,-4.54892173,2.24841527,10.43268962\O
 ,-4.85970287,-5.23349575,10.53050479\O,-1.65637577,-3.47359422,5.23469
 186\O,-7.81004304,0.25805952,5.16513179\O,-8.028193,-0.18185963,12.774
 15915\O,-1.35164241,-2.78972925,12.77915515\W,-1.25783177,-0.53674295,
 8.83098378\W,-8.16563529,-2.49083455,8.87550311\W,-5.96872112,1.854116
 76,9.06264744\W,-3.44992092,-4.87468033,9.17514443\O,-4.24298678,-3.07
 141381,6.08895201\O,-5.17030866,-0.05338466,6.0378831\O,-6.16594457,-1
 .98989751,11.90623055\O,-3.21604109,-0.95851897,11.91266137\O,-4.39900
 997,1.58888217,7.86833722\O,-5.01254748,-4.64714624,7.95025835\O,-2.36
 727819,0.58993656,10.06051758\O,-7.04528648,-3.59582627,10.12134794\O,
 -2.57117596,-3.86109336,7.87103754\O,-6.86013686,0.78599809,7.81262487
 \O,-7.84574703,-1.15955861,10.15200797\O,-1.57588839,-1.84457638,10.14
 278616\O,-3.3579322,-1.13813367,8.01565869\O,-6.06260546,-1.9338497,8.
 04027369\O,-5.1704005,-0.17592597,9.9481727\O,-4.22621664,-2.83278654,
 9.9834567\K,-3.24714103,-6.06834351,5.70298511\K,-0.19906608,0.0168778
 3,12.31254371\K,-9.21558333,-2.91837825,12.36578919\V,-4.70596115,-1.5
 1677635,8.99500432\\Version=ES64L-G16RevC.01\HF=-7327.6754192\RMSD=3.2
 32e-10\RMSF=7.193e-03\Dipole=10.2792144,-20.0518095,2.3486547\Quadrupo
 le=-93.2388147,83.6619011,9.5769136,303.959073,341.3098173,-317.537816
 4\PG=C01 [X(C8H8Cl1K3O40V1W12)]\\@
 The archive entry for this job was punched.


      LET US REMEMBER, PLEASE, THAT THE SEARCH FOR THE CONSTITUTION
      OF THE WORLD IS ONE OF THE GREATEST AND NOBLEST PROBLEMS PRESENTED 
      BY NATURE.

                                                  -- GALILEO
 Job cpu time:       0 days 12 hours 52 minutes  1.1 seconds.
 Elapsed time:       0 days  0 hours 14 minutes 41.8 seconds.
 File lengths (MBytes):  RWF=   1236 Int=      0 D2E=      0 Chk=    249 Scr=      1
 Normal termination of Gaussian 16 at Sat Jun  1 12:12:00 2024.
