 Entering Gaussian System, Link 0=g16
 Input=JOBS/40_A.gjf
 Output=JOBS/40_A.log
 Initial command:
 /data/app/gaussian/C01-avx2//g16/l1.exe "/tmp/Gau-655031.inp" -scrdir="/tmp/"
 Entering Link 1 = /data/app/gaussian/C01-avx2//g16/l1.exe PID=    655032.
  
 Copyright (c) 1988-2019, Gaussian, Inc.  All Rights Reserved.
  
 This is part of the Gaussian(R) 16 program.  It is based on
 the Gaussian(R) 09 system (copyright 2009, Gaussian, Inc.),
 the Gaussian(R) 03 system (copyright 2003, Gaussian, Inc.),
 the Gaussian(R) 98 system (copyright 1998, Gaussian, Inc.),
 the Gaussian(R) 94 system (copyright 1995, Gaussian, Inc.),
 the Gaussian 92(TM) system (copyright 1992, Gaussian, Inc.),
 the Gaussian 90(TM) system (copyright 1990, Gaussian, Inc.),
 the Gaussian 88(TM) system (copyright 1988, Gaussian, Inc.),
 the Gaussian 86(TM) system (copyright 1986, Carnegie Mellon
 University), and the Gaussian 82(TM) system (copyright 1983,
 Carnegie Mellon University). Gaussian is a federally registered
 trademark of Gaussian, Inc.
  
 This software contains proprietary and confidential information,
 including trade secrets, belonging to Gaussian, Inc.
  
 This software is provided under written license and may be
 used, copied, transmitted, or stored only in accord with that
 written license.
  
 The following legend is applicable only to US Government
 contracts under FAR:
  
                    RESTRICTED RIGHTS LEGEND
  
 Use, reproduction and disclosure by the US Government is
 subject to restrictions as set forth in subparagraphs (a)
 and (c) of the Commercial Computer Software - Restricted
 Rights clause in FAR 52.227-19.
  
 Gaussian, Inc.
 340 Quinnipiac St., Bldg. 40, Wallingford CT 06492
  
  
 ---------------------------------------------------------------
 Warning -- This program may not be used in any manner that
 competes with the business of Gaussian, Inc. or will provide
 assistance to any competitor of Gaussian, Inc.  The licensee
 of this program is prohibited from giving any competitor of
 Gaussian, Inc. access to this program.  By using this program,
 the user acknowledges that Gaussian, Inc. is engaged in the
 business of creating and licensing software in the field of
 computational chemistry and represents and warrants to the
 licensee that it is not a competitor of Gaussian, Inc. and that
 it will not use this program in any manner prohibited above.
 ---------------------------------------------------------------
  

 Cite this work as:
 Gaussian 16, Revision C.01,
 M. J. Frisch, G. W. Trucks, H. B. Schlegel, G. E. Scuseria, 
 M. A. Robb, J. R. Cheeseman, G. Scalmani, V. Barone, 
 G. A. Petersson, H. Nakatsuji, X. Li, M. Caricato, A. V. Marenich, 
 J. Bloino, B. G. Janesko, R. Gomperts, B. Mennucci, H. P. Hratchian, 
 J. V. Ortiz, A. F. Izmaylov, J. L. Sonnenberg, D. Williams-Young, 
 F. Ding, F. Lipparini, F. Egidi, J. Goings, B. Peng, A. Petrone, 
 T. Henderson, D. Ranasinghe, V. G. Zakrzewski, J. Gao, N. Rega, 
 G. Zheng, W. Liang, M. Hada, M. Ehara, K. Toyota, R. Fukuda, 
 J. Hasegawa, M. Ishida, T. Nakajima, Y. Honda, O. Kitao, H. Nakai, 
 T. Vreven, K. Throssell, J. A. Montgomery, Jr., J. E. Peralta, 
 F. Ogliaro, M. J. Bearpark, J. J. Heyd, E. N. Brothers, K. N. Kudin, 
 V. N. Staroverov, T. A. Keith, R. Kobayashi, J. Normand, 
 K. Raghavachari, A. P. Rendell, J. C. Burant, S. S. Iyengar, 
 J. Tomasi, M. Cossi, J. M. Millam, M. Klene, C. Adamo, R. Cammi, 
 J. W. Ochterski, R. L. Martin, K. Morokuma, O. Farkas, 
 J. B. Foresman, and D. J. Fox, Gaussian, Inc., Wallingford CT, 2019.
 
 ******************************************
 Gaussian 16:  ES64L-G16RevC.01  3-Jul-2019
                 2-Jun-2024 
 ******************************************
 %chk=a.chk
 %nprocshared=56
 Will use up to   56 processors via shared memory.
 %mem=96gb
 ----------------------------------------------------------------------
 # def2svp wb97xd scrf=(smd,solvent=acetonitrile) g09default scf=(xqc,m
 axcycle=64) force guess=read nosymm
 ----------------------------------------------------------------------
 1/10=7,30=1,38=1,158=3,167=1/1,3;
 2/12=2,15=1,17=6,18=5,40=1/2;
 3/5=43,7=101,11=2,25=1,27=10,30=1,70=32201,71=1,72=2,74=-58,75=-4,116=-2,158=3/1,2,3;
 4/5=1,60=-1/1;
 5/5=2,7=64,8=3,13=1,38=6,53=2,87=10/2,8;
 6/7=2,8=2,9=2,10=2,28=1,87=10/1;
 7/29=1,30=1,87=10/1,2,3,16;
 1/10=7,30=1,158=3,167=1/3;
 99//99;
 Using 2006 physical constants.
 ----------
 Title Card
 ----------
 Symbolic Z-matrix:
 Charge = -1 Multiplicity = 1
 17                   -9.74641   8.26545   10.55724 
 6                    -8.33317   4.23822   12.22015 
 6                    -9.12654   3.92607   11.10048 
 6                    -10.03798   2.85857   11.21164 
 6                    -10.20253   2.17696   12.41304 
 6                    -9.44632   2.53583   13.52987 
 6                    -8.4944    3.55197   13.4201 
 1                    -7.57454   5.02089   12.15066 
 1                    -10.62464   2.56541   10.3364 
 1                    -10.91862   1.35418   12.47852 
 1                    -9.58311   2.01115   14.47807 
 1                    -7.87019   3.80957   14.27931 
 6                    -9.04706   4.66412   9.83825 
 6                    -8.34322   5.79089   9.60019 
 1                    -9.63877   4.24146   9.01845 
 1                    -8.3207    6.2177    8.59535 
 1                    -7.70729   6.26878   10.34634 
 8                    -0.98019  -1.79077   7.46634 
 8                    -8.40148  -1.33439   7.46083 
 8                    -7.0294    1.3482    10.47298 
 8                    -2.33381  -4.38816   10.55368 
 74                   -3.40843   0.69127   6.47383 
 74                   -5.99357  -3.81783   6.56165 
 74                   -3.61659   0.8767    11.42227 
 74                   -5.76401  -3.85913   11.47878 
 74                   -2.43453  -2.58896   6.40125 
 74                   -6.94444  -0.53318   6.37249 
 74                   -6.82391  -0.24756   11.56105 
 74                   -2.54514  -2.72669   11.60338 
 8                    -3.17082   1.87569   5.2947 
 8                    -6.12864  -5.06903   5.42028 
 8                    -2.69543   1.72268   12.57352 
 8                    -6.67837  -4.66182   12.66377 
 8                    -2.65939  -0.91132   5.58496 
 8                    -6.70641  -2.26723   5.62227 
 8                    -5.31527   0.55374   12.36125 
 8                    -4.05078  -3.52532   12.4038 
 8                     0.30406  -0.00614   9.28315 
 8                    -9.69918  -3.03934   9.32856 
 8                    -6.34926   3.42936   8.66817 
 8                    -3.00338  -6.48664   8.74991 
 8                    -1.78664   0.75569   7.47437 
 8                    -7.60075  -3.88416   7.54469 
 8                    -4.49893   2.20198   10.42995 
 8                    -4.87462  -5.22675   10.52526 
 8                    -1.6038   -3.53746   5.25913 
 8                    -7.82828   0.27586   5.18257 
 8                    -8.04974  -0.16617   12.73447 
 8                    -1.30494  -2.85253   12.75818 
 74                   -1.25276  -0.52405   8.83643 
 74                   -8.1399   -2.53674   8.87435 
 74                   -5.8728    1.85749   9.04589 
 74                   -3.49177  -4.91228   9.1656 
 8                    -4.21411  -3.10806   6.06885 
 8                    -5.15733  -0.05737   6.01139 
 8                    -6.17299  -1.99565   11.90823 
 8                    -3.16942  -0.97949   11.93136 
 8                    -4.35808   1.58068   7.83167 
 8                    -5.00523  -4.6787    7.92096 
 8                    -2.32837   0.57455   10.08178 
 8                    -7.05197  -3.61349   10.13222 
 8                    -2.56939  -3.90396   7.86638 
 8                    -6.81257   0.7921    7.80432 
 8                    -7.8291   -1.17591   10.13854 
 8                    -1.56447  -1.86225   10.13851 
 8                    -3.35915  -1.15431   8.00452 
 8                    -6.02538  -1.95615   8.0336 
 8                    -5.11827  -0.20378   9.9453 
 8                    -4.23687  -2.84189   9.97424 
 19                   -3.21299  -6.13722   5.64472 
 19                   -0.10707   0.05666   12.34758 
 19                   -9.28988  -2.85146   12.43678 
 23                   -4.68736  -1.53491   8.98712 
 

 GradGradGradGradGradGradGradGradGradGradGradGradGradGradGradGradGradGrad
 Berny optimization.
 Initialization pass.
 Trust Radius=3.00D-01 FncErr=1.00D-07 GrdErr=1.00D-07 EigMax=2.50D+02 EigMin=1.00D-04
 Number of steps in this run=      2 maximum allowed number of steps=      2.
 GradGradGradGradGradGradGradGradGradGradGradGradGradGradGradGradGradGrad

 Symmetry turned off by external request.
 Stoichiometry    C8H8ClK3O40VW12(1-)
 Framework group  C1[X(C8H8ClK3O40VW12)]
 Deg. of freedom   213
 Full point group                 C1      NOp   1
                          Input orientation:                          
 ---------------------------------------------------------------------
 Center     Atomic      Atomic             Coordinates (Angstroms)
 Number     Number       Type             X           Y           Z
 ---------------------------------------------------------------------
      1         17           0       -9.746407    8.265447   10.557238
      2          6           0       -8.333169    4.238218   12.220152
      3          6           0       -9.126541    3.926067   11.100484
      4          6           0      -10.037983    2.858570   11.211638
      5          6           0      -10.202534    2.176957   12.413042
      6          6           0       -9.446318    2.535827   13.529868
      7          6           0       -8.494404    3.551973   13.420105
      8          1           0       -7.574543    5.020895   12.150665
      9          1           0      -10.624643    2.565407   10.336396
     10          1           0      -10.918621    1.354180   12.478524
     11          1           0       -9.583114    2.011150   14.478070
     12          1           0       -7.870185    3.809567   14.279312
     13          6           0       -9.047061    4.664118    9.838247
     14          6           0       -8.343224    5.790885    9.600190
     15          1           0       -9.638772    4.241457    9.018452
     16          1           0       -8.320704    6.217701    8.595349
     17          1           0       -7.707291    6.268785   10.346337
     18          8           0       -0.980189   -1.790768    7.466335
     19          8           0       -8.401482   -1.334386    7.460826
     20          8           0       -7.029400    1.348204   10.472980
     21          8           0       -2.333812   -4.388157   10.553685
     22         74           0       -3.408435    0.691271    6.473829
     23         74           0       -5.993570   -3.817828    6.561647
     24         74           0       -3.616588    0.876703   11.422267
     25         74           0       -5.764011   -3.859130   11.478785
     26         74           0       -2.434533   -2.588962    6.401248
     27         74           0       -6.944439   -0.533179    6.372486
     28         74           0       -6.823908   -0.247563   11.561048
     29         74           0       -2.545139   -2.726685   11.603382
     30          8           0       -3.170816    1.875685    5.294704
     31          8           0       -6.128642   -5.069034    5.420280
     32          8           0       -2.695431    1.722680   12.573525
     33          8           0       -6.678369   -4.661816   12.663771
     34          8           0       -2.659387   -0.911320    5.584961
     35          8           0       -6.706407   -2.267230    5.622271
     36          8           0       -5.315275    0.553739   12.361246
     37          8           0       -4.050784   -3.525319   12.403797
     38          8           0        0.304064   -0.006143    9.283151
     39          8           0       -9.699178   -3.039345    9.328559
     40          8           0       -6.349258    3.429362    8.668165
     41          8           0       -3.003385   -6.486642    8.749913
     42          8           0       -1.786636    0.755692    7.474366
     43          8           0       -7.600748   -3.884159    7.544690
     44          8           0       -4.498928    2.201975   10.429950
     45          8           0       -4.874617   -5.226746   10.525261
     46          8           0       -1.603804   -3.537458    5.259131
     47          8           0       -7.828278    0.275863    5.182572
     48          8           0       -8.049739   -0.166171   12.734471
     49          8           0       -1.304938   -2.852532   12.758177
     50         74           0       -1.252763   -0.524051    8.836432
     51         74           0       -8.139898   -2.536735    8.874355
     52         74           0       -5.872796    1.857490    9.045894
     53         74           0       -3.491771   -4.912283    9.165602
     54          8           0       -4.214111   -3.108063    6.068846
     55          8           0       -5.157329   -0.057373    6.011389
     56          8           0       -6.172991   -1.995651   11.908228
     57          8           0       -3.169418   -0.979492   11.931362
     58          8           0       -4.358076    1.580677    7.831667
     59          8           0       -5.005228   -4.678704    7.920955
     60          8           0       -2.328371    0.574547   10.081778
     61          8           0       -7.051974   -3.613486   10.132216
     62          8           0       -2.569385   -3.903956    7.866376
     63          8           0       -6.812565    0.792098    7.804323
     64          8           0       -7.829096   -1.175913   10.138541
     65          8           0       -1.564466   -1.862251   10.138506
     66          8           0       -3.359153   -1.154314    8.004519
     67          8           0       -6.025375   -1.956151    8.033603
     68          8           0       -5.118275   -0.203780    9.945304
     69          8           0       -4.236873   -2.841887    9.974242
     70         19           0       -3.212989   -6.137220    5.644720
     71         19           0       -0.107067    0.056661   12.347577
     72         19           0       -9.289878   -2.851464   12.436778
     73         23           0       -4.687358   -1.534914    8.987117
 ---------------------------------------------------------------------
 Rotational constants (GHZ):           0.0172079           0.0132228           0.0129950
 Standard basis: def2SVP (5D, 7F)
  1217 basis functions,  2313 primitive gaussians,  1337 cartesian basis functions
   321 alpha electrons      321 beta electrons
       nuclear repulsion energy     20972.1205166255 Hartrees.
 NAtoms=   73 NActive=   73 NUniq=   73 SFac= 1.00D+00 NAtFMM=   60 NAOKFM=T Big=T
 Integral buffers will be    131072 words long.
 Raffenetti 2 integral format.
 Two-electron integral symmetry is turned off.
 Nuclear repulsion after empirical dispersion term =    20971.8438208239 Hartrees.
 Force PCM accuracy= 1.00D-10.
 ------------------------------------------------------------------------------
 Polarizable Continuum Model (PCM)
 =================================
 Model                : PCM (using non-symmetric T matrix).
 Atomic radii         : SMD-Coulomb.
 Polarization charges : Total charges.
 Charge compensation  : None.
 Solution method      : On-the-fly selection.
 Cavity type          : VdW (van der Waals Surface) (Alpha=1.000).
 Cavity algorithm     : GePol (No added spheres)
                        Default sphere list used, NSphG=   73.
                        Lebedev-Laikov grids with approx.  5.0 points / Ang**2.
                        Smoothing algorithm: York/Karplus (Gamma=1.0000).
                        Polarization charges: spherical gaussians, with
                                              point-specific exponents (IZeta= 3).
                        Self-potential: point-specific (ISelfS= 7).
                        Self-field    : sphere-specific E.n sum rule (ISelfD= 2).
 1st derivatives      : Analytical E(r).r(x)/FMM algorithm (CHGder, D1EAlg=3).
                        Cavity 1st derivative terms included.
 Solvent              : Acetonitrile, Eps=  35.688000 Eps(inf)=   1.806874
 ------------------------------------------------------------------------------
 ------------------------------------------------------------------------------
 Atomic radii for non-electrostatic terms: SMD-CDS.
 ------------------------------------------------------------------------------
 Nuclear repulsion after PCM non-electrostatic terms =    20971.8380689806 Hartrees.
 One-electron integrals computed using PRISM.
   1 Symmetry operations used in ECPInt.
 ECPInt:  NShTT=  127765 NPrTT=  468030 LenC2=   96586 LenP2D=  220970.
 LDataN:  DoStor=T MaxTD1= 8 Len=  415
 NBasis=  1217 RedAO= T EigKep=  1.38D-04  NBF=  1217
 NBsUse=  1217 1.00D-06 EigRej= -1.00D+00 NBFU=  1217
 Defaulting to unpruned grid for atomic number  74.
 Defaulting to unpruned grid for atomic number  74.
 Defaulting to unpruned grid for atomic number  74.
 Defaulting to unpruned grid for atomic number  74.
 Defaulting to unpruned grid for atomic number  74.
 Defaulting to unpruned grid for atomic number  74.
 Defaulting to unpruned grid for atomic number  74.
 Defaulting to unpruned grid for atomic number  74.
 Initial guess from the checkpoint file:  "a.chk"
 B after Tr=     0.003537   -0.004953   -0.000043
         Rot=    1.000000   -0.000006    0.000012    0.000203 Ang=  -0.02 deg.
 Requested convergence on RMS density matrix=1.00D-08 within  64 cycles.
 Requested convergence on MAX density matrix=1.00D-06.
 Requested convergence on             energy=1.00D-06.
 No special actions if energy rises.
 Defaulting to unpruned grid for atomic number  74.
 Defaulting to unpruned grid for atomic number  74.
 Defaulting to unpruned grid for atomic number  74.
 Defaulting to unpruned grid for atomic number  74.
 Defaulting to unpruned grid for atomic number  74.
 Defaulting to unpruned grid for atomic number  74.
 Defaulting to unpruned grid for atomic number  74.
 Defaulting to unpruned grid for atomic number  74.
 Defaulting to unpruned grid for atomic number  74.
 Defaulting to unpruned grid for atomic number  74.
 Defaulting to unpruned grid for atomic number  74.
 Defaulting to unpruned grid for atomic number  74.
 Defaulting to unpruned grid for atomic number  74.
 Defaulting to unpruned grid for atomic number  74.
 Defaulting to unpruned grid for atomic number  74.
 Defaulting to unpruned grid for atomic number  74.
 Defaulting to unpruned grid for atomic number  74.
 Defaulting to unpruned grid for atomic number  74.
 Defaulting to unpruned grid for atomic number  74.
 Defaulting to unpruned grid for atomic number  74.
 Defaulting to unpruned grid for atomic number  74.
 Defaulting to unpruned grid for atomic number  74.
 Defaulting to unpruned grid for atomic number  74.
 Defaulting to unpruned grid for atomic number  74.
 Defaulting to unpruned grid for atomic number  74.
 Defaulting to unpruned grid for atomic number  74.
 Defaulting to unpruned grid for atomic number  74.
 Defaulting to unpruned grid for atomic number  74.
 Defaulting to unpruned grid for atomic number  74.
 Defaulting to unpruned grid for atomic number  74.
 Defaulting to unpruned grid for atomic number  74.
 Defaulting to unpruned grid for atomic number  74.
 Defaulting to unpruned grid for atomic number  74.
 Defaulting to unpruned grid for atomic number  74.
 Defaulting to unpruned grid for atomic number  74.
 Defaulting to unpruned grid for atomic number  74.
 Defaulting to unpruned grid for atomic number  74.
 Defaulting to unpruned grid for atomic number  74.
 Defaulting to unpruned grid for atomic number  74.
 Defaulting to unpruned grid for atomic number  74.
 Defaulting to unpruned grid for atomic number  74.
 Defaulting to unpruned grid for atomic number  74.
 Defaulting to unpruned grid for atomic number  74.
 Defaulting to unpruned grid for atomic number  74.
 Defaulting to unpruned grid for atomic number  74.
 Defaulting to unpruned grid for atomic number  74.
 Defaulting to unpruned grid for atomic number  74.
 Defaulting to unpruned grid for atomic number  74.
 Defaulting to unpruned grid for atomic number  74.
 Defaulting to unpruned grid for atomic number  74.
 Defaulting to unpruned grid for atomic number  74.
 Defaulting to unpruned grid for atomic number  74.
 Defaulting to unpruned grid for atomic number  74.
 Defaulting to unpruned grid for atomic number  74.
 Defaulting to unpruned grid for atomic number  74.
 Defaulting to unpruned grid for atomic number  74.
 Inv3:  Mode=1 IEnd=    87350448.
 Iteration    1 A*A^-1 deviation from unit magnitude is 3.77D-15 for    731.
 Iteration    1 A*A^-1 deviation from orthogonality  is 2.89D-15 for   3322   2126.
 Iteration    1 A^-1*A deviation from unit magnitude is 3.55D-15 for   4317.
 Iteration    1 A^-1*A deviation from orthogonality  is 6.43D-11 for    999    952.
 Error on total polarization charges =  0.01605
 SCF Done:  E(RwB97XD) =  -7327.70149906     A.U. after   12 cycles
            NFock= 12  Conv=0.35D-08     -V/T= 2.0832
 SMD-CDS (non-electrostatic) energy       (kcal/mol) =      -3.61
 (included in total energy above)
 QCSCF skips out because SCF is already converged.

 **********************************************************************

            Population analysis using the SCF Density.

 **********************************************************************

 Alpha  occ. eigenvalues -- -197.29696-130.00136-130.00098-130.00010-101.48060
 Alpha  occ. eigenvalues --  -22.62793 -19.33733 -19.33732 -19.33721 -19.33696
 Alpha  occ. eigenvalues --  -19.30723 -19.30677 -19.30675 -19.30672 -19.30668
 Alpha  occ. eigenvalues --  -19.30666 -19.30651 -19.30615 -19.30533 -19.30376
 Alpha  occ. eigenvalues --  -19.30335 -19.30161 -19.29320 -19.29299 -19.29297
 Alpha  occ. eigenvalues --  -19.29293 -19.29272 -19.29260 -19.29226 -19.29192
 Alpha  occ. eigenvalues --  -19.29173 -19.29162 -19.29152 -19.29149 -19.29128
 Alpha  occ. eigenvalues --  -19.29103 -19.29092 -19.29068 -19.29066 -19.29060
 Alpha  occ. eigenvalues --  -19.29047 -19.28984 -19.28966 -19.28962 -19.28914
 Alpha  occ. eigenvalues --  -19.28837 -19.11754 -19.11746 -19.11736 -13.37544
 Alpha  occ. eigenvalues --  -13.37503 -13.37408 -10.70473 -10.70466 -10.70464
 Alpha  occ. eigenvalues --  -10.70432 -10.70425 -10.70424 -10.70339 -10.70332
 Alpha  occ. eigenvalues --  -10.70327 -10.29911 -10.29362 -10.29312 -10.29113
 Alpha  occ. eigenvalues --  -10.29038 -10.29021 -10.28228 -10.27756  -9.38522
 Alpha  occ. eigenvalues --   -7.13347  -7.13303  -7.13296  -3.23312  -3.23310
 Alpha  occ. eigenvalues --   -3.23301  -3.23291  -3.23290  -3.23269  -3.23268
 Alpha  occ. eigenvalues --   -3.23245  -3.23207  -3.22982  -3.22980  -3.22779
 Alpha  occ. eigenvalues --   -2.91970  -1.94330  -1.94297  -1.94290  -1.87717
 Alpha  occ. eigenvalues --   -1.87666  -1.87651  -1.87616  -1.87481  -1.87471
 Alpha  occ. eigenvalues --   -1.87460  -1.87443  -1.87412  -1.87284  -1.87248
 Alpha  occ. eigenvalues --   -1.87090  -1.86622  -1.86502  -1.86496  -1.86476
 Alpha  occ. eigenvalues --   -1.86453  -1.86429  -1.86340  -1.86330  -1.86310
 Alpha  occ. eigenvalues --   -1.86291  -1.86285  -1.86251  -1.86140  -1.86130
 Alpha  occ. eigenvalues --   -1.86121  -1.86108  -1.86043  -1.86018  -1.85987
 Alpha  occ. eigenvalues --   -1.85925  -1.85905  -1.85807  -1.85707  -1.85660
 Alpha  occ. eigenvalues --   -1.51226  -1.51191  -1.51101  -1.13111  -1.11349
 Alpha  occ. eigenvalues --   -1.11274  -1.11261  -1.08979  -1.08536  -1.08492
 Alpha  occ. eigenvalues --   -1.08293  -1.07574  -1.07523  -1.07508  -1.06900
 Alpha  occ. eigenvalues --   -1.06873  -1.06861  -1.06320  -1.06303  -1.05301
 Alpha  occ. eigenvalues --   -1.05290  -1.04973  -1.04964  -1.04956  -1.04181
 Alpha  occ. eigenvalues --   -1.04174  -1.04162  -1.04014  -1.03995  -1.03982
 Alpha  occ. eigenvalues --   -1.03931  -1.03899  -1.03881  -1.03751  -1.03716
 Alpha  occ. eigenvalues --   -1.03606  -1.03543  -1.03300  -1.03250  -1.03102
 Alpha  occ. eigenvalues --   -1.03089  -1.03018  -1.02951  -0.94407  -0.86688
 Alpha  occ. eigenvalues --   -0.86656  -0.86573  -0.86550  -0.86502  -0.86486
 Alpha  occ. eigenvalues --   -0.86466  -0.86461  -0.86387  -0.86352  -0.82838
 Alpha  occ. eigenvalues --   -0.79838  -0.71241  -0.69757  -0.68064  -0.64602
 Alpha  occ. eigenvalues --   -0.63967  -0.63913  -0.63907  -0.63355  -0.63331
 Alpha  occ. eigenvalues --   -0.63202  -0.63032  -0.62714  -0.62618  -0.62044
 Alpha  occ. eigenvalues --   -0.61630  -0.61619  -0.61525  -0.61241  -0.61225
 Alpha  occ. eigenvalues --   -0.61167  -0.60404  -0.59492  -0.59472  -0.59455
 Alpha  occ. eigenvalues --   -0.59426  -0.59381  -0.58638  -0.57988  -0.57965
 Alpha  occ. eigenvalues --   -0.57875  -0.57100  -0.57058  -0.57027  -0.56303
 Alpha  occ. eigenvalues --   -0.56273  -0.56107  -0.55694  -0.54857  -0.54793
 Alpha  occ. eigenvalues --   -0.54760  -0.54571  -0.54233  -0.54106  -0.54079
 Alpha  occ. eigenvalues --   -0.54014  -0.53954  -0.53219  -0.53184  -0.53051
 Alpha  occ. eigenvalues --   -0.53011  -0.52891  -0.52690  -0.52645  -0.52625
 Alpha  occ. eigenvalues --   -0.52567  -0.52539  -0.52468  -0.52456  -0.51591
 Alpha  occ. eigenvalues --   -0.51564  -0.51350  -0.51319  -0.51281  -0.51236
 Alpha  occ. eigenvalues --   -0.51180  -0.51170  -0.50982  -0.50740  -0.50557
 Alpha  occ. eigenvalues --   -0.50541  -0.50534  -0.49871  -0.49847  -0.49308
 Alpha  occ. eigenvalues --   -0.49286  -0.49253  -0.49210  -0.49156  -0.49059
 Alpha  occ. eigenvalues --   -0.48900  -0.48084  -0.48031  -0.47933  -0.47748
 Alpha  occ. eigenvalues --   -0.47376  -0.47282  -0.47236  -0.47003  -0.46926
 Alpha  occ. eigenvalues --   -0.46817  -0.46555  -0.46478  -0.46465  -0.46212
 Alpha  occ. eigenvalues --   -0.46155  -0.46112  -0.45626  -0.45089  -0.44912
 Alpha  occ. eigenvalues --   -0.44873  -0.44198  -0.44152  -0.44040  -0.43581
 Alpha  occ. eigenvalues --   -0.43272  -0.43221  -0.43108  -0.43088  -0.43053
 Alpha  occ. eigenvalues --   -0.42696  -0.42670  -0.42649  -0.42585  -0.42580
 Alpha  occ. eigenvalues --   -0.42494  -0.42450  -0.42434  -0.42273  -0.42257
 Alpha  occ. eigenvalues --   -0.42236  -0.42011  -0.41899  -0.41842  -0.41824
 Alpha  occ. eigenvalues --   -0.41221  -0.41147  -0.41135  -0.41007  -0.40538
 Alpha  occ. eigenvalues --   -0.40509  -0.40496  -0.40416  -0.39439  -0.39423
 Alpha  occ. eigenvalues --   -0.36993  -0.32557  -0.29053  -0.24873  -0.24852
 Alpha  occ. eigenvalues --   -0.23579
 Alpha virt. eigenvalues --   -0.09662  -0.09430  -0.08529  -0.08464  -0.07063
 Alpha virt. eigenvalues --   -0.07037  -0.06908  -0.04660  -0.04301  -0.04259
 Alpha virt. eigenvalues --   -0.03734  -0.03536  -0.03476  -0.03265  -0.03165
 Alpha virt. eigenvalues --   -0.03117  -0.03088  -0.02230  -0.02181  -0.02147
 Alpha virt. eigenvalues --   -0.01531  -0.01512  -0.01468  -0.01312  -0.01263
 Alpha virt. eigenvalues --   -0.00102  -0.00098  -0.00030   0.01402   0.01437
 Alpha virt. eigenvalues --    0.01895   0.01924   0.02014   0.02122   0.02159
 Alpha virt. eigenvalues --    0.02182   0.02236   0.02289   0.02758   0.02826
 Alpha virt. eigenvalues --    0.02890   0.02960   0.02996   0.04228   0.04515
 Alpha virt. eigenvalues --    0.06742   0.07247   0.07518   0.07542   0.07786
 Alpha virt. eigenvalues --    0.08015   0.08459   0.08518   0.08775   0.09156
 Alpha virt. eigenvalues --    0.09341   0.09382   0.09664   0.09891   0.10283
 Alpha virt. eigenvalues --    0.10329   0.10389   0.10442   0.10473   0.10646
 Alpha virt. eigenvalues --    0.10882   0.11041   0.11059   0.11642   0.11725
 Alpha virt. eigenvalues --    0.12217   0.13101   0.13227   0.13312   0.13573
 Alpha virt. eigenvalues --    0.13738   0.14374   0.14534   0.14661   0.14968
 Alpha virt. eigenvalues --    0.15547   0.16144   0.16332   0.16567   0.16745
 Alpha virt. eigenvalues --    0.16768   0.16885   0.17083   0.17246   0.17682
 Alpha virt. eigenvalues --    0.17884   0.18161   0.18217   0.18359   0.18576
 Alpha virt. eigenvalues --    0.18745   0.19064   0.19321   0.19417   0.19550
 Alpha virt. eigenvalues --    0.19663   0.20196   0.20273   0.20503   0.20590
 Alpha virt. eigenvalues --    0.20759   0.20873   0.20962   0.21363   0.21414
 Alpha virt. eigenvalues --    0.21528   0.21624   0.21722   0.21874   0.22018
 Alpha virt. eigenvalues --    0.22405   0.22719   0.22907   0.23127   0.23225
 Alpha virt. eigenvalues --    0.23474   0.23816   0.23988   0.24271   0.24566
 Alpha virt. eigenvalues --    0.24718   0.25214   0.25431   0.25635   0.25845
 Alpha virt. eigenvalues --    0.26008   0.26214   0.26403   0.26603   0.26654
 Alpha virt. eigenvalues --    0.26973   0.27202   0.27326   0.27441   0.27729
 Alpha virt. eigenvalues --    0.27987   0.28267   0.28336   0.28690   0.28731
 Alpha virt. eigenvalues --    0.29192   0.29428   0.29865   0.30113   0.30463
 Alpha virt. eigenvalues --    0.30657   0.30883   0.31225   0.31520   0.31809
 Alpha virt. eigenvalues --    0.32266   0.34706   0.35188   0.35756   0.36278
 Alpha virt. eigenvalues --    0.36665   0.36884   0.37189   0.38076   0.38350
 Alpha virt. eigenvalues --    0.38616   0.39170   0.39520   0.39606   0.40208
 Alpha virt. eigenvalues --    0.40696   0.40836   0.40985   0.41095   0.41728
 Alpha virt. eigenvalues --    0.42123   0.42405   0.42794   0.43292   0.43555
 Alpha virt. eigenvalues --    0.43729   0.44540   0.44788   0.44903   0.45270
 Alpha virt. eigenvalues --    0.45762   0.46327   0.46500   0.46712   0.47299
 Alpha virt. eigenvalues --    0.47397   0.47646   0.47920   0.48067   0.48231
 Alpha virt. eigenvalues --    0.48413   0.48444   0.48615   0.48704   0.48989
 Alpha virt. eigenvalues --    0.49147   0.49416   0.49471   0.49783   0.49882
 Alpha virt. eigenvalues --    0.50200   0.50578   0.50726   0.50757   0.51000
 Alpha virt. eigenvalues --    0.51620   0.51676   0.51864   0.52202   0.52417
 Alpha virt. eigenvalues --    0.52675   0.52857   0.53028   0.53130   0.53296
 Alpha virt. eigenvalues --    0.53683   0.54039   0.54310   0.54351   0.54536
 Alpha virt. eigenvalues --    0.54937   0.55405   0.55647   0.56369   0.56425
 Alpha virt. eigenvalues --    0.56871   0.57394   0.57773   0.58025   0.58275
 Alpha virt. eigenvalues --    0.58570   0.59063   0.59410   0.60121   0.60710
 Alpha virt. eigenvalues --    0.61327   0.62117   0.62518   0.62750   0.63096
 Alpha virt. eigenvalues --    0.64009   0.65277   0.65636   0.65678   0.65870
 Alpha virt. eigenvalues --    0.66050   0.66610   0.66961   0.67321   0.67381
 Alpha virt. eigenvalues --    0.67760   0.68300   0.69694   0.70260   0.71026
 Alpha virt. eigenvalues --    0.71364   0.71835   0.72062   0.72138   0.72201
 Alpha virt. eigenvalues --    0.72475   0.72622   0.73182   0.73364   0.73929
 Alpha virt. eigenvalues --    0.74593   0.74827   0.75492   0.75668   0.75787
 Alpha virt. eigenvalues --    0.76156   0.76749   0.76865   0.77235   0.77464
 Alpha virt. eigenvalues --    0.77664   0.78405   0.78960   0.79470   0.79747
 Alpha virt. eigenvalues --    0.79893   0.80294   0.80611   0.80728   0.81496
 Alpha virt. eigenvalues --    0.81514   0.81754   0.81982   0.82534   0.83065
 Alpha virt. eigenvalues --    0.84006   0.84210   0.84797   0.85303   0.85851
 Alpha virt. eigenvalues --    0.87174   0.87551   0.87957   0.88051   0.88738
 Alpha virt. eigenvalues --    0.88855   0.89057   0.89453   0.89645   0.90205
 Alpha virt. eigenvalues --    0.90739   0.90931   0.91228   0.91476   0.91685
 Alpha virt. eigenvalues --    0.92853   0.93005   0.93608   0.93921   0.94048
 Alpha virt. eigenvalues --    0.94261   0.94733   0.95781   0.95998   0.96683
 Alpha virt. eigenvalues --    0.96813   0.97054   0.97289   0.97696   0.97805
 Alpha virt. eigenvalues --    0.98116   0.98293   0.98449   0.98556   0.98781
 Alpha virt. eigenvalues --    0.98899   0.99490   0.99977   1.00348   1.00535
 Alpha virt. eigenvalues --    1.00888   1.01314   1.01598   1.01705   1.02063
 Alpha virt. eigenvalues --    1.02197   1.02286   1.02434   1.02477   1.02611
 Alpha virt. eigenvalues --    1.02941   1.03584   1.03695   1.03817   1.03842
 Alpha virt. eigenvalues --    1.04148   1.04190   1.04398   1.04607   1.04665
 Alpha virt. eigenvalues --    1.04842   1.05020   1.05182   1.05374   1.05785
 Alpha virt. eigenvalues --    1.05919   1.06302   1.06371   1.06990   1.07159
 Alpha virt. eigenvalues --    1.07522   1.07810   1.08621   1.09050   1.09212
 Alpha virt. eigenvalues --    1.09371   1.09829   1.09940   1.10152   1.10183
 Alpha virt. eigenvalues --    1.10689   1.10864   1.10925   1.11022   1.11237
 Alpha virt. eigenvalues --    1.11472   1.11621   1.11740   1.11978   1.12508
 Alpha virt. eigenvalues --    1.12851   1.13462   1.13722   1.14217   1.14725
 Alpha virt. eigenvalues --    1.15266   1.15876   1.15974   1.16372   1.16587
 Alpha virt. eigenvalues --    1.16968   1.17647   1.17846   1.18610   1.18671
 Alpha virt. eigenvalues --    1.19197   1.20675   1.20962   1.21199   1.21320
 Alpha virt. eigenvalues --    1.21463   1.21922   1.22204   1.23023   1.23499
 Alpha virt. eigenvalues --    1.25107   1.26046   1.26571   1.26711   1.27114
 Alpha virt. eigenvalues --    1.27531   1.27821   1.28288   1.28514   1.28568
 Alpha virt. eigenvalues --    1.28839   1.29153   1.29208   1.29407   1.29654
 Alpha virt. eigenvalues --    1.30066   1.30262   1.30376   1.30825   1.30888
 Alpha virt. eigenvalues --    1.31320   1.32156   1.32454   1.33029   1.33176
 Alpha virt. eigenvalues --    1.33274   1.33370   1.33664   1.33897   1.34030
 Alpha virt. eigenvalues --    1.34251   1.34361   1.34553   1.34748   1.34876
 Alpha virt. eigenvalues --    1.34907   1.35238   1.35473   1.35722   1.36055
 Alpha virt. eigenvalues --    1.36122   1.36416   1.36644   1.36817   1.36899
 Alpha virt. eigenvalues --    1.37075   1.37280   1.37324   1.37719   1.37875
 Alpha virt. eigenvalues --    1.37925   1.38456   1.38682   1.38721   1.39041
 Alpha virt. eigenvalues --    1.39197   1.39457   1.39563   1.39709   1.40142
 Alpha virt. eigenvalues --    1.40223   1.40411   1.40529   1.40702   1.40838
 Alpha virt. eigenvalues --    1.40962   1.41142   1.41387   1.41908   1.42005
 Alpha virt. eigenvalues --    1.42599   1.43030   1.43306   1.43477   1.43530
 Alpha virt. eigenvalues --    1.43936   1.44284   1.44575   1.44920   1.45669
 Alpha virt. eigenvalues --    1.46441   1.46994   1.47635   1.47734   1.48111
 Alpha virt. eigenvalues --    1.48251   1.48749   1.49192   1.49606   1.49928
 Alpha virt. eigenvalues --    1.50509   1.51013   1.51341   1.51955   1.53360
 Alpha virt. eigenvalues --    1.53772   1.55304   1.55782   1.55814   1.55988
 Alpha virt. eigenvalues --    1.56130   1.56310   1.56638   1.56747   1.57136
 Alpha virt. eigenvalues --    1.57203   1.58026   1.58238   1.59212   1.59299
 Alpha virt. eigenvalues --    1.59822   1.60209   1.60298   1.60470   1.60504
 Alpha virt. eigenvalues --    1.60671   1.61177   1.61882   1.62218   1.62413
 Alpha virt. eigenvalues --    1.63803   1.64431   1.65133   1.65669   1.66785
 Alpha virt. eigenvalues --    1.67478   1.67886   1.69975   1.70473   1.70812
 Alpha virt. eigenvalues --    1.71295   1.71593   1.72321   1.72834   1.74084
 Alpha virt. eigenvalues --    1.75268   1.75399   1.75562   1.75914   1.76869
 Alpha virt. eigenvalues --    1.76922   1.76936   1.77532   1.77867   1.78654
 Alpha virt. eigenvalues --    1.78884   1.79293   1.79962   1.80398   1.80687
 Alpha virt. eigenvalues --    1.81095   1.81274   1.81878   1.82078   1.82793
 Alpha virt. eigenvalues --    1.82915   1.83238   1.83916   1.84166   1.84485
 Alpha virt. eigenvalues --    1.85181   1.85288   1.85688   1.86115   1.86340
 Alpha virt. eigenvalues --    1.86494   1.87107   1.87479   1.88211   1.88638
 Alpha virt. eigenvalues --    1.89382   1.89930   1.90154   1.90281   1.90369
 Alpha virt. eigenvalues --    1.90724   1.90968   1.91282   1.92349   1.93246
 Alpha virt. eigenvalues --    1.94883   1.95376   1.95559   1.95794   1.96032
 Alpha virt. eigenvalues --    1.97999   1.99287   1.99480   1.99593   2.04171
 Alpha virt. eigenvalues --    2.06228   2.07460   2.08144   2.08602   2.08777
 Alpha virt. eigenvalues --    2.09052   2.09170   2.09552   2.10261   2.11172
 Alpha virt. eigenvalues --    2.11511   2.11959   2.12816   2.14766   2.15295
 Alpha virt. eigenvalues --    2.15989   2.16829   2.17249   2.17524   2.17732
 Alpha virt. eigenvalues --    2.19846   2.20182   2.20328   2.20707   2.20863
 Alpha virt. eigenvalues --    2.21046   2.22209   2.24469   2.25286   2.25999
 Alpha virt. eigenvalues --    2.26397   2.26813   2.27481   2.28481   2.28944
 Alpha virt. eigenvalues --    2.29150   2.29888   2.30290   2.33240   2.35713
 Alpha virt. eigenvalues --    2.36477   2.40257   2.40978   2.41106   2.43631
 Alpha virt. eigenvalues --    2.44188   2.50098   2.51371   2.57213   2.64730
 Alpha virt. eigenvalues --    2.64798   2.64922   2.65403   2.65955   2.66594
 Alpha virt. eigenvalues --    2.66710   2.66813   2.66931   2.66960   2.67052
 Alpha virt. eigenvalues --    2.67100   2.67166   2.67337   2.67363   2.67420
 Alpha virt. eigenvalues --    2.67654   2.67679   2.67773   2.67821   2.67888
 Alpha virt. eigenvalues --    2.68550   2.68914   2.69257   2.69380   2.70005
 Alpha virt. eigenvalues --    2.70187   2.70303   2.70610   2.70719   2.70839
 Alpha virt. eigenvalues --    2.70936   2.71372   2.71426   2.71514   2.71581
 Alpha virt. eigenvalues --    2.71664   2.71938   2.72667   2.72951   2.72975
 Alpha virt. eigenvalues --    2.73162   2.73233   2.73262   2.73351   2.73359
 Alpha virt. eigenvalues --    2.73498   2.73800   2.73891   2.73916   2.73998
 Alpha virt. eigenvalues --    2.74078   2.74183   2.74337   2.74548   2.74720
 Alpha virt. eigenvalues --    2.74776   2.74941   2.75071   2.75560   2.75998
 Alpha virt. eigenvalues --    2.76166   2.76334   2.76457   2.76737   2.76926
 Alpha virt. eigenvalues --    2.77110   2.77202   2.77244   2.78461   2.78608
 Alpha virt. eigenvalues --    2.78635   2.78945   2.79795   2.80092   2.80178
 Alpha virt. eigenvalues --    2.81165   2.81767   2.81811   2.82075   2.82229
 Alpha virt. eigenvalues --    2.82316   2.82635   2.82981   2.83202   2.83641
 Alpha virt. eigenvalues --    2.83757   2.83903   2.84005   2.84216   2.85032
 Alpha virt. eigenvalues --    2.85492   2.86088   2.86192   2.86261   2.86361
 Alpha virt. eigenvalues --    2.86580   2.86800   2.86896   2.88296   2.88558
 Alpha virt. eigenvalues --    2.88664   2.89098   2.89656   2.89730   2.89807
 Alpha virt. eigenvalues --    2.89857   2.89997   2.90070   2.90575   2.90684
 Alpha virt. eigenvalues --    2.90766   2.91727   2.91873   2.92025   2.92058
 Alpha virt. eigenvalues --    2.92214   2.92505   2.92739   2.92903   2.93069
 Alpha virt. eigenvalues --    2.93313   2.93428   2.93667   2.93919   2.94086
 Alpha virt. eigenvalues --    2.94182   2.95011   2.95178   2.95392   2.95685
 Alpha virt. eigenvalues --    2.95723   2.95794   2.96255   2.96486   2.96566
 Alpha virt. eigenvalues --    2.96655   2.96833   2.96891   2.97145   2.97369
 Alpha virt. eigenvalues --    2.97545   2.97721   2.97925   2.98219   2.99127
 Alpha virt. eigenvalues --    2.99271   2.99396   2.99622   2.99638   3.00004
 Alpha virt. eigenvalues --    3.00116   3.00371   3.00951   3.01227   3.01247
 Alpha virt. eigenvalues --    3.02503   3.02909   3.03222   3.03556   3.05170
 Alpha virt. eigenvalues --    3.06498   3.06727   3.07160   3.10948   3.11588
 Alpha virt. eigenvalues --    3.11740   3.11848   3.12156   3.12651   3.13695
 Alpha virt. eigenvalues --    3.13806   3.13999   3.16541   3.19789   3.21780
 Alpha virt. eigenvalues --    3.21983   3.23867   3.32578   3.41280   3.41758
 Alpha virt. eigenvalues --    3.42385   3.43230   3.45035   3.45121   3.46009
 Alpha virt. eigenvalues --    3.46292   3.46374   3.47324   3.47676   3.47767
 Alpha virt. eigenvalues --    3.48004   3.51263   3.51900   3.52511   3.53681
 Alpha virt. eigenvalues --    3.53927   3.54420   3.54733   3.54801   3.55029
 Alpha virt. eigenvalues --    3.55259   3.55593   3.55766   3.56805   3.57604
 Alpha virt. eigenvalues --    3.57752   3.58600   3.59578   3.59662   3.60458
 Alpha virt. eigenvalues --    3.60707   3.61300   3.61608   3.62156   3.62475
 Alpha virt. eigenvalues --    3.69336   3.74696  68.64128  68.65258  68.66279
 Alpha virt. eigenvalues --   68.68378  68.72545  68.73527  68.81709  68.82682
 Alpha virt. eigenvalues --   68.83366  68.85568  68.86711  68.88069 576.22569
 Alpha virt. eigenvalues --  576.23674 576.24673 576.26727 576.30900 576.31870
 Alpha virt. eigenvalues --  576.39902 576.40852 576.41516 576.43623 576.44737
 Alpha virt. eigenvalues --  576.46087
          Condensed to atoms (all electrons):
 Mulliken charges:
               1
     1  Cl  -0.912318
     2  C   -0.077728
     3  C    0.046257
     4  C   -0.076677
     5  C   -0.033840
     6  C   -0.032754
     7  C   -0.050179
     8  H    0.030835
     9  H    0.030516
    10  H    0.041568
    11  H    0.037434
    12  H    0.040372
    13  C   -0.116835
    14  C    0.018056
    15  H    0.022992
    16  H    0.041157
    17  H    0.027521
    18  O   -0.664064
    19  O   -0.663269
    20  O   -0.655263
    21  O   -0.663771
    22  W    1.737645
    23  W    1.677337
    24  W    1.686554
    25  W    1.697297
    26  W    1.678081
    27  W    1.730556
    28  W    1.622233
    29  W    1.688377
    30  O   -0.320071
    31  O   -0.365481
    32  O   -0.367001
    33  O   -0.361015
    34  O   -0.666283
    35  O   -0.671680
    36  O   -0.662406
    37  O   -0.665256
    38  O   -0.368311
    39  O   -0.365395
    40  O   -0.296627
    41  O   -0.365171
    42  O   -0.670808
    43  O   -0.664212
    44  O   -0.662195
    45  O   -0.666374
    46  O   -0.369561
    47  O   -0.320733
    48  O   -0.361349
    49  O   -0.362477
    50  W    1.676602
    51  W    1.681172
    52  W    1.686108
    53  W    1.687580
    54  O   -0.725121
    55  O   -0.709458
    56  O   -0.726650
    57  O   -0.723495
    58  O   -0.708171
    59  O   -0.728006
    60  O   -0.725568
    61  O   -0.721830
    62  O   -0.725610
    63  O   -0.709825
    64  O   -0.724364
    65  O   -0.727314
    66  O   -0.803431
    67  O   -0.802446
    68  O   -0.798803
    69  O   -0.808815
    70  K    0.864012
    71  K    0.864997
    72  K    0.861335
    73  V    1.191419
 Sum of Mulliken charges =  -1.00000
 Mulliken charges with hydrogens summed into heavy atoms:
               1
     1  Cl  -0.912318
     2  C   -0.046893
     3  C    0.046257
     4  C   -0.046161
     5  C    0.007728
     6  C    0.004680
     7  C   -0.009806
    13  C   -0.093843
    14  C    0.086733
    18  O   -0.664064
    19  O   -0.663269
    20  O   -0.655263
    21  O   -0.663771
    22  W    1.737645
    23  W    1.677337
    24  W    1.686554
    25  W    1.697297
    26  W    1.678081
    27  W    1.730556
    28  W    1.622233
    29  W    1.688377
    30  O   -0.320071
    31  O   -0.365481
    32  O   -0.367001
    33  O   -0.361015
    34  O   -0.666283
    35  O   -0.671680
    36  O   -0.662406
    37  O   -0.665256
    38  O   -0.368311
    39  O   -0.365395
    40  O   -0.296627
    41  O   -0.365171
    42  O   -0.670808
    43  O   -0.664212
    44  O   -0.662195
    45  O   -0.666374
    46  O   -0.369561
    47  O   -0.320733
    48  O   -0.361349
    49  O   -0.362477
    50  W    1.676602
    51  W    1.681172
    52  W    1.686108
    53  W    1.687580
    54  O   -0.725121
    55  O   -0.709458
    56  O   -0.726650
    57  O   -0.723495
    58  O   -0.708171
    59  O   -0.728006
    60  O   -0.725568
    61  O   -0.721830
    62  O   -0.725610
    63  O   -0.709825
    64  O   -0.724364
    65  O   -0.727314
    66  O   -0.803431
    67  O   -0.802446
    68  O   -0.798803
    69  O   -0.808815
    70  K    0.864012
    71  K    0.864997
    72  K    0.861335
    73  V    1.191419
 Electronic spatial extent (au):  <R**2>=         317463.9591
 Charge=             -1.0000 electrons
 Dipole moment (field-independent basis, Debye):
    X=             50.9388    Y=            -51.6724    Z=            -38.6177  Tot=             82.1956
 Quadrupole moment (field-independent basis, Debye-Ang):
   XX=          -1052.1012   YY=           -892.6255   ZZ=           -912.0551
   XY=            456.0578   XZ=            456.4623   YZ=           -483.2418
 Traceless Quadrupole moment (field-independent basis, Debye-Ang):
   XX=            -99.8406   YY=             59.6351   ZZ=             40.2055
   XY=            456.0578   XZ=            456.4623   YZ=           -483.2418
 Octapole moment (field-independent basis, Debye-Ang**2):
  XXX=          13360.4351  YYY=          -1135.6535  ZZZ=         -19093.3052  XYY=           6116.4751
  XXY=          -3660.8338  XXZ=          -9388.7329  XZZ=           7313.1674  YZZ=          -4239.5738
  YYZ=          -9090.2504  XYZ=           4828.7031
 Hexadecapole moment (field-independent basis, Debye-Ang**3):
 XXXX=        -157915.3173 YYYY=         -54305.9133 ZZZZ=        -345437.0635 XXXY=          36917.5087
 XXXZ=         121977.6838 YYYX=          21383.2823 YYYZ=         -13525.2369 ZZZX=         127219.0356
 ZZZY=         -36449.7746 XXYY=         -56104.0117 XXZZ=        -107377.7234 YYZZ=        -100378.7039
 XXYZ=         -42457.0447 YYXZ=          62047.9991 ZZXY=          50827.0221
 N-N= 2.097183806898D+04 E-N=-5.902776267821D+04  KE= 6.765077830519D+03
   1 Symmetry operations used in ECPInt.
 ECPInt:  NShTT=  127765 NPrTT=  468030 LenC2=   96586 LenP2D=  220970.
 LDataN:  DoStor=T MaxTD1= 9 Len=  602
 D1PCM: PCM CHGder 1st derivatives, ID1Alg=3 FixD1E=F DoIter=F DoCFld=F I1PDM=0.
 Calling FoFJK, ICntrl=      2127 FMM=T ISym2X=0 I1Cent= 0 IOpClX= 0 NMat=1 NMatS=1 NMatT=0.
 Defaulting to unpruned grid for atomic number  74.
 Defaulting to unpruned grid for atomic number  74.
 Defaulting to unpruned grid for atomic number  74.
 Defaulting to unpruned grid for atomic number  74.
 Defaulting to unpruned grid for atomic number  74.
 Defaulting to unpruned grid for atomic number  74.
 Defaulting to unpruned grid for atomic number  74.
 Defaulting to unpruned grid for atomic number  74.
 Defaulting to unpruned grid for atomic number  74.
 Defaulting to unpruned grid for atomic number  74.
 Defaulting to unpruned grid for atomic number  74.
 Defaulting to unpruned grid for atomic number  74.
 Defaulting to unpruned grid for atomic number  74.
 Defaulting to unpruned grid for atomic number  74.
 Defaulting to unpruned grid for atomic number  74.
 Defaulting to unpruned grid for atomic number  74.
 Defaulting to unpruned grid for atomic number  74.
 Defaulting to unpruned grid for atomic number  74.
 Defaulting to unpruned grid for atomic number  74.
 Defaulting to unpruned grid for atomic number  74.
 Defaulting to unpruned grid for atomic number  74.
 Defaulting to unpruned grid for atomic number  74.
 Defaulting to unpruned grid for atomic number  74.
 Defaulting to unpruned grid for atomic number  74.
 Defaulting to unpruned grid for atomic number  74.
 Defaulting to unpruned grid for atomic number  74.
 Defaulting to unpruned grid for atomic number  74.
 Defaulting to unpruned grid for atomic number  74.
 Defaulting to unpruned grid for atomic number  74.
 Defaulting to unpruned grid for atomic number  74.
 Defaulting to unpruned grid for atomic number  74.
 Defaulting to unpruned grid for atomic number  74.
 Defaulting to unpruned grid for atomic number  74.
 Defaulting to unpruned grid for atomic number  74.
 Defaulting to unpruned grid for atomic number  74.
 Defaulting to unpruned grid for atomic number  74.
 Defaulting to unpruned grid for atomic number  74.
 Defaulting to unpruned grid for atomic number  74.
 Defaulting to unpruned grid for atomic number  74.
 Defaulting to unpruned grid for atomic number  74.
 Defaulting to unpruned grid for atomic number  74.
 Defaulting to unpruned grid for atomic number  74.
 Defaulting to unpruned grid for atomic number  74.
 Defaulting to unpruned grid for atomic number  74.
 Defaulting to unpruned grid for atomic number  74.
 Defaulting to unpruned grid for atomic number  74.
 Defaulting to unpruned grid for atomic number  74.
 Defaulting to unpruned grid for atomic number  74.
 Defaulting to unpruned grid for atomic number  74.
 Defaulting to unpruned grid for atomic number  74.
 Defaulting to unpruned grid for atomic number  74.
 Defaulting to unpruned grid for atomic number  74.
 Defaulting to unpruned grid for atomic number  74.
 Defaulting to unpruned grid for atomic number  74.
 Defaulting to unpruned grid for atomic number  74.
 Defaulting to unpruned grid for atomic number  74.
 -------------------------------------------------------------------
 Center     Atomic                   Forces (Hartrees/Bohr)
 Number     Number              X              Y              Z
 -------------------------------------------------------------------
      1       17          -0.001566759    0.005476555    0.001591312
      2        6          -0.001599494   -0.000512611   -0.002079041
      3        6          -0.000574019   -0.002253578    0.003708663
      4        6           0.001512169    0.002311479    0.000433260
      5        6           0.000829279    0.000123854    0.001446422
      6        6           0.000249505   -0.000389620    0.000587663
      7        6          -0.001055056   -0.001188325    0.000531026
      8        1          -0.000461677    0.000832069   -0.000065218
      9        1          -0.000624287    0.000772299   -0.000024783
     10        1          -0.000427146    0.000157356    0.000090300
     11        1           0.000595324   -0.000485221   -0.000139147
     12        1          -0.000095377    0.000391938    0.000330205
     13        6           0.008664920    0.011150649   -0.008112005
     14        6          -0.002857008   -0.017532084    0.000702304
     15        1          -0.000507513   -0.000020071   -0.000164180
     16        1          -0.001533110    0.002034082    0.001129191
     17        1          -0.002097683    0.000560713    0.000128995
     18        8          -0.003677363    0.000492503    0.000864395
     19        8           0.003740002   -0.000769640    0.001127347
     20        8           0.002867192   -0.003108904   -0.000546886
     21        8          -0.002575216    0.002418986   -0.000953895
     22       74           0.001893168    0.011644647   -0.010607287
     23       74          -0.002567535   -0.011076072   -0.010906073
     24       74           0.007000220    0.009126860    0.010596634
     25       74          -0.007532878   -0.007909060    0.011062214
     26       74           0.008856637   -0.008119189   -0.011513613
     27       74          -0.008902062    0.008827646   -0.011644547
     28       74          -0.012390964    0.003219984    0.011569741
     29       74           0.011589546   -0.002149524    0.011551922
     30        8          -0.000817046   -0.002999223    0.003567548
     31        8           0.000368689    0.003423504    0.003322099
     32        8          -0.002375634   -0.002374961   -0.003638762
     33        8           0.002357721    0.001871839   -0.003374517
     34        8          -0.001465084   -0.000627501    0.003629924
     35        8           0.001564245    0.000131456    0.003602653
     36        8           0.000835895   -0.001542016   -0.003505614
     37        8          -0.000417838    0.001158862   -0.003338652
     38        8          -0.004724979   -0.002009240   -0.001798995
     39        8           0.004910538    0.001696082   -0.001606897
     40        8           0.002404958   -0.006574473    0.000559635
     41        8          -0.001374921    0.005018688    0.001213876
     42        8          -0.002169128   -0.003005571    0.001341895
     43        8           0.002585020    0.002805675    0.001030707
     44        8          -0.000377998   -0.003956420   -0.000817620
     45        8           0.001101028    0.003493449   -0.001094885
     46        8          -0.002841987    0.003794271    0.003249189
     47        8           0.003373067   -0.002566945    0.003453134
     48        8           0.004723916   -0.000441477   -0.003531689
     49        8          -0.004279176    0.000438743   -0.003166628
     50       74           0.015465050    0.005159831    0.003458777
     51       74          -0.015597661   -0.004271567    0.003598215
     52       74          -0.006322286    0.017105795   -0.003666059
     53       74           0.005023981   -0.015394327   -0.002983911
     54        8          -0.000726119    0.001622790    0.002520938
     55        8           0.000801203   -0.001772330    0.002377920
     56        8           0.002023513   -0.000151266   -0.002316168
     57        8          -0.001837539   -0.000840676   -0.002596563
     58        8           0.000354455   -0.002779755    0.001342172
     59        8           0.000252039    0.002425403    0.001751348
     60        8          -0.001607385   -0.001977734   -0.001829737
     61        8           0.002011737    0.001502548   -0.001573169
     62        8          -0.001443672    0.002346051    0.001058330
     63        8           0.001122617   -0.002721857    0.000563638
     64        8           0.002602451   -0.000214039   -0.001050210
     65        8          -0.002499154   -0.000408937   -0.000889982
     66        8          -0.028538527   -0.005136001    0.018667279
     67        8           0.029255210    0.005915757    0.018265125
     68        8           0.012223854   -0.027603278   -0.018502779
     69        8          -0.012240563    0.026182371   -0.018673610
     70       19           0.000136662   -0.000764958   -0.000525815
     71       19           0.000476137    0.000026792    0.000318873
     72       19          -0.000651623   -0.000110159    0.000341972
     73       23          -0.000418480    0.000097083    0.000552097
 -------------------------------------------------------------------
 Cartesian Forces:  Max     0.029255210 RMS     0.006575156

 GradGradGradGradGradGradGradGradGradGradGradGradGradGradGradGradGradGrad
 Berny optimization.
 Search for a local minimum.
 Step number   1 out of a maximum of    2
 All quantities printed in internal units (Hartrees-Bohrs-Radians)
 Second derivative matrix not updated -- first step.
 ITU=  0
     Eigenvalues ---    0.00000   0.00000   0.00000   0.00010   0.00092
     Eigenvalues ---    0.00094   0.00256   0.00552   0.00630   0.01642
     Eigenvalues ---    0.01965   0.02903   0.02929   0.03210   0.03424
     Eigenvalues ---    0.03451   0.03724   0.03732   0.04160   0.04485
     Eigenvalues ---    0.04601   0.04611   0.04634   0.04837   0.04849
     Eigenvalues ---    0.04983   0.05358   0.05571   0.05603   0.06367
     Eigenvalues ---    0.06401   0.06529   0.06784   0.06852   0.07043
     Eigenvalues ---    0.07294   0.07387   0.07601   0.08344   0.08380
     Eigenvalues ---    0.08716   0.08746   0.08902   0.08914   0.09737
     Eigenvalues ---    0.09958   0.10100   0.10407   0.10447   0.10535
     Eigenvalues ---    0.10822   0.10888   0.11573   0.11683   0.12050
     Eigenvalues ---    0.12059   0.12163   0.12518   0.12535   0.12676
     Eigenvalues ---    0.12678   0.12786   0.12835   0.13033   0.13132
     Eigenvalues ---    0.13827   0.13994   0.14306   0.14548   0.14754
     Eigenvalues ---    0.16908   0.16932   0.17105   0.17160   0.17568
     Eigenvalues ---    0.17678   0.18563   0.19815   0.19985   0.20257
     Eigenvalues ---    0.20896   0.20985   0.21956   0.22089   0.22129
     Eigenvalues ---    0.22513   0.23135   0.23427   0.23983   0.24011
     Eigenvalues ---    0.24606   0.24774   0.24942   0.25503   0.26185
     Eigenvalues ---    0.26372   0.26514   0.27594   0.27694   0.27956
     Eigenvalues ---    0.28268   0.28305   0.28796   0.29533   0.29895
     Eigenvalues ---    0.30496   0.30546   0.30599   0.30666   0.30689
     Eigenvalues ---    0.30890   0.31191   0.31394   0.31522   0.32237
     Eigenvalues ---    0.32412   0.32442   0.32708   0.32866   0.33394
     Eigenvalues ---    0.33505   0.35129   0.35565   0.35845   0.36902
     Eigenvalues ---    0.37415   0.37586   0.37781   0.38184   0.38551
     Eigenvalues ---    0.38928   0.39103   0.40108   0.40246   0.41124
     Eigenvalues ---    0.42196   0.42255   0.43569   0.44160   0.44856
     Eigenvalues ---    0.45234   0.45553   0.45952   0.47994   0.48264
     Eigenvalues ---    0.48574   0.48799   0.48851   0.49423   0.49604
     Eigenvalues ---    0.50010   0.50732   0.51358   0.51887   0.52339
     Eigenvalues ---    0.53057   0.53963   0.56270   0.58377   0.64444
     Eigenvalues ---    0.67528   0.76616   0.81403   0.82689   0.96712
     Eigenvalues ---    0.97250   0.98534   0.99250   1.01486   1.04352
     Eigenvalues ---    1.07131   1.10761   1.11301   1.12188   1.15028
     Eigenvalues ---    1.18486   1.19017   1.20369   1.22099   1.22424
     Eigenvalues ---    1.22737   1.25668   1.26490   1.26686   1.27070
     Eigenvalues ---    1.27769   1.29207   1.29367   1.45200   1.45519
     Eigenvalues ---    1.45754   1.48173   1.51422   1.51561   1.52023
     Eigenvalues ---    1.52520   1.55601   1.55722   1.56910   1.58431
     Eigenvalues ---    1.58452   1.59337   1.61597   1.64334   1.71112
     Eigenvalues ---    1.79485   1.84708   1.89258   1.93380   1.96285
     Eigenvalues ---    2.07879   2.16244   3.58088
 Eigenvalue     1 is   0.00D+00 Eigenvector:
                          Y16       Y14       Y17       Y15       Y13
   1                    0.17445   0.17445   0.17445   0.17445   0.17445
                          Y8        Y3        Y2        Y9        Y4
   1                    0.17445   0.17445   0.17445   0.17445   0.17445
 Eigenvalue     2 is   3.68D-07 Eigenvector:
                          Y16       X16       X11       Y11       Y14
   1                    0.32772  -0.26955   0.26326  -0.24673   0.23979
                          Y15       Y17       X14       Y13       X6
   1                    0.22794   0.20409  -0.19381   0.18495   0.18447
 Eigenvalue     3 is   3.19D-06 Eigenvector:
                          X9        X10       Y12       X12       Y8
   1                    0.33991   0.28519   0.28237  -0.25963   0.25099
                          Y9        X15       Y10       X8        X4
   1                   -0.24984   0.23496  -0.21780  -0.20627   0.20494
 Quadratic step=1.524D+01 exceeds max=3.000D-01 adjusted using Lamda=-8.014D-03.
 Angle between NR and scaled steps=  49.38 degrees.
 Angle between quadratic step and forces=  64.05 degrees.
 Linear search not attempted -- first point.
 B after Tr=     0.001500    0.004732    0.001528
         Rot=    1.000000   -0.000142    0.000032    0.000128 Ang=  -0.02 deg.
 Variable       Old X    -DE/DX   Delta X   Delta X   Delta X     New X
                                 (Linear)    (Quad)   (Total)
    X1      -18.41804  -0.00157   0.00000  -0.00150   0.00272 -18.41532
    Y1       15.61943   0.00548   0.00000   0.00555   0.00933  15.62876
    Z1       19.95029   0.00159   0.00000   0.00168   0.00646  19.95675
    X2      -15.74741  -0.00160   0.00000  -0.01355  -0.01147 -15.75888
    Y2        8.00907  -0.00051   0.00000  -0.00642  -0.00420   8.00487
    Z2       23.09274  -0.00208   0.00000  -0.01364  -0.01085  23.08189
    X3      -17.24666  -0.00057   0.00000   0.00855   0.01060 -17.23606
    Y3        7.41919  -0.00225   0.00000  -0.03691  -0.03371   7.38548
    Z3       20.97687   0.00371   0.00000  -0.01711  -0.01459  20.96229
    X4      -18.96904   0.00151   0.00000  -0.01293  -0.01140 -18.98044
    Y4        5.40192   0.00231   0.00000  -0.00683  -0.00326   5.39866
    Z4       21.18693   0.00043   0.00000   0.01527   0.01712  21.20404
    X5      -19.27999   0.00083   0.00000  -0.00742  -0.00636 -19.28636
    Y5        4.11385   0.00012   0.00000   0.00258   0.00559   4.11944
    Z5       23.45725   0.00145   0.00000   0.02395   0.02541  23.48266
    X6      -17.85095   0.00025   0.00000   0.00914   0.01023 -17.84073
    Y6        4.79202  -0.00039   0.00000  -0.00507  -0.00303   4.78899
    Z6       25.56775   0.00059   0.00000   0.01341   0.01516  25.58290
    X7      -16.05210  -0.00106   0.00000  -0.00837  -0.00677 -16.05887
    Y7        6.71226  -0.00119   0.00000   0.00745   0.00910   6.72136
    Z7       25.36032   0.00053   0.00000  -0.00088   0.00153  25.36185
    X8      -14.31381  -0.00046   0.00000  -0.02908  -0.02661 -14.34043
    Y8        9.48812   0.00083   0.00000   0.00980   0.01170   9.49981
    Z8       22.96143  -0.00007   0.00000  -0.01840  -0.01510  22.94633
    X9      -20.07767  -0.00062   0.00000  -0.03471  -0.03321 -20.11088
    Y9        4.84792   0.00077   0.00000   0.00462   0.00894   4.85686
    Z9       19.53296  -0.00002   0.00000   0.02549   0.02711  19.56007
   X10      -20.63320  -0.00043   0.00000  -0.01991  -0.01926 -20.65246
   Y10        2.55903   0.00016   0.00000   0.01382   0.01713   2.57616
   Z10       23.58099   0.00009   0.00000   0.03377   0.03471  23.61570
   X11      -18.10946   0.00060   0.00000   0.02994   0.03067 -18.07880
   Y11        3.80052  -0.00049   0.00000  -0.01220  -0.01060   3.78992
   Z11       27.35959  -0.00014   0.00000   0.01226   0.01371  27.37330
   X12      -14.87250  -0.00010   0.00000  -0.01354  -0.01192 -14.88441
   Y12        7.19904   0.00039   0.00000   0.02901   0.02990   7.22894
   Z12       26.98399   0.00033   0.00000  -0.00233   0.00029  26.98428
   X13      -17.09647   0.00866   0.00000   0.04549   0.04804 -17.04843
   Y13        8.81391   0.01115   0.00000  -0.08560  -0.08176   8.73215
   Z13       18.59159  -0.00811   0.00000  -0.05556  -0.05265  18.53894
   X14      -15.76641  -0.00286   0.00000   0.03922   0.04233 -15.72408
   Y14       10.94319  -0.01753   0.00000  -0.11203  -0.10841  10.83478
   Z14       18.14173   0.00070   0.00000  -0.04811  -0.04452  18.09721
   X15      -18.21464  -0.00051   0.00000   0.03207   0.03451 -18.18013
   Y15        8.01519  -0.00002   0.00000  -0.08169  -0.07713   7.93806
   Z15       17.04240  -0.00016   0.00000  -0.04780  -0.04518  16.99722
   X16      -15.72385  -0.00153   0.00000   0.00352   0.00698 -15.71687
   Y16       11.74975   0.00203   0.00000  -0.05386  -0.04971  11.70004
   Z16       16.24286   0.00113   0.00000  -0.02330  -0.01946  16.22339
   X17      -14.56467  -0.00210   0.00000  -0.01413  -0.01087 -14.57554
   Y17       11.84629   0.00056   0.00000  -0.08330  -0.08038  11.76591
   Z17       19.55174   0.00013   0.00000  -0.02264  -0.01871  19.53304
   X18       -1.85229  -0.00368   0.00000  -0.02203  -0.02230  -1.87458
   Y18       -3.38406   0.00049   0.00000   0.00039   0.00160  -3.38246
   Z18       14.10933   0.00086   0.00000   0.00858   0.00903  14.11836
   X19      -15.87650   0.00374   0.00000   0.01973   0.01969 -15.85681
   Y19       -2.52162  -0.00077   0.00000   0.01105   0.01583  -2.50579
   Z19       14.09892   0.00113   0.00000   0.01267   0.01247  14.11139
   X20      -13.28364   0.00287   0.00000   0.01477   0.01566 -13.26799
   Y20        2.54774  -0.00311   0.00000  -0.01195  -0.00943   2.53831
   Z20       19.79106  -0.00055   0.00000  -0.00331  -0.00191  19.78915
   X21       -4.41027  -0.00258   0.00000  -0.01352  -0.01540  -4.42567
   Y21       -8.29242   0.00242   0.00000   0.01516   0.01538  -8.27704
   Z21       19.94357  -0.00095   0.00000  -0.00998  -0.01108  19.93249
   X22       -6.44101   0.00189   0.00000  -0.00712  -0.00606  -6.44707
   Y22        1.30631   0.01164   0.00000   0.02364   0.02655   1.33287
   Z22       12.23376  -0.01061   0.00000  -0.00380  -0.00231  12.23146
   X23      -11.32621  -0.00257   0.00000   0.00499   0.00385 -11.32235
   Y23       -7.21465  -0.01108   0.00000  -0.00421  -0.00010  -7.21474
   Z23       12.39972  -0.01091   0.00000  -0.00565  -0.00689  12.39282
   X24       -6.83436   0.00700   0.00000   0.01805   0.01859  -6.81577
   Y24        1.65673   0.00913   0.00000   0.00030   0.00066   1.65739
   Z24       21.58496   0.01060   0.00000   0.00695   0.00851  21.59346
   X25      -10.89240  -0.00753   0.00000  -0.01742  -0.01916 -10.91157
   Y25       -7.29270  -0.00791   0.00000   0.00201   0.00338  -7.28932
   Z25       21.69176   0.01106   0.00000   0.00812   0.00689  21.69865
   X26       -4.60060   0.00886   0.00000  -0.00760  -0.00812  -4.60872
   Y26       -4.89243  -0.00812   0.00000  -0.00406  -0.00157  -4.89400
   Z26       12.09661  -0.01151   0.00000  -0.00768  -0.00783  12.08877
   X27      -13.12309  -0.00890   0.00000   0.00133   0.00182 -13.12127
   Y27       -1.00756   0.00883   0.00000   0.02246   0.02713  -0.98043
   Z27       12.04225  -0.01164   0.00000  -0.00817  -0.00776  12.03449
   X28      -12.89532  -0.01239   0.00000  -0.00489  -0.00491 -12.90023
   Y28       -0.46783   0.00322   0.00000  -0.00451  -0.00268  -0.47050
   Z28       21.84721   0.01157   0.00000   0.01172   0.01229  21.85950
   X29       -4.80962   0.01159   0.00000   0.00598   0.00476  -4.80485
   Y29       -5.15269  -0.00215   0.00000   0.00764   0.00739  -5.14530
   Z29       21.92721   0.01155   0.00000   0.00821   0.00797  21.93519
   X30       -5.99197  -0.00082   0.00000   0.01094   0.01271  -5.97926
   Y30        3.54453  -0.00300   0.00000   0.01582   0.01924   3.56377
   Z30       10.00554   0.00357   0.00000   0.00450   0.00666  10.01220
   X31      -11.58145   0.00037   0.00000  -0.01028  -0.01188 -11.59333
   Y31       -9.57909   0.00342   0.00000   0.00444   0.00923  -9.56986
   Z31       10.24285   0.00332   0.00000  -0.00067  -0.00259  10.24025
   X32       -5.09363  -0.00238   0.00000   0.00649   0.00731  -5.08632
   Y32        3.25539  -0.00237   0.00000   0.00539   0.00469   3.26009
   Z32       23.76052  -0.00364   0.00000  -0.00061   0.00151  23.76203
   X33      -12.62029   0.00236   0.00000  -0.00455  -0.00683 -12.62712
   Y33       -8.80956   0.00187   0.00000  -0.00537  -0.00419  -8.81375
   Z33       23.93106  -0.00337   0.00000   0.00134  -0.00043  23.93063
   X34       -5.02551  -0.00147   0.00000  -0.01789  -0.01751  -5.04302
   Y34       -1.72215  -0.00063   0.00000   0.00574   0.00877  -1.71337
   Z34       10.55405   0.00363   0.00000   0.01418   0.01490  10.56895
   X35      -12.67327   0.00156   0.00000   0.01247   0.01220 -12.66107
   Y35       -4.28444   0.00013   0.00000   0.01181   0.01676  -4.26768
   Z35       10.62455   0.00360   0.00000   0.01422   0.01373  10.63828
   X36      -10.04441   0.00084   0.00000   0.01110   0.01138 -10.03304
   Y36        1.04642  -0.00154   0.00000  -0.01218  -0.01150   1.03491
   Z36       23.35937  -0.00351   0.00000  -0.00839  -0.00721  23.35216
   X37       -7.65487  -0.00042   0.00000  -0.00748  -0.00917  -7.66405
   Y37       -6.66189   0.00116   0.00000   0.01173   0.01178  -6.65011
   Z37       23.43978  -0.00334   0.00000  -0.00980  -0.01064  23.42914
   X38        0.57460  -0.00472   0.00000   0.00525   0.00562   0.58022
   Y38       -0.01161  -0.00201   0.00000  -0.01034  -0.01072  -0.02233
   Z38       17.54261  -0.00180   0.00000  -0.00497  -0.00341  17.53920
   X39      -18.32879   0.00491   0.00000  -0.00444  -0.00553 -18.33432
   Y39       -5.74353   0.00170   0.00000   0.01433   0.01876  -5.72477
   Z39       17.62842  -0.00161   0.00000  -0.00239  -0.00365  17.62477
   X40      -11.99836   0.00240   0.00000   0.00622   0.00834 -11.99002
   Y40        6.48055  -0.00657   0.00000   0.00590   0.00905   6.48961
   Z40       16.38046   0.00056   0.00000   0.00359   0.00619  16.38664
   X41       -5.67557  -0.00137   0.00000   0.00051  -0.00218  -5.67775
   Y41      -12.25798   0.00502   0.00000   0.00437   0.00587 -12.25211
   Z41       16.53494   0.00121   0.00000  -0.00060  -0.00291  16.53203
   X42       -3.37625  -0.00217   0.00000  -0.01269  -0.01172  -3.38798
   Y42        1.42805  -0.00301   0.00000  -0.00477  -0.00317   1.42488
   Z42       14.12450   0.00134   0.00000   0.01280   0.01451  14.13902
   X43      -14.36333   0.00259   0.00000   0.01240   0.01112 -14.35221
   Y43       -7.34000   0.00281   0.00000   0.01551   0.01987  -7.32013
   Z43       14.25740   0.00103   0.00000   0.01038   0.00891  14.26631
   X44       -8.50174  -0.00038   0.00000   0.00786   0.00916  -8.49258
   Y44        4.16113  -0.00396   0.00000  -0.01542  -0.01410   4.14703
   Z44       19.70975  -0.00082   0.00000  -0.00593  -0.00377  19.70598
   X45       -9.21169   0.00110   0.00000  -0.00651  -0.00880  -9.22049
   Y45       -9.87712   0.00349   0.00000   0.01773   0.01919  -9.85793
   Z45       19.88986  -0.00109   0.00000  -0.00912  -0.01098  19.87888
   X46       -3.03075  -0.00284   0.00000  -0.00606  -0.00690  -3.03765
   Y46       -6.68483   0.00379   0.00000   0.01535   0.01805  -6.66678
   Z46        9.93832   0.00325   0.00000  -0.00773  -0.00829   9.93003
   X47      -14.79330   0.00337   0.00000  -0.00031   0.00070 -14.79260
   Y47        0.52130  -0.00257   0.00000   0.00355   0.00928   0.53059
   Z47        9.79364   0.00345   0.00000  -0.00562  -0.00488   9.78876
   X48      -15.21180   0.00472   0.00000   0.00726   0.00715 -15.20466
   Y48       -0.31402  -0.00044   0.00000   0.00748   0.00927  -0.30474
   Z48       24.06466  -0.00353   0.00000   0.00887   0.00934  24.07401
   X49       -2.46598  -0.00428   0.00000  -0.00582  -0.00724  -2.47321
   Y49       -5.39050   0.00044   0.00000  -0.00484  -0.00630  -5.39681
   Z49       24.10946  -0.00317   0.00000   0.00565   0.00549  24.11495
   X50       -2.36738   0.01547   0.00000   0.00641   0.00659  -2.36079
   Y50       -0.99031   0.00516   0.00000   0.00273   0.00333  -0.98698
   Z50       16.69844   0.00346   0.00000   0.01279   0.01389  16.71232
   X51      -15.38218  -0.01560   0.00000  -0.00705  -0.00784 -15.39002
   Y51       -4.79373  -0.00427   0.00000   0.00544   0.00935  -4.78438
   Z51       16.77010   0.00360   0.00000   0.01463   0.01382  16.78392
   X52      -11.09798  -0.00632   0.00000   0.00019   0.00150 -11.09647
   Y52        3.51015   0.01711   0.00000   0.01437   0.01710   3.52724
   Z52       17.09426  -0.00367   0.00000  -0.00954  -0.00773  17.08654
   X53       -6.59849   0.00502   0.00000  -0.00360  -0.00558  -6.60407
   Y53       -9.28287  -0.01539   0.00000  -0.00385  -0.00233  -9.28520
   Z53       17.32048  -0.00298   0.00000  -0.01308  -0.01461  17.30587
   X54       -7.96352  -0.00073   0.00000  -0.00325  -0.00398  -7.96750
   Y54       -5.87339   0.00162   0.00000  -0.00404  -0.00052  -5.87391
   Z54       11.46846   0.00252   0.00000  -0.00720  -0.00784  11.46061
   X55       -9.74594   0.00080   0.00000  -0.00194  -0.00119  -9.74713
   Y55       -0.10842  -0.00177   0.00000   0.02418   0.02819  -0.08023
   Z55       11.35988   0.00238   0.00000  -0.00650  -0.00562  11.35426
   X56      -11.66526   0.00202   0.00000  -0.00947  -0.01037 -11.67563
   Y56       -3.77123  -0.00015   0.00000  -0.00352  -0.00218  -3.77342
   Z56       22.50329  -0.00232   0.00000   0.01109   0.01080  22.51409
   X57       -5.98933  -0.00184   0.00000   0.01032   0.00991  -5.97942
   Y57       -1.85097  -0.00084   0.00000   0.00439   0.00426  -1.84672
   Z57       22.54701  -0.00260   0.00000   0.00752   0.00815  22.55515
   X58       -8.23557   0.00035   0.00000  -0.00208  -0.00075  -8.23632
   Y58        2.98705  -0.00278   0.00000   0.01821   0.02086   3.00791
   Z58       14.79971   0.00134   0.00000  -0.00423  -0.00237  14.79733
   X59       -9.45851   0.00025   0.00000   0.00019  -0.00152  -9.46003
   Y59       -8.84147   0.00243   0.00000  -0.00542  -0.00251  -8.84398
   Z59       14.96844   0.00175   0.00000  -0.00744  -0.00902  14.95941
   X60       -4.39998  -0.00161   0.00000   0.01464   0.01520  -4.38478
   Y60        1.08574  -0.00198   0.00000   0.00115   0.00160   1.08734
   Z60       19.05180  -0.00183   0.00000   0.00806   0.00962  19.06142
   X61      -13.32630   0.00201   0.00000  -0.01383  -0.01529 -13.34159
   Y61       -6.82850   0.00150   0.00000   0.00302   0.00574  -6.82276
   Z61       19.14711  -0.00157   0.00000   0.00947   0.00821  19.15533
   X62       -4.85543  -0.00144   0.00000  -0.00519  -0.00652  -4.86195
   Y62       -7.37741   0.00235   0.00000  -0.00223  -0.00047  -7.37787
   Z62       14.86530   0.00106   0.00000  -0.01031  -0.01119  14.85411
   X63      -12.87388   0.00112   0.00000  -0.00038   0.00056 -12.87332
   Y63        1.49685  -0.00272   0.00000   0.01636   0.02021   1.51705
   Z63       14.74803   0.00056   0.00000  -0.00960  -0.00846  14.73957
   X64      -14.79485   0.00260   0.00000  -0.00549  -0.00578 -14.80062
   Y64       -2.22215  -0.00021   0.00000   0.00158   0.00466  -2.21749
   Z64       19.15907  -0.00105   0.00000   0.01371   0.01366  19.17273
   X65       -2.95641  -0.00250   0.00000   0.00550   0.00488  -2.95154
   Y65       -3.51914  -0.00041   0.00000   0.00254   0.00259  -3.51655
   Z65       19.15900  -0.00089   0.00000   0.00990   0.01024  19.16924
   X66       -6.34788  -0.02854   0.00000  -0.05387  -0.05389  -6.40177
   Y66       -2.18134  -0.00514   0.00000  -0.00197   0.00010  -2.18124
   Z66       15.12635   0.01867   0.00000   0.03317   0.03367  15.16002
   X67      -11.38631   0.02926   0.00000   0.05081   0.05040 -11.33591
   Y67       -3.69659   0.00592   0.00000   0.01612   0.01943  -3.67716
   Z67       15.18131   0.01827   0.00000   0.03281   0.03258  15.21389
   X68       -9.67214   0.01222   0.00000   0.02434   0.02453  -9.64760
   Y68       -0.38509  -0.02760   0.00000  -0.04385  -0.04197  -0.42706
   Z68       18.79390  -0.01850   0.00000  -0.02914  -0.02834  18.76556
   X69       -8.00653  -0.01224   0.00000  -0.02608  -0.02714  -8.03367
   Y69       -5.37039   0.02618   0.00000   0.04739   0.04885  -5.32154
   Z69       18.84859  -0.01867   0.00000  -0.02972  -0.03021  18.81837
   X70       -6.07167   0.00014   0.00000  -0.00331  -0.00545  -6.07712
   Y70      -11.59766  -0.00076   0.00000  -0.00290   0.00037 -11.59730
   Z70       10.66698  -0.00053   0.00000  -0.01066  -0.01281  10.65417
   X71       -0.20233   0.00048   0.00000   0.01130   0.01134  -0.19099
   Y71        0.10707   0.00003   0.00000  -0.00002  -0.00185   0.10523
   Z71       23.33354   0.00032   0.00000   0.00746   0.00901  23.34255
   X72      -17.55533  -0.00065   0.00000  -0.01079  -0.01217 -17.56749
   Y72       -5.38849  -0.00011   0.00000   0.00298   0.00554  -5.38294
   Z72       23.50210   0.00034   0.00000   0.01048   0.00937  23.51147
   X73       -8.85782  -0.00042   0.00000  -0.00166  -0.00198  -8.85981
   Y73       -2.90057   0.00010   0.00000   0.00400   0.00619  -2.89438
   Z73       16.98319   0.00055   0.00000   0.00277   0.00291  16.98610
         Item               Value     Threshold  Converged?
 Maximum Force            0.029255     0.000450     NO 
 RMS     Force            0.006575     0.000300     NO 
 Maximum Displacement     0.108409     0.001800     NO 
 RMS     Displacement     0.020176     0.001200     NO 
 Predicted change in Energy=-6.702109D-03
 GradGradGradGradGradGradGradGradGradGradGradGradGradGradGradGradGradGrad

 Unable to Open any file for archive entry.
 1\1\GINC-X11P1N2\Force\RwB97XD\def2SVP\C8H8Cl1K3O40V1W12(1-)\MAYUMIAO\
 02-Jun-2024\0\\# def2svp wb97xd scrf=(smd,solvent=acetonitrile) g09def
 ault scf=(xqc,maxcycle=64) force guess=read nosymm\\Title Card\\-1,1\C
 l,-9.74640717,8.26544711,10.55723831\C,-8.33316863,4.23821765,12.22015
 243\C,-9.12654051,3.92606717,11.10048365\C,-10.0379825,2.85857049,11.2
 1163826\C,-10.20253368,2.17695725,12.41304199\C,-9.44631756,2.53582729
 ,13.5298682\C,-8.49440411,3.55197281,13.42010457\H,-7.57454281,5.02089
 457,12.15066495\H,-10.6246429,2.56540687,10.33639644\H,-10.91862138,1.
 35417993,12.47852388\H,-9.58311404,2.0111501,14.47806986\H,-7.87018548
 ,3.80956726,14.2793124\C,-9.04706138,4.66411821,9.83824679\C,-8.343223
 87,5.79088532,9.60019044\H,-9.63877204,4.24145678,9.01845184\H,-8.3207
 0354,6.21770119,8.59534872\H,-7.70729087,6.26878465,10.34633718\O,-0.9
 801888,-1.79076813,7.4663353\O,-8.40148225,-1.33438587,7.46082641\O,-7
 .02940044,1.3482043,10.47298042\O,-2.33381187,-4.38815746,10.55368478\
 W,-3.4084346,0.69127141,6.4738292\W,-5.99357009,-3.81782772,6.56164673
 \W,-3.61658824,0.87670328,11.42226663\W,-5.76401075,-3.85912951,11.478
 78477\W,-2.43453252,-2.58896162,6.40124772\W,-6.94443861,-0.53317898,6
 .37248633\W,-6.82390814,-0.24756275,11.56104764\W,-2.54513931,-2.72668
 529,11.6033815\O,-3.17081572,1.87568537,5.29470432\O,-6.12864171,-5.06
 903439,5.42028028\O,-2.69543101,1.72268019,12.57352451\O,-6.67836938,-
 4.66181584,12.66377117\O,-2.65938685,-0.91132016,5.5849607\O,-6.706407
 3,-2.26723004,5.62227086\O,-5.31527495,0.55373947,12.3612457\O,-4.0507
 8384,-3.52531887,12.40379722\O,0.30406407,-0.00614282,9.28315125\O,-9.
 69917802,-3.03934459,9.32855851\O,-6.34925839,3.42936197,8.66816549\O,
 -3.00338484,-6.48664245,8.74991322\O,-1.78663635,0.75569178,7.4743655\
 O,-7.60074763,-3.88415927,7.54469017\O,-4.498928,2.20197534,10.4299496
 4\O,-4.87461747,-5.22674636,10.5252614\O,-1.60380368,-3.53745844,5.259
 13084\O,-7.82827762,0.27586252,5.18257156\O,-8.04973869,-0.16617144,12
 .73447136\O,-1.30493809,-2.85253218,12.7581768\W,-1.25276266,-0.524051
 13,8.83643168\W,-8.13989754,-2.53673517,8.87435484\W,-5.87279564,1.857
 49031,9.04589426\W,-3.49177087,-4.9122831,9.16560195\O,-4.21411086,-3.
 10806321,6.06884612\O,-5.15732937,-0.05737286,6.0113895\O,-6.17299061,
 -1.99565128,11.90822789\O,-3.16941799,-0.97949181,11.93136209\O,-4.358
 07621,1.58067691,7.83166703\O,-5.00522759,-4.67870419,7.92095527\O,-2.
 32837128,0.5745469,10.08177782\O,-7.05197378,-3.61348566,10.13221582\O
 ,-2.56938523,-3.90395564,7.86637593\O,-6.81256509,0.79209753,7.8043226
 1\O,-7.82909611,-1.17591329,10.13854082\O,-1.5644658,-1.86225101,10.13
 850577\O,-3.35915258,-1.15431432,8.00451949\O,-6.02537538,-1.95615086,
 8.0336034\O,-5.11827468,-0.20377982,9.94530393\O,-4.23687323,-2.841886
 93,9.97424176\K,-3.21298885,-6.13721958,5.64472035\K,-0.1070671,0.0566
 6122,12.34757683\K,-9.28987816,-2.851464,12.43677754\V,-4.68735804,-1.
 53491419,8.98711749\\Version=ES64L-G16RevC.01\HF=-7327.7014991\RMSD=3.
 516e-09\RMSF=6.575e-03\Dipole=10.2800686,-22.1089359,2.5012058\Quadrup
 ole=-74.2290481,44.3372136,29.8918345,339.0678527,339.3685311,-359.278
 4182\PG=C01 [X(C8H8Cl1K3O40V1W12)]\\@
 The archive entry for this job was punched.


 STEINBACH'S GUIDELINES FOR SYSTEMS PROGRAMMING:
 NEVER TEST FOR AN ERROR CONDITION YOU DON'T KNOW HOW
 TO HANDLE.
 Job cpu time:       0 days  9 hours 30 minutes 52.1 seconds.
 Elapsed time:       0 days  0 hours 10 minutes 49.6 seconds.
 File lengths (MBytes):  RWF=   1256 Int=      0 D2E=      0 Chk=    249 Scr=      1
 Normal termination of Gaussian 16 at Sun Jun  2 11:55:21 2024.
