 Entering Gaussian System, Link 0=g16
 Input=JOBS/42_B.gjf
 Output=JOBS/42_B.log
 Initial command:
 /data/app/gaussian/C01-avx2//g16/l1.exe "/tmp/Gau-658016.inp" -scrdir="/tmp/"
 Entering Link 1 = /data/app/gaussian/C01-avx2//g16/l1.exe PID=    658017.
  
 Copyright (c) 1988-2019, Gaussian, Inc.  All Rights Reserved.
  
 This is part of the Gaussian(R) 16 program.  It is based on
 the Gaussian(R) 09 system (copyright 2009, Gaussian, Inc.),
 the Gaussian(R) 03 system (copyright 2003, Gaussian, Inc.),
 the Gaussian(R) 98 system (copyright 1998, Gaussian, Inc.),
 the Gaussian(R) 94 system (copyright 1995, Gaussian, Inc.),
 the Gaussian 92(TM) system (copyright 1992, Gaussian, Inc.),
 the Gaussian 90(TM) system (copyright 1990, Gaussian, Inc.),
 the Gaussian 88(TM) system (copyright 1988, Gaussian, Inc.),
 the Gaussian 86(TM) system (copyright 1986, Carnegie Mellon
 University), and the Gaussian 82(TM) system (copyright 1983,
 Carnegie Mellon University). Gaussian is a federally registered
 trademark of Gaussian, Inc.
  
 This software contains proprietary and confidential information,
 including trade secrets, belonging to Gaussian, Inc.
  
 This software is provided under written license and may be
 used, copied, transmitted, or stored only in accord with that
 written license.
  
 The following legend is applicable only to US Government
 contracts under FAR:
  
                    RESTRICTED RIGHTS LEGEND
  
 Use, reproduction and disclosure by the US Government is
 subject to restrictions as set forth in subparagraphs (a)
 and (c) of the Commercial Computer Software - Restricted
 Rights clause in FAR 52.227-19.
  
 Gaussian, Inc.
 340 Quinnipiac St., Bldg. 40, Wallingford CT 06492
  
  
 ---------------------------------------------------------------
 Warning -- This program may not be used in any manner that
 competes with the business of Gaussian, Inc. or will provide
 assistance to any competitor of Gaussian, Inc.  The licensee
 of this program is prohibited from giving any competitor of
 Gaussian, Inc. access to this program.  By using this program,
 the user acknowledges that Gaussian, Inc. is engaged in the
 business of creating and licensing software in the field of
 computational chemistry and represents and warrants to the
 licensee that it is not a competitor of Gaussian, Inc. and that
 it will not use this program in any manner prohibited above.
 ---------------------------------------------------------------
  

 Cite this work as:
 Gaussian 16, Revision C.01,
 M. J. Frisch, G. W. Trucks, H. B. Schlegel, G. E. Scuseria, 
 M. A. Robb, J. R. Cheeseman, G. Scalmani, V. Barone, 
 G. A. Petersson, H. Nakatsuji, X. Li, M. Caricato, A. V. Marenich, 
 J. Bloino, B. G. Janesko, R. Gomperts, B. Mennucci, H. P. Hratchian, 
 J. V. Ortiz, A. F. Izmaylov, J. L. Sonnenberg, D. Williams-Young, 
 F. Ding, F. Lipparini, F. Egidi, J. Goings, B. Peng, A. Petrone, 
 T. Henderson, D. Ranasinghe, V. G. Zakrzewski, J. Gao, N. Rega, 
 G. Zheng, W. Liang, M. Hada, M. Ehara, K. Toyota, R. Fukuda, 
 J. Hasegawa, M. Ishida, T. Nakajima, Y. Honda, O. Kitao, H. Nakai, 
 T. Vreven, K. Throssell, J. A. Montgomery, Jr., J. E. Peralta, 
 F. Ogliaro, M. J. Bearpark, J. J. Heyd, E. N. Brothers, K. N. Kudin, 
 V. N. Staroverov, T. A. Keith, R. Kobayashi, J. Normand, 
 K. Raghavachari, A. P. Rendell, J. C. Burant, S. S. Iyengar, 
 J. Tomasi, M. Cossi, J. M. Millam, M. Klene, C. Adamo, R. Cammi, 
 J. W. Ochterski, R. L. Martin, K. Morokuma, O. Farkas, 
 J. B. Foresman, and D. J. Fox, Gaussian, Inc., Wallingford CT, 2019.
 
 ******************************************
 Gaussian 16:  ES64L-G16RevC.01  3-Jul-2019
                 2-Jun-2024 
 ******************************************
 %chk=b.chk
 %nprocshared=56
 Will use up to   56 processors via shared memory.
 %mem=96gb
 ----------------------------------------------------------------------
 # def2svp wb97xd scrf=(smd,solvent=acetonitrile) g09default scf=(xqc,m
 axcycle=64) force guess=read nosymm
 ----------------------------------------------------------------------
 1/10=7,30=1,38=1,158=3,167=1/1,3;
 2/12=2,15=1,17=6,18=5,40=1/2;
 3/5=43,7=101,11=2,25=1,27=10,30=1,70=32201,71=1,72=2,74=-58,75=-4,116=-2,158=3/1,2,3;
 4/5=1,60=-1/1;
 5/5=2,7=64,8=3,13=1,38=6,53=2,87=10/2,8;
 6/7=2,8=2,9=2,10=2,28=1,87=10/1;
 7/29=1,30=1,87=10/1,2,3,16;
 1/10=7,30=1,158=3,167=1/3;
 99//99;
 Using 2006 physical constants.
 ----------
 Title Card
 ----------
 Symbolic Z-matrix:
 Charge = -1 Multiplicity = 1
 17                   -9.71621   8.2757    10.55698 
 6                    -8.33586   4.24026   12.21899 
 6                    -9.13123   3.92828   11.10054 
 6                    -10.04136   2.85973   11.2128 
 6                    -10.20306   2.17702   12.41396 
 6                    -9.44503   2.53586   13.52967 
 6                    -8.49426   3.55288   13.41862 
 1                    -7.57742   5.02329   12.14881 
 1                    -10.6304   2.56726   10.33904 
 1                    -10.91978   1.35503   12.48043 
 1                    -9.58149   2.01219   14.4784 
 1                    -7.86986   3.81121   14.27762 
 6                    -9.05727   4.66786   9.83878 
 6                    -8.36556   5.80295   9.60428 
 1                    -9.64305   4.23941   9.01779 
 1                    -8.35033   6.23638   8.60206 
 1                    -7.7358    6.28513   10.35264 
 8                    -0.97819  -1.79402   7.46686 
 8                    -8.39882  -1.33418   7.46095 
 8                    -7.02689   1.34842   10.47241 
 8                    -2.33401  -4.39163   10.55399 
 74                   -3.40692   0.68951   6.47355 
 74                   -5.99184  -3.81773   6.56007 
 74                   -3.61476   0.87332   11.42184 
 74                   -5.76302  -3.86      11.48021 
 74                   -2.43197  -2.59133   6.40236 
 74                   -6.94333  -0.5329    6.37303 
 74                   -6.82256  -0.24793   11.56005 
 74                   -2.54348  -2.73048   11.60233 
 8                    -3.17047   1.87229   5.29255 
 8                    -6.12574  -5.0692    5.41879 
 8                    -2.6911    1.71764   12.57214 
 8                    -6.67972  -4.66083   12.66476 
 8                    -2.65771  -0.91411   5.58612 
 8                    -6.70446  -2.2671    5.62181 
 8                    -5.31347   0.55236   12.36078 
 8                    -4.05011  -3.52721   12.40452 
 8                     0.30599  -0.00871   9.28336 
 8                    -9.69642  -3.04088   9.32929 
 8                    -6.34622   3.43023   8.6664 
 8                    -3.00672  -6.48945   8.74717 
 8                    -1.78483   0.75282   7.47404 
 8                    -7.59922  -3.88403   7.5434 
 8                    -4.49609   2.19932   10.42895 
 8                    -4.87448  -5.22846   10.52674 
 8                    -1.60189  -3.53995   5.26012 
 8                    -7.82505   0.27837   5.18295 
 8                    -8.04856  -0.16798   12.73338 
 8                    -1.30296  -2.85417   12.75706 
 74                   -1.25089  -0.5265    8.83663 
 74                   -8.13722  -2.53821   8.87438 
 74                   -5.87055   1.85846   9.04486 
 74                   -3.49323  -4.9151    9.16503 
 8                    -4.21244  -3.10973   6.07003 
 8                    -5.1551   -0.05957   6.01286 
 8                    -6.17176  -1.99627   11.90757 
 8                    -3.16976  -0.98307   11.92908 
 8                    -4.35608   1.58087   7.83058 
 8                    -5.00552  -4.67972   7.92151 
 8                    -2.32649   0.57108   10.08099 
 8                    -7.04978  -3.61413   10.13147 
 8                    -2.56851  -3.90699   7.86698 
 8                    -6.81099   0.79375   7.80338 
 8                    -7.82775  -1.17639   10.13834 
 8                    -1.56191  -1.86528   10.13869 
 8                    -3.35726  -1.15632   8.00607 
 8                    -6.02324  -1.95698   8.03371 
 8                    -5.11747  -0.20565   9.94439 
 8                    -4.23594  -2.84424   9.97409 
 19                   -3.21233  -6.13595   5.64496 
 19                   -0.10729   0.05545   12.34383 
 19                   -9.28852  -2.84332   12.4355 
 23                   -4.68576  -1.53701   8.98755 
 

 GradGradGradGradGradGradGradGradGradGradGradGradGradGradGradGradGradGrad
 Berny optimization.
 Initialization pass.
 Trust Radius=3.00D-01 FncErr=1.00D-07 GrdErr=1.00D-07 EigMax=2.50D+02 EigMin=1.00D-04
 Number of steps in this run=      2 maximum allowed number of steps=      2.
 GradGradGradGradGradGradGradGradGradGradGradGradGradGradGradGradGradGrad

 Symmetry turned off by external request.
 Stoichiometry    C8H8ClK3O40VW12(1-)
 Framework group  C1[X(C8H8ClK3O40VW12)]
 Deg. of freedom   213
 Full point group                 C1      NOp   1
                          Input orientation:                          
 ---------------------------------------------------------------------
 Center     Atomic      Atomic             Coordinates (Angstroms)
 Number     Number       Type             X           Y           Z
 ---------------------------------------------------------------------
      1         17           0       -9.716212    8.275698   10.556981
      2          6           0       -8.335858    4.240259   12.218985
      3          6           0       -9.131226    3.928278   11.100542
      4          6           0      -10.041363    2.859733   11.212798
      5          6           0      -10.203062    2.177020   12.413962
      6          6           0       -9.445025    2.535856   13.529670
      7          6           0       -8.494261    3.552884   13.418625
      8          1           0       -7.577415    5.023293   12.148809
      9          1           0      -10.630403    2.567257   10.339038
     10          1           0      -10.919780    1.355029   12.480433
     11          1           0       -9.581494    2.012192   14.478402
     12          1           0       -7.869863    3.811207   14.277623
     13          6           0       -9.057267    4.667860    9.838781
     14          6           0       -8.365556    5.802946    9.604278
     15          1           0       -9.643055    4.239409    9.017785
     16          1           0       -8.350326    6.236380    8.602063
     17          1           0       -7.735795    6.285131   10.352637
     18          8           0       -0.978189   -1.794020    7.466863
     19          8           0       -8.398819   -1.334177    7.460947
     20          8           0       -7.026890    1.348424   10.472407
     21          8           0       -2.334009   -4.391627   10.553989
     22         74           0       -3.406916    0.689505    6.473550
     23         74           0       -5.991844   -3.817726    6.560075
     24         74           0       -3.614759    0.873322   11.421844
     25         74           0       -5.763021   -3.859999   11.480210
     26         74           0       -2.431975   -2.591331    6.402356
     27         74           0       -6.943334   -0.532896    6.373027
     28         74           0       -6.822565   -0.247927   11.560052
     29         74           0       -2.543483   -2.730482   11.602332
     30          8           0       -3.170469    1.872294    5.292547
     31          8           0       -6.125739   -5.069197    5.418785
     32          8           0       -2.691104    1.717635   12.572145
     33          8           0       -6.679723   -4.660833   12.664758
     34          8           0       -2.657711   -0.914113    5.586121
     35          8           0       -6.704457   -2.267099    5.621813
     36          8           0       -5.313472    0.552364   12.360783
     37          8           0       -4.050105   -3.527209   12.404517
     38          8           0        0.305989   -0.008715    9.283358
     39          8           0       -9.696420   -3.040884    9.329288
     40          8           0       -6.346218    3.430227    8.666403
     41          8           0       -3.006716   -6.489449    8.747167
     42          8           0       -1.784829    0.752821    7.474035
     43          8           0       -7.599222   -3.884033    7.543400
     44          8           0       -4.496088    2.199323   10.428950
     45          8           0       -4.874480   -5.228460   10.526739
     46          8           0       -1.601893   -3.539954    5.260115
     47          8           0       -7.825047    0.278371    5.182955
     48          8           0       -8.048561   -0.167978   12.733384
     49          8           0       -1.302961   -2.854166   12.757058
     50         74           0       -1.250893   -0.526505    8.836632
     51         74           0       -8.137216   -2.538213    8.874378
     52         74           0       -5.870546    1.858458    9.044862
     53         74           0       -3.493225   -4.915101    9.165033
     54          8           0       -4.212440   -3.109727    6.070027
     55          8           0       -5.155105   -0.059570    6.012861
     56          8           0       -6.171764   -1.996273   11.907574
     57          8           0       -3.169757   -0.983071   11.929081
     58          8           0       -4.356084    1.580866    7.830583
     59          8           0       -5.005518   -4.679722    7.921510
     60          8           0       -2.326490    0.571080   10.080986
     61          8           0       -7.049777   -3.614128   10.131470
     62          8           0       -2.568509   -3.906991    7.866985
     63          8           0       -6.810992    0.793750    7.803384
     64          8           0       -7.827753   -1.176393   10.138339
     65          8           0       -1.561906   -1.865281   10.138687
     66          8           0       -3.357265   -1.156324    8.006067
     67          8           0       -6.023238   -1.956979    8.033709
     68          8           0       -5.117471   -0.205652    9.944391
     69          8           0       -4.235941   -2.844244    9.974093
     70         19           0       -3.212330   -6.135949    5.644960
     71         19           0       -0.107292    0.055453   12.343831
     72         19           0       -9.288517   -2.843317   12.435498
     73         23           0       -4.685763   -1.537014    8.987552
 ---------------------------------------------------------------------
 Rotational constants (GHZ):           0.0172102           0.0132198           0.0129930
 Standard basis: def2SVP (5D, 7F)
  1217 basis functions,  2313 primitive gaussians,  1337 cartesian basis functions
   321 alpha electrons      321 beta electrons
       nuclear repulsion energy     20972.2850330857 Hartrees.
 NAtoms=   73 NActive=   73 NUniq=   73 SFac= 1.00D+00 NAtFMM=   60 NAOKFM=T Big=T
 Integral buffers will be    131072 words long.
 Raffenetti 2 integral format.
 Two-electron integral symmetry is turned off.
 Nuclear repulsion after empirical dispersion term =    20972.0084259099 Hartrees.
 Force PCM accuracy= 1.00D-10.
 ------------------------------------------------------------------------------
 Polarizable Continuum Model (PCM)
 =================================
 Model                : PCM (using non-symmetric T matrix).
 Atomic radii         : SMD-Coulomb.
 Polarization charges : Total charges.
 Charge compensation  : None.
 Solution method      : On-the-fly selection.
 Cavity type          : VdW (van der Waals Surface) (Alpha=1.000).
 Cavity algorithm     : GePol (No added spheres)
                        Default sphere list used, NSphG=   73.
                        Lebedev-Laikov grids with approx.  5.0 points / Ang**2.
                        Smoothing algorithm: York/Karplus (Gamma=1.0000).
                        Polarization charges: spherical gaussians, with
                                              point-specific exponents (IZeta= 3).
                        Self-potential: point-specific (ISelfS= 7).
                        Self-field    : sphere-specific E.n sum rule (ISelfD= 2).
 1st derivatives      : Analytical E(r).r(x)/FMM algorithm (CHGder, D1EAlg=3).
                        Cavity 1st derivative terms included.
 Solvent              : Acetonitrile, Eps=  35.688000 Eps(inf)=   1.806874
 ------------------------------------------------------------------------------
 ------------------------------------------------------------------------------
 Atomic radii for non-electrostatic terms: SMD-CDS.
 ------------------------------------------------------------------------------
 Nuclear repulsion after PCM non-electrostatic terms =    20972.0026870742 Hartrees.
 One-electron integrals computed using PRISM.
   1 Symmetry operations used in ECPInt.
 ECPInt:  NShTT=  127765 NPrTT=  468030 LenC2=   96568 LenP2D=  220940.
 LDataN:  DoStor=T MaxTD1= 8 Len=  415
 NBasis=  1217 RedAO= T EigKep=  1.38D-04  NBF=  1217
 NBsUse=  1217 1.00D-06 EigRej= -1.00D+00 NBFU=  1217
 Defaulting to unpruned grid for atomic number  74.
 Defaulting to unpruned grid for atomic number  74.
 Defaulting to unpruned grid for atomic number  74.
 Defaulting to unpruned grid for atomic number  74.
 Defaulting to unpruned grid for atomic number  74.
 Defaulting to unpruned grid for atomic number  74.
 Defaulting to unpruned grid for atomic number  74.
 Defaulting to unpruned grid for atomic number  74.
 Initial guess from the checkpoint file:  "b.chk"
 B after Tr=     0.001575   -0.001994    0.000081
         Rot=    1.000000   -0.000002    0.000010    0.000078 Ang=  -0.01 deg.
 Initial guess <Sx>= 0.0000 <Sy>= 0.0000 <Sz>= 0.0000 <S**2>= 1.0190 S= 0.6265
 Requested convergence on RMS density matrix=1.00D-08 within  64 cycles.
 Requested convergence on MAX density matrix=1.00D-06.
 Requested convergence on             energy=1.00D-06.
 No special actions if energy rises.
 Defaulting to unpruned grid for atomic number  74.
 Defaulting to unpruned grid for atomic number  74.
 Defaulting to unpruned grid for atomic number  74.
 Defaulting to unpruned grid for atomic number  74.
 Defaulting to unpruned grid for atomic number  74.
 Defaulting to unpruned grid for atomic number  74.
 Defaulting to unpruned grid for atomic number  74.
 Defaulting to unpruned grid for atomic number  74.
 Defaulting to unpruned grid for atomic number  74.
 Defaulting to unpruned grid for atomic number  74.
 Defaulting to unpruned grid for atomic number  74.
 Defaulting to unpruned grid for atomic number  74.
 Defaulting to unpruned grid for atomic number  74.
 Defaulting to unpruned grid for atomic number  74.
 Defaulting to unpruned grid for atomic number  74.
 Defaulting to unpruned grid for atomic number  74.
 Defaulting to unpruned grid for atomic number  74.
 Defaulting to unpruned grid for atomic number  74.
 Defaulting to unpruned grid for atomic number  74.
 Defaulting to unpruned grid for atomic number  74.
 Defaulting to unpruned grid for atomic number  74.
 Defaulting to unpruned grid for atomic number  74.
 Defaulting to unpruned grid for atomic number  74.
 Defaulting to unpruned grid for atomic number  74.
 Defaulting to unpruned grid for atomic number  74.
 Defaulting to unpruned grid for atomic number  74.
 Defaulting to unpruned grid for atomic number  74.
 Defaulting to unpruned grid for atomic number  74.
 Defaulting to unpruned grid for atomic number  74.
 Defaulting to unpruned grid for atomic number  74.
 Defaulting to unpruned grid for atomic number  74.
 Defaulting to unpruned grid for atomic number  74.
 Defaulting to unpruned grid for atomic number  74.
 Defaulting to unpruned grid for atomic number  74.
 Defaulting to unpruned grid for atomic number  74.
 Defaulting to unpruned grid for atomic number  74.
 Defaulting to unpruned grid for atomic number  74.
 Defaulting to unpruned grid for atomic number  74.
 Defaulting to unpruned grid for atomic number  74.
 Defaulting to unpruned grid for atomic number  74.
 Defaulting to unpruned grid for atomic number  74.
 Defaulting to unpruned grid for atomic number  74.
 Defaulting to unpruned grid for atomic number  74.
 Defaulting to unpruned grid for atomic number  74.
 Defaulting to unpruned grid for atomic number  74.
 Defaulting to unpruned grid for atomic number  74.
 Defaulting to unpruned grid for atomic number  74.
 Defaulting to unpruned grid for atomic number  74.
 Defaulting to unpruned grid for atomic number  74.
 Defaulting to unpruned grid for atomic number  74.
 Defaulting to unpruned grid for atomic number  74.
 Defaulting to unpruned grid for atomic number  74.
 Defaulting to unpruned grid for atomic number  74.
 Defaulting to unpruned grid for atomic number  74.
 Defaulting to unpruned grid for atomic number  74.
 Defaulting to unpruned grid for atomic number  74.
 Inv3:  Mode=1 IEnd=    87512403.
 Iteration    1 A*A^-1 deviation from unit magnitude is 3.33D-15 for   4979.
 Iteration    1 A*A^-1 deviation from orthogonality  is 2.42D-15 for   1021    627.
 Iteration    1 A^-1*A deviation from unit magnitude is 3.55D-15 for   2010.
 Iteration    1 A^-1*A deviation from orthogonality  is 2.29D-11 for   3507   3215.
 Restarting incremental Fock formation.
 Error on total polarization charges =  0.01568
 SCF Done:  E(UwB97XD) =  -7327.70161784     A.U. after   36 cycles
            NFock= 36  Conv=0.15D-08     -V/T= 2.0831
 <Sx>= 0.0000 <Sy>= 0.0000 <Sz>= 0.0000 <S**2>= 1.0193 S= 0.6266
 <L.S>=  0.00000000000    
 SMD-CDS (non-electrostatic) energy       (kcal/mol) =      -3.60
 (included in total energy above)
 Annihilation of the first spin contaminant:
 S**2 before annihilation     1.0193,   after     0.1544
 QCSCF skips out because SCF is already converged.

 **********************************************************************

            Population analysis using the SCF Density.

 **********************************************************************

 Alpha  occ. eigenvalues -- -197.11178-129.99147-129.99063-129.99055-101.62439
 Alpha  occ. eigenvalues --  -22.44820 -19.28541 -19.28504 -19.28454 -19.28399
 Alpha  occ. eigenvalues --  -19.28386 -19.28363 -19.28355 -19.28351 -19.28342
 Alpha  occ. eigenvalues --  -19.28278 -19.28246 -19.28158 -19.26948 -19.26904
 Alpha  occ. eigenvalues --  -19.26897 -19.26868 -19.26864 -19.26830 -19.26820
 Alpha  occ. eigenvalues --  -19.26819 -19.26815 -19.26804 -19.26790 -19.26783
 Alpha  occ. eigenvalues --  -19.26764 -19.26761 -19.26755 -19.26752 -19.26749
 Alpha  occ. eigenvalues --  -19.26748 -19.26727 -19.26725 -19.26718 -19.26696
 Alpha  occ. eigenvalues --  -19.26648 -19.26590 -19.24848 -19.24827 -19.24786
 Alpha  occ. eigenvalues --  -19.24774 -18.94398 -18.93297 -18.93289 -13.36560
 Alpha  occ. eigenvalues --  -13.36474 -13.36460 -10.69487 -10.69483 -10.69481
 Alpha  occ. eigenvalues --  -10.69401 -10.69397 -10.69396 -10.69388 -10.69384
 Alpha  occ. eigenvalues --  -10.69378 -10.32942 -10.32118 -10.31941 -10.30982
 Alpha  occ. eigenvalues --  -10.30959 -10.30946 -10.30543 -10.30475  -9.52849
 Alpha  occ. eigenvalues --   -7.27737  -7.27383  -7.27379  -3.21128  -3.21086
 Alpha  occ. eigenvalues --   -3.21067  -3.21045  -3.21043  -3.21021  -3.21021
 Alpha  occ. eigenvalues --   -3.21011  -3.21003  -3.20890  -3.20873  -3.20846
 Alpha  occ. eigenvalues --   -2.79026  -1.85351  -1.85293  -1.85282  -1.85255
 Alpha  occ. eigenvalues --   -1.85140  -1.85075  -1.85061  -1.85044  -1.85029
 Alpha  occ. eigenvalues --   -1.85018  -1.85007  -1.84947  -1.84391  -1.84282
 Alpha  occ. eigenvalues --   -1.84265  -1.84253  -1.84219  -1.84209  -1.84148
 Alpha  occ. eigenvalues --   -1.84135  -1.84110  -1.84100  -1.84074  -1.84061
 Alpha  occ. eigenvalues --   -1.83959  -1.83920  -1.83887  -1.83880  -1.83861
 Alpha  occ. eigenvalues --   -1.83831  -1.83808  -1.83800  -1.83791  -1.83694
 Alpha  occ. eigenvalues --   -1.83685  -1.83678  -1.82163  -1.81817  -1.81809
 Alpha  occ. eigenvalues --   -1.50258  -1.50178  -1.50168  -1.08631  -1.07005
 Alpha  occ. eigenvalues --   -1.06965  -1.06924  -1.06012  -1.06005  -1.05974
 Alpha  occ. eigenvalues --   -1.04575  -1.04566  -1.04555  -1.03989  -1.03977
 Alpha  occ. eigenvalues --   -1.03763  -1.03385  -1.03359  -1.03337  -1.03023
 Alpha  occ. eigenvalues --   -1.02990  -1.02262  -1.02232  -1.02221  -1.02085
 Alpha  occ. eigenvalues --   -1.02003  -1.01972  -1.01905  -1.01883  -1.01770
 Alpha  occ. eigenvalues --   -1.01749  -1.01734  -1.01622  -1.01585  -1.01559
 Alpha  occ. eigenvalues --   -1.01289  -1.00831  -1.00743  -1.00682  -1.00678
 Alpha  occ. eigenvalues --   -1.00057  -1.00000  -0.99943  -0.96135  -0.89184
 Alpha  occ. eigenvalues --   -0.85697  -0.85620  -0.85617  -0.85549  -0.85531
 Alpha  occ. eigenvalues --   -0.85471  -0.85467  -0.85461  -0.85428  -0.84231
 Alpha  occ. eigenvalues --   -0.82418  -0.81197  -0.71881  -0.69585  -0.65030
 Alpha  occ. eigenvalues --   -0.62332  -0.61713  -0.61665  -0.61642  -0.60526
 Alpha  occ. eigenvalues --   -0.58970  -0.58949  -0.58930  -0.58874  -0.58812
 Alpha  occ. eigenvalues --   -0.58804  -0.58773  -0.58734  -0.58557  -0.57400
 Alpha  occ. eigenvalues --   -0.57363  -0.57345  -0.57047  -0.56691  -0.56514
 Alpha  occ. eigenvalues --   -0.56469  -0.56425  -0.56052  -0.55903  -0.55364
 Alpha  occ. eigenvalues --   -0.55350  -0.55316  -0.54431  -0.54155  -0.54135
 Alpha  occ. eigenvalues --   -0.53932  -0.53725  -0.53682  -0.53661  -0.52700
 Alpha  occ. eigenvalues --   -0.52619  -0.52601  -0.52493  -0.52456  -0.51480
 Alpha  occ. eigenvalues --   -0.51464  -0.51440  -0.51343  -0.51285  -0.50740
 Alpha  occ. eigenvalues --   -0.50551  -0.50535  -0.50476  -0.50383  -0.50304
 Alpha  occ. eigenvalues --   -0.50286  -0.50043  -0.49996  -0.49977  -0.49726
 Alpha  occ. eigenvalues --   -0.49626  -0.49583  -0.49492  -0.49464  -0.49293
 Alpha  occ. eigenvalues --   -0.49250  -0.49207  -0.49151  -0.49101  -0.49035
 Alpha  occ. eigenvalues --   -0.48685  -0.48520  -0.48502  -0.48443  -0.47644
 Alpha  occ. eigenvalues --   -0.47614  -0.47126  -0.46479  -0.46049  -0.46025
 Alpha  occ. eigenvalues --   -0.45894  -0.45778  -0.45751  -0.45612  -0.45217
 Alpha  occ. eigenvalues --   -0.45138  -0.45131  -0.44765  -0.44587  -0.44492
 Alpha  occ. eigenvalues --   -0.44479  -0.44449  -0.44304  -0.44205  -0.44165
 Alpha  occ. eigenvalues --   -0.43476  -0.43045  -0.42553  -0.42512  -0.42434
 Alpha  occ. eigenvalues --   -0.42342  -0.42191  -0.42172  -0.42139  -0.41634
 Alpha  occ. eigenvalues --   -0.41618  -0.41586  -0.41024  -0.40976  -0.40760
 Alpha  occ. eigenvalues --   -0.40755  -0.40722  -0.40351  -0.40337  -0.40304
 Alpha  occ. eigenvalues --   -0.40194  -0.40156  -0.40141  -0.40110  -0.39842
 Alpha  occ. eigenvalues --   -0.39363  -0.39265  -0.39251  -0.39127  -0.39077
 Alpha  occ. eigenvalues --   -0.38899  -0.38871  -0.38814  -0.38781  -0.38699
 Alpha  occ. eigenvalues --   -0.38298  -0.38260  -0.38213  -0.37960  -0.37209
 Alpha  occ. eigenvalues --   -0.37173  -0.34938  -0.34913  -0.33614  -0.30164
 Alpha  occ. eigenvalues --   -0.26031
 Alpha virt. eigenvalues --   -0.12380  -0.06414  -0.06349  -0.04918  -0.04876
 Alpha virt. eigenvalues --   -0.04743  -0.01538  -0.01422  -0.01371  -0.01171
 Alpha virt. eigenvalues --   -0.00941  -0.00932  -0.00901  -0.00164  -0.00104
 Alpha virt. eigenvalues --   -0.00067   0.00666   0.00684   0.00713   0.00871
 Alpha virt. eigenvalues --    0.00975   0.01007   0.01740   0.01777   0.01857
 Alpha virt. eigenvalues --    0.02476   0.02680   0.02762   0.02841   0.03454
 Alpha virt. eigenvalues --    0.03538   0.03698   0.03819   0.03895   0.04282
 Alpha virt. eigenvalues --    0.04323   0.04350   0.04395   0.04556   0.05005
 Alpha virt. eigenvalues --    0.05081   0.06021   0.06419   0.07765   0.07987
 Alpha virt. eigenvalues --    0.08421   0.08562   0.08728   0.08821   0.09156
 Alpha virt. eigenvalues --    0.09688   0.09856   0.09882   0.09910   0.10010
 Alpha virt. eigenvalues --    0.10029   0.10171   0.10353   0.10877   0.10934
 Alpha virt. eigenvalues --    0.11541   0.11623   0.11940   0.12259   0.12339
 Alpha virt. eigenvalues --    0.12476   0.12487   0.12517   0.12886   0.13308
 Alpha virt. eigenvalues --    0.13396   0.13587   0.14054   0.14302   0.14756
 Alpha virt. eigenvalues --    0.14902   0.14920   0.15181   0.15335   0.15914
 Alpha virt. eigenvalues --    0.16121   0.16754   0.17034   0.17774   0.17885
 Alpha virt. eigenvalues --    0.18311   0.18432   0.18613   0.18766   0.18930
 Alpha virt. eigenvalues --    0.19299   0.19379   0.19476   0.19588   0.19627
 Alpha virt. eigenvalues --    0.19716   0.19852   0.20051   0.20685   0.20975
 Alpha virt. eigenvalues --    0.21158   0.21335   0.21379   0.21610   0.21671
 Alpha virt. eigenvalues --    0.21733   0.21949   0.21988   0.22232   0.22327
 Alpha virt. eigenvalues --    0.22342   0.22803   0.23219   0.23276   0.23367
 Alpha virt. eigenvalues --    0.23412   0.23585   0.23806   0.23997   0.24237
 Alpha virt. eigenvalues --    0.24310   0.24576   0.24657   0.24989   0.25166
 Alpha virt. eigenvalues --    0.25344   0.25451   0.25550   0.26360   0.26622
 Alpha virt. eigenvalues --    0.26840   0.27138   0.27370   0.27679   0.27894
 Alpha virt. eigenvalues --    0.27995   0.28450   0.28671   0.28812   0.29128
 Alpha virt. eigenvalues --    0.29307   0.29346   0.29463   0.29596   0.29771
 Alpha virt. eigenvalues --    0.30039   0.30432   0.30726   0.31258   0.31524
 Alpha virt. eigenvalues --    0.31866   0.32200   0.32353   0.32778   0.33140
 Alpha virt. eigenvalues --    0.33671   0.34465   0.35508   0.36959   0.37109
 Alpha virt. eigenvalues --    0.38233   0.38600   0.38928   0.39341   0.39630
 Alpha virt. eigenvalues --    0.40474   0.41335   0.41751   0.41827   0.41936
 Alpha virt. eigenvalues --    0.42216   0.42471   0.42645   0.43360   0.43878
 Alpha virt. eigenvalues --    0.44202   0.44382   0.44886   0.45265   0.45528
 Alpha virt. eigenvalues --    0.45698   0.45761   0.45909   0.46549   0.46708
 Alpha virt. eigenvalues --    0.47036   0.47342   0.47954   0.48001   0.48304
 Alpha virt. eigenvalues --    0.48377   0.48490   0.48879   0.49090   0.49180
 Alpha virt. eigenvalues --    0.49499   0.49850   0.49906   0.50015   0.50068
 Alpha virt. eigenvalues --    0.50160   0.50390   0.50571   0.50733   0.50747
 Alpha virt. eigenvalues --    0.51212   0.51308   0.51610   0.51872   0.52159
 Alpha virt. eigenvalues --    0.52555   0.52753   0.52835   0.53132   0.53352
 Alpha virt. eigenvalues --    0.53780   0.54129   0.54302   0.54473   0.54738
 Alpha virt. eigenvalues --    0.54830   0.55422   0.55877   0.55970   0.56459
 Alpha virt. eigenvalues --    0.56615   0.57049   0.57137   0.57187   0.57633
 Alpha virt. eigenvalues --    0.58302   0.58731   0.58899   0.59096   0.59485
 Alpha virt. eigenvalues --    0.59975   0.60506   0.60805   0.61052   0.61608
 Alpha virt. eigenvalues --    0.61929   0.62739   0.63640   0.63862   0.64697
 Alpha virt. eigenvalues --    0.65051   0.65690   0.66415   0.66512   0.66602
 Alpha virt. eigenvalues --    0.68062   0.68228   0.68506   0.68736   0.69302
 Alpha virt. eigenvalues --    0.69440   0.69933   0.70954   0.71441   0.71626
 Alpha virt. eigenvalues --    0.72025   0.72243   0.72759   0.72809   0.73036
 Alpha virt. eigenvalues --    0.73144   0.73298   0.73409   0.73643   0.73822
 Alpha virt. eigenvalues --    0.74105   0.74335   0.75194   0.75685   0.75914
 Alpha virt. eigenvalues --    0.76186   0.76997   0.77221   0.78032   0.78446
 Alpha virt. eigenvalues --    0.79000   0.79250   0.79918   0.80284   0.80622
 Alpha virt. eigenvalues --    0.80692   0.81117   0.82034   0.82143   0.82326
 Alpha virt. eigenvalues --    0.83076   0.83390   0.83854   0.84066   0.84317
 Alpha virt. eigenvalues --    0.84653   0.85061   0.85444   0.86498   0.87158
 Alpha virt. eigenvalues --    0.87930   0.88284   0.89259   0.89817   0.90007
 Alpha virt. eigenvalues --    0.90245   0.90539   0.90847   0.91193   0.91729
 Alpha virt. eigenvalues --    0.91875   0.92227   0.92468   0.92628   0.92733
 Alpha virt. eigenvalues --    0.93007   0.93317   0.93462   0.93772   0.94493
 Alpha virt. eigenvalues --    0.95261   0.95494   0.95854   0.96477   0.96545
 Alpha virt. eigenvalues --    0.96970   0.97161   0.97218   0.97645   0.98502
 Alpha virt. eigenvalues --    0.99144   0.99371   0.99516   0.99897   1.00290
 Alpha virt. eigenvalues --    1.00422   1.00615   1.00666   1.00911   1.00986
 Alpha virt. eigenvalues --    1.01112   1.01279   1.01689   1.02134   1.02502
 Alpha virt. eigenvalues --    1.02755   1.02912   1.03494   1.03846   1.03945
 Alpha virt. eigenvalues --    1.04060   1.04259   1.04774   1.04875   1.05062
 Alpha virt. eigenvalues --    1.05130   1.05325   1.05575   1.06073   1.06460
 Alpha virt. eigenvalues --    1.06902   1.06968   1.07132   1.07379   1.07436
 Alpha virt. eigenvalues --    1.07728   1.07922   1.08198   1.08541   1.08866
 Alpha virt. eigenvalues --    1.08931   1.09173   1.09536   1.10123   1.10766
 Alpha virt. eigenvalues --    1.11194   1.11220   1.11913   1.12081   1.12306
 Alpha virt. eigenvalues --    1.12431   1.12924   1.12964   1.13055   1.13282
 Alpha virt. eigenvalues --    1.13362   1.13574   1.13806   1.13857   1.14245
 Alpha virt. eigenvalues --    1.14334   1.14827   1.15129   1.15375   1.16003
 Alpha virt. eigenvalues --    1.16211   1.16633   1.17522   1.17830   1.18446
 Alpha virt. eigenvalues --    1.18876   1.19670   1.19739   1.20084   1.20247
 Alpha virt. eigenvalues --    1.20969   1.22033   1.22506   1.22918   1.23048
 Alpha virt. eigenvalues --    1.23118   1.23244   1.23639   1.23851   1.24607
 Alpha virt. eigenvalues --    1.25263   1.26124   1.27290   1.27817   1.28057
 Alpha virt. eigenvalues --    1.28629   1.29492   1.29768   1.30206   1.30507
 Alpha virt. eigenvalues --    1.30578   1.30717   1.31132   1.31317   1.31940
 Alpha virt. eigenvalues --    1.32089   1.32160   1.32344   1.32433   1.32590
 Alpha virt. eigenvalues --    1.32758   1.32850   1.33183   1.33350   1.34206
 Alpha virt. eigenvalues --    1.34321   1.34976   1.35123   1.35415   1.35505
 Alpha virt. eigenvalues --    1.35746   1.35938   1.36166   1.36444   1.36558
 Alpha virt. eigenvalues --    1.36857   1.37037   1.37746   1.37928   1.37968
 Alpha virt. eigenvalues --    1.38208   1.38474   1.38778   1.38890   1.38899
 Alpha virt. eigenvalues --    1.39117   1.39407   1.39607   1.39760   1.39925
 Alpha virt. eigenvalues --    1.40204   1.40564   1.40607   1.40808   1.41112
 Alpha virt. eigenvalues --    1.41183   1.41310   1.41616   1.41708   1.41830
 Alpha virt. eigenvalues --    1.42052   1.42322   1.42433   1.42594   1.42692
 Alpha virt. eigenvalues --    1.43052   1.43321   1.43572   1.43586   1.43985
 Alpha virt. eigenvalues --    1.44589   1.44819   1.45247   1.45421   1.45514
 Alpha virt. eigenvalues --    1.45713   1.46221   1.46389   1.46789   1.47373
 Alpha virt. eigenvalues --    1.47746   1.48184   1.49702   1.49740   1.50040
 Alpha virt. eigenvalues --    1.50253   1.50783   1.51753   1.52179   1.52285
 Alpha virt. eigenvalues --    1.52497   1.53101   1.53313   1.53910   1.55409
 Alpha virt. eigenvalues --    1.55713   1.57286   1.58148   1.58241   1.58372
 Alpha virt. eigenvalues --    1.58600   1.58983   1.59027   1.59281   1.60106
 Alpha virt. eigenvalues --    1.60526   1.60902   1.61395   1.61575   1.62047
 Alpha virt. eigenvalues --    1.62135   1.62353   1.63017   1.63210   1.63728
 Alpha virt. eigenvalues --    1.64485   1.64678   1.64843   1.65325   1.65640
 Alpha virt. eigenvalues --    1.65824   1.66944   1.68038   1.68409   1.69372
 Alpha virt. eigenvalues --    1.69889   1.70512   1.70703   1.72450   1.73058
 Alpha virt. eigenvalues --    1.73278   1.73478   1.74214   1.74321   1.74883
 Alpha virt. eigenvalues --    1.75769   1.76451   1.77716   1.77894   1.78111
 Alpha virt. eigenvalues --    1.78554   1.78834   1.79157   1.79452   1.79860
 Alpha virt. eigenvalues --    1.79889   1.81050   1.81388   1.81915   1.82253
 Alpha virt. eigenvalues --    1.82382   1.83040   1.83564   1.83679   1.84196
 Alpha virt. eigenvalues --    1.84395   1.84765   1.84940   1.85460   1.86020
 Alpha virt. eigenvalues --    1.86106   1.86592   1.86683   1.87368   1.87767
 Alpha virt. eigenvalues --    1.88241   1.88422   1.88797   1.89053   1.89070
 Alpha virt. eigenvalues --    1.89712   1.90358   1.91449   1.91904   1.92439
 Alpha virt. eigenvalues --    1.92861   1.93200   1.93743   1.93792   1.94896
 Alpha virt. eigenvalues --    1.96031   1.96277   1.97761   1.97910   1.98296
 Alpha virt. eigenvalues --    1.99027   2.01797   2.02012   2.02140   2.02213
 Alpha virt. eigenvalues --    2.05079   2.05649   2.07099   2.07725   2.08346
 Alpha virt. eigenvalues --    2.11111   2.11326   2.11785   2.12703   2.13112
 Alpha virt. eigenvalues --    2.13902   2.14820   2.14928   2.15694   2.17494
 Alpha virt. eigenvalues --    2.18311   2.18685   2.19089   2.19284   2.20429
 Alpha virt. eigenvalues --    2.20716   2.20861   2.21554   2.24356   2.26199
 Alpha virt. eigenvalues --    2.26490   2.26943   2.27347   2.28742   2.29505
 Alpha virt. eigenvalues --    2.30359   2.30857   2.31287   2.32636   2.33011
 Alpha virt. eigenvalues --    2.33460   2.33738   2.33961   2.34504   2.34761
 Alpha virt. eigenvalues --    2.35034   2.38927   2.39650   2.41745   2.42876
 Alpha virt. eigenvalues --    2.44235   2.47709   2.49010   2.54638   2.64627
 Alpha virt. eigenvalues --    2.66650   2.66998   2.67028   2.67180   2.67621
 Alpha virt. eigenvalues --    2.68957   2.69211   2.69234   2.69353   2.69527
 Alpha virt. eigenvalues --    2.69569   2.69697   2.69818   2.69876   2.70092
 Alpha virt. eigenvalues --    2.70125   2.70155   2.70546   2.70645   2.70747
 Alpha virt. eigenvalues --    2.70792   2.70872   2.70972   2.71348   2.71605
 Alpha virt. eigenvalues --    2.71764   2.72001   2.72884   2.72897   2.73024
 Alpha virt. eigenvalues --    2.73178   2.73345   2.73479   2.73609   2.73672
 Alpha virt. eigenvalues --    2.73892   2.74342   2.74412   2.74437   2.75444
 Alpha virt. eigenvalues --    2.75498   2.75578   2.75649   2.75699   2.75713
 Alpha virt. eigenvalues --    2.75905   2.75957   2.76060   2.76099   2.76206
 Alpha virt. eigenvalues --    2.76263   2.76352   2.76465   2.76986   2.77439
 Alpha virt. eigenvalues --    2.77591   2.77711   2.78162   2.78352   2.78448
 Alpha virt. eigenvalues --    2.78664   2.79028   2.79318   2.79457   2.79647
 Alpha virt. eigenvalues --    2.79705   2.79830   2.80038   2.80334   2.81083
 Alpha virt. eigenvalues --    2.82200   2.82358   2.82529   2.82639   2.82692
 Alpha virt. eigenvalues --    2.82919   2.83085   2.83535   2.83966   2.84829
 Alpha virt. eigenvalues --    2.84864   2.85229   2.85372   2.85727   2.85836
 Alpha virt. eigenvalues --    2.85971   2.86201   2.86359   2.87196   2.87389
 Alpha virt. eigenvalues --    2.87646   2.88268   2.88463   2.88497   2.88632
 Alpha virt. eigenvalues --    2.88673   2.89509   2.89512   2.89599   2.90590
 Alpha virt. eigenvalues --    2.91084   2.91187   2.92163   2.92213   2.92316
 Alpha virt. eigenvalues --    2.92887   2.92936   2.92976   2.93157   2.93222
 Alpha virt. eigenvalues --    2.93605   2.94260   2.94495   2.94574   2.94693
 Alpha virt. eigenvalues --    2.94799   2.94957   2.95220   2.95361   2.95687
 Alpha virt. eigenvalues --    2.95755   2.96066   2.96150   2.96317   2.96449
 Alpha virt. eigenvalues --    2.96529   2.96695   2.96742   2.97162   2.97299
 Alpha virt. eigenvalues --    2.97473   2.98014   2.98159   2.98257   2.98947
 Alpha virt. eigenvalues --    2.99032   2.99112   2.99520   2.99614   2.99783
 Alpha virt. eigenvalues --    2.99962   3.00252   3.00344   3.00602   3.00692
 Alpha virt. eigenvalues --    3.01411   3.01585   3.01629   3.02051   3.02145
 Alpha virt. eigenvalues --    3.02427   3.02753   3.03098   3.03856   3.07415
 Alpha virt. eigenvalues --    3.07772   3.08723   3.08854   3.08958   3.09355
 Alpha virt. eigenvalues --    3.09430   3.09465   3.09675   3.09899   3.14185
 Alpha virt. eigenvalues --    3.14316   3.14419   3.14682   3.14865   3.15346
 Alpha virt. eigenvalues --    3.16536   3.16631   3.16956   3.22292   3.27497
 Alpha virt. eigenvalues --    3.29510   3.29692   3.30325   3.43493   3.43901
 Alpha virt. eigenvalues --    3.44484   3.45076   3.45470   3.47267   3.47327
 Alpha virt. eigenvalues --    3.48274   3.48558   3.48658   3.49526   3.49886
 Alpha virt. eigenvalues --    3.50202   3.53599   3.54309   3.54849   3.55914
 Alpha virt. eigenvalues --    3.56245   3.56767   3.57026   3.57251   3.57417
 Alpha virt. eigenvalues --    3.57638   3.57853   3.58014   3.59192   3.59760
 Alpha virt. eigenvalues --    3.59968   3.61552   3.61865   3.61919   3.62662
 Alpha virt. eigenvalues --    3.62926   3.63542   3.63847   3.64432   3.64727
 Alpha virt. eigenvalues --    3.73037   3.76809  68.66256  68.67350  68.68349
 Alpha virt. eigenvalues --   68.70347  68.74617  68.75651  68.83810  68.84757
 Alpha virt. eigenvalues --   68.85511  68.87615  68.88782  68.90111 576.24720
 Alpha virt. eigenvalues --  576.25791 576.26767 576.28722 576.33000 576.34009
 Alpha virt. eigenvalues --  576.42023 576.42953 576.43680 576.45695 576.46832
 Alpha virt. eigenvalues --  576.48149
  Beta  occ. eigenvalues -- -197.11161-129.99147-129.99063-129.99055-101.62851
  Beta  occ. eigenvalues --  -22.43556 -19.28543 -19.28505 -19.28455 -19.28395
  Beta  occ. eigenvalues --  -19.28380 -19.28357 -19.28348 -19.28345 -19.28335
  Beta  occ. eigenvalues --  -19.28279 -19.28250 -19.28152 -19.26949 -19.26904
  Beta  occ. eigenvalues --  -19.26897 -19.26868 -19.26864 -19.26829 -19.26818
  Beta  occ. eigenvalues --  -19.26818 -19.26815 -19.26806 -19.26792 -19.26783
  Beta  occ. eigenvalues --  -19.26764 -19.26762 -19.26756 -19.26755 -19.26750
  Beta  occ. eigenvalues --  -19.26750 -19.26728 -19.26725 -19.26718 -19.26696
  Beta  occ. eigenvalues --  -19.26648 -19.26589 -19.24825 -19.24808 -19.24762
  Beta  occ. eigenvalues --  -19.24749 -18.94053 -18.91834 -18.91823 -13.36560
  Beta  occ. eigenvalues --  -13.36474 -13.36460 -10.69487 -10.69483 -10.69481
  Beta  occ. eigenvalues --  -10.69401 -10.69397 -10.69396 -10.69388 -10.69384
  Beta  occ. eigenvalues --  -10.69378 -10.33197 -10.32242 -10.31896 -10.31080
  Beta  occ. eigenvalues --  -10.31075 -10.31040 -10.30488 -10.30419  -9.53307
  Beta  occ. eigenvalues --   -7.29182  -7.27697  -7.27693  -3.21128  -3.21080
  Beta  occ. eigenvalues --   -3.21067  -3.21044  -3.21037  -3.21015  -3.21015
  Beta  occ. eigenvalues --   -3.21005  -3.20997  -3.20890  -3.20869  -3.20841
  Beta  occ. eigenvalues --   -2.74956  -1.85346  -1.85288  -1.85277  -1.85247
  Beta  occ. eigenvalues --   -1.85134  -1.85069  -1.85056  -1.85039  -1.85020
  Beta  occ. eigenvalues --   -1.85010  -1.85000  -1.84938  -1.84388  -1.84280
  Beta  occ. eigenvalues --   -1.84262  -1.84250  -1.84216  -1.84206  -1.84145
  Beta  occ. eigenvalues --   -1.84133  -1.84106  -1.84097  -1.84071  -1.84058
  Beta  occ. eigenvalues --   -1.83956  -1.83917  -1.83884  -1.83877  -1.83858
  Beta  occ. eigenvalues --   -1.83828  -1.83805  -1.83798  -1.83788  -1.83692
  Beta  occ. eigenvalues --   -1.83682  -1.83676  -1.80821  -1.76064  -1.76039
  Beta  occ. eigenvalues --   -1.50258  -1.50178  -1.50168  -1.08613  -1.06986
  Beta  occ. eigenvalues --   -1.06941  -1.06896  -1.06010  -1.06003  -1.05973
  Beta  occ. eigenvalues --   -1.04577  -1.04566  -1.04554  -1.03991  -1.03977
  Beta  occ. eigenvalues --   -1.03697  -1.03355  -1.03318  -1.03299  -1.03023
  Beta  occ. eigenvalues --   -1.02982  -1.02244  -1.02208  -1.02204  -1.02076
  Beta  occ. eigenvalues --   -1.01998  -1.01959  -1.01900  -1.01869  -1.01766
  Beta  occ. eigenvalues --   -1.01746  -1.01731  -1.01619  -1.01583  -1.01543
  Beta  occ. eigenvalues --   -1.01289  -1.00792  -1.00742  -1.00682  -1.00678
  Beta  occ. eigenvalues --   -0.99922  -0.99874  -0.99827  -0.96349  -0.89817
  Beta  occ. eigenvalues --   -0.85697  -0.85620  -0.85617  -0.85549  -0.85531
  Beta  occ. eigenvalues --   -0.85471  -0.85467  -0.85460  -0.85428  -0.84839
  Beta  occ. eigenvalues --   -0.84325  -0.82695  -0.72126  -0.69701  -0.65262
  Beta  occ. eigenvalues --   -0.62332  -0.61712  -0.61665  -0.61642  -0.60722
  Beta  occ. eigenvalues --   -0.58966  -0.58947  -0.58929  -0.58802  -0.58789
  Beta  occ. eigenvalues --   -0.58766  -0.58746  -0.58677  -0.58558  -0.57363
  Beta  occ. eigenvalues --   -0.57217  -0.57176  -0.56998  -0.56861  -0.56518
  Beta  occ. eigenvalues --   -0.56436  -0.56389  -0.55859  -0.55645  -0.55345
  Beta  occ. eigenvalues --   -0.55333  -0.55316  -0.54621  -0.54147  -0.54127
  Beta  occ. eigenvalues --   -0.53922  -0.53684  -0.53655  -0.53621  -0.52747
  Beta  occ. eigenvalues --   -0.52644  -0.52589  -0.52473  -0.52450  -0.51454
  Beta  occ. eigenvalues --   -0.51438  -0.51433  -0.51280  -0.51212  -0.50915
  Beta  occ. eigenvalues --   -0.50527  -0.50473  -0.50449  -0.50325  -0.50251
  Beta  occ. eigenvalues --   -0.50164  -0.50012  -0.49994  -0.49945  -0.49673
  Beta  occ. eigenvalues --   -0.49602  -0.49548  -0.49482  -0.49453  -0.49292
  Beta  occ. eigenvalues --   -0.49228  -0.49204  -0.49124  -0.49087  -0.49015
  Beta  occ. eigenvalues --   -0.48680  -0.48517  -0.48501  -0.48435  -0.47772
  Beta  occ. eigenvalues --   -0.47576  -0.47552  -0.45963  -0.45906  -0.45861
  Beta  occ. eigenvalues --   -0.45825  -0.45672  -0.45565  -0.45217  -0.45161
  Beta  occ. eigenvalues --   -0.45135  -0.45047  -0.44764  -0.44585  -0.44477
  Beta  occ. eigenvalues --   -0.44426  -0.44416  -0.44285  -0.44184  -0.44151
  Beta  occ. eigenvalues --   -0.43471  -0.43150  -0.42492  -0.42461  -0.42397
  Beta  occ. eigenvalues --   -0.42269  -0.42222  -0.42151  -0.42135  -0.41618
  Beta  occ. eigenvalues --   -0.41596  -0.41563  -0.41325  -0.41031  -0.40930
  Beta  occ. eigenvalues --   -0.40748  -0.40692  -0.40649  -0.40335  -0.40329
  Beta  occ. eigenvalues --   -0.40287  -0.40144  -0.40129  -0.40118  -0.39785
  Beta  occ. eigenvalues --   -0.39619  -0.39361  -0.39169  -0.39105  -0.39088
  Beta  occ. eigenvalues --   -0.38896  -0.38843  -0.38824  -0.38774  -0.38722
  Beta  occ. eigenvalues --   -0.38667  -0.38297  -0.38257  -0.38210  -0.37914
  Beta  occ. eigenvalues --   -0.37211  -0.37167  -0.35903  -0.35874  -0.33878
  Beta  occ. eigenvalues --   -0.30894
  Beta virt. eigenvalues --   -0.06413  -0.06349  -0.04917  -0.04875  -0.04743
  Beta virt. eigenvalues --   -0.01534  -0.01417  -0.01366  -0.01165  -0.00936
  Beta virt. eigenvalues --   -0.00927  -0.00896  -0.00153  -0.00091  -0.00055
  Beta virt. eigenvalues --    0.00672   0.00693   0.00721   0.00906   0.00980
  Beta virt. eigenvalues --    0.01523   0.01807   0.01827   0.01875   0.02489
  Beta virt. eigenvalues --    0.02703   0.02763   0.02833   0.03491   0.03639
  Beta virt. eigenvalues --    0.03746   0.03966   0.04004   0.04292   0.04326
  Beta virt. eigenvalues --    0.04371   0.04400   0.04562   0.05011   0.05091
  Beta virt. eigenvalues --    0.05641   0.06446   0.06978   0.08484   0.08497
  Beta virt. eigenvalues --    0.08554   0.08629   0.09267   0.09340   0.09553
  Beta virt. eigenvalues --    0.09836   0.09915   0.10006   0.10010   0.10060
  Beta virt. eigenvalues --    0.10136   0.10337   0.10361   0.10889   0.10939
  Beta virt. eigenvalues --    0.11461   0.11602   0.11701   0.11972   0.12273
  Beta virt. eigenvalues --    0.12442   0.12485   0.12536   0.12607   0.13324
  Beta virt. eigenvalues --    0.13405   0.13590   0.14037   0.14292   0.14812
  Beta virt. eigenvalues --    0.14943   0.15006   0.15203   0.15338   0.15916
  Beta virt. eigenvalues --    0.16104   0.16719   0.17045   0.17770   0.17867
  Beta virt. eigenvalues --    0.18310   0.18434   0.18652   0.18774   0.18941
  Beta virt. eigenvalues --    0.19342   0.19415   0.19501   0.19608   0.19689
  Beta virt. eigenvalues --    0.19925   0.20032   0.20400   0.20701   0.20979
  Beta virt. eigenvalues --    0.21156   0.21335   0.21370   0.21609   0.21674
  Beta virt. eigenvalues --    0.21741   0.21962   0.22015   0.22241   0.22326
  Beta virt. eigenvalues --    0.22349   0.22804   0.23207   0.23255   0.23350
  Beta virt. eigenvalues --    0.23413   0.23602   0.23784   0.23951   0.24204
  Beta virt. eigenvalues --    0.24276   0.24496   0.24658   0.24970   0.25159
  Beta virt. eigenvalues --    0.25334   0.25450   0.25527   0.26256   0.26620
  Beta virt. eigenvalues --    0.26835   0.27130   0.27360   0.27663   0.27882
  Beta virt. eigenvalues --    0.27997   0.28393   0.28669   0.28818   0.29097
  Beta virt. eigenvalues --    0.29300   0.29379   0.29462   0.29599   0.29775
  Beta virt. eigenvalues --    0.30042   0.30426   0.30726   0.31264   0.31524
  Beta virt. eigenvalues --    0.31868   0.32207   0.32354   0.32781   0.33174
  Beta virt. eigenvalues --    0.33628   0.34463   0.35286   0.36960   0.37084
  Beta virt. eigenvalues --    0.38211   0.38731   0.38919   0.39382   0.39639
  Beta virt. eigenvalues --    0.40377   0.41338   0.41793   0.41901   0.42026
  Beta virt. eigenvalues --    0.42238   0.42498   0.42746   0.43386   0.43977
  Beta virt. eigenvalues --    0.44220   0.44456   0.44913   0.45192   0.45518
  Beta virt. eigenvalues --    0.45760   0.45850   0.45901   0.46531   0.46717
  Beta virt. eigenvalues --    0.47026   0.47326   0.47931   0.47969   0.48301
  Beta virt. eigenvalues --    0.48324   0.48375   0.48855   0.49086   0.49167
  Beta virt. eigenvalues --    0.49494   0.49792   0.49855   0.49931   0.50040
  Beta virt. eigenvalues --    0.50122   0.50387   0.50562   0.50700   0.50742
  Beta virt. eigenvalues --    0.51211   0.51304   0.51572   0.51856   0.52160
  Beta virt. eigenvalues --    0.52554   0.52686   0.52816   0.53126   0.53317
  Beta virt. eigenvalues --    0.53751   0.54053   0.54293   0.54453   0.54730
  Beta virt. eigenvalues --    0.54828   0.55377   0.55940   0.55996   0.56454
  Beta virt. eigenvalues --    0.56569   0.56969   0.57135   0.57194   0.57588
  Beta virt. eigenvalues --    0.58025   0.58742   0.58846   0.58990   0.59476
  Beta virt. eigenvalues --    0.59962   0.60580   0.60747   0.61005   0.61599
  Beta virt. eigenvalues --    0.61937   0.62659   0.63566   0.64034   0.64633
  Beta virt. eigenvalues --    0.65057   0.65499   0.66371   0.66503   0.66582
  Beta virt. eigenvalues --    0.67799   0.68136   0.68294   0.68727   0.68927
  Beta virt. eigenvalues --    0.69658   0.70081   0.70539   0.71220   0.71633
  Beta virt. eigenvalues --    0.71966   0.72210   0.72658   0.72765   0.73015
  Beta virt. eigenvalues --    0.73129   0.73296   0.73367   0.73592   0.73712
  Beta virt. eigenvalues --    0.74038   0.74186   0.74940   0.75557   0.75738
  Beta virt. eigenvalues --    0.76168   0.77089   0.77143   0.77855   0.78312
  Beta virt. eigenvalues --    0.79017   0.79246   0.79997   0.80554   0.80630
  Beta virt. eigenvalues --    0.81064   0.81156   0.82030   0.82143   0.82309
  Beta virt. eigenvalues --    0.83073   0.83347   0.83853   0.83993   0.84244
  Beta virt. eigenvalues --    0.84654   0.85060   0.85448   0.86425   0.87157
  Beta virt. eigenvalues --    0.87342   0.88122   0.88568   0.89234   0.89664
  Beta virt. eigenvalues --    0.89978   0.90230   0.90363   0.90807   0.91024
  Beta virt. eigenvalues --    0.91438   0.91758   0.91843   0.92050   0.92368
  Beta virt. eigenvalues --    0.92588   0.92673   0.93303   0.93407   0.93793
  Beta virt. eigenvalues --    0.94815   0.95293   0.95520   0.95819   0.96416
  Beta virt. eigenvalues --    0.96974   0.97177   0.97709   0.97817   0.98454
  Beta virt. eigenvalues --    0.99119   0.99323   0.99548   0.99853   1.00171
  Beta virt. eigenvalues --    1.00322   1.00541   1.00652   1.00884   1.00995
  Beta virt. eigenvalues --    1.01172   1.01300   1.01641   1.01936   1.02304
  Beta virt. eigenvalues --    1.02766   1.02905   1.03513   1.03853   1.03862
  Beta virt. eigenvalues --    1.03972   1.04273   1.04791   1.04889   1.05077
  Beta virt. eigenvalues --    1.05137   1.05370   1.05634   1.06090   1.06495
  Beta virt. eigenvalues --    1.06954   1.07005   1.07180   1.07451   1.07567
  Beta virt. eigenvalues --    1.07772   1.07937   1.08354   1.08746   1.08919
  Beta virt. eigenvalues --    1.08989   1.09328   1.09560   1.10135   1.10756
  Beta virt. eigenvalues --    1.11196   1.11226   1.11887   1.12088   1.12257
  Beta virt. eigenvalues --    1.12443   1.12770   1.12942   1.13071   1.13279
  Beta virt. eigenvalues --    1.13365   1.13558   1.13821   1.13864   1.14266
  Beta virt. eigenvalues --    1.14466   1.14870   1.15009   1.15388   1.15874
  Beta virt. eigenvalues --    1.16208   1.16523   1.17524   1.17826   1.18429
  Beta virt. eigenvalues --    1.18954   1.19526   1.19782   1.20044   1.20326
  Beta virt. eigenvalues --    1.20890   1.21202   1.22485   1.22919   1.23039
  Beta virt. eigenvalues --    1.23095   1.23274   1.23644   1.23861   1.24598
  Beta virt. eigenvalues --    1.25227   1.25940   1.27298   1.27793   1.27958
  Beta virt. eigenvalues --    1.28612   1.29505   1.29681   1.30144   1.30495
  Beta virt. eigenvalues --    1.30576   1.30772   1.31138   1.31243   1.31901
  Beta virt. eigenvalues --    1.32127   1.32173   1.32350   1.32404   1.32592
  Beta virt. eigenvalues --    1.32696   1.32904   1.33139   1.33212   1.33990
  Beta virt. eigenvalues --    1.34153   1.34951   1.35135   1.35424   1.35491
  Beta virt. eigenvalues --    1.35701   1.35921   1.36137   1.36450   1.36548
  Beta virt. eigenvalues --    1.36853   1.37034   1.37603   1.37901   1.37954
  Beta virt. eigenvalues --    1.38245   1.38452   1.38782   1.38908   1.38924
  Beta virt. eigenvalues --    1.39122   1.39422   1.39593   1.39799   1.39920
  Beta virt. eigenvalues --    1.40212   1.40538   1.40611   1.40827   1.41127
  Beta virt. eigenvalues --    1.41218   1.41323   1.41623   1.41718   1.41810
  Beta virt. eigenvalues --    1.42061   1.42322   1.42438   1.42597   1.42685
  Beta virt. eigenvalues --    1.43070   1.43325   1.43576   1.43595   1.43994
  Beta virt. eigenvalues --    1.44589   1.44805   1.45239   1.45407   1.45506
  Beta virt. eigenvalues --    1.45715   1.46219   1.46360   1.46854   1.47353
  Beta virt. eigenvalues --    1.47750   1.48189   1.49716   1.49751   1.50048
  Beta virt. eigenvalues --    1.50263   1.50792   1.51778   1.52187   1.52295
  Beta virt. eigenvalues --    1.52506   1.53120   1.53328   1.53931   1.55428
  Beta virt. eigenvalues --    1.55722   1.57290   1.58164   1.58263   1.58397
  Beta virt. eigenvalues --    1.58634   1.59001   1.59052   1.59320   1.60119
  Beta virt. eigenvalues --    1.60546   1.60924   1.61403   1.61585   1.62044
  Beta virt. eigenvalues --    1.62138   1.62363   1.63034   1.63211   1.63802
  Beta virt. eigenvalues --    1.64586   1.64832   1.64969   1.65464   1.65725
  Beta virt. eigenvalues --    1.65932   1.67014   1.68178   1.68472   1.69408
  Beta virt. eigenvalues --    1.69909   1.70543   1.70679   1.72294   1.73055
  Beta virt. eigenvalues --    1.73278   1.73500   1.74250   1.74333   1.74876
  Beta virt. eigenvalues --    1.75727   1.76380   1.77659   1.77892   1.78035
  Beta virt. eigenvalues --    1.78447   1.78771   1.79156   1.79434   1.79816
  Beta virt. eigenvalues --    1.79882   1.81063   1.81379   1.81881   1.82232
  Beta virt. eigenvalues --    1.82382   1.82952   1.83554   1.83709   1.84161
  Beta virt. eigenvalues --    1.84363   1.84761   1.84890   1.85472   1.86026
  Beta virt. eigenvalues --    1.86074   1.86624   1.86691   1.87385   1.87772
  Beta virt. eigenvalues --    1.88050   1.88435   1.88721   1.88928   1.89075
  Beta virt. eigenvalues --    1.89717   1.90373   1.91448   1.91802   1.92445
  Beta virt. eigenvalues --    1.92911   1.93201   1.93699   1.93819   1.94897
  Beta virt. eigenvalues --    1.96057   1.96182   1.97789   1.97950   1.98377
  Beta virt. eigenvalues --    1.99054   2.01643   2.02051   2.02207   2.02289
  Beta virt. eigenvalues --    2.04932   2.05481   2.07000   2.07399   2.08306
  Beta virt. eigenvalues --    2.11125   2.11346   2.11802   2.12074   2.13112
  Beta virt. eigenvalues --    2.13926   2.14831   2.14947   2.15744   2.17519
  Beta virt. eigenvalues --    2.18094   2.18571   2.19143   2.19251   2.20400
  Beta virt. eigenvalues --    2.20846   2.21001   2.21689   2.24290   2.26515
  Beta virt. eigenvalues --    2.26597   2.27254   2.27771   2.29325   2.30027
  Beta virt. eigenvalues --    2.30697   2.30959   2.31413   2.32998   2.33377
  Beta virt. eigenvalues --    2.33764   2.34197   2.34327   2.35062   2.35819
  Beta virt. eigenvalues --    2.36331   2.38658   2.39489   2.41639   2.42744
  Beta virt. eigenvalues --    2.44292   2.47230   2.48748   2.54074   2.64327
  Beta virt. eigenvalues --    2.66426   2.66994   2.67026   2.67145   2.67618
  Beta virt. eigenvalues --    2.68802   2.69211   2.69232   2.69332   2.69525
  Beta virt. eigenvalues --    2.69567   2.69699   2.69821   2.69878   2.70105
  Beta virt. eigenvalues --    2.70148   2.70164   2.70499   2.70669   2.70762
  Beta virt. eigenvalues --    2.70802   2.70873   2.70914   2.71331   2.71608
  Beta virt. eigenvalues --    2.71767   2.71999   2.72888   2.72901   2.73034
  Beta virt. eigenvalues --    2.73197   2.73368   2.73480   2.73519   2.73610
  Beta virt. eigenvalues --    2.73823   2.74352   2.74417   2.74432   2.75449
  Beta virt. eigenvalues --    2.75505   2.75583   2.75656   2.75703   2.75721
  Beta virt. eigenvalues --    2.75914   2.75964   2.76063   2.76107   2.76211
  Beta virt. eigenvalues --    2.76268   2.76358   2.76470   2.76990   2.77457
  Beta virt. eigenvalues --    2.77613   2.77751   2.78185   2.78388   2.78464
  Beta virt. eigenvalues --    2.78684   2.79043   2.79351   2.79488   2.79639
  Beta virt. eigenvalues --    2.79728   2.79819   2.80038   2.80247   2.81084
  Beta virt. eigenvalues --    2.82256   2.82369   2.82566   2.82667   2.82689
  Beta virt. eigenvalues --    2.82943   2.83131   2.83526   2.83961   2.84842
  Beta virt. eigenvalues --    2.84882   2.85249   2.85390   2.85737   2.85837
  Beta virt. eigenvalues --    2.85917   2.86090   2.86347   2.87220   2.87416
  Beta virt. eigenvalues --    2.87673   2.88273   2.88466   2.88498   2.88635
  Beta virt. eigenvalues --    2.88675   2.89517   2.89537   2.89613   2.90594
  Beta virt. eigenvalues --    2.91101   2.91207   2.92174   2.92220   2.92324
  Beta virt. eigenvalues --    2.92906   2.92954   2.93000   2.93182   2.93248
  Beta virt. eigenvalues --    2.93628   2.94247   2.94504   2.94567   2.94612
  Beta virt. eigenvalues --    2.94790   2.94963   2.95214   2.95364   2.95698
  Beta virt. eigenvalues --    2.95769   2.96086   2.96172   2.96323   2.96467
  Beta virt. eigenvalues --    2.96532   2.96633   2.96738   2.97172   2.97308
  Beta virt. eigenvalues --    2.97477   2.98029   2.98174   2.98263   2.98852
  Beta virt. eigenvalues --    2.98987   2.99060   2.99543   2.99639   2.99820
  Beta virt. eigenvalues --    3.00010   3.00271   3.00420   3.00666   3.00764
  Beta virt. eigenvalues --    3.01428   3.01595   3.01640   3.02073   3.02183
  Beta virt. eigenvalues --    3.02440   3.02770   3.03112   3.03866   3.07420
  Beta virt. eigenvalues --    3.08052   3.08569   3.08941   3.08979   3.09418
  Beta virt. eigenvalues --    3.09591   3.09794   3.10000   3.10553   3.14194
  Beta virt. eigenvalues --    3.14321   3.14426   3.14591   3.14850   3.15360
  Beta virt. eigenvalues --    3.16545   3.16642   3.17020   3.22227   3.27975
  Beta virt. eigenvalues --    3.30175   3.30662   3.30853   3.43495   3.43905
  Beta virt. eigenvalues --    3.44478   3.44894   3.45471   3.47273   3.47331
  Beta virt. eigenvalues --    3.48278   3.48561   3.48661   3.49528   3.49888
  Beta virt. eigenvalues --    3.50205   3.53608   3.54326   3.54870   3.55922
  Beta virt. eigenvalues --    3.56252   3.56788   3.57036   3.57278   3.57445
  Beta virt. eigenvalues --    3.57660   3.57879   3.58030   3.59201   3.59763
  Beta virt. eigenvalues --    3.59973   3.61568   3.61869   3.61930   3.62666
  Beta virt. eigenvalues --    3.62929   3.63546   3.63848   3.64434   3.64733
  Beta virt. eigenvalues --    3.72969   3.77039  68.66258  68.67351  68.68350
  Beta virt. eigenvalues --   68.70349  68.74618  68.75654  68.83811  68.84759
  Beta virt. eigenvalues --   68.85513  68.87617  68.88783  68.90113 576.24750
  Beta virt. eigenvalues --  576.25816 576.26794 576.28749 576.33015 576.34050
  Beta virt. eigenvalues --  576.42053 576.42975 576.43713 576.45725 576.46854
  Beta virt. eigenvalues --  576.48182
          Condensed to atoms (all electrons):
          Atomic-Atomic Spin Densities.
 Mulliken charges and spin densities:
               1          2
     1  Cl  -0.338501  -0.624953
     2  C   -0.035451  -0.090108
     3  C    0.013489   0.051755
     4  C   -0.034994  -0.086192
     5  C   -0.031584   0.055108
     6  C    0.006611  -0.109659
     7  C   -0.048486   0.055154
     8  H    0.050553   0.003968
     9  H    0.050773   0.003704
    10  H    0.055670  -0.001951
    11  H    0.056474   0.004818
    12  H    0.054346  -0.001939
    13  C    0.002281  -0.238404
    14  C   -0.046055  -0.031530
    15  H    0.075437   0.009982
    16  H    0.095257   0.002250
    17  H    0.086627  -0.000122
    18  O   -0.673017  -0.000572
    19  O   -0.672471  -0.000529
    20  O   -0.666771  -0.001653
    21  O   -0.673098  -0.000543
    22  W    1.721023   0.000359
    23  W    1.663691   0.000480
    24  W    1.674462   0.000171
    25  W    1.683856   0.000200
    26  W    1.664542   0.002683
    27  W    1.713122   0.002405
    28  W    1.614178   0.003332
    29  W    1.674596   0.002806
    30  O   -0.350027  -0.000539
    31  O   -0.393983  -0.000565
    32  O   -0.395618  -0.000608
    33  O   -0.389689  -0.000563
    34  O   -0.674588  -0.000293
    35  O   -0.679264  -0.000046
    36  O   -0.671493  -0.000147
    37  O   -0.674241  -0.000224
    38  O   -0.398224   0.002064
    39  O   -0.395577   0.002093
    40  O   -0.339790   0.000077
    41  O   -0.395265   0.002059
    42  O   -0.678727   0.000036
    43  O   -0.672993   0.000127
    44  O   -0.670854   0.000252
    45  O   -0.674918   0.000077
    46  O   -0.399390   0.002273
    47  O   -0.352505   0.002189
    48  O   -0.394886   0.001838
    49  O   -0.392621   0.002358
    50  W    1.662884   0.002703
    51  W    1.667456   0.002597
    52  W    1.679040   0.003744
    53  W    1.673468   0.002537
    54  O   -0.723422   0.000105
    55  O   -0.707899   0.000019
    56  O   -0.723357   0.000165
    57  O   -0.721984   0.000063
    58  O   -0.705935   0.000048
    59  O   -0.725338   0.000143
    60  O   -0.723184   0.000195
    61  O   -0.719650   0.000185
    62  O   -0.724236  -0.000186
    63  O   -0.708411  -0.000057
    64  O   -0.723550  -0.000213
    65  O   -0.725238  -0.000220
    66  O   -0.885815   0.005039
    67  O   -0.885802   0.007145
    68  O   -0.881934   0.006817
    69  O   -0.889400   0.006345
    70  K    0.849995   0.000187
    71  K    0.851229   0.000206
    72  K    0.847183   0.000214
    73  V    1.201993   0.938740
 Sum of Mulliken charges =  -1.00000  -0.00000
 Mulliken charges and spin densities with hydrogens summed into heavy atoms:
               1          2
     1  Cl  -0.338501  -0.624953
     2  C    0.015102  -0.086139
     3  C    0.013489   0.051755
     4  C    0.015779  -0.082489
     5  C    0.024086   0.053157
     6  C    0.063086  -0.104841
     7  C    0.005859   0.053215
    13  C    0.077718  -0.228422
    14  C    0.135829  -0.029402
    18  O   -0.673017  -0.000572
    19  O   -0.672471  -0.000529
    20  O   -0.666771  -0.001653
    21  O   -0.673098  -0.000543
    22  W    1.721023   0.000359
    23  W    1.663691   0.000480
    24  W    1.674462   0.000171
    25  W    1.683856   0.000200
    26  W    1.664542   0.002683
    27  W    1.713122   0.002405
    28  W    1.614178   0.003332
    29  W    1.674596   0.002806
    30  O   -0.350027  -0.000539
    31  O   -0.393983  -0.000565
    32  O   -0.395618  -0.000608
    33  O   -0.389689  -0.000563
    34  O   -0.674588  -0.000293
    35  O   -0.679264  -0.000046
    36  O   -0.671493  -0.000147
    37  O   -0.674241  -0.000224
    38  O   -0.398224   0.002064
    39  O   -0.395577   0.002093
    40  O   -0.339790   0.000077
    41  O   -0.395265   0.002059
    42  O   -0.678727   0.000036
    43  O   -0.672993   0.000127
    44  O   -0.670854   0.000252
    45  O   -0.674918   0.000077
    46  O   -0.399390   0.002273
    47  O   -0.352505   0.002189
    48  O   -0.394886   0.001838
    49  O   -0.392621   0.002358
    50  W    1.662884   0.002703
    51  W    1.667456   0.002597
    52  W    1.679040   0.003744
    53  W    1.673468   0.002537
    54  O   -0.723422   0.000105
    55  O   -0.707899   0.000019
    56  O   -0.723357   0.000165
    57  O   -0.721984   0.000063
    58  O   -0.705935   0.000048
    59  O   -0.725338   0.000143
    60  O   -0.723184   0.000195
    61  O   -0.719650   0.000185
    62  O   -0.724236  -0.000186
    63  O   -0.708411  -0.000057
    64  O   -0.723550  -0.000213
    65  O   -0.725238  -0.000220
    66  O   -0.885815   0.005039
    67  O   -0.885802   0.007145
    68  O   -0.881934   0.006817
    69  O   -0.889400   0.006345
    70  K    0.849995   0.000187
    71  K    0.851229   0.000206
    72  K    0.847183   0.000214
    73  V    1.201993   0.938740
 Electronic spatial extent (au):  <R**2>=         316975.6718
 Charge=             -1.0000 electrons
 Dipole moment (field-independent basis, Debye):
    X=             28.4771    Y=            -13.6092    Z=            -30.5068  Tot=             43.8955
 Quadrupole moment (field-independent basis, Debye-Ang):
   XX=           -763.8896   YY=           -709.1627   ZZ=           -777.3293
   XY=            127.8778   XZ=            177.4575   YZ=            -92.3547
 Traceless Quadrupole moment (field-independent basis, Debye-Ang):
   XX=            -13.7624   YY=             40.9645   ZZ=            -27.2021
   XY=            127.8778   XZ=            177.4575   YZ=            -92.3547
 Octapole moment (field-independent basis, Debye-Ang**2):
  XXX=          10206.6851  YYY=            853.9781  ZZZ=         -17345.8390  XYY=           4125.7658
  XXY=           -612.0272  XXZ=          -6061.6892  XZZ=           4054.6336  YZZ=           -118.6385
  YYZ=          -7082.0817  XYZ=           1407.8751
 Hexadecapole moment (field-independent basis, Debye-Ang**3):
 XXXX=        -125086.5774 YYYY=         -40585.4891 ZZZZ=        -324565.4194 XXXY=           7803.5718
 XXXZ=          86494.7561 YYYX=           3055.6088 YYYZ=           7174.1833 ZZZX=          89911.3974
 ZZZY=           7905.1640 XXYY=         -36003.0574 XXZZ=         -69792.9390 YYZZ=         -78679.1108
 XXYZ=         -10485.8188 YYXZ=          40709.5818 ZZXY=          14503.3902
 N-N= 2.097200268707D+04 E-N=-5.905351017852D+04  KE= 6.765573404571D+03
                          Isotropic Fermi Contact Couplings
        Atom                 a.u.       MegaHertz       Gauss      10(-4) cm-1
     1  Cl(35)            -0.09573     -20.98677      -7.48860      -7.00043
     2  C(13)             -0.01424      -8.00297      -2.85566      -2.66951
     3  C(13)              0.01684       9.46668       3.37795       3.15775
     4  C(13)             -0.01391      -7.82105      -2.79075      -2.60882
     5  C(13)              0.01237       6.95312       2.48105       2.31931
     6  C(13)             -0.01773      -9.96730      -3.55658      -3.32473
     7  C(13)              0.01244       6.99271       2.49517       2.33252
     8  H(1)               0.00124       2.76878       0.98797       0.92356
     9  H(1)               0.00120       2.67737       0.95535       0.89308
    10  H(1)              -0.00057      -1.28351      -0.45799      -0.42813
    11  H(1)               0.00146       3.26711       1.16579       1.08979
    12  H(1)              -0.00057      -1.27783      -0.45596      -0.42624
    13  C(13)             -0.03260     -18.32467      -6.53870      -6.11245
    14  C(13)             -0.02442     -13.72894      -4.89883      -4.57948
    15  H(1)               0.00313       7.00426       2.49929       2.33637
    16  H(1)               0.00092       2.06117       0.73548       0.68753
    17  H(1)              -0.00064      -1.43461      -0.51191      -0.47854
    18  O(17)             -0.00045       0.13490       0.04813       0.04500
    19  O(17)             -0.00042       0.12658       0.04517       0.04222
    20  O(17)             -0.00176       0.53217       0.18989       0.17751
    21  O(17)             -0.00043       0.13135       0.04687       0.04381
    22  W(183)             0.00000       0.00000       0.00000       0.00000
    23  W(183)             0.00000       0.00000       0.00000       0.00000
    24  W(183)             0.00000       0.00000       0.00000       0.00000
    25  W(183)             0.00000       0.00000       0.00000       0.00000
    26  W(183)             0.00000       0.00000       0.00000       0.00000
    27  W(183)             0.00000       0.00000       0.00000       0.00000
    28  W(183)             0.00000       0.00000       0.00000       0.00000
    29  W(183)             0.00000       0.00000       0.00000       0.00000
    30  O(17)             -0.00020       0.06178       0.02204       0.02061
    31  O(17)             -0.00024       0.07175       0.02560       0.02393
    32  O(17)             -0.00026       0.07742       0.02763       0.02583
    33  O(17)             -0.00023       0.06911       0.02466       0.02305
    34  O(17)             -0.00003       0.00868       0.00310       0.00290
    35  O(17)              0.00016      -0.04811      -0.01717      -0.01605
    36  O(17)              0.00012      -0.03581      -0.01278      -0.01194
    37  O(17)              0.00004      -0.01210      -0.00432      -0.00404
    38  O(17)              0.00191      -0.57871      -0.20650      -0.19304
    39  O(17)              0.00187      -0.56632      -0.20208      -0.18890
    40  O(17)             -0.00519       1.57423       0.56172       0.52511
    41  O(17)              0.00184      -0.55878      -0.19939      -0.18639
    42  O(17)              0.00024      -0.07286      -0.02600      -0.02430
    43  O(17)              0.00030      -0.09111      -0.03251      -0.03039
    44  O(17)              0.00045      -0.13527      -0.04827      -0.04512
    45  O(17)              0.00027      -0.08072      -0.02880      -0.02693
    46  O(17)              0.00216      -0.65327      -0.23310      -0.21791
    47  O(17)              0.00195      -0.59121      -0.21096      -0.19721
    48  O(17)              0.00073      -0.22026      -0.07859      -0.07347
    49  O(17)              0.00217      -0.65720      -0.23451      -0.21922
    50  W(183)             0.00000       0.00000       0.00000       0.00000
    51  W(183)             0.00000       0.00000       0.00000       0.00000
    52  W(183)             0.00000       0.00000       0.00000       0.00000
    53  W(183)             0.00000       0.00000       0.00000       0.00000
    54  O(17)              0.00014      -0.04191      -0.01495      -0.01398
    55  O(17)              0.00002      -0.00599      -0.00214      -0.00200
    56  O(17)              0.00023      -0.06986      -0.02493      -0.02330
    57  O(17)              0.00004      -0.01087      -0.00388      -0.00362
    58  O(17)              0.00011      -0.03203      -0.01143      -0.01068
    59  O(17)              0.00023      -0.06833      -0.02438      -0.02279
    60  O(17)              0.00029      -0.08733      -0.03116      -0.02913
    61  O(17)              0.00028      -0.08427      -0.03007      -0.02811
    62  O(17)             -0.00026       0.07990       0.02851       0.02665
    63  O(17)             -0.00020       0.06044       0.02157       0.02016
    64  O(17)             -0.00030       0.09039       0.03225       0.03015
    65  O(17)             -0.00032       0.09750       0.03479       0.03252
    66  O(17)             -0.00794       2.40707       0.85890       0.80291
    67  O(17)             -0.00684       2.07303       0.73971       0.69149
    68  O(17)             -0.00702       2.12644       0.75877       0.70930
    69  O(17)             -0.00740       2.24349       0.80053       0.74835
    70  K(39)             -0.00002      -0.00199      -0.00071      -0.00066
    71  K(39)             -0.00002      -0.00184      -0.00066      -0.00061
    72  K(39)             -0.00002      -0.00218      -0.00078      -0.00073
    73  V(51)              0.07029      41.39482      14.77070      13.80783
 --------------------------------------------------------
       Center         ----  Spin Dipole Couplings  ----
                      3XX-RR        3YY-RR        3ZZ-RR
 --------------------------------------------------------
     1   Atom        1.208142     -2.512536      1.304394
     2   Atom       -0.013044     -0.016571      0.029615
     3   Atom        0.004197      0.002971     -0.007168
     4   Atom       -0.017489     -0.017769      0.035258
     5   Atom        0.013126      0.005007     -0.018132
     6   Atom       -0.021978     -0.019027      0.041005
     7   Atom        0.009249      0.006878     -0.016127
     8   Atom       -0.001797     -0.001984      0.003780
     9   Atom        0.000378      0.000211     -0.000589
    10   Atom        0.001512      0.000580     -0.002092
    11   Atom        0.004074      0.000482     -0.004556
    12   Atom        0.000550     -0.000639      0.000089
    13   Atom       -0.117813      0.022210      0.095603
    14   Atom       -0.000598     -0.043126      0.043725
    15   Atom       -0.002009      0.002949     -0.000940
    16   Atom        0.007870      0.000843     -0.008713
    17   Atom       -0.010745      0.002421      0.008323
    18   Atom        0.001327     -0.001269     -0.000058
    19   Atom        0.001793     -0.001722     -0.000071
    20   Atom       -0.001921     -0.000310      0.002231
    21   Atom       -0.000649      0.000673     -0.000024
    22   Atom       -0.002006      0.000506      0.001500
    23   Atom       -0.001852      0.000621      0.001232
    24   Atom       -0.002414      0.000974      0.001440
    25   Atom       -0.002117      0.000570      0.001546
    26   Atom        0.000437     -0.002215      0.001779
    27   Atom        0.000583     -0.002467      0.001884
    28   Atom        0.000955     -0.003061      0.002106
    29   Atom        0.000717     -0.002703      0.001986
    30   Atom       -0.000130      0.000256     -0.000127
    31   Atom        0.000024     -0.000031      0.000007
    32   Atom       -0.000512      0.000560     -0.000048
    33   Atom       -0.000184      0.000218     -0.000035
    34   Atom        0.000132     -0.001985      0.001853
    35   Atom       -0.000258     -0.002614      0.002871
    36   Atom       -0.002140     -0.000398      0.002538
    37   Atom       -0.001856     -0.000569      0.002425
    38   Atom        0.005901     -0.003127     -0.002774
    39   Atom        0.006363     -0.003399     -0.002964
    40   Atom       -0.009419      0.009023      0.000396
    41   Atom       -0.004313      0.007608     -0.003294
    42   Atom        0.002657     -0.001062     -0.001595
    43   Atom        0.002872     -0.001065     -0.001807
    44   Atom       -0.004373      0.005676     -0.001303
    45   Atom       -0.003294      0.004807     -0.001513
    46   Atom       -0.000981      0.000981     -0.000000
    47   Atom        0.001533     -0.002785      0.001252
    48   Atom        0.005313     -0.007317      0.002004
    49   Atom        0.005083     -0.004967     -0.000116
    50   Atom        0.006105     -0.002776     -0.003329
    51   Atom        0.006417     -0.003136     -0.003281
    52   Atom       -0.002339      0.005063     -0.002724
    53   Atom       -0.002156      0.005537     -0.003382
    54   Atom       -0.003191     -0.001624      0.004815
    55   Atom       -0.002950     -0.001899      0.004849
    56   Atom       -0.001122     -0.004519      0.005641
    57   Atom       -0.001135     -0.003777      0.004912
    58   Atom       -0.003983      0.006418     -0.002435
    59   Atom       -0.003930      0.006730     -0.002801
    60   Atom        0.002654      0.000050     -0.002704
    61   Atom        0.002916     -0.000294     -0.002622
    62   Atom        0.000832      0.001041     -0.001873
    63   Atom        0.001131      0.000516     -0.001647
    64   Atom        0.005358     -0.003739     -0.001619
    65   Atom        0.005030     -0.003120     -0.001910
    66   Atom       -0.031237      0.003943      0.027294
    67   Atom       -0.036081      0.000744      0.035337
    68   Atom       -0.059801      0.021884      0.037917
    69   Atom       -0.055377      0.026626      0.028751
    70   Atom       -0.000577      0.000558      0.000019
    71   Atom        0.000438     -0.000527      0.000089
    72   Atom        0.000771     -0.000976      0.000206
    73   Atom       -0.995469      0.276955      0.718514
 --------------------------------------------------------
                        XY            XZ            YZ
 --------------------------------------------------------
     1   Atom        1.654703      0.579731     -1.524551
     2   Atom        0.058368      0.027497     -0.027849
     3   Atom       -0.014688     -0.006213      0.009949
     4   Atom        0.057812      0.021079     -0.021251
     5   Atom       -0.029409     -0.013495      0.012677
     6   Atom        0.074803      0.029574     -0.025603
     7   Atom       -0.029585     -0.011457      0.014534
     8   Atom       -0.002669     -0.001477      0.000291
     9   Atom       -0.002128     -0.003782     -0.003273
    10   Atom       -0.000486     -0.001359      0.000788
    11   Atom        0.001976      0.002669      0.005671
    12   Atom       -0.001339      0.000350      0.002315
    13   Atom        0.150800      0.088387     -0.055489
    14   Atom        0.078224      0.041581     -0.045882
    15   Atom       -0.004765     -0.009928     -0.013823
    16   Atom       -0.000015      0.009156      0.003305
    17   Atom       -0.002093     -0.009603     -0.002366
    18   Atom        0.000447     -0.001648      0.000237
    19   Atom        0.000374      0.001950     -0.000549
    20   Atom        0.003173      0.000852     -0.000842
    21   Atom       -0.001100      0.001316     -0.001320
    22   Atom        0.002200     -0.002027     -0.004127
    23   Atom        0.002186      0.002251      0.003948
    24   Atom        0.002288      0.001869      0.004211
    25   Atom        0.001989     -0.002034     -0.004148
    26   Atom       -0.002097     -0.004571      0.002432
    27   Atom       -0.001909      0.004737     -0.002738
    28   Atom       -0.001503     -0.004672      0.002592
    29   Atom       -0.001724      0.004768     -0.002253
    30   Atom        0.000342     -0.000144     -0.000581
    31   Atom        0.000434      0.000639      0.000286
    32   Atom        0.000410     -0.000133      0.000776
    33   Atom        0.000276     -0.000090     -0.000623
    34   Atom        0.000576     -0.003361     -0.000783
    35   Atom        0.000855      0.004043      0.001044
    36   Atom       -0.000410     -0.001813      0.003828
    37   Atom       -0.000669      0.001523     -0.003236
    38   Atom        0.004409      0.003950      0.001668
    39   Atom        0.004485     -0.003715     -0.001734
    40   Atom        0.006166      0.004252     -0.005302
    41   Atom       -0.002504     -0.000579      0.003626
    42   Atom        0.003819     -0.002504     -0.001848
    43   Atom        0.004074      0.002728      0.001807
    44   Atom        0.000341      0.000058      0.003874
    45   Atom       -0.000365      0.000034     -0.003492
    46   Atom       -0.004728     -0.004505      0.005224
[...]
                                 (Linear)    (Quad)   (Total)
    X1      -18.36098   0.00345   0.00000   0.00325   0.00145 -18.35953
    Y1       15.63880  -0.01175   0.00000  -0.01169  -0.01543  15.62337
    Z1       19.94980  -0.00386   0.00000  -0.00406  -0.00764  19.94216
    X2      -15.75249   0.00185   0.00000  -0.00182  -0.00241 -15.75490
    Y2        8.01293   0.00138   0.00000   0.02358   0.02083   8.03376
    Z2       23.09054   0.00239   0.00000   0.00063  -0.00154  23.08899
    X3      -17.25552   0.00103   0.00000  -0.01361  -0.01412 -17.26964
    Y3        7.42337   0.00281   0.00000   0.02703   0.02365   7.44702
    Z3       20.97698  -0.00490   0.00000   0.00333   0.00127  20.97825
    X4      -18.97543  -0.00215   0.00000  -0.00909  -0.00928 -18.98470
    Y4        5.40411  -0.00235   0.00000   0.01458   0.01097   5.41508
    Z4       21.18912  -0.00057   0.00000  -0.01348  -0.01515  21.17397
    X5      -19.28099  -0.00092   0.00000   0.00088   0.00091 -19.28009
    Y5        4.11397   0.00035   0.00000   0.00621   0.00298   4.11695
    Z5       23.45899  -0.00185   0.00000  -0.02075  -0.02218  23.43681
    X6      -17.84851   0.00029   0.00000   0.01381   0.01373 -17.83478
    Y6        4.79207   0.00026   0.00000   0.00019  -0.00243   4.78964
    Z6       25.56737  -0.00144   0.00000  -0.02521  -0.02677  25.54060
    X7      -16.05183   0.00150   0.00000   0.00922   0.00884 -16.04298
    Y7        6.71398   0.00181   0.00000   0.00905   0.00668   6.72065
    Z7       25.35753  -0.00059   0.00000  -0.01112  -0.01305  25.34448
    X8      -14.31924  -0.00063   0.00000  -0.01400  -0.01483 -14.33407
    Y8        9.49265   0.00048   0.00000   0.03404   0.03150   9.52414
    Z8       22.95792   0.00027   0.00000   0.00630   0.00384  22.96176
    X9      -20.08855  -0.00034   0.00000  -0.01764  -0.01775 -20.10630
    Y9        4.85141   0.00072   0.00000   0.02714   0.02304   4.87446
    Z9       19.53795   0.00021   0.00000  -0.01061  -0.01218  19.52577
   X10      -20.63539  -0.00002   0.00000  -0.00043  -0.00016 -20.63556
   Y10        2.56063   0.00058   0.00000   0.00856   0.00513   2.56576
   Z10       23.58460  -0.00016   0.00000  -0.01732  -0.01846  23.56615
   X11      -18.10640   0.00066   0.00000   0.02404   0.02413 -18.08227
   Y11        3.80249  -0.00031   0.00000  -0.01154  -0.01387   3.78863
   Z11       27.36022  -0.00043   0.00000  -0.02961  -0.03098  27.32924
   X12      -14.87189  -0.00024   0.00000   0.00528   0.00483 -14.86705
   Y12        7.20214   0.00028   0.00000   0.00588   0.00400   7.20613
   Z12       26.98080  -0.00042   0.00000  -0.00877  -0.01079  26.97001
   X13      -17.11575  -0.01050   0.00000  -0.05184  -0.05259 -17.16835
   Y13        8.82098  -0.01463   0.00000   0.06154   0.05773   8.87871
   Z13       18.59260   0.00993   0.00000   0.04013   0.03780  18.63040
   X14      -15.80861   0.00319   0.00000  -0.04764  -0.04873 -15.85734
   Y14       10.96598   0.02232   0.00000   0.09772   0.09405  11.06003
   Z14       18.14946  -0.00037   0.00000   0.05100   0.04826  18.19772
   X15      -18.22273   0.00043   0.00000  -0.03519  -0.03582 -18.25855
   Y15        8.01132   0.00026   0.00000   0.05860   0.05434   8.06566
   Z15       17.04114  -0.00000   0.00000   0.02861   0.02644  17.06759
   X16      -15.77983   0.00003   0.00000  -0.03770  -0.03893 -15.81876
   Y16       11.78505  -0.00018   0.00000   0.08510   0.08107  11.86612
   Z16       16.25554   0.00006   0.00000   0.04540   0.04251  16.29806
   X17      -14.61853   0.00302   0.00000   0.03190   0.03068 -14.58785
   Y17       11.87718  -0.00238   0.00000   0.01983   0.01661  11.89379
   Z17       19.56365   0.00077   0.00000   0.03439   0.03149  19.59514
   X18       -1.84851   0.00446   0.00000   0.02208   0.02325  -1.82526
   Y18       -3.39021  -0.00079   0.00000  -0.00281  -0.00504  -3.39525
   Z18       14.11033  -0.00125   0.00000  -0.01305  -0.01314  14.09718
   X19      -15.87147  -0.00425   0.00000  -0.01609  -0.01505 -15.88652
   Y19       -2.52123   0.00121   0.00000  -0.00520  -0.00965  -2.53088
   Z19       14.09915  -0.00130   0.00000  -0.01274  -0.01295  14.08620
   X20      -13.27890  -0.00351   0.00000  -0.01242  -0.01216 -13.29106
   Y20        2.54815   0.00390   0.00000   0.01276   0.00979   2.55794
   Z20       19.78998   0.00090   0.00000   0.00962   0.00846  19.79844
   X21       -4.41064   0.00335   0.00000   0.01394   0.01591  -4.39473
   Y21       -8.29897  -0.00303   0.00000  -0.01942  -0.02096  -8.31993
   Z21       19.94415   0.00137   0.00000   0.01371   0.01455  19.95870
   X22       -6.43814  -0.00207   0.00000   0.01078   0.01120  -6.42694
   Y22        1.30298  -0.01382   0.00000  -0.01889  -0.02219   1.28079
   Z22       12.23324   0.01363   0.00000   0.01278   0.01183  12.24507
   X23      -11.32294   0.00322   0.00000  -0.00771  -0.00595 -11.32889
   Y23       -7.21446   0.01361   0.00000   0.00693   0.00289  -7.21157
   Z23       12.39674   0.01382   0.00000   0.00893   0.00959  12.40633
   X24       -6.83091  -0.00904   0.00000  -0.01755  -0.01714  -6.84805
   Y24        1.65034  -0.01145   0.00000  -0.00215  -0.00377   1.64656
   Z24       21.58416  -0.01405   0.00000  -0.01293  -0.01395  21.57021
   X25      -10.89053   0.00977   0.00000   0.02061   0.02243 -10.86810
   Y25       -7.29434   0.00978   0.00000  -0.00660  -0.00883  -7.30318
   Z25       21.69445  -0.01412   0.00000  -0.00838  -0.00770  21.68675
   X26       -4.59577  -0.01149   0.00000   0.00187   0.00327  -4.59250
   Y26       -4.89691   0.01077   0.00000   0.01366   0.01063  -4.88628
   Z26       12.09870   0.01450   0.00000   0.00742   0.00761  12.10631
   X27      -13.12100   0.01147   0.00000   0.00553   0.00632 -13.11468
   Y27       -1.00703  -0.01116   0.00000  -0.02502  -0.02942  -1.03644
   Z27       12.04328   0.01402   0.00000   0.00795   0.00746  12.05074
   X28      -12.89278   0.01648   0.00000   0.01511   0.01585 -12.87693
   Y28       -0.46851  -0.00427   0.00000   0.00429   0.00177  -0.46675
   Z28       21.84533  -0.01461   0.00000  -0.00819  -0.00879  21.83654
   X29       -4.80649  -0.01537   0.00000  -0.01257  -0.01109  -4.81757
   Y29       -5.15986   0.00252   0.00000  -0.01288  -0.01412  -5.17398
   Z29       21.92523  -0.01452   0.00000  -0.00710  -0.00685  21.91838
   X30       -5.99132   0.00099   0.00000  -0.00821  -0.00814  -5.99946
   Y30        3.53812   0.00425   0.00000  -0.00145  -0.00510   3.53302
   Z30       10.00146  -0.00390   0.00000   0.01064   0.00927  10.01074
   X31      -11.57597  -0.00058   0.00000   0.00824   0.01037 -11.56560
   Y31       -9.57939  -0.00434   0.00000  -0.00373  -0.00821  -9.58761
   Z31       10.24002  -0.00411   0.00000   0.00290   0.00400  10.24402
   X32       -5.08545   0.00333   0.00000   0.00060   0.00076  -5.08469
   Y32        3.24586   0.00314   0.00000  -0.00684  -0.00778   3.23808
   Z32       23.75791   0.00411   0.00000  -0.00779  -0.00911  23.74880
   X33      -12.62285  -0.00320   0.00000   0.00309   0.00515 -12.61769
   Y33       -8.80770  -0.00316   0.00000  -0.00080  -0.00290  -8.81060
   Z33       23.93292   0.00439   0.00000  -0.00208  -0.00112  23.93180
   X34       -5.02235   0.00134   0.00000   0.01252   0.01342  -5.00893
   Y34       -1.72742   0.00120   0.00000   0.00398   0.00058  -1.72684
   Z34       10.55624  -0.00439   0.00000  -0.01500  -0.01539  10.54084
   X35      -12.66959  -0.00185   0.00000  -0.01078  -0.00948 -12.67907
   Y35       -4.28420  -0.00033   0.00000  -0.01268  -0.01727  -4.30147
   Z35       10.62369  -0.00468   0.00000  -0.01678  -0.01667  10.60702
   X36      -10.04101  -0.00071   0.00000  -0.00353  -0.00302 -10.04403
   Y36        1.04382   0.00201   0.00000   0.01371   0.01191   1.05573
   Z36       23.35849   0.00447   0.00000   0.01179   0.01089  23.36939
   X37       -7.65359   0.00033   0.00000   0.00500   0.00673  -7.64686
   Y37       -6.66546  -0.00181   0.00000  -0.01866  -0.02006  -6.68552
   Z37       23.44114   0.00470   0.00000   0.01618   0.01672  23.45786
   X38        0.57824   0.00624   0.00000  -0.00214  -0.00149   0.57675
   Y38       -0.01647   0.00202   0.00000  -0.00155  -0.00276  -0.01923
   Z38       17.54300   0.00149   0.00000   0.00157   0.00084  17.54384
   X39      -18.32358  -0.00604   0.00000   0.00774   0.00930 -18.31428
   Y39       -5.74644  -0.00207   0.00000  -0.00957  -0.01374  -5.76018
   Z39       17.62980   0.00161   0.00000   0.00225   0.00266  17.63246
   X40      -11.99261  -0.00336   0.00000  -0.01198  -0.01236 -12.00497
   Y40        6.48219   0.00835   0.00000  -0.00917  -0.01258   6.46961
   Z40       16.37713  -0.00126   0.00000  -0.00663  -0.00852  16.36860
   X41       -5.68187   0.00182   0.00000  -0.00037   0.00221  -5.67966
   Y41      -12.26328  -0.00640   0.00000  -0.00250  -0.00488 -12.26816
   Z41       16.52975  -0.00165   0.00000  -0.00286  -0.00129  16.52846
   X42       -3.37284   0.00287   0.00000   0.01917   0.01958  -3.35326
   Y42        1.42263   0.00366   0.00000   0.00391   0.00145   1.42407
   Z42       14.12388  -0.00178   0.00000  -0.01116  -0.01215  14.11173
   X43      -14.36045  -0.00334   0.00000  -0.01575  -0.01395 -14.37440
   Y43       -7.33976  -0.00339   0.00000  -0.01380  -0.01798  -7.35774
   Z43       14.25496  -0.00139   0.00000  -0.01093  -0.01024  14.24472
   X44       -8.49637   0.00045   0.00000  -0.00576  -0.00576  -8.50214
   Y44        4.15612   0.00507   0.00000   0.01781   0.01557   4.17169
   Z44       19.70786   0.00084   0.00000   0.00349   0.00200  19.70986
   X45       -9.21143  -0.00105   0.00000   0.00891   0.01113  -9.20030
   Y45       -9.88036  -0.00462   0.00000  -0.02417  -0.02648  -9.90684
   Z45       19.89265   0.00178   0.00000   0.01255   0.01370  19.90636
   X46       -3.02714   0.00339   0.00000  -0.00164   0.00004  -3.02710
   Y46       -6.68954  -0.00326   0.00000  -0.00204  -0.00524  -6.69478
   Z46        9.94018  -0.00479   0.00000   0.00024   0.00076   9.94094
   X47      -14.78720  -0.00343   0.00000   0.01379   0.01433 -14.77287
   Y47        0.52605   0.00281   0.00000  -0.00661  -0.01169   0.51436
   Z47        9.79436  -0.00471   0.00000  -0.00281  -0.00358   9.79078
   X48      -15.20958  -0.00523   0.00000   0.00445   0.00518 -15.20440
   Y48       -0.31743   0.00090   0.00000  -0.00750  -0.00998  -0.32741
   Z48       24.06261   0.00544   0.00000   0.00035  -0.00027  24.06234
   X49       -2.46224   0.00478   0.00000  -0.00147   0.00005  -2.46219
   Y49       -5.39359  -0.00067   0.00000   0.00244   0.00198  -5.39161
   Z49       24.10735   0.00489   0.00000   0.00020   0.00048  24.10783
   X50       -2.36384  -0.01938   0.00000  -0.00687  -0.00606  -2.36991
   Y50       -0.99495  -0.00698   0.00000  -0.01086  -0.01269  -1.00764
   Z50       16.69881  -0.00411   0.00000  -0.01556  -0.01610  16.68272
   X51      -15.37711   0.01988   0.00000   0.01241   0.01382 -15.36329
   Y51       -4.79653   0.00556   0.00000  -0.00104  -0.00491  -4.80144
   Z51       16.77014  -0.00447   0.00000  -0.01583  -0.01561  16.75453
   X52      -11.09372   0.00751   0.00000  -0.00078  -0.00069 -11.09441
   Y52        3.51198  -0.02216   0.00000  -0.01861  -0.02174   3.49023
   Z52       17.09231   0.00465   0.00000   0.01302   0.01168  17.10399
   X53       -6.60124  -0.00631   0.00000   0.00312   0.00523  -6.59601
   Y53       -9.28819   0.01980   0.00000   0.00668   0.00430  -9.28389
   Z53       17.31940   0.00393   0.00000   0.01574   0.01676  17.33617
   X54       -7.96036   0.00068   0.00000  -0.00171  -0.00016  -7.96052
   Y54       -5.87653  -0.00206   0.00000   0.00878   0.00509  -5.87144
   Z54       11.47069  -0.00283   0.00000   0.00964   0.01004  11.48073
   X55       -9.74174  -0.00085   0.00000   0.00734   0.00799  -9.73375
   Y55       -0.11257   0.00224   0.00000  -0.01970  -0.02368  -0.13625
   Z55       11.36266  -0.00266   0.00000   0.01053   0.00986  11.37252
   X56      -11.66294  -0.00234   0.00000   0.01542   0.01668 -11.64626
   Y56       -3.77241  -0.00002   0.00000   0.00020  -0.00201  -3.77442
   Z56       22.50205   0.00315   0.00000  -0.00828  -0.00827  22.49379
   X57       -5.98997   0.00181   0.00000  -0.01441  -0.01345  -6.00342
   Y57       -1.85774   0.00079   0.00000  -0.00739  -0.00870  -1.86644
   Z57       22.54270   0.00262   0.00000  -0.01191  -0.01227  22.53042
   X58       -8.23181  -0.00040   0.00000   0.00387   0.00404  -8.22777
   Y58        2.98740   0.00333   0.00000  -0.01709  -0.02019   2.96721
   Z58       14.79766  -0.00126   0.00000   0.01254   0.01128  14.80894
   X59       -9.45906  -0.00057   0.00000  -0.00287  -0.00084  -9.45990
   Y59       -8.84339  -0.00318   0.00000   0.00707   0.00380  -8.83959
   Z59       14.96949  -0.00192   0.00000   0.01053   0.01149  14.98097
   X60       -4.39643   0.00218   0.00000  -0.01316  -0.01267  -4.40910
   Y60        1.07918   0.00229   0.00000  -0.00697  -0.00869   1.07050
   Z60       19.05030   0.00202   0.00000  -0.01221  -0.01312  19.03718
   X61      -13.32215  -0.00232   0.00000   0.01726   0.01899 -13.30316
   Y61       -6.82971  -0.00194   0.00000  -0.00319  -0.00629  -6.83600
   Z61       19.14570   0.00199   0.00000  -0.00994  -0.00935  19.13635
   X62       -4.85378   0.00158   0.00000   0.00149   0.00329  -4.85049
   Y62       -7.38314  -0.00255   0.00000   0.00832   0.00576  -7.37739
   Z62       14.86645  -0.00111   0.00000   0.01061   0.01127  14.87772
   X63      -12.87091  -0.00150   0.00000   0.00197   0.00238 -12.86853
   Y63        1.49997   0.00330   0.00000  -0.01830  -0.02214   1.47783
   Z63       14.74626  -0.00067   0.00000   0.00991   0.00894  14.75520
   X64      -14.79231  -0.00306   0.00000   0.01260   0.01361 -14.77870
   Y64       -2.22306   0.00025   0.00000  -0.00019  -0.00352  -2.22658
   Z64       19.15868   0.00155   0.00000  -0.01017  -0.01043  19.14825
   X65       -2.95157   0.00338   0.00000  -0.00765  -0.00644  -2.95802
   Y65       -3.52487   0.00025   0.00000  -0.00983  -0.01129  -3.53616
   Z65       19.15934   0.00120   0.00000  -0.00999  -0.01005  19.14929
   X66       -6.34431   0.03641   0.00000   0.06629   0.06727  -6.27704
   Y66       -2.18514   0.00664   0.00000   0.00426   0.00151  -2.18362
   Z66       15.12927  -0.02333   0.00000  -0.03678  -0.03708  15.09219
   X67      -11.38227  -0.03697   0.00000  -0.06029  -0.05907 -11.44134
   Y67       -3.69815  -0.00772   0.00000  -0.01886  -0.02241  -3.72057
   Z67       15.18151  -0.02328   0.00000  -0.03838  -0.03838  15.14313
   X68       -9.67062  -0.01548   0.00000  -0.02789  -0.02719  -9.69780
   Y68       -0.38863   0.03488   0.00000   0.05299   0.05041  -0.33822
   Z68       18.79218   0.02357   0.00000   0.03861   0.03797  18.83015
   X69       -8.00477   0.01535   0.00000   0.03088   0.03239  -7.97238
   Y69       -5.37484  -0.03350   0.00000  -0.06077  -0.06307  -5.43791
   Z69       18.84830   0.02396   0.00000   0.03973   0.04005  18.88835
   X70       -6.07042  -0.00046   0.00000  -0.00131   0.00114  -6.06929
   Y70      -11.59526   0.00126   0.00000   0.00921   0.00567 -11.58959
   Z70       10.66743   0.00098   0.00000   0.01063   0.01208  10.67951
   X71       -0.20275  -0.00148   0.00000  -0.01419  -0.01353  -0.21629
   Y71        0.10479  -0.00074   0.00000  -0.00745  -0.00771   0.09708
   Z71       23.32646  -0.00115   0.00000  -0.01217  -0.01292  23.31354
   X72      -17.55275   0.00133   0.00000   0.01694   0.01846 -17.53430
   Y72       -5.37309   0.00033   0.00000  -0.00268  -0.00563  -5.37872
   Z72       23.49969  -0.00116   0.00000  -0.01051  -0.01018  23.48951
   X73       -8.85481   0.00061   0.00000   0.00293   0.00404  -8.85077
   Y73       -2.90454  -0.00036   0.00000  -0.00583  -0.00863  -2.91317
   Z73       16.98401  -0.00017   0.00000   0.00052   0.00036  16.98437
         Item               Value     Threshold  Converged?
 Maximum Force            0.036972     0.000450     NO 
 RMS     Force            0.008376     0.000300     NO 
 Maximum Displacement     0.094048     0.001800     NO 
 RMS     Displacement     0.020172     0.001200     NO 
 Predicted change in Energy=-1.088335D-02
 GradGradGradGradGradGradGradGradGradGradGradGradGradGradGradGradGradGrad

 Unable to Open any file for archive entry.
 1\1\GINC-X11P1N2\Force\UwB97XD\def2SVP\C8H8Cl1K3O40V1W12(1-)\MAYUMIAO\
 02-Jun-2024\0\\# def2svp wb97xd scrf=(smd,solvent=acetonitrile) g09def
 ault scf=(xqc,maxcycle=64) force guess=read nosymm\\Title Card\\-1,1\C
 l,-9.71621174,8.27569777,10.55698109\C,-8.33585758,4.24025924,12.21898
 52\C,-9.13122631,3.92827843,11.10054152\C,-10.04136267,2.85973264,11.2
 1279826\C,-10.20306162,2.17702042,12.41396186\C,-9.44502503,2.5358556,
 13.52967001\C,-8.49426085,3.55288352,13.41862492\H,-7.57741508,5.02329
 25,12.1488087\H,-10.63040251,2.56725697,10.3390379\H,-10.91978,1.35502
 888,12.4804334\H,-9.58149388,2.01219243,14.47840243\H,-7.86986275,3.81
 120652,14.27762265\C,-9.05726678,4.66785956,9.83878103\C,-8.36555558,5
 .80294551,9.60427846\H,-9.64305485,4.23940851,9.0177854\H,-8.35032638,
 6.23638032,8.60206328\H,-7.73579508,6.28513117,10.3526367\O,-0.9781888
 5,-1.79402014,7.46686276\O,-8.39881891,-1.33417716,7.46094673\O,-7.026
 8901,1.34842356,10.47240688\O,-2.33400891,-4.39162664,10.55398879\W,-3
 .40691598,0.689505,6.47355002\W,-5.9918437,-3.81772644,6.56007488\W,-3
 .61475938,0.87332153,11.42184358\W,-5.763021,-3.85999921,11.48020995\W
 ,-2.43197472,-2.59133127,6.40235609\W,-6.9433336,-0.53289642,6.3730267
 1\W,-6.82256483,-0.24792734,11.56005202\W,-2.54348302,-2.73048243,11.6
 0233179\O,-3.17046851,1.87229416,5.29254724\O,-6.12573926,-5.06919678,
 5.41878549\O,-2.69110425,1.71763519,12.57214478\O,-6.67972309,-4.66083
 292,12.66475815\O,-2.65771119,-0.91411342,5.58612137\O,-6.70445666,-2.
 26709863,5.62181307\O,-5.31347165,0.55236446,12.36078285\O,-4.05010511
 ,-3.52720873,12.40451658\O,0.30598898,-0.00871489,9.28335841\O,-9.6964
 2041,-3.0408835,9.32928771\O,-6.34621765,3.43022729,8.66640349\O,-3.00
 671554,-6.48944917,8.74716685\O,-1.78482933,0.75282106,7.47403504\O,-7
 .59922225,-3.88403309,7.54340045\O,-4.49608756,2.19932286,10.42894973\
 O,-4.87447961,-5.22846019,10.52673922\O,-1.6018927,-3.53995425,5.26011
 519\O,-7.82504734,0.27837108,5.18295469\O,-8.04856137,-0.16797775,12.7
 3338436\O,-1.30296093,-2.85416567,12.75705787\W,-1.25089254,-0.5265048
 9,8.83663152\W,-8.13721623,-2.53821295,8.8743777\W,-5.87054642,1.85845
 752,9.04486183\W,-3.49322543,-4.91510109,9.16503274\O,-4.2124398,-3.10
 972684,6.0700274\O,-5.15510462,-0.05956971,6.01286059\O,-6.17176396,-1
 .99627335,11.90757419\O,-3.16975688,-0.98307113,11.92908134\O,-4.35608
 387,1.58086556,7.8305834\O,-5.00551814,-4.67972212,7.92151048\O,-2.326
 48984,0.57108002,10.0809859\O,-7.04977746,-3.61412831,10.13147007\O,-2
 .56850919,-3.90699084,7.86698462\O,-6.81099236,0.79374998,7.80338368\O
 ,-7.82775251,-1.17639295,10.13833861\O,-1.5619059,-1.86528079,10.13868
 717\O,-3.35726485,-1.15632431,8.00606715\O,-6.02323754,-1.95697931,8.0
 3370878\O,-5.11747122,-0.20565193,9.94439134\O,-4.23594067,-2.84424415
 ,9.97409323\K,-3.21232985,-6.13594898,5.64496003\K,-0.10729163,0.05545
 305,12.34383107\K,-9.28851715,-2.84331732,12.43549801\V,-4.68576307,-1
 .53701434,8.98755169\\Version=ES64L-G16RevC.01\HF=-7327.7016178\S2=1.0
 19262\S2-1=0.\S2A=0.154403\RMSD=1.487e-09\RMSF=8.376e-03\Dipole=1.4459
 053,-7.134536,5.6917801\Quadrupole=-10.2320352,30.4561095,-20.2240744,
 95.074002,131.9353242,-68.6634709\PG=C01 [X(C8H8Cl1K3O40V1W12)]\\@
 The archive entry for this job was punched.


 HERE WE GO......
 SLIDING DOWN THE RAZOR BLADE OF LIFE......
                                 TOM LEHRER
 Job cpu time:       0 days 22 hours 12 minutes 23.7 seconds.
 Elapsed time:       0 days  0 hours 25 minutes 22.3 seconds.
 File lengths (MBytes):  RWF=   1868 Int=      0 D2E=      0 Chk=    306 Scr=      1
 Normal termination of Gaussian 16 at Sun Jun  2 12:58:22 2024.
