 Entering Gaussian System, Link 0=g16
 Input=JOBS/43_A.gjf
 Output=JOBS/43_A.log
 Initial command:
 /data/app/gaussian/C01-avx2//g16/l1.exe "/tmp/Gau-661053.inp" -scrdir="/tmp/"
 Entering Link 1 = /data/app/gaussian/C01-avx2//g16/l1.exe PID=    661054.
  
 Copyright (c) 1988-2019, Gaussian, Inc.  All Rights Reserved.
  
 This is part of the Gaussian(R) 16 program.  It is based on
 the Gaussian(R) 09 system (copyright 2009, Gaussian, Inc.),
 the Gaussian(R) 03 system (copyright 2003, Gaussian, Inc.),
 the Gaussian(R) 98 system (copyright 1998, Gaussian, Inc.),
 the Gaussian(R) 94 system (copyright 1995, Gaussian, Inc.),
 the Gaussian 92(TM) system (copyright 1992, Gaussian, Inc.),
 the Gaussian 90(TM) system (copyright 1990, Gaussian, Inc.),
 the Gaussian 88(TM) system (copyright 1988, Gaussian, Inc.),
 the Gaussian 86(TM) system (copyright 1986, Carnegie Mellon
 University), and the Gaussian 82(TM) system (copyright 1983,
 Carnegie Mellon University). Gaussian is a federally registered
 trademark of Gaussian, Inc.
  
 This software contains proprietary and confidential information,
 including trade secrets, belonging to Gaussian, Inc.
  
 This software is provided under written license and may be
 used, copied, transmitted, or stored only in accord with that
 written license.
  
 The following legend is applicable only to US Government
 contracts under FAR:
  
                    RESTRICTED RIGHTS LEGEND
  
 Use, reproduction and disclosure by the US Government is
 subject to restrictions as set forth in subparagraphs (a)
 and (c) of the Commercial Computer Software - Restricted
 Rights clause in FAR 52.227-19.
  
 Gaussian, Inc.
 340 Quinnipiac St., Bldg. 40, Wallingford CT 06492
  
  
 ---------------------------------------------------------------
 Warning -- This program may not be used in any manner that
 competes with the business of Gaussian, Inc. or will provide
 assistance to any competitor of Gaussian, Inc.  The licensee
 of this program is prohibited from giving any competitor of
 Gaussian, Inc. access to this program.  By using this program,
 the user acknowledges that Gaussian, Inc. is engaged in the
 business of creating and licensing software in the field of
 computational chemistry and represents and warrants to the
 licensee that it is not a competitor of Gaussian, Inc. and that
 it will not use this program in any manner prohibited above.
 ---------------------------------------------------------------
  

 Cite this work as:
 Gaussian 16, Revision C.01,
 M. J. Frisch, G. W. Trucks, H. B. Schlegel, G. E. Scuseria, 
 M. A. Robb, J. R. Cheeseman, G. Scalmani, V. Barone, 
 G. A. Petersson, H. Nakatsuji, X. Li, M. Caricato, A. V. Marenich, 
 J. Bloino, B. G. Janesko, R. Gomperts, B. Mennucci, H. P. Hratchian, 
 J. V. Ortiz, A. F. Izmaylov, J. L. Sonnenberg, D. Williams-Young, 
 F. Ding, F. Lipparini, F. Egidi, J. Goings, B. Peng, A. Petrone, 
 T. Henderson, D. Ranasinghe, V. G. Zakrzewski, J. Gao, N. Rega, 
 G. Zheng, W. Liang, M. Hada, M. Ehara, K. Toyota, R. Fukuda, 
 J. Hasegawa, M. Ishida, T. Nakajima, Y. Honda, O. Kitao, H. Nakai, 
 T. Vreven, K. Throssell, J. A. Montgomery, Jr., J. E. Peralta, 
 F. Ogliaro, M. J. Bearpark, J. J. Heyd, E. N. Brothers, K. N. Kudin, 
 V. N. Staroverov, T. A. Keith, R. Kobayashi, J. Normand, 
 K. Raghavachari, A. P. Rendell, J. C. Burant, S. S. Iyengar, 
 J. Tomasi, M. Cossi, J. M. Millam, M. Klene, C. Adamo, R. Cammi, 
 J. W. Ochterski, R. L. Martin, K. Morokuma, O. Farkas, 
 J. B. Foresman, and D. J. Fox, Gaussian, Inc., Wallingford CT, 2019.
 
 ******************************************
 Gaussian 16:  ES64L-G16RevC.01  3-Jul-2019
                 2-Jun-2024 
 ******************************************
 %chk=a.chk
 %nprocshared=56
 Will use up to   56 processors via shared memory.
 %mem=96gb
 ----------------------------------------------------------------------
 # def2svp wb97xd scrf=(smd,solvent=acetonitrile) g09default scf=(xqc,m
 axcycle=64) force guess=read nosymm
 ----------------------------------------------------------------------
 1/10=7,30=1,38=1,158=3,167=1/1,3;
 2/12=2,15=1,17=6,18=5,40=1/2;
 3/5=43,7=101,11=2,25=1,27=10,30=1,70=32201,71=1,72=2,74=-58,75=-4,116=-2,158=3/1,2,3;
 4/5=1,60=-1/1;
 5/5=2,7=64,8=3,13=1,38=6,53=2,87=10/2,8;
 6/7=2,8=2,9=2,10=2,28=1,87=10/1;
 7/29=1,30=1,87=10/1,2,3,16;
 1/10=7,30=1,158=3,167=1/3;
 99//99;
 Using 2006 physical constants.
 ----------
 Title Card
 ----------
 Symbolic Z-matrix:
 Charge = -1 Multiplicity = 1
 17                   -9.7029    8.27915   10.55645 
 6                    -8.337     4.2414    12.21834 
 6                    -9.13318   3.92913   11.10043 
 6                    -10.04287   2.86035   11.2134 
 6                    -10.20323   2.17732   12.41436 
 6                    -9.44443   2.53584   13.52937 
 6                    -8.49417   3.55339   13.41813 
 1                    -7.57908   5.02474   12.14801 
 1                    -10.63323   2.56853   10.34018 
 1                    -10.92044   1.35553   12.48127 
 1                    -9.58033   2.01233   14.47838 
 1                    -7.86979   3.81211   14.27682 
 6                    -9.06158   4.66924   9.83894 
 6                    -8.37512   5.80813   9.60613 
 1                    -9.64511   4.23869   9.01745 
 1                    -8.36357   6.24496   8.60544 
 1                    -7.74805   6.29177   10.35556 
 8                    -0.97737  -1.79547   7.46703 
 8                    -8.39754  -1.33404   7.46103 
 8                    -7.02576   1.34848   10.4722 
 8                    -2.33408  -4.3931    10.55412 
 74                   -3.40615   0.68894   6.47352 
 74                   -5.99111  -3.81782   6.55936 
 74                   -3.61409   0.87186   11.42141 
 74                   -5.76262  -3.8605    11.4809 
 74                   -2.43099  -2.59215   6.40287 
 74                   -6.94282  -0.53272   6.37302 
 74                   -6.82176  -0.24811   11.55962 
 74                   -2.54281  -2.73215   11.60201 
 8                    -3.17024   1.87098   5.29182 
 8                    -6.12457  -5.06924   5.41818 
 8                    -2.68915   1.71557   12.57152 
 8                    -6.68022  -4.66058   12.6651 
 8                    -2.65712  -0.91524   5.58665 
 8                    -6.7036   -2.2671    5.62159 
 8                    -5.31259   0.5518    12.36058 
 8                    -4.04985  -3.52813   12.40492 
 8                     0.30689  -0.00996   9.28322 
 8                    -9.69503  -3.04147   9.32938 
 8                    -6.34511   3.43079   8.66563 
 8                    -3.00811  -6.49065   8.74606 
 8                    -1.78398   0.75153   7.47387 
 8                    -7.59859  -3.88395   7.54283 
 8                    -4.49486   2.19823   10.42848 
 8                    -4.87435  -5.22925   10.52743 
 8                    -1.60108  -3.54068   5.26027 
 8                    -7.82344   0.27921   5.18304 
 8                    -8.04784  -0.16856   12.73319 
 8                    -1.30242  -2.85496   12.75677 
 74                   -1.24998  -0.52765   8.83678 
 74                   -8.13631  -2.5389    8.87447 
 74                   -5.8696    1.85852   9.04452 
 74                   -3.49382  -4.9163    9.16481 
 8                    -4.21179  -3.11045   6.07063 
 8                    -5.1541   -0.06053   6.01361 
 8                    -6.17114  -1.99658   11.90733 
 8                    -3.17001  -0.98468   11.92789 
 8                    -4.35518   1.58084   7.83028 
 8                    -5.00572  -4.68016   7.92183 
 8                    -2.32564   0.56954   10.08056 
 8                    -7.04874  -3.61438   10.13113 
 8                    -2.56824  -3.90815   7.86733 
 8                    -6.81029   0.79434   7.80303 
 8                    -7.82705  -1.1766    10.13827 
 8                    -1.56079  -1.86667   10.13875 
 8                    -3.35647  -1.15719   8.00682 
 8                    -6.02225  -1.95742   8.03372 
 8                    -5.11703  -0.20656   9.94398 
 8                    -4.23561  -2.8453    9.97411 
 19                   -3.21212  -6.13537   5.64513 
 19                   -0.10761   0.05472   12.34203 
 19                   -9.28783  -2.83977   12.43477 
 23                   -4.68502  -1.53786   8.98785 
 

 GradGradGradGradGradGradGradGradGradGradGradGradGradGradGradGradGradGrad
 Berny optimization.
 Initialization pass.
 Trust Radius=3.00D-01 FncErr=1.00D-07 GrdErr=1.00D-07 EigMax=2.50D+02 EigMin=1.00D-04
 Number of steps in this run=      2 maximum allowed number of steps=      2.
 GradGradGradGradGradGradGradGradGradGradGradGradGradGradGradGradGradGrad

 Symmetry turned off by external request.
 Stoichiometry    C8H8ClK3O40VW12(1-)
 Framework group  C1[X(C8H8ClK3O40VW12)]
 Deg. of freedom   213
 Full point group                 C1      NOp   1
                          Input orientation:                          
 ---------------------------------------------------------------------
 Center     Atomic      Atomic             Coordinates (Angstroms)
 Number     Number       Type             X           Y           Z
 ---------------------------------------------------------------------
      1         17           0       -9.702904    8.279155   10.556454
      2          6           0       -8.336998    4.241399   12.218339
      3          6           0       -9.133183    3.929132   11.100433
      4          6           0      -10.042872    2.860350   11.213396
      5          6           0      -10.203230    2.177318   12.414364
      6          6           0       -9.444426    2.535839   13.529372
      7          6           0       -8.494175    3.553385   13.418131
      8          1           0       -7.579083    5.024742   12.148014
      9          1           0      -10.633230    2.568527   10.340175
     10          1           0      -10.920437    1.355528   12.481265
     11          1           0       -9.580330    2.012329   14.478380
     12          1           0       -7.869794    3.812115   14.276815
     13          6           0       -9.061576    4.669239    9.838943
     14          6           0       -8.375118    5.808130    9.606128
     15          1           0       -9.645115    4.238685    9.017448
     16          1           0       -8.363569    6.244957    8.605440
     17          1           0       -7.748049    6.291768   10.355562
     18          8           0       -0.977369   -1.795473    7.467033
     19          8           0       -8.397537   -1.334041    7.461034
     20          8           0       -7.025759    1.348482   10.472200
     21          8           0       -2.334083   -4.393098   10.554122
     22         74           0       -3.406153    0.688941    6.473516
     23         74           0       -5.991110   -3.817816    6.559362
     24         74           0       -3.614087    0.871864   11.421407
     25         74           0       -5.762625   -3.860502   11.480897
     26         74           0       -2.430987   -2.592154    6.402870
     27         74           0       -6.942823   -0.532722    6.373017
     28         74           0       -6.821764   -0.248108   11.559619
     29         74           0       -2.542812   -2.732155   11.602015
     30          8           0       -3.170241    1.870979    5.291823
     31          8           0       -6.124565   -5.069236    5.418184
     32          8           0       -2.689154    1.715569   12.571520
     33          8           0       -6.680220   -4.660583   12.665097
     34          8           0       -2.657122   -0.915237    5.586651
     35          8           0       -6.703602   -2.267101    5.621587
     36          8           0       -5.312592    0.551795   12.360575
     37          8           0       -4.049852   -3.528126   12.404915
     38          8           0        0.306891   -0.009965    9.283223
     39          8           0       -9.695032   -3.041467    9.329376
     40          8           0       -6.345107    3.430788    8.665627
     41          8           0       -3.008115   -6.490651    8.746056
     42          8           0       -1.783983    0.751534    7.473871
     43          8           0       -7.598591   -3.883951    7.542831
     44          8           0       -4.494855    2.198233   10.428483
     45          8           0       -4.874352   -5.229255   10.527428
     46          8           0       -1.601076   -3.540680    5.260269
     47          8           0       -7.823435    0.279208    5.183037
     48          8           0       -8.047837   -0.168558   12.733193
     49          8           0       -1.302424   -2.854964   12.756766
     50         74           0       -1.249976   -0.527654    8.836785
     51         74           0       -8.136312   -2.538902    8.874474
     52         74           0       -5.869600    1.858518    9.044515
     53         74           0       -3.493821   -4.916303    9.164805
     54          8           0       -4.211787   -3.110446    6.070625
     55          8           0       -5.154105   -0.060528    6.013606
     56          8           0       -6.171139   -1.996584   11.907325
     57          8           0       -3.170008   -0.984680   11.927893
     58          8           0       -4.355185    1.580843    7.830275
     59          8           0       -5.005721   -4.680157    7.921833
     60          8           0       -2.325641    0.569537   10.080556
     61          8           0       -7.048741   -3.614382   10.131131
     62          8           0       -2.568236   -3.908147    7.867329
     63          8           0       -6.810287    0.794342    7.803031
     64          8           0       -7.827048   -1.176598   10.138267
     65          8           0       -1.560786   -1.866672   10.138746
     66          8           0       -3.356469   -1.157192    8.006821
     67          8           0       -6.022248   -1.957420    8.033722
     68          8           0       -5.117026   -0.206558    9.943985
     69          8           0       -4.235608   -2.845302    9.974112
     70         19           0       -3.212117   -6.135365    5.645131
     71         19           0       -0.107610    0.054723   12.342027
     72         19           0       -9.287831   -2.839767   12.434770
     73         23           0       -4.685017   -1.537864    8.987852
 ---------------------------------------------------------------------
 Rotational constants (GHZ):           0.0172109           0.0132189           0.0129926
 Standard basis: def2SVP (5D, 7F)
  1217 basis functions,  2313 primitive gaussians,  1337 cartesian basis functions
   321 alpha electrons      321 beta electrons
       nuclear repulsion energy     20972.5536339581 Hartrees.
 NAtoms=   73 NActive=   73 NUniq=   73 SFac= 1.00D+00 NAtFMM=   60 NAOKFM=T Big=T
 Integral buffers will be    131072 words long.
 Raffenetti 2 integral format.
 Two-electron integral symmetry is turned off.
 Nuclear repulsion after empirical dispersion term =    20972.2770644423 Hartrees.
 Force PCM accuracy= 1.00D-10.
 ------------------------------------------------------------------------------
 Polarizable Continuum Model (PCM)
 =================================
 Model                : PCM (using non-symmetric T matrix).
 Atomic radii         : SMD-Coulomb.
 Polarization charges : Total charges.
 Charge compensation  : None.
 Solution method      : On-the-fly selection.
 Cavity type          : VdW (van der Waals Surface) (Alpha=1.000).
 Cavity algorithm     : GePol (No added spheres)
                        Default sphere list used, NSphG=   73.
                        Lebedev-Laikov grids with approx.  5.0 points / Ang**2.
                        Smoothing algorithm: York/Karplus (Gamma=1.0000).
                        Polarization charges: spherical gaussians, with
                                              point-specific exponents (IZeta= 3).
                        Self-potential: point-specific (ISelfS= 7).
                        Self-field    : sphere-specific E.n sum rule (ISelfD= 2).
 1st derivatives      : Analytical E(r).r(x)/FMM algorithm (CHGder, D1EAlg=3).
                        Cavity 1st derivative terms included.
 Solvent              : Acetonitrile, Eps=  35.688000 Eps(inf)=   1.806874
 ------------------------------------------------------------------------------
 ------------------------------------------------------------------------------
 Atomic radii for non-electrostatic terms: SMD-CDS.
 ------------------------------------------------------------------------------
 Nuclear repulsion after PCM non-electrostatic terms =    20972.2713321631 Hartrees.
 One-electron integrals computed using PRISM.
   1 Symmetry operations used in ECPInt.
 ECPInt:  NShTT=  127765 NPrTT=  468030 LenC2=   96563 LenP2D=  220931.
 LDataN:  DoStor=T MaxTD1= 8 Len=  415
 NBasis=  1217 RedAO= T EigKep=  1.38D-04  NBF=  1217
 NBsUse=  1217 1.00D-06 EigRej= -1.00D+00 NBFU=  1217
 Defaulting to unpruned grid for atomic number  74.
 Defaulting to unpruned grid for atomic number  74.
 Defaulting to unpruned grid for atomic number  74.
 Defaulting to unpruned grid for atomic number  74.
 Defaulting to unpruned grid for atomic number  74.
 Defaulting to unpruned grid for atomic number  74.
 Defaulting to unpruned grid for atomic number  74.
 Defaulting to unpruned grid for atomic number  74.
 Initial guess from the checkpoint file:  "a.chk"
 B after Tr=     0.002212   -0.002862    0.000043
         Rot=    1.000000   -0.000004    0.000012    0.000114 Ang=  -0.01 deg.
 Requested convergence on RMS density matrix=1.00D-08 within  64 cycles.
 Requested convergence on MAX density matrix=1.00D-06.
 Requested convergence on             energy=1.00D-06.
 No special actions if energy rises.
 Defaulting to unpruned grid for atomic number  74.
 Defaulting to unpruned grid for atomic number  74.
 Defaulting to unpruned grid for atomic number  74.
 Defaulting to unpruned grid for atomic number  74.
 Defaulting to unpruned grid for atomic number  74.
 Defaulting to unpruned grid for atomic number  74.
 Defaulting to unpruned grid for atomic number  74.
 Defaulting to unpruned grid for atomic number  74.
 Defaulting to unpruned grid for atomic number  74.
 Defaulting to unpruned grid for atomic number  74.
 Defaulting to unpruned grid for atomic number  74.
 Defaulting to unpruned grid for atomic number  74.
 Defaulting to unpruned grid for atomic number  74.
 Defaulting to unpruned grid for atomic number  74.
 Defaulting to unpruned grid for atomic number  74.
 Defaulting to unpruned grid for atomic number  74.
 Defaulting to unpruned grid for atomic number  74.
 Defaulting to unpruned grid for atomic number  74.
 Defaulting to unpruned grid for atomic number  74.
 Defaulting to unpruned grid for atomic number  74.
 Defaulting to unpruned grid for atomic number  74.
 Defaulting to unpruned grid for atomic number  74.
 Defaulting to unpruned grid for atomic number  74.
 Defaulting to unpruned grid for atomic number  74.
 Defaulting to unpruned grid for atomic number  74.
 Defaulting to unpruned grid for atomic number  74.
 Defaulting to unpruned grid for atomic number  74.
 Defaulting to unpruned grid for atomic number  74.
 Defaulting to unpruned grid for atomic number  74.
 Defaulting to unpruned grid for atomic number  74.
 Defaulting to unpruned grid for atomic number  74.
 Defaulting to unpruned grid for atomic number  74.
 Defaulting to unpruned grid for atomic number  74.
 Defaulting to unpruned grid for atomic number  74.
 Defaulting to unpruned grid for atomic number  74.
 Defaulting to unpruned grid for atomic number  74.
 Defaulting to unpruned grid for atomic number  74.
 Defaulting to unpruned grid for atomic number  74.
 Defaulting to unpruned grid for atomic number  74.
 Defaulting to unpruned grid for atomic number  74.
 Defaulting to unpruned grid for atomic number  74.
 Defaulting to unpruned grid for atomic number  74.
 Defaulting to unpruned grid for atomic number  74.
 Defaulting to unpruned grid for atomic number  74.
 Defaulting to unpruned grid for atomic number  74.
 Defaulting to unpruned grid for atomic number  74.
 Defaulting to unpruned grid for atomic number  74.
 Defaulting to unpruned grid for atomic number  74.
 Defaulting to unpruned grid for atomic number  74.
 Defaulting to unpruned grid for atomic number  74.
 Defaulting to unpruned grid for atomic number  74.
 Defaulting to unpruned grid for atomic number  74.
 Defaulting to unpruned grid for atomic number  74.
 Defaulting to unpruned grid for atomic number  74.
 Defaulting to unpruned grid for atomic number  74.
 Defaulting to unpruned grid for atomic number  74.
 Inv3:  Mode=1 IEnd=    87415212.
 Iteration    1 A*A^-1 deviation from unit magnitude is 3.44D-15 for   3059.
 Iteration    1 A*A^-1 deviation from orthogonality  is 2.97D-15 for    581    204.
 Iteration    1 A^-1*A deviation from unit magnitude is 3.33D-15 for    750.
 Iteration    1 A^-1*A deviation from orthogonality  is 3.63D-08 for    814    739.
 Iteration    2 A*A^-1 deviation from unit magnitude is 4.88D-15 for   1442.
 Iteration    2 A*A^-1 deviation from orthogonality  is 3.49D-15 for   1055    479.
 Iteration    2 A^-1*A deviation from unit magnitude is 1.11D-15 for    257.
 Iteration    2 A^-1*A deviation from orthogonality  is 6.89D-16 for   3989   3325.
 Error on total polarization charges =  0.01609
 SCF Done:  E(RwB97XD) =  -7327.70163691     A.U. after   10 cycles
            NFock= 10  Conv=0.94D-08     -V/T= 2.0832
 SMD-CDS (non-electrostatic) energy       (kcal/mol) =      -3.60
 (included in total energy above)
 QCSCF skips out because SCF is already converged.

 **********************************************************************

            Population analysis using the SCF Density.

 **********************************************************************

 Alpha  occ. eigenvalues -- -197.29636-130.00116-130.00081-129.99984-101.48170
 Alpha  occ. eigenvalues --  -22.62740 -19.33706 -19.33701 -19.33694 -19.33675
 Alpha  occ. eigenvalues --  -19.30726 -19.30682 -19.30680 -19.30676 -19.30672
 Alpha  occ. eigenvalues --  -19.30669 -19.30656 -19.30626 -19.30541 -19.30381
 Alpha  occ. eigenvalues --  -19.30345 -19.30174 -19.29321 -19.29305 -19.29304
 Alpha  occ. eigenvalues --  -19.29288 -19.29271 -19.29255 -19.29222 -19.29195
 Alpha  occ. eigenvalues --  -19.29177 -19.29170 -19.29160 -19.29149 -19.29129
 Alpha  occ. eigenvalues --  -19.29098 -19.29091 -19.29068 -19.29067 -19.29059
 Alpha  occ. eigenvalues --  -19.29050 -19.28992 -19.28975 -19.28965 -19.28915
 Alpha  occ. eigenvalues --  -19.28846 -19.11699 -19.11691 -19.11682 -13.37523
 Alpha  occ. eigenvalues --  -13.37486 -13.37383 -10.70452 -10.70445 -10.70443
 Alpha  occ. eigenvalues --  -10.70415 -10.70408 -10.70407 -10.70313 -10.70307
 Alpha  occ. eigenvalues --  -10.70301 -10.29902 -10.29357 -10.29303 -10.29096
 Alpha  occ. eigenvalues --  -10.29016 -10.29011 -10.28188 -10.27688  -9.38635
 Alpha  occ. eigenvalues --   -7.13461  -7.13416  -7.13408  -3.23318  -3.23316
 Alpha  occ. eigenvalues --   -3.23307  -3.23295  -3.23295  -3.23280  -3.23269
 Alpha  occ. eigenvalues --   -3.23255  -3.23222  -3.22987  -3.22983  -3.22792
 Alpha  occ. eigenvalues --   -2.91931  -1.94297  -1.94263  -1.94254  -1.87721
 Alpha  occ. eigenvalues --   -1.87672  -1.87658  -1.87626  -1.87487  -1.87473
 Alpha  occ. eigenvalues --   -1.87466  -1.87451  -1.87421  -1.87288  -1.87255
 Alpha  occ. eigenvalues --   -1.87098  -1.86626  -1.86508  -1.86500  -1.86482
 Alpha  occ. eigenvalues --   -1.86458  -1.86436  -1.86344  -1.86334  -1.86315
 Alpha  occ. eigenvalues --   -1.86297  -1.86292  -1.86260  -1.86147  -1.86135
 Alpha  occ. eigenvalues --   -1.86126  -1.86115  -1.86047  -1.86028  -1.85992
 Alpha  occ. eigenvalues --   -1.85929  -1.85911  -1.85812  -1.85719  -1.85671
 Alpha  occ. eigenvalues --   -1.51207  -1.51175  -1.51079  -1.13098  -1.11333
 Alpha  occ. eigenvalues --   -1.11256  -1.11248  -1.08976  -1.08535  -1.08492
 Alpha  occ. eigenvalues --   -1.08304  -1.07572  -1.07520  -1.07506  -1.06899
 Alpha  occ. eigenvalues --   -1.06881  -1.06866  -1.06323  -1.06308  -1.05306
 Alpha  occ. eigenvalues --   -1.05295  -1.04974  -1.04968  -1.04962  -1.04186
 Alpha  occ. eigenvalues --   -1.04178  -1.04166  -1.04021  -1.04002  -1.03990
 Alpha  occ. eigenvalues --   -1.03935  -1.03905  -1.03889  -1.03758  -1.03726
 Alpha  occ. eigenvalues --   -1.03611  -1.03546  -1.03306  -1.03260  -1.03108
 Alpha  occ. eigenvalues --   -1.03094  -1.03019  -1.02954  -0.94393  -0.86672
 Alpha  occ. eigenvalues --   -0.86643  -0.86553  -0.86525  -0.86484  -0.86468
 Alpha  occ. eigenvalues --   -0.86451  -0.86447  -0.86366  -0.86329  -0.82826
 Alpha  occ. eigenvalues --   -0.79809  -0.71373  -0.69724  -0.68045  -0.64610
 Alpha  occ. eigenvalues --   -0.63979  -0.63915  -0.63907  -0.63345  -0.63324
 Alpha  occ. eigenvalues --   -0.63191  -0.63000  -0.62707  -0.62612  -0.62032
 Alpha  occ. eigenvalues --   -0.61630  -0.61620  -0.61524  -0.61250  -0.61236
 Alpha  occ. eigenvalues --   -0.61170  -0.60407  -0.59491  -0.59477  -0.59459
 Alpha  occ. eigenvalues --   -0.59425  -0.59377  -0.58607  -0.57994  -0.57969
 Alpha  occ. eigenvalues --   -0.57876  -0.57092  -0.57049  -0.57019  -0.56302
 Alpha  occ. eigenvalues --   -0.56278  -0.56115  -0.55698  -0.54860  -0.54801
 Alpha  occ. eigenvalues --   -0.54768  -0.54552  -0.54238  -0.54108  -0.54085
 Alpha  occ. eigenvalues --   -0.54015  -0.53956  -0.53227  -0.53189  -0.53058
 Alpha  occ. eigenvalues --   -0.53023  -0.52900  -0.52693  -0.52654  -0.52631
 Alpha  occ. eigenvalues --   -0.52574  -0.52528  -0.52465  -0.52459  -0.51600
 Alpha  occ. eigenvalues --   -0.51573  -0.51341  -0.51314  -0.51275  -0.51233
 Alpha  occ. eigenvalues --   -0.51178  -0.51169  -0.50960  -0.50751  -0.50572
 Alpha  occ. eigenvalues --   -0.50552  -0.50546  -0.49871  -0.49849  -0.49301
 Alpha  occ. eigenvalues --   -0.49289  -0.49256  -0.49218  -0.49160  -0.49066
 Alpha  occ. eigenvalues --   -0.48900  -0.48085  -0.48032  -0.47933  -0.47735
 Alpha  occ. eigenvalues --   -0.47383  -0.47284  -0.47241  -0.47000  -0.46923
 Alpha  occ. eigenvalues --   -0.46815  -0.46556  -0.46484  -0.46466  -0.46204
 Alpha  occ. eigenvalues --   -0.46150  -0.46111  -0.45611  -0.45094  -0.44916
 Alpha  occ. eigenvalues --   -0.44875  -0.44206  -0.44149  -0.44038  -0.43554
 Alpha  occ. eigenvalues --   -0.43272  -0.43221  -0.43110  -0.43093  -0.43057
 Alpha  occ. eigenvalues --   -0.42697  -0.42672  -0.42651  -0.42586  -0.42578
 Alpha  occ. eigenvalues --   -0.42495  -0.42453  -0.42436  -0.42276  -0.42260
 Alpha  occ. eigenvalues --   -0.42240  -0.42017  -0.41905  -0.41846  -0.41826
 Alpha  occ. eigenvalues --   -0.41199  -0.41148  -0.41136  -0.41008  -0.40542
 Alpha  occ. eigenvalues --   -0.40511  -0.40493  -0.40406  -0.39442  -0.39425
 Alpha  occ. eigenvalues --   -0.36986  -0.32551  -0.29099  -0.24968  -0.24947
 Alpha  occ. eigenvalues --   -0.23590
 Alpha virt. eigenvalues --   -0.09617  -0.09382  -0.08546  -0.08479  -0.07076
 Alpha virt. eigenvalues --   -0.07046  -0.06928  -0.04625  -0.04263  -0.04218
 Alpha virt. eigenvalues --   -0.03734  -0.03526  -0.03473  -0.03267  -0.03163
 Alpha virt. eigenvalues --   -0.03120  -0.03091  -0.02234  -0.02183  -0.02147
 Alpha virt. eigenvalues --   -0.01531  -0.01516  -0.01474  -0.01316  -0.01266
 Alpha virt. eigenvalues --   -0.00110  -0.00103  -0.00036   0.01394   0.01439
 Alpha virt. eigenvalues --    0.01894   0.01922   0.02012   0.02116   0.02154
 Alpha virt. eigenvalues --    0.02183   0.02237   0.02283   0.02757   0.02823
 Alpha virt. eigenvalues --    0.02887   0.02960   0.02995   0.04279   0.04508
 Alpha virt. eigenvalues --    0.06744   0.07253   0.07518   0.07535   0.07789
 Alpha virt. eigenvalues --    0.08015   0.08469   0.08528   0.08781   0.09156
 Alpha virt. eigenvalues --    0.09342   0.09383   0.09663   0.09891   0.10272
 Alpha virt. eigenvalues --    0.10329   0.10385   0.10443   0.10477   0.10647
 Alpha virt. eigenvalues --    0.10888   0.11041   0.11057   0.11637   0.11723
 Alpha virt. eigenvalues --    0.12212   0.13108   0.13231   0.13314   0.13579
 Alpha virt. eigenvalues --    0.13741   0.14400   0.14538   0.14668   0.14974
 Alpha virt. eigenvalues --    0.15552   0.16147   0.16335   0.16566   0.16751
 Alpha virt. eigenvalues --    0.16768   0.16890   0.17085   0.17248   0.17696
 Alpha virt. eigenvalues --    0.17896   0.18162   0.18223   0.18361   0.18574
 Alpha virt. eigenvalues --    0.18750   0.19065   0.19316   0.19417   0.19561
 Alpha virt. eigenvalues --    0.19661   0.20196   0.20272   0.20504   0.20585
 Alpha virt. eigenvalues --    0.20759   0.20880   0.20974   0.21372   0.21421
 Alpha virt. eigenvalues --    0.21537   0.21626   0.21732   0.21873   0.22022
 Alpha virt. eigenvalues --    0.22421   0.22729   0.22916   0.23126   0.23221
 Alpha virt. eigenvalues --    0.23475   0.23807   0.23991   0.24279   0.24576
 Alpha virt. eigenvalues --    0.24727   0.25213   0.25420   0.25637   0.25848
 Alpha virt. eigenvalues --    0.26007   0.26212   0.26407   0.26606   0.26644
 Alpha virt. eigenvalues --    0.26970   0.27207   0.27332   0.27439   0.27738
 Alpha virt. eigenvalues --    0.27999   0.28272   0.28334   0.28688   0.28734
 Alpha virt. eigenvalues --    0.29184   0.29444   0.29874   0.30151   0.30484
 Alpha virt. eigenvalues --    0.30684   0.30890   0.31248   0.31507   0.31829
 Alpha virt. eigenvalues --    0.32286   0.34717   0.35193   0.35748   0.36288
 Alpha virt. eigenvalues --    0.36663   0.36896   0.37213   0.38087   0.38353
 Alpha virt. eigenvalues --    0.38619   0.39170   0.39518   0.39605   0.40208
 Alpha virt. eigenvalues --    0.40692   0.40836   0.40977   0.41099   0.41732
 Alpha virt. eigenvalues --    0.42128   0.42436   0.42800   0.43292   0.43553
 Alpha virt. eigenvalues --    0.43724   0.44532   0.44784   0.44904   0.45273
 Alpha virt. eigenvalues --    0.45775   0.46332   0.46516   0.46707   0.47313
 Alpha virt. eigenvalues --    0.47410   0.47645   0.47885   0.48075   0.48225
 Alpha virt. eigenvalues --    0.48422   0.48450   0.48592   0.48702   0.48994
 Alpha virt. eigenvalues --    0.49147   0.49413   0.49459   0.49772   0.49866
 Alpha virt. eigenvalues --    0.50187   0.50569   0.50706   0.50723   0.50987
 Alpha virt. eigenvalues --    0.51615   0.51682   0.51850   0.52193   0.52419
 Alpha virt. eigenvalues --    0.52670   0.52870   0.53024   0.53133   0.53306
 Alpha virt. eigenvalues --    0.53679   0.54029   0.54304   0.54351   0.54532
 Alpha virt. eigenvalues --    0.54931   0.55401   0.55646   0.56362   0.56425
 Alpha virt. eigenvalues --    0.56866   0.57394   0.57785   0.58023   0.58280
 Alpha virt. eigenvalues --    0.58567   0.59064   0.59420   0.60116   0.60723
 Alpha virt. eigenvalues --    0.61328   0.62168   0.62525   0.62756   0.63124
 Alpha virt. eigenvalues --    0.64031   0.65266   0.65651   0.65690   0.65896
 Alpha virt. eigenvalues --    0.66064   0.66581   0.66970   0.67343   0.67398
 Alpha virt. eigenvalues --    0.67782   0.68312   0.69674   0.70246   0.71052
 Alpha virt. eigenvalues --    0.71378   0.71850   0.72094   0.72155   0.72224
 Alpha virt. eigenvalues --    0.72508   0.72654   0.73203   0.73379   0.73938
 Alpha virt. eigenvalues --    0.74588   0.74826   0.75503   0.75651   0.75805
 Alpha virt. eigenvalues --    0.76160   0.76766   0.76873   0.77206   0.77462
 Alpha virt. eigenvalues --    0.77773   0.78416   0.78983   0.79472   0.79731
 Alpha virt. eigenvalues --    0.80105   0.80308   0.80593   0.80704   0.81489
 Alpha virt. eigenvalues --    0.81511   0.81780   0.81989   0.82523   0.83088
 Alpha virt. eigenvalues --    0.83994   0.84204   0.84781   0.85312   0.85813
 Alpha virt. eigenvalues --    0.87176   0.87556   0.87953   0.88044   0.88746
 Alpha virt. eigenvalues --    0.88833   0.89035   0.89460   0.89640   0.90201
 Alpha virt. eigenvalues --    0.90736   0.90945   0.91220   0.91481   0.91705
 Alpha virt. eigenvalues --    0.92862   0.93007   0.93582   0.93904   0.94034
 Alpha virt. eigenvalues --    0.94229   0.94740   0.95729   0.95964   0.96614
 Alpha virt. eigenvalues --    0.96812   0.97054   0.97287   0.97692   0.97795
 Alpha virt. eigenvalues --    0.98116   0.98293   0.98427   0.98547   0.98774
 Alpha virt. eigenvalues --    0.98897   0.99465   0.99938   1.00370   1.00570
 Alpha virt. eigenvalues --    1.00884   1.01293   1.01591   1.01695   1.02004
 Alpha virt. eigenvalues --    1.02138   1.02218   1.02435   1.02452   1.02615
 Alpha virt. eigenvalues --    1.02925   1.03557   1.03596   1.03771   1.03811
 Alpha virt. eigenvalues --    1.04118   1.04183   1.04388   1.04603   1.04663
 Alpha virt. eigenvalues --    1.04909   1.05034   1.05175   1.05373   1.05781
 Alpha virt. eigenvalues --    1.05911   1.06300   1.06364   1.06977   1.07140
 Alpha virt. eigenvalues --    1.07521   1.07800   1.08603   1.09039   1.09250
 Alpha virt. eigenvalues --    1.09377   1.09835   1.09907   1.10140   1.10190
 Alpha virt. eigenvalues --    1.10705   1.10855   1.10962   1.11000   1.11250
 Alpha virt. eigenvalues --    1.11470   1.11635   1.11747   1.12008   1.12490
 Alpha virt. eigenvalues --    1.12832   1.13448   1.13683   1.14173   1.14739
 Alpha virt. eigenvalues --    1.15265   1.15818   1.15989   1.16325   1.16588
 Alpha virt. eigenvalues --    1.17004   1.17648   1.17844   1.18571   1.18666
 Alpha virt. eigenvalues --    1.19253   1.20639   1.20952   1.21183   1.21315
 Alpha virt. eigenvalues --    1.21463   1.21910   1.22195   1.23015   1.23493
 Alpha virt. eigenvalues --    1.25100   1.26073   1.26530   1.26726   1.27113
 Alpha virt. eigenvalues --    1.27526   1.27800   1.28303   1.28515   1.28570
 Alpha virt. eigenvalues --    1.28790   1.29150   1.29188   1.29410   1.29674
 Alpha virt. eigenvalues --    1.30084   1.30254   1.30376   1.30812   1.30875
 Alpha virt. eigenvalues --    1.31299   1.32183   1.32489   1.33018   1.33174
 Alpha virt. eigenvalues --    1.33245   1.33388   1.33616   1.33892   1.34029
 Alpha virt. eigenvalues --    1.34273   1.34380   1.34568   1.34785   1.34886
 Alpha virt. eigenvalues --    1.34913   1.35253   1.35492   1.35743   1.36066
 Alpha virt. eigenvalues --    1.36141   1.36586   1.36736   1.36892   1.36946
 Alpha virt. eigenvalues --    1.37075   1.37311   1.37565   1.37860   1.37909
 Alpha virt. eigenvalues --    1.37957   1.38474   1.38707   1.38803   1.39013
 Alpha virt. eigenvalues --    1.39247   1.39460   1.39562   1.39703   1.40162
 Alpha virt. eigenvalues --    1.40203   1.40401   1.40511   1.40690   1.40855
 Alpha virt. eigenvalues --    1.40948   1.41114   1.41350   1.41856   1.41966
 Alpha virt. eigenvalues --    1.42604   1.43015   1.43308   1.43486   1.43517
 Alpha virt. eigenvalues --    1.43928   1.44293   1.44572   1.44871   1.45670
 Alpha virt. eigenvalues --    1.46416   1.47112   1.47608   1.47723   1.48116
 Alpha virt. eigenvalues --    1.48250   1.48723   1.49178   1.49584   1.49892
 Alpha virt. eigenvalues --    1.50509   1.51010   1.51323   1.51945   1.53355
 Alpha virt. eigenvalues --    1.53765   1.55294   1.55779   1.55809   1.56007
 Alpha virt. eigenvalues --    1.56143   1.56312   1.56634   1.56757   1.57116
 Alpha virt. eigenvalues --    1.57182   1.58013   1.58232   1.59212   1.59327
 Alpha virt. eigenvalues --    1.59846   1.60225   1.60299   1.60466   1.60515
 Alpha virt. eigenvalues --    1.60672   1.61188   1.61862   1.62218   1.62382
 Alpha virt. eigenvalues --    1.63835   1.64449   1.65138   1.65703   1.66770
 Alpha virt. eigenvalues --    1.67465   1.67893   1.69947   1.70469   1.70813
 Alpha virt. eigenvalues --    1.71271   1.71596   1.72302   1.72915   1.74115
 Alpha virt. eigenvalues --    1.75303   1.75428   1.75573   1.75934   1.76846
 Alpha virt. eigenvalues --    1.76945   1.76968   1.77574   1.77873   1.78669
 Alpha virt. eigenvalues --    1.78896   1.79344   1.80006   1.80424   1.80705
 Alpha virt. eigenvalues --    1.81106   1.81259   1.81997   1.82075   1.82850
 Alpha virt. eigenvalues --    1.82912   1.83234   1.83936   1.84176   1.84513
 Alpha virt. eigenvalues --    1.85186   1.85353   1.85715   1.86129   1.86328
 Alpha virt. eigenvalues --    1.86510   1.87111   1.87470   1.88204   1.88662
 Alpha virt. eigenvalues --    1.89378   1.89909   1.90147   1.90298   1.90353
 Alpha virt. eigenvalues --    1.90709   1.90935   1.91262   1.92347   1.93204
 Alpha virt. eigenvalues --    1.94880   1.95352   1.95544   1.95766   1.96016
 Alpha virt. eigenvalues --    1.97992   1.99267   1.99479   1.99566   2.04091
 Alpha virt. eigenvalues --    2.06217   2.07445   2.08142   2.08598   2.08733
 Alpha virt. eigenvalues --    2.09061   2.09114   2.09552   2.10225   2.11135
 Alpha virt. eigenvalues --    2.11501   2.11972   2.12805   2.14751   2.15395
 Alpha virt. eigenvalues --    2.15992   2.16841   2.17256   2.17513   2.17745
 Alpha virt. eigenvalues --    2.19864   2.20239   2.20349   2.20708   2.20821
 Alpha virt. eigenvalues --    2.21070   2.22214   2.24418   2.25299   2.26025
 Alpha virt. eigenvalues --    2.26410   2.26834   2.27448   2.28483   2.28943
 Alpha virt. eigenvalues --    2.29153   2.29898   2.30331   2.33300   2.35721
 Alpha virt. eigenvalues --    2.36544   2.40277   2.40991   2.41101   2.43616
 Alpha virt. eigenvalues --    2.44196   2.50173   2.51405   2.57190   2.64722
 Alpha virt. eigenvalues --    2.64786   2.64913   2.65390   2.65942   2.66594
 Alpha virt. eigenvalues --    2.66702   2.66812   2.66930   2.66951   2.67049
 Alpha virt. eigenvalues --    2.67095   2.67163   2.67333   2.67358   2.67418
 Alpha virt. eigenvalues --    2.67643   2.67679   2.67770   2.67821   2.67884
 Alpha virt. eigenvalues --    2.68518   2.68904   2.69242   2.69378   2.69994
 Alpha virt. eigenvalues --    2.70184   2.70302   2.70637   2.70723   2.70838
 Alpha virt. eigenvalues --    2.70960   2.71365   2.71419   2.71515   2.71583
 Alpha virt. eigenvalues --    2.71654   2.71918   2.72684   2.72944   2.72975
 Alpha virt. eigenvalues --    2.73146   2.73225   2.73252   2.73342   2.73363
 Alpha virt. eigenvalues --    2.73496   2.73782   2.73883   2.73909   2.73989
 Alpha virt. eigenvalues --    2.74063   2.74166   2.74327   2.74533   2.74702
 Alpha virt. eigenvalues --    2.74764   2.74920   2.75046   2.75548   2.75971
 Alpha virt. eigenvalues --    2.76151   2.76330   2.76457   2.76722   2.76907
 Alpha virt. eigenvalues --    2.77098   2.77192   2.77223   2.78447   2.78593
 Alpha virt. eigenvalues --    2.78626   2.78926   2.79778   2.80078   2.80160
 Alpha virt. eigenvalues --    2.81131   2.81783   2.81820   2.82099   2.82259
 Alpha virt. eigenvalues --    2.82329   2.82644   2.83011   2.83214   2.83634
 Alpha virt. eigenvalues --    2.83766   2.83902   2.84002   2.84221   2.85047
 Alpha virt. eigenvalues --    2.85500   2.86094   2.86163   2.86272   2.86337
 Alpha virt. eigenvalues --    2.86588   2.86802   2.86905   2.88302   2.88586
 Alpha virt. eigenvalues --    2.88686   2.89095   2.89662   2.89746   2.89818
 Alpha virt. eigenvalues --    2.89878   2.90016   2.90082   2.90582   2.90679
 Alpha virt. eigenvalues --    2.90775   2.91733   2.91877   2.92039   2.92076
 Alpha virt. eigenvalues --    2.92230   2.92514   2.92751   2.92899   2.93054
 Alpha virt. eigenvalues --    2.93327   2.93444   2.93661   2.93935   2.94103
 Alpha virt. eigenvalues --    2.94179   2.95001   2.95177   2.95379   2.95701
 Alpha virt. eigenvalues --    2.95752   2.95796   2.96294   2.96518   2.96592
 Alpha virt. eigenvalues --    2.96687   2.96869   2.96911   2.97143   2.97366
 Alpha virt. eigenvalues --    2.97556   2.97726   2.97910   2.98204   2.99147
 Alpha virt. eigenvalues --    2.99262   2.99404   2.99613   2.99645   2.99998
 Alpha virt. eigenvalues --    3.00107   3.00359   3.00947   3.01245   3.01248
 Alpha virt. eigenvalues --    3.02571   3.02945   3.03246   3.03575   3.05173
 Alpha virt. eigenvalues --    3.06518   3.06739   3.07172   3.10966   3.11621
 Alpha virt. eigenvalues --    3.11765   3.11885   3.12167   3.12672   3.13699
 Alpha virt. eigenvalues --    3.13820   3.14008   3.16591   3.19704   3.21822
 Alpha virt. eigenvalues --    3.21945   3.23854   3.32585   3.41289   3.41725
 Alpha virt. eigenvalues --    3.42347   3.43265   3.45032   3.45107   3.46019
 Alpha virt. eigenvalues --    3.46332   3.46414   3.47297   3.47636   3.47796
 Alpha virt. eigenvalues --    3.47988   3.51241   3.51906   3.52527   3.53651
 Alpha virt. eigenvalues --    3.53936   3.54385   3.54699   3.54771   3.54997
 Alpha virt. eigenvalues --    3.55252   3.55514   3.55686   3.56801   3.57576
 Alpha virt. eigenvalues --    3.57726   3.58632   3.59567   3.59651   3.60439
 Alpha virt. eigenvalues --    3.60675   3.61298   3.61583   3.62179   3.62464
 Alpha virt. eigenvalues --    3.69346   3.74687  68.64089  68.65237  68.66234
 Alpha virt. eigenvalues --   68.68315  68.72511  68.73529  68.81690  68.82653
 Alpha virt. eigenvalues --   68.83387  68.85534  68.86693  68.88057 576.22531
 Alpha virt. eigenvalues --  576.23654 576.24629 576.26666 576.30867 576.31872
 Alpha virt. eigenvalues --  576.39884 576.40824 576.41537 576.43589 576.44719
 Alpha virt. eigenvalues --  576.46075
          Condensed to atoms (all electrons):
 Mulliken charges:
               1
     1  Cl  -0.905710
     2  C   -0.078259
     3  C    0.047125
     4  C   -0.077406
     5  C   -0.033892
     6  C   -0.033217
     7  C   -0.050186
     8  H    0.030880
     9  H    0.030241
    10  H    0.041507
    11  H    0.037282
    12  H    0.040276
    13  C   -0.120050
    14  C    0.019663
    15  H    0.022583
    16  H    0.039960
    17  H    0.025840
    18  O   -0.664041
    19  O   -0.663746
    20  O   -0.655413
    21  O   -0.664132
    22  W    1.737337
    23  W    1.678051
    24  W    1.687450
    25  W    1.698025
    26  W    1.678164
    27  W    1.730633
    28  W    1.622477
    29  W    1.689151
    30  O   -0.319958
    31  O   -0.365554
    32  O   -0.367500
    33  O   -0.360790
    34  O   -0.666166
    35  O   -0.671795
    36  O   -0.662275
    37  O   -0.665356
    38  O   -0.368413
    39  O   -0.365104
    40  O   -0.297252
    41  O   -0.365257
    42  O   -0.670953
    43  O   -0.664344
    44  O   -0.662295
    45  O   -0.666419
    46  O   -0.369631
    47  O   -0.320485
    48  O   -0.362306
    49  O   -0.362317
    50  W    1.677008
    51  W    1.681948
    52  W    1.686114
    53  W    1.688162
    54  O   -0.725570
    55  O   -0.709607
    56  O   -0.726738
    57  O   -0.723834
    58  O   -0.707936
    59  O   -0.728205
    60  O   -0.725767
    61  O   -0.722013
    62  O   -0.725726
    63  O   -0.709427
    64  O   -0.724675
    65  O   -0.727352
    66  O   -0.803179
    67  O   -0.802273
    68  O   -0.798611
    69  O   -0.809205
    70  K    0.863422
    71  K    0.864222
    72  K    0.860675
    73  V    1.192144
 Sum of Mulliken charges =  -1.00000
 Mulliken charges with hydrogens summed into heavy atoms:
               1
     1  Cl  -0.905710
     2  C   -0.047379
     3  C    0.047125
     4  C   -0.047165
     5  C    0.007615
     6  C    0.004065
     7  C   -0.009910
    13  C   -0.097467
    14  C    0.085463
    18  O   -0.664041
    19  O   -0.663746
    20  O   -0.655413
    21  O   -0.664132
    22  W    1.737337
    23  W    1.678051
    24  W    1.687450
    25  W    1.698025
    26  W    1.678164
    27  W    1.730633
    28  W    1.622477
    29  W    1.689151
    30  O   -0.319958
    31  O   -0.365554
    32  O   -0.367500
    33  O   -0.360790
    34  O   -0.666166
    35  O   -0.671795
    36  O   -0.662275
    37  O   -0.665356
    38  O   -0.368413
    39  O   -0.365104
    40  O   -0.297252
    41  O   -0.365257
    42  O   -0.670953
    43  O   -0.664344
    44  O   -0.662295
    45  O   -0.666419
    46  O   -0.369631
    47  O   -0.320485
    48  O   -0.362306
    49  O   -0.362317
    50  W    1.677008
    51  W    1.681948
    52  W    1.686114
    53  W    1.688162
    54  O   -0.725570
    55  O   -0.709607
    56  O   -0.726738
    57  O   -0.723834
    58  O   -0.707936
    59  O   -0.728205
    60  O   -0.725767
    61  O   -0.722013
    62  O   -0.725726
    63  O   -0.709427
    64  O   -0.724675
    65  O   -0.727352
    66  O   -0.803179
    67  O   -0.802273
    68  O   -0.798611
    69  O   -0.809205
    70  K    0.863422
    71  K    0.864222
    72  K    0.860675
    73  V    1.192144
 Electronic spatial extent (au):  <R**2>=         317405.1519
 Charge=             -1.0000 electrons
 Dipole moment (field-independent basis, Debye):
    X=             50.6873    Y=            -51.5231    Z=            -38.6559  Tot=             81.9640
 Quadrupole moment (field-independent basis, Debye-Ang):
   XX=          -1047.6228   YY=           -892.5196   ZZ=           -912.9790
   XY=            453.0304   XZ=            454.0424   YZ=           -481.6151
 Traceless Quadrupole moment (field-independent basis, Debye-Ang):
   XX=            -96.5823   YY=             58.5209   ZZ=             38.0615
   XY=            453.0304   XZ=            454.0424   YZ=           -481.6151
 Octapole moment (field-independent basis, Debye-Ang**2):
  XXX=          13293.0913  YYY=          -1128.3203  ZZZ=         -19110.0046  XYY=           6098.9128
  XXY=          -3615.1227  XXZ=          -9344.6234  XZZ=           7288.8090  YZZ=          -4220.5646
  YYZ=          -9087.7839  XYZ=           4794.9848
 Hexadecapole moment (field-independent basis, Debye-Ang**3):
 XXXX=        -157015.8827 YYYY=         -54383.6339 ZZZZ=        -345701.2286 XXXY=          36323.9118
 XXXZ=         121308.4244 YYYX=          21225.8006 YYYZ=         -13458.2442 ZZZX=         126970.9379
 ZZZY=         -36221.8741 XXYY=         -55801.2357 XXZZ=        -106927.7154 YYZZ=        -100354.7721
 XXYZ=         -41956.3418 YYXZ=          61863.2297 ZZXY=          50449.7096
 N-N= 2.097227133216D+04 E-N=-5.902869405940D+04  KE= 6.765085547921D+03
   1 Symmetry operations used in ECPInt.
 ECPInt:  NShTT=  127765 NPrTT=  468030 LenC2=   96563 LenP2D=  220931.
 LDataN:  DoStor=T MaxTD1= 9 Len=  602
 D1PCM: PCM CHGder 1st derivatives, ID1Alg=3 FixD1E=F DoIter=F DoCFld=F I1PDM=0.
 Calling FoFJK, ICntrl=      2127 FMM=T ISym2X=0 I1Cent= 0 IOpClX= 0 NMat=1 NMatS=1 NMatT=0.
 Defaulting to unpruned grid for atomic number  74.
 Defaulting to unpruned grid for atomic number  74.
 Defaulting to unpruned grid for atomic number  74.
 Defaulting to unpruned grid for atomic number  74.
 Defaulting to unpruned grid for atomic number  74.
 Defaulting to unpruned grid for atomic number  74.
 Defaulting to unpruned grid for atomic number  74.
 Defaulting to unpruned grid for atomic number  74.
 Defaulting to unpruned grid for atomic number  74.
 Defaulting to unpruned grid for atomic number  74.
 Defaulting to unpruned grid for atomic number  74.
 Defaulting to unpruned grid for atomic number  74.
 Defaulting to unpruned grid for atomic number  74.
 Defaulting to unpruned grid for atomic number  74.
 Defaulting to unpruned grid for atomic number  74.
 Defaulting to unpruned grid for atomic number  74.
 Defaulting to unpruned grid for atomic number  74.
 Defaulting to unpruned grid for atomic number  74.
 Defaulting to unpruned grid for atomic number  74.
 Defaulting to unpruned grid for atomic number  74.
 Defaulting to unpruned grid for atomic number  74.
 Defaulting to unpruned grid for atomic number  74.
 Defaulting to unpruned grid for atomic number  74.
 Defaulting to unpruned grid for atomic number  74.
 Defaulting to unpruned grid for atomic number  74.
 Defaulting to unpruned grid for atomic number  74.
 Defaulting to unpruned grid for atomic number  74.
 Defaulting to unpruned grid for atomic number  74.
 Defaulting to unpruned grid for atomic number  74.
 Defaulting to unpruned grid for atomic number  74.
 Defaulting to unpruned grid for atomic number  74.
 Defaulting to unpruned grid for atomic number  74.
 Defaulting to unpruned grid for atomic number  74.
 Defaulting to unpruned grid for atomic number  74.
 Defaulting to unpruned grid for atomic number  74.
 Defaulting to unpruned grid for atomic number  74.
 Defaulting to unpruned grid for atomic number  74.
 Defaulting to unpruned grid for atomic number  74.
 Defaulting to unpruned grid for atomic number  74.
 Defaulting to unpruned grid for atomic number  74.
 Defaulting to unpruned grid for atomic number  74.
 Defaulting to unpruned grid for atomic number  74.
 Defaulting to unpruned grid for atomic number  74.
 Defaulting to unpruned grid for atomic number  74.
 Defaulting to unpruned grid for atomic number  74.
 Defaulting to unpruned grid for atomic number  74.
 Defaulting to unpruned grid for atomic number  74.
 Defaulting to unpruned grid for atomic number  74.
 Defaulting to unpruned grid for atomic number  74.
 Defaulting to unpruned grid for atomic number  74.
 Defaulting to unpruned grid for atomic number  74.
 Defaulting to unpruned grid for atomic number  74.
 Defaulting to unpruned grid for atomic number  74.
 Defaulting to unpruned grid for atomic number  74.
 Defaulting to unpruned grid for atomic number  74.
 Defaulting to unpruned grid for atomic number  74.
 -------------------------------------------------------------------
 Center     Atomic                   Forces (Hartrees/Bohr)
 Number     Number              X              Y              Z
 -------------------------------------------------------------------
      1       17          -0.002061265    0.006333370    0.001805583
      2        6          -0.001600287   -0.000700829   -0.001995723
      3        6          -0.000447115   -0.002375509    0.003633772
      4        6           0.001484495    0.002219601    0.000375978
      5        6           0.000629481    0.000076577    0.001448602
      6        6           0.000181226   -0.000246677    0.000799035
      7        6          -0.001167549   -0.001072982    0.000398234
      8        1          -0.000503034    0.000872356   -0.000148447
      9        1          -0.000573471    0.000741456   -0.000039033
     10        1          -0.000316452    0.000114533    0.000113626
     11        1           0.000687141   -0.000567735   -0.000187452
     12        1           0.000018486    0.000368394    0.000305913
     13        6           0.008529014    0.011049708   -0.008113245
     14        6          -0.002291256   -0.017862218    0.000654526
     15        1          -0.000763936    0.000149130   -0.000134412
     16        1          -0.001136736    0.001589702    0.001105994
     17        1          -0.001992105    0.000529684   -0.000041070
     18        8          -0.003601440    0.000529320    0.000848541
     19        8           0.003623071   -0.000803381    0.001122735
     20        8           0.002829125   -0.003123749   -0.000564525
     21        8          -0.002537524    0.002442602   -0.001004624
     22       74           0.001857977    0.011264065   -0.010342972
     23       74          -0.002546380   -0.010748383   -0.010612980
     24       74           0.007008528    0.009091863    0.010558880
     25       74          -0.007374536   -0.007710416    0.010763313
     26       74           0.008711970   -0.008033564   -0.011380484
     27       74          -0.008613695    0.008503928   -0.011244448
     28       74          -0.012352138    0.003142840    0.011488625
     29       74           0.011371814   -0.002064165    0.011307074
     30        8          -0.000632083   -0.002845201    0.003565486
     31        8           0.000246954    0.003316349    0.003209965
     32        8          -0.002559044   -0.002317749   -0.003581547
     33        8           0.002445700    0.001781119   -0.003342963
     34        8          -0.001442925   -0.000619599    0.003496243
     35        8           0.001474021    0.000124314    0.003531155
     36        8           0.000822171   -0.001495126   -0.003467094
     37        8          -0.000369398    0.001154018   -0.003350815
     38        8          -0.004584331   -0.001921600   -0.001745364
     39        8           0.004544674    0.001623816   -0.001625882
     40        8           0.002335576   -0.006713749    0.000950351
     41        8          -0.001269150    0.004939767    0.001391392
     42        8          -0.002081682   -0.002933511    0.001328575
     43        8           0.002493879    0.002709557    0.001059628
     44        8          -0.000349820   -0.003812051   -0.000760068
     45        8           0.001005179    0.003431168   -0.001185090
     46        8          -0.002827154    0.003723551    0.003198936
     47        8           0.003097023   -0.002619940    0.003204103
     48        8           0.004764635   -0.000245123   -0.003568982
     49        8          -0.004269876    0.000308744   -0.003022638
     50       74           0.015174022    0.005091352    0.003337582
     51       74          -0.015162746   -0.004162005    0.003401248
     52       74          -0.006231416    0.017053801   -0.003652344
     53       74           0.004902079   -0.015133844   -0.002947296
     54        8          -0.000716988    0.001592414    0.002417292
     55        8           0.000771999   -0.001698657    0.002315229
     56        8           0.002006949   -0.000102436   -0.002289920
     57        8          -0.001705277   -0.000758781   -0.002545341
     58        8           0.000388392   -0.002811683    0.001381015
     59        8           0.000247450    0.002409871    0.001688804
     60        8          -0.001579237   -0.001877207   -0.001792305
     61        8           0.001945837    0.001520301   -0.001536147
     62        8          -0.001483474    0.002371394    0.001045468
     63        8           0.001190082   -0.002806573    0.000639474
     64        8           0.002620185   -0.000201838   -0.001083364
     65        8          -0.002519620   -0.000372766   -0.000933198
     66        8          -0.028132476   -0.005074503    0.018222241
     67        8           0.028839045    0.005793927    0.017965325
     68        8           0.012121886   -0.027040558   -0.018102577
     69        8          -0.012051531    0.025846164   -0.018316948
     70       19           0.000153452   -0.000859666   -0.000568935
     71       19           0.000530499    0.000027049    0.000393182
     72       19          -0.000752993   -0.000197617    0.000417729
     73       23          -0.000453880    0.000093587    0.000337379
 -------------------------------------------------------------------
 Cartesian Forces:  Max     0.028839045 RMS     0.006474580

 GradGradGradGradGradGradGradGradGradGradGradGradGradGradGradGradGradGrad
 Berny optimization.
 Search for a local minimum.
 Step number   1 out of a maximum of    2
 All quantities printed in internal units (Hartrees-Bohrs-Radians)
 Second derivative matrix not updated -- first step.
 ITU=  0
     Eigenvalues ---    0.00000   0.00000   0.00000   0.00010   0.00093
     Eigenvalues ---    0.00094   0.00256   0.00548   0.00634   0.01641
     Eigenvalues ---    0.01960   0.02903   0.02928   0.03212   0.03430
     Eigenvalues ---    0.03454   0.03724   0.03733   0.04160   0.04486
     Eigenvalues ---    0.04602   0.04612   0.04643   0.04841   0.04854
     Eigenvalues ---    0.04982   0.05360   0.05577   0.05609   0.06371
     Eigenvalues ---    0.06407   0.06530   0.06784   0.06853   0.07043
     Eigenvalues ---    0.07294   0.07393   0.07603   0.08355   0.08387
     Eigenvalues ---    0.08721   0.08757   0.08905   0.08916   0.09737
     Eigenvalues ---    0.09970   0.10111   0.10419   0.10460   0.10552
     Eigenvalues ---    0.10829   0.10898   0.11586   0.11699   0.12063
     Eigenvalues ---    0.12074   0.12177   0.12536   0.12539   0.12693
     Eigenvalues ---    0.12699   0.12803   0.12837   0.13065   0.13156
     Eigenvalues ---    0.13815   0.14008   0.14326   0.14565   0.14757
     Eigenvalues ---    0.16927   0.16952   0.17116   0.17161   0.17574
     Eigenvalues ---    0.17685   0.18574   0.19841   0.20002   0.20261
     Eigenvalues ---    0.20919   0.21003   0.21979   0.22118   0.22162
     Eigenvalues ---    0.22573   0.23161   0.23451   0.24002   0.24030
     Eigenvalues ---    0.24622   0.24793   0.24971   0.25515   0.26225
     Eigenvalues ---    0.26394   0.26549   0.27620   0.27723   0.27986
     Eigenvalues ---    0.28296   0.28334   0.28839   0.29579   0.29887
     Eigenvalues ---    0.30524   0.30584   0.30636   0.30705   0.30729
     Eigenvalues ---    0.30935   0.31205   0.31419   0.31559   0.32304
     Eigenvalues ---    0.32469   0.32513   0.32738   0.32881   0.33412
     Eigenvalues ---    0.33531   0.35116   0.35593   0.35871   0.36917
     Eigenvalues ---    0.37442   0.37612   0.37833   0.38249   0.38605
     Eigenvalues ---    0.38976   0.39158   0.40149   0.40279   0.41189
     Eigenvalues ---    0.42253   0.42307   0.43579   0.44232   0.44844
     Eigenvalues ---    0.45295   0.45611   0.45989   0.48099   0.48344
     Eigenvalues ---    0.48624   0.48888   0.48937   0.49516   0.49691
     Eigenvalues ---    0.50067   0.50821   0.51345   0.51985   0.52442
     Eigenvalues ---    0.53127   0.54063   0.56503   0.58427   0.64461
     Eigenvalues ---    0.67517   0.76618   0.81429   0.82697   0.96734
     Eigenvalues ---    0.97252   0.98590   0.99291   1.01469   1.04359
     Eigenvalues ---    1.07222   1.10847   1.11380   1.12194   1.15130
     Eigenvalues ---    1.18557   1.19078   1.20358   1.22097   1.22443
     Eigenvalues ---    1.22729   1.25772   1.26524   1.26731   1.27069
     Eigenvalues ---    1.27793   1.29274   1.29423   1.45253   1.45514
     Eigenvalues ---    1.45726   1.48134   1.51372   1.51692   1.52096
     Eigenvalues ---    1.52583   1.55667   1.55739   1.57034   1.58506
     Eigenvalues ---    1.58538   1.59317   1.61665   1.64262   1.73153
     Eigenvalues ---    1.82319   1.86997   1.91971   1.95506   1.97484
     Eigenvalues ---    2.09241   2.17573   3.74849
 Eigenvalue     1 is   4.44D-16 Eigenvector:
                          Y16       Y14       Y17       Y15       Y13
   1                    0.17438   0.17438   0.17438   0.17438   0.17438
                          Y8        Y3        Y2        Y9        Y4
   1                    0.17438   0.17438   0.17438   0.17438   0.17438
 Eigenvalue     2 is   3.57D-07 Eigenvector:
                          Y16       X16       X11       Y11       Y14
   1                    0.32469  -0.27054   0.26392  -0.24646   0.23727
                          Y15       Y17       X14       Y13       X6
   1                    0.22992   0.19943  -0.19383   0.18499   0.18468
 Eigenvalue     3 is   3.15D-06 Eigenvector:
                          X9        X10       Y12       X12       Y8
   1                    0.34018   0.28733   0.27943  -0.25766   0.25167
                          Y9        X15       Y10       X8        X4
   1                   -0.24756   0.23516  -0.21894  -0.20597   0.20583
 Quadratic step=2.008D+01 exceeds max=3.000D-01 adjusted using Lamda=-9.893D-03.
 Angle between NR and scaled steps=  46.56 degrees.
 Angle between quadratic step and forces=  64.32 degrees.
 Linear search not attempted -- first point.
 B after Tr=     0.000595    0.005377    0.001353
         Rot=    1.000000   -0.000131    0.000021    0.000090 Ang=  -0.02 deg.
 Variable       Old X    -DE/DX   Delta X   Delta X   Delta X     New X
                                 (Linear)    (Quad)   (Total)
    X1      -18.33583  -0.00206   0.00000  -0.00200   0.00055 -18.33528
    Y1       15.64534   0.00633   0.00000   0.00639   0.00983  15.65517
    Z1       19.94881   0.00181   0.00000   0.00190   0.00657  19.95537
    X2      -15.75464  -0.00160   0.00000  -0.01226  -0.01121 -15.76585
    Y2        8.01508  -0.00070   0.00000  -0.00814  -0.00597   8.00911
    Z2       23.08931  -0.00200   0.00000  -0.01276  -0.00999  23.07933
    X3      -17.25921  -0.00045   0.00000   0.00918   0.01021 -17.24900
    Y3        7.42498  -0.00238   0.00000  -0.03612  -0.03313   7.39185
    Z3       20.97678   0.00363   0.00000  -0.01621  -0.01366  20.96312
    X4      -18.97828   0.00148   0.00000  -0.01188  -0.01122 -18.98949
    Y4        5.40528   0.00222   0.00000  -0.00683  -0.00360   5.40168
    Z4       21.19025   0.00038   0.00000   0.01408   0.01604  21.20628
    X5      -19.28131   0.00063   0.00000  -0.00769  -0.00735 -19.28867
    Y5        4.11454   0.00008   0.00000   0.00210   0.00479   4.11932
    Z5       23.45975   0.00145   0.00000   0.02250   0.02411  23.48386
    X6      -17.84738   0.00018   0.00000   0.00724   0.00760 -17.83978
    Y6        4.79204  -0.00025   0.00000  -0.00503  -0.00314   4.78890
    Z6       25.56681   0.00080   0.00000   0.01323   0.01508  25.58189
    X7      -16.05166  -0.00117   0.00000  -0.00848  -0.00776 -16.05942
    Y7        6.71493  -0.00107   0.00000   0.00587   0.00750   6.72242
    Z7       25.35659   0.00040   0.00000  -0.00053   0.00190  25.35849
    X8      -14.32239  -0.00050   0.00000  -0.02693  -0.02561 -14.34800
    Y8        9.49539   0.00087   0.00000   0.00734   0.00929   9.50468
    Z8       22.95642  -0.00015   0.00000  -0.01768  -0.01445  22.94197
    X9      -20.09389  -0.00057   0.00000  -0.03032  -0.02969 -20.12358
    Y9        4.85381   0.00074   0.00000   0.00355   0.00742   4.86123
    Z9       19.54010  -0.00004   0.00000   0.02254   0.02431  19.56441
   X10      -20.63663  -0.00032   0.00000  -0.01711  -0.01706 -20.65369
   Y10        2.56158   0.00011   0.00000   0.01075   0.01365   2.57523
   Z10       23.58617   0.00011   0.00000   0.03064   0.03179  23.61796
   X11      -18.10420   0.00069   0.00000   0.02859   0.02870 -18.07550
   Y11        3.80275  -0.00057   0.00000  -0.01393  -0.01248   3.79028
   Z11       27.36017  -0.00019   0.00000   0.01105   0.01262  27.37280
   X12      -14.87176   0.00002   0.00000  -0.01119  -0.01045 -14.88220
   Y12        7.20385   0.00037   0.00000   0.02457   0.02555   7.22941
   Z12       26.97927   0.00031   0.00000  -0.00276  -0.00015  26.97912
   X13      -17.12390   0.00853   0.00000   0.04751   0.04889 -17.07501
   Y13        8.82358   0.01105   0.00000  -0.08199  -0.07840   8.74519
   Z13       18.59291  -0.00811   0.00000  -0.05305  -0.05014  18.54277
   X14      -15.82668  -0.00229   0.00000   0.05602   0.05779 -15.76889
   Y14       10.97577  -0.01786   0.00000  -0.11758  -0.11411  10.86166
   Z14       18.15295   0.00065   0.00000  -0.04876  -0.04523  18.10772
   X15      -18.22663  -0.00076   0.00000   0.02233   0.02363 -18.20300
   Y15        8.00995   0.00015   0.00000  -0.06804  -0.06385   7.94611
   Z15       17.04051  -0.00013   0.00000  -0.04232  -0.03966  17.00084
   X16      -15.80485  -0.00114   0.00000   0.02666   0.02867 -15.77619
   Y16       11.80126   0.00159   0.00000  -0.06698  -0.06303  11.73823
   Z16       16.26192   0.00111   0.00000  -0.02584  -0.02209  16.23983
   X17      -14.64169  -0.00199   0.00000   0.00778   0.00965 -14.63204
   Y17       11.88972   0.00053   0.00000  -0.09206  -0.08917  11.80055
   Z17       19.56918  -0.00004   0.00000  -0.02641  -0.02259  19.54659
   X18       -1.84696  -0.00360   0.00000  -0.02172  -0.02233  -1.86929
   Y18       -3.39295   0.00053   0.00000   0.00190   0.00392  -3.38903
   Z18       14.11065   0.00085   0.00000   0.00789   0.00828  14.11893
   X19      -15.86905   0.00362   0.00000   0.01814   0.01768 -15.85136
   Y19       -2.52097  -0.00080   0.00000   0.00925   0.01378  -2.50719
   Z19       14.09931   0.00112   0.00000   0.01198   0.01200  14.11131
   X20      -13.27676   0.00283   0.00000   0.01313   0.01333 -13.26343
   Y20        2.54826  -0.00312   0.00000  -0.01239  -0.00981   2.53845
   Z20       19.78959  -0.00056   0.00000  -0.00296  -0.00151  19.78808
   X21       -4.41078  -0.00254   0.00000  -0.01291  -0.01465  -4.42543
   Y21       -8.30175   0.00244   0.00000   0.01666   0.01761  -8.28414
   Z21       19.94440  -0.00100   0.00000  -0.01022  -0.01123  19.93317
   X22       -6.43670   0.00186   0.00000  -0.00741  -0.00710  -6.44379
   Y22        1.30191   0.01126   0.00000   0.02321   0.02654   1.32845
   Z22       12.23317  -0.01034   0.00000  -0.00347  -0.00204  12.23113
   X23      -11.32156  -0.00255   0.00000   0.00433   0.00310 -11.31846
   Y23       -7.21463  -0.01075   0.00000  -0.00466  -0.00049  -7.21512
   Z23       12.39540  -0.01061   0.00000  -0.00549  -0.00650  12.38889
   X24       -6.82964   0.00701   0.00000   0.01667   0.01664  -6.81300
   Y24        1.64758   0.00909   0.00000   0.00170   0.00265   1.65024
   Z24       21.58333   0.01056   0.00000   0.00748   0.00897  21.59231
   X25      -10.88978  -0.00737   0.00000  -0.01682  -0.01846 -10.90824
   Y25       -7.29529  -0.00771   0.00000   0.00237   0.00403  -7.29126
   Z25       21.69575   0.01076   0.00000   0.00730   0.00628  21.70203
   X26       -4.59390   0.00871   0.00000  -0.00762  -0.00842  -4.60232
   Y26       -4.89846  -0.00803   0.00000  -0.00356  -0.00052  -4.89898
   Z26       12.09967  -0.01138   0.00000  -0.00814  -0.00827  12.09140
   X27      -13.12003  -0.00861   0.00000   0.00031   0.00021 -13.11982
   Y27       -1.00670   0.00850   0.00000   0.02046   0.02504  -0.98166
   Z27       12.04326  -0.01124   0.00000  -0.00785  -0.00731  12.03594
   X28      -12.89127  -0.01235   0.00000  -0.00571  -0.00613 -12.89740
   Y28       -0.46886   0.00314   0.00000  -0.00430  -0.00233  -0.47118
   Z28       21.84451   0.01149   0.00000   0.01144   0.01212  21.85664
   X29       -4.80522   0.01137   0.00000   0.00557   0.00430  -4.80092
   Y29       -5.16302  -0.00206   0.00000   0.00882   0.00932  -5.15371
   Z29       21.92463   0.01131   0.00000   0.00785   0.00764  21.93228
   X30       -5.99089  -0.00063   0.00000   0.01133   0.01214  -5.97875
   Y30        3.53564  -0.00285   0.00000   0.01651   0.02034   3.55598
   Z30       10.00010   0.00357   0.00000   0.00574   0.00776  10.00786
   X31      -11.57375   0.00025   0.00000  -0.01092  -0.01248 -11.58623
   Y31       -9.57947   0.00332   0.00000   0.00350   0.00827  -9.57119
   Z31       10.23888   0.00321   0.00000  -0.00042  -0.00206  10.23682
   X32       -5.08176  -0.00256   0.00000   0.00403   0.00419  -5.07757
   Y32        3.24196  -0.00232   0.00000   0.00706   0.00713   3.24909
   Z32       23.75673  -0.00358   0.00000   0.00049   0.00248  23.75921
   X33      -12.62379   0.00245   0.00000  -0.00327  -0.00528 -12.62907
   Y33       -8.80723   0.00178   0.00000  -0.00559  -0.00421  -8.81144
   Z33       23.93356  -0.00334   0.00000   0.00081  -0.00069  23.93288
   X34       -5.02123  -0.00144   0.00000  -0.01791  -0.01808  -5.03931
   Y34       -1.72955  -0.00062   0.00000   0.00597   0.00949  -1.72006
   Z34       10.55724   0.00350   0.00000   0.01301   0.01370  10.57094
   X35      -12.66797   0.00147   0.00000   0.01089   0.01027 -12.65770
   Y35       -4.28420   0.00012   0.00000   0.01029   0.01515  -4.26905
   Z35       10.62326   0.00353   0.00000   0.01385   0.01354  10.63680
   X36      -10.03934   0.00082   0.00000   0.00964   0.00942 -10.02992
   Y36        1.04274  -0.00150   0.00000  -0.01117  -0.01010   1.03264
   Z36       23.35810  -0.00347   0.00000  -0.00807  -0.00687  23.35123
   X37       -7.65311  -0.00037   0.00000  -0.00721  -0.00881  -7.66192
   Y37       -6.66719   0.00115   0.00000   0.01221   0.01283  -6.65436
   Z37       23.44189  -0.00335   0.00000  -0.01038  -0.01109  23.43080
   X38        0.57994  -0.00458   0.00000   0.00454   0.00438   0.58432
   Y38       -0.01883  -0.00192   0.00000  -0.00780  -0.00712  -0.02595
   Z38       17.54275  -0.00175   0.00000  -0.00474  -0.00337  17.53938
   X39      -18.32096   0.00454   0.00000  -0.00552  -0.00670 -18.32766
   Y39       -5.74754   0.00162   0.00000   0.01290   0.01695  -5.73059
   Z39       17.62997  -0.00163   0.00000  -0.00295  -0.00388  17.62609
   X40      -11.99052   0.00234   0.00000   0.00318   0.00424 -11.98627
   Y40        6.48325  -0.00671   0.00000   0.00492   0.00816   6.49141
   Z40       16.37566   0.00095   0.00000   0.00783   0.01038  16.38604
   X41       -5.68451  -0.00127   0.00000   0.00150  -0.00081  -5.68532
   Y41      -12.26555   0.00494   0.00000   0.00502   0.00709 -12.25846
   Z41       16.52765   0.00139   0.00000   0.00092  -0.00118  16.52647
   X42       -3.37124  -0.00208   0.00000  -0.01269  -0.01244  -3.38368
   Y42        1.42019  -0.00293   0.00000  -0.00374  -0.00145   1.41874
   Z42       14.12357   0.00133   0.00000   0.01229   0.01387  14.13743
   X43      -14.35926   0.00249   0.00000   0.01159   0.01026 -14.34899
   Y43       -7.33960   0.00271   0.00000   0.01408   0.01830  -7.32131
   Z43       14.25389   0.00106   0.00000   0.01038   0.00921  14.26309
   X44       -8.49405  -0.00035   0.00000   0.00628   0.00677  -8.48727
   Y44        4.15406  -0.00381   0.00000  -0.01392  -0.01218   4.14188
   Z44       19.70698  -0.00076   0.00000  -0.00473  -0.00265  19.70433
   X45       -9.21119   0.00101   0.00000  -0.00632  -0.00834  -9.21953
   Y45       -9.88186   0.00343   0.00000   0.01802   0.01985  -9.86201
   Z45       19.89395  -0.00119   0.00000  -0.00979  -0.01141  19.88255
   X46       -3.02559  -0.00283   0.00000  -0.00610  -0.00712  -3.03272
   Y46       -6.69091   0.00372   0.00000   0.01517   0.01849  -6.67242
   Z46        9.94047   0.00320   0.00000  -0.00792  -0.00844   9.93203
   X47      -14.78415   0.00310   0.00000  -0.00276  -0.00249 -14.78664
   Y47        0.52763  -0.00262   0.00000   0.00042   0.00588   0.53351
   Z47        9.79452   0.00320   0.00000  -0.00582  -0.00496   9.78956
   X48      -15.20821   0.00476   0.00000   0.00623   0.00574 -15.20247
   Y48       -0.31853  -0.00025   0.00000   0.00814   0.00995  -0.30858
   Z48       24.06225  -0.00357   0.00000   0.00823   0.00886  24.07110
   X49       -2.46122  -0.00427   0.00000  -0.00629  -0.00769  -2.46891
   Y49       -5.39510   0.00031   0.00000  -0.00395  -0.00444  -5.39954
   Z49       24.10679  -0.00302   0.00000   0.00567   0.00550  24.11229
   X50       -2.36211   0.01517   0.00000   0.00585   0.00555  -2.35656
   Y50       -0.99712   0.00509   0.00000   0.00429   0.00572  -0.99140
   Z50       16.69910   0.00334   0.00000   0.01231   0.01331  16.71241
   X51      -15.37540  -0.01516   0.00000  -0.00765  -0.00863 -15.38403
   Y51       -4.79783  -0.00416   0.00000   0.00453   0.00827  -4.78956
   Z51       16.77032   0.00340   0.00000   0.01392   0.01337  16.78369
   X52      -11.09194  -0.00623   0.00000  -0.00094  -0.00044 -11.09238
   Y52        3.51209   0.01705   0.00000   0.01368   0.01657   3.52866
   Z52       17.09166  -0.00365   0.00000  -0.00808  -0.00627  17.08538
   X53       -6.60237   0.00490   0.00000  -0.00315  -0.00496  -6.60733
   Y53       -9.29047  -0.01513   0.00000  -0.00288  -0.00085  -9.29131
   Z53       17.31897  -0.00295   0.00000  -0.01274  -0.01410  17.30487
   X54       -7.95912  -0.00072   0.00000  -0.00357  -0.00452  -7.96364
   Y54       -5.87789   0.00159   0.00000  -0.00400  -0.00019  -5.87809
   Z54       11.47182   0.00242   0.00000  -0.00756  -0.00808  11.46374
   X55       -9.73985   0.00077   0.00000  -0.00275  -0.00266  -9.74250
   Y55       -0.11438  -0.00170   0.00000   0.02327   0.02743  -0.08696
   Z55       11.36407   0.00232   0.00000  -0.00625  -0.00534  11.35873
   X56      -11.66176   0.00201   0.00000  -0.00954  -0.01058 -11.67234
   Y56       -3.77300  -0.00010   0.00000  -0.00306  -0.00148  -3.77448
   Z56       22.50158  -0.00229   0.00000   0.01056   0.01043  22.51201
   X57       -5.99045  -0.00171   0.00000   0.00989   0.00919  -5.98125
   Y57       -1.86078  -0.00076   0.00000   0.00571   0.00626  -1.85451
   Z57       22.54045  -0.00255   0.00000   0.00759   0.00820  22.54865
   X58       -8.23011   0.00039   0.00000  -0.00265  -0.00215  -8.23225
   Y58        2.98736  -0.00281   0.00000   0.01721   0.02019   3.00755
   Z58       14.79708   0.00138   0.00000  -0.00302  -0.00123  14.79584
   X59       -9.45944   0.00025   0.00000   0.00031  -0.00132  -9.46076
   Y59       -8.84421   0.00241   0.00000  -0.00514  -0.00198  -8.84620
   Z59       14.97009   0.00169   0.00000  -0.00729  -0.00866  14.96144
   X60       -4.39482  -0.00158   0.00000   0.01346   0.01344  -4.38139
   Y60        1.07627  -0.00188   0.00000   0.00300   0.00418   1.08045
   Z60       19.04949  -0.00179   0.00000   0.00814   0.00959  19.05908
   X61      -13.32019   0.00195   0.00000  -0.01379  -0.01523 -13.33542
   Y61       -6.83019   0.00152   0.00000   0.00294   0.00569  -6.82450
   Z61       19.14506  -0.00154   0.00000   0.00895   0.00795  19.15301
   X62       -4.85326  -0.00148   0.00000  -0.00515  -0.00651  -4.85978
   Y62       -7.38533   0.00237   0.00000  -0.00125   0.00111  -7.38422
   Z62       14.86710   0.00105   0.00000  -0.01029  -0.01107  14.85602
   X63      -12.86958   0.00119   0.00000  -0.00074  -0.00050 -12.87008
   Y63        1.50109  -0.00281   0.00000   0.01423   0.01806   1.51915
   Z63       14.74559   0.00064   0.00000  -0.00826  -0.00706  14.73853
   X64      -14.79098   0.00262   0.00000  -0.00590  -0.00652 -14.79750
   Y64       -2.22345  -0.00020   0.00000   0.00118   0.00419  -2.21926
   Z64       19.15855  -0.00108   0.00000   0.01285   0.01299  19.17153
   X65       -2.94946  -0.00252   0.00000   0.00477   0.00392  -2.94554
   Y65       -3.52750  -0.00037   0.00000   0.00415   0.00503  -3.52246
   Z65       19.15945  -0.00093   0.00000   0.00940   0.00970  19.16916
   X66       -6.34281  -0.02813   0.00000  -0.05326  -0.05371  -6.39651
   Y66       -2.18678  -0.00507   0.00000  -0.00136   0.00119  -2.18558
   Z66       15.13070   0.01822   0.00000   0.03158   0.03209  15.16279
   X67      -11.38040   0.02884   0.00000   0.04937   0.04865 -11.33175
   Y67       -3.69899   0.00579   0.00000   0.01540   0.01883  -3.68016
   Z67       15.18153   0.01797   0.00000   0.03174   0.03165  15.21318
   X68       -9.66978   0.01212   0.00000   0.02351   0.02323  -9.64655
   Y68       -0.39034  -0.02704   0.00000  -0.04234  -0.04014  -0.43048
   Z68       18.79141  -0.01810   0.00000  -0.02850  -0.02767  18.76374
   X69       -8.00414  -0.01205   0.00000  -0.02573  -0.02689  -8.03103
   Y69       -5.37684   0.02585   0.00000   0.04749   0.04938  -5.32746
   Z69       18.84834  -0.01832   0.00000  -0.02964  -0.03002  18.81832
   X70       -6.07002   0.00015   0.00000  -0.00297  -0.00491  -6.07493
   Y70      -11.59416  -0.00086   0.00000  -0.00313   0.00055 -11.59361
   Z70       10.66775  -0.00057   0.00000  -0.01036  -0.01230  10.65545
   X71       -0.20335   0.00053   0.00000   0.01046   0.01008  -0.19327
   Y71        0.10341   0.00003   0.00000   0.00171   0.00101   0.10442
   Z71       23.32305   0.00039   0.00000   0.00795   0.00932  23.33237
   X72      -17.55146  -0.00075   0.00000  -0.01117  -0.01254 -17.56400
   Y72       -5.36638  -0.00020   0.00000   0.00230   0.00468  -5.36171
   Z72       23.49831   0.00042   0.00000   0.01030   0.00950  23.50781
   X73       -8.85340  -0.00045   0.00000  -0.00203  -0.00268  -8.85608
   Y73       -2.90614   0.00009   0.00000   0.00450   0.00702  -2.89912
   Z73       16.98458   0.00034   0.00000   0.00194   0.00216  16.98674
         Item               Value     Threshold  Converged?
 Maximum Force            0.028839     0.000450     NO 
 RMS     Force            0.006475     0.000300     NO 
 Maximum Displacement     0.114113     0.001800     NO 
 RMS     Displacement     0.020175     0.001200     NO 
 Predicted change in Energy=-6.628807D-03
 GradGradGradGradGradGradGradGradGradGradGradGradGradGradGradGradGradGrad

 Unable to Open any file for archive entry.
 1\1\GINC-X11P1N2\Force\RwB97XD\def2SVP\C8H8Cl1K3O40V1W12(1-)\MAYUMIAO\
 02-Jun-2024\0\\# def2svp wb97xd scrf=(smd,solvent=acetonitrile) g09def
 ault scf=(xqc,maxcycle=64) force guess=read nosymm\\Title Card\\-1,1\C
 l,-9.7029038,8.27915472,10.55645436\C,-8.33699799,4.24139853,12.218339
 01\C,-9.13318252,3.92913155,11.10043302\C,-10.04287175,2.86034953,11.2
 1339638\C,-10.20323044,2.17731818,12.4143643\C,-9.44442609,2.5358392,1
 3.52937196\C,-8.49417491,3.55338538,13.41813059\H,-7.57908266,5.024742
 42,12.14801365\H,-10.63322957,2.56852695,10.34017542\H,-10.92043671,1.
 35552795,12.48126515\H,-9.5803301,2.01232908,14.47837983\H,-7.86979438
 ,3.81211467,14.27681534\C,-9.06157599,4.66923896,9.838943\C,-8.3751182
 2,5.80812968,9.606128\H,-9.64511489,4.23868517,9.01744802\H,-8.3635685
 1,6.24495727,8.60543979\H,-7.74804925,6.29176838,10.35556162\O,-0.9773
 6867,-1.79547301,7.46703324\O,-8.39753699,-1.33404061,7.46103374\O,-7.
 02575879,1.34848222,10.47219967\O,-2.33408317,-4.39309848,10.55412205\
 W,-3.4061526,0.68894051,6.47351638\W,-5.99111014,-3.81781591,6.5593616
 1\W,-3.61408743,0.87186431,11.42140749\W,-5.76262474,-3.86050199,11.48
 0897\W,-2.43098709,-2.59215417,6.40287042\W,-6.94282292,-0.53272224,6.
 37301681\W,-6.821764,-0.2481077,11.55961888\W,-2.54281248,-2.73215487,
 11.60201467\O,-3.170241,1.87097873,5.29182299\O,-6.12456525,-5.0692359
 4,5.41818425\O,-2.68915398,1.71556894,12.57151969\O,-6.68022023,-4.660
 58312,12.6650965\O,-2.657122,-0.91523667,5.5866512\O,-6.70360174,-2.26
 710146,5.62158678\O,-5.3125921,0.55179504,12.36057505\O,-4.04985171,-3
 .52812551,12.40491504\O,0.30689077,-0.00996459,9.28322254\O,-9.6950323
 9,-3.04146656,9.32937626\O,-6.34510726,3.43078805,8.66562653\O,-3.0081
 145,-6.49065101,8.74605605\O,-1.78398261,0.75153412,7.47387111\O,-7.59
 859078,-3.88395148,7.54283136\O,-4.49485533,2.19823307,10.42848312\O,-
 4.87435174,-5.22925487,10.52742753\O,-1.60107551,-3.5406796,5.26026927
 \O,-7.82343507,0.27920822,5.18303744\O,-8.04783659,-0.16855836,12.7331
 9251\O,-1.30242382,-2.85496392,12.75676617\W,-1.24997578,-0.5276538,8.
 83678461\W,-8.13631154,-2.53890189,8.87447368\W,-5.86960027,1.85851837
 ,9.04451524\W,-3.49382134,-4.91630338,9.1648051\O,-4.21178708,-3.11044
 623,6.07062512\O,-5.15410461,-0.06052845,6.01360608\O,-6.17113899,-1.9
 9658401,11.90732503\O,-3.17000793,-0.98467989,11.92789287\O,-4.3551849
 4,1.58084321,7.83027522\O,-5.00572074,-4.68015668,7.92183276\O,-2.3256
 4051,0.56953709,10.08055611\O,-7.04874086,-3.61438196,10.13113125\O,-2
 .5682362,-3.90814666,7.86732942\O,-6.81028735,0.79434167,7.80303134\O,
 -7.82704831,-1.17659784,10.13826679\O,-1.56078567,-1.86667229,10.13874
 613\O,-3.35646883,-1.15719219,8.00682089\O,-6.02224824,-1.95741983,8.0
 3372202\O,-5.11702612,-0.20655837,9.94398469\O,-4.23560777,-2.84530208
 ,9.97411176\K,-3.21211676,-6.13536526,5.64513076\K,-0.10761043,0.05472
 316,12.34202667\K,-9.28783147,-2.83976659,12.43476972\V,-4.6850168,-1.
 53786388,8.98785201\\Version=ES64L-G16RevC.01\HF=-7327.7016369\RMSD=9.
 450e-09\RMSF=6.475e-03\Dipole=10.1853574,-22.051447,2.4854434\Quadrupo
 le=-71.8066057,43.5088264,28.2977793,336.8170361,337.5694335,-358.0690
 492\PG=C01 [X(C8H8Cl1K3O40V1W12)]\\@
 The archive entry for this job was punched.


 THIS CURIOUS WORLD WHICH WE INHABIT IS MORE WONDERFUL THAN IT IS CONVENIENT;
 MORE BEAUTIFUL THAN IT IS USEFUL;
 IT IS MORE TO BE ADMIRED THAN IT IS TO BE USED.

                                                                 -- THOREAU
 Job cpu time:       0 days  8 hours 48 minutes 25.9 seconds.
 Elapsed time:       0 days  0 hours  9 minutes 59.5 seconds.
 File lengths (MBytes):  RWF=   1257 Int=      0 D2E=      0 Chk=    249 Scr=      1
 Normal termination of Gaussian 16 at Sun Jun  2 13:43:36 2024.
