 Entering Gaussian System, Link 0=g16
 Input=JOBS/45_A.gjf
 Output=JOBS/45_A.log
 Initial command:
 /data/app/gaussian/C01-avx2//g16/l1.exe "/tmp/Gau-665078.inp" -scrdir="/tmp/"
 Entering Link 1 = /data/app/gaussian/C01-avx2//g16/l1.exe PID=    665079.
  
 Copyright (c) 1988-2019, Gaussian, Inc.  All Rights Reserved.
  
 This is part of the Gaussian(R) 16 program.  It is based on
 the Gaussian(R) 09 system (copyright 2009, Gaussian, Inc.),
 the Gaussian(R) 03 system (copyright 2003, Gaussian, Inc.),
 the Gaussian(R) 98 system (copyright 1998, Gaussian, Inc.),
 the Gaussian(R) 94 system (copyright 1995, Gaussian, Inc.),
 the Gaussian 92(TM) system (copyright 1992, Gaussian, Inc.),
 the Gaussian 90(TM) system (copyright 1990, Gaussian, Inc.),
 the Gaussian 88(TM) system (copyright 1988, Gaussian, Inc.),
 the Gaussian 86(TM) system (copyright 1986, Carnegie Mellon
 University), and the Gaussian 82(TM) system (copyright 1983,
 Carnegie Mellon University). Gaussian is a federally registered
 trademark of Gaussian, Inc.
  
 This software contains proprietary and confidential information,
 including trade secrets, belonging to Gaussian, Inc.
  
 This software is provided under written license and may be
 used, copied, transmitted, or stored only in accord with that
 written license.
  
 The following legend is applicable only to US Government
 contracts under FAR:
  
                    RESTRICTED RIGHTS LEGEND
  
 Use, reproduction and disclosure by the US Government is
 subject to restrictions as set forth in subparagraphs (a)
 and (c) of the Commercial Computer Software - Restricted
 Rights clause in FAR 52.227-19.
  
 Gaussian, Inc.
 340 Quinnipiac St., Bldg. 40, Wallingford CT 06492
  
  
 ---------------------------------------------------------------
 Warning -- This program may not be used in any manner that
 competes with the business of Gaussian, Inc. or will provide
 assistance to any competitor of Gaussian, Inc.  The licensee
 of this program is prohibited from giving any competitor of
 Gaussian, Inc. access to this program.  By using this program,
 the user acknowledges that Gaussian, Inc. is engaged in the
 business of creating and licensing software in the field of
 computational chemistry and represents and warrants to the
 licensee that it is not a competitor of Gaussian, Inc. and that
 it will not use this program in any manner prohibited above.
 ---------------------------------------------------------------
  

 Cite this work as:
 Gaussian 16, Revision C.01,
 M. J. Frisch, G. W. Trucks, H. B. Schlegel, G. E. Scuseria, 
 M. A. Robb, J. R. Cheeseman, G. Scalmani, V. Barone, 
 G. A. Petersson, H. Nakatsuji, X. Li, M. Caricato, A. V. Marenich, 
 J. Bloino, B. G. Janesko, R. Gomperts, B. Mennucci, H. P. Hratchian, 
 J. V. Ortiz, A. F. Izmaylov, J. L. Sonnenberg, D. Williams-Young, 
 F. Ding, F. Lipparini, F. Egidi, J. Goings, B. Peng, A. Petrone, 
 T. Henderson, D. Ranasinghe, V. G. Zakrzewski, J. Gao, N. Rega, 
 G. Zheng, W. Liang, M. Hada, M. Ehara, K. Toyota, R. Fukuda, 
 J. Hasegawa, M. Ishida, T. Nakajima, Y. Honda, O. Kitao, H. Nakai, 
 T. Vreven, K. Throssell, J. A. Montgomery, Jr., J. E. Peralta, 
 F. Ogliaro, M. J. Bearpark, J. J. Heyd, E. N. Brothers, K. N. Kudin, 
 V. N. Staroverov, T. A. Keith, R. Kobayashi, J. Normand, 
 K. Raghavachari, A. P. Rendell, J. C. Burant, S. S. Iyengar, 
 J. Tomasi, M. Cossi, J. M. Millam, M. Klene, C. Adamo, R. Cammi, 
 J. W. Ochterski, R. L. Martin, K. Morokuma, O. Farkas, 
 J. B. Foresman, and D. J. Fox, Gaussian, Inc., Wallingford CT, 2019.
 
 ******************************************
 Gaussian 16:  ES64L-G16RevC.01  3-Jul-2019
                 2-Jun-2024 
 ******************************************
 %chk=a.chk
 %nprocshared=56
 Will use up to   56 processors via shared memory.
 %mem=96gb
 ----------------------------------------------------------------------
 # def2svp wb97xd scrf=(smd,solvent=acetonitrile) g09default scf=(xqc,m
 axcycle=64) force guess=read nosymm
 ----------------------------------------------------------------------
 1/10=7,30=1,38=1,158=3,167=1/1,3;
 2/12=2,15=1,17=6,18=5,40=1/2;
 3/5=43,7=101,11=2,25=1,27=10,30=1,70=32201,71=1,72=2,74=-58,75=-4,116=-2,158=3/1,2,3;
 4/5=1,60=-1/1;
 5/5=2,7=64,8=3,13=1,38=6,53=2,87=10/2,8;
 6/7=2,8=2,9=2,10=2,28=1,87=10/1;
 7/29=1,30=1,87=10/1,2,3,16;
 1/10=7,30=1,158=3,167=1/3;
 99//99;
 Using 2006 physical constants.
 ----------
 Title Card
 ----------
 Symbolic Z-matrix:
 Charge = -1 Multiplicity = 1
 17                   -9.68675   8.28094   10.55484 
 6                    -8.3386    4.24293   12.21761 
 6                    -9.13517   3.93      11.10015 
 6                    -10.04488   2.86143   11.21393 
 6                    -10.20373   2.17784   12.4148 
 6                    -9.44327   2.53586   13.52898 
 6                    -8.49416   3.55438   13.4172 
 1                    -7.58193   5.02765   12.14707 
 1                    -10.63732   2.57119   10.34168 
 1                    -10.92142   1.35667   12.48226 
 1                    -9.57782   2.01175   14.4778 
 1                    -7.86978   3.81373   14.27587 
 6                    -9.06633   4.67062   9.83875 
 6                    -8.38639   5.81382   9.60867 
 1                    -9.64805   4.23824   9.01695 
 1                    -8.38018   6.25629   8.61046 
 1                    -7.76215   6.29849   10.35953 
 8                    -0.97651  -1.79725   7.46712 
 8                    -8.39575  -1.33379   7.46123 
 8                    -7.0243    1.34843   10.47209 
 8                    -2.33414  -4.39475   10.55432 
 74                   -3.40505   0.68857   6.47384 
 74                   -5.99031  -3.81799   6.55869 
 74                   -3.61315   0.87045   11.42072 
 74                   -5.76207  -3.86128   11.4816 
 74                   -2.42996  -2.59289   6.40328 
 74                   -6.94181  -0.53283   6.37288 
 74                   -6.82064  -0.24848   11.55942 
 74                   -2.5424   -2.73423   11.60175 
 8                    -3.16975   1.86998   5.29138 
 8                    -6.12339  -5.06941   5.41743 
 8                    -2.68693   1.71316   12.57036 
 8                    -6.68074  -4.66085   12.66546 
 8                    -2.65677  -0.9163    5.58734 
 8                    -6.70258  -2.26723   5.62125 
 8                    -5.31129   0.55118   12.36029 
 8                    -4.04963  -3.52944   12.40559 
 8                     0.30831  -0.01173   9.2826 
 8                    -9.69373  -3.04218   9.32918 
 8                    -6.344     3.43096   8.66488 
 8                    -3.00964  -6.49203   8.74492 
 8                    -1.78281   0.7499    7.47364 
 8                    -7.59795  -3.88379   7.54216 
 8                    -4.49339   2.19705   10.42785 
 8                    -4.87406  -5.23032   10.52836 
 8                    -1.60032  -3.54051   5.26001 
 8                    -7.82129   0.27986   5.18253 
 8                    -8.04621  -0.16879   12.73342 
 8                    -1.30237  -2.85613   12.75708 
 74                   -1.24884  -0.52934   8.83702 
 74                   -8.13482  -2.53952   8.87441 
 74                   -5.86893   1.85879   9.04397 
 74                   -3.49447  -4.91765   9.16457 
 8                    -4.21119  -3.1113    6.0715 
 8                    -5.1528   -0.06162   6.01471 
 8                    -6.1702   -1.99704   11.90715 
 8                    -3.17054  -0.98669   11.92602 
 8                    -4.35401   1.58058   7.83031 
 8                    -5.00613  -4.68071   7.9224 
 8                    -2.32453   0.56763   10.07983 
 8                    -7.04739  -3.61465   10.13072 
 8                    -2.56817  -3.90916   7.8679 
 8                    -6.80939   0.79476   7.80275 
 8                    -7.82596  -1.17684   10.13828 
 8                    -1.55938  -1.86849   10.13881 
 8                    -3.35554  -1.15819   8.00789 
 8                    -6.02075  -1.95809   8.03377 
 8                    -5.11632  -0.20762   9.94362 
 8                    -4.23539  -2.84659   9.97431 
 19                   -3.21204  -6.1346    5.6455 
 19                   -0.10854   0.05334   12.33945 
 19                   -9.2868   -2.83552   12.4335 
 23                   -4.68413  -1.53908   8.98824 
 

 GradGradGradGradGradGradGradGradGradGradGradGradGradGradGradGradGradGrad
 Berny optimization.
 Initialization pass.
 Trust Radius=3.00D-01 FncErr=1.00D-07 GrdErr=1.00D-07 EigMax=2.50D+02 EigMin=1.00D-04
 Number of steps in this run=      2 maximum allowed number of steps=      2.
 GradGradGradGradGradGradGradGradGradGradGradGradGradGradGradGradGradGrad

 Symmetry turned off by external request.
 Stoichiometry    C8H8ClK3O40VW12(1-)
 Framework group  C1[X(C8H8ClK3O40VW12)]
 Deg. of freedom   213
 Full point group                 C1      NOp   1
                          Input orientation:                          
 ---------------------------------------------------------------------
 Center     Atomic      Atomic             Coordinates (Angstroms)
 Number     Number       Type             X           Y           Z
 ---------------------------------------------------------------------
      1         17           0       -9.686752    8.280935   10.554842
      2          6           0       -8.338601    4.242925   12.217614
      3          6           0       -9.135168    3.930004   11.100146
      4          6           0      -10.044880    2.861428   11.213931
      5          6           0      -10.203725    2.177836   12.414801
      6          6           0       -9.443275    2.535861   13.528984
      7          6           0       -8.494156    3.554383   13.417203
      8          1           0       -7.581933    5.027651   12.147072
      9          1           0      -10.637323    2.571191   10.341676
     10          1           0      -10.921421    1.356673   12.482260
     11          1           0       -9.577817    2.011751   14.477798
     12          1           0       -7.869782    3.813728   14.275867
     13          6           0       -9.066335    4.670617    9.838753
     14          6           0       -8.386388    5.813824    9.608671
     15          1           0       -9.648048    4.238242    9.016954
     16          1           0       -8.380176    6.256288    8.610463
     17          1           0       -7.762149    6.298489   10.359528
     18          8           0       -0.976506   -1.797250    7.467119
     19          8           0       -8.395747   -1.333788    7.461228
     20          8           0       -7.024302    1.348427   10.472092
     21          8           0       -2.334141   -4.394746   10.554321
     22         74           0       -3.405053    0.688574    6.473845
     23         74           0       -5.990305   -3.817986    6.558695
     24         74           0       -3.613146    0.870449   11.420724
     25         74           0       -5.762068   -3.861285   11.481605
     26         74           0       -2.429961   -2.592887    6.403280
     27         74           0       -6.941811   -0.532833    6.372884
     28         74           0       -6.820637   -0.248478   11.559417
     29         74           0       -2.542399   -2.734234   11.601752
     30          8           0       -3.169749    1.869976    5.291376
     31          8           0       -6.123389   -5.069413    5.417428
     32          8           0       -2.686927    1.713164   12.570362
     33          8           0       -6.680745   -4.660847   12.665460
     34          8           0       -2.656771   -0.916299    5.587339
     35          8           0       -6.702580   -2.267229    5.621248
     36          8           0       -5.311285    0.551183   12.360292
     37          8           0       -4.049631   -3.529442   12.405591
     38          8           0        0.308311   -0.011733    9.282599
     39          8           0       -9.693731   -3.042184    9.329177
     40          8           0       -6.344002    3.430958    8.664878
     41          8           0       -3.009637   -6.492027    8.744919
     42          8           0       -1.782810    0.749904    7.473636
     43          8           0       -7.597949   -3.883789    7.542164
     44          8           0       -4.493385    2.197050   10.427855
     45          8           0       -4.874058   -5.230316   10.528364
     46          8           0       -1.600316   -3.540511    5.260012
     47          8           0       -7.821289    0.279864    5.182526
     48          8           0       -8.046210   -0.168787   12.733420
     49          8           0       -1.302373   -2.856125   12.757085
     50         74           0       -1.248838   -0.529344    8.837024
     51         74           0       -8.134822   -2.539518    8.874407
     52         74           0       -5.868927    1.858785    9.043974
     53         74           0       -3.494473   -4.917651    9.164569
     54          8           0       -4.211192   -3.111305    6.071505
     55          8           0       -5.152798   -0.061618    6.014707
     56          8           0       -6.170195   -1.997040   11.907148
     57          8           0       -3.170539   -0.986694   11.926019
     58          8           0       -4.354014    1.580581    7.830311
     59          8           0       -5.006128   -4.680711    7.922401
     60          8           0       -2.324529    0.567629   10.079826
     61          8           0       -7.047387   -3.614647   10.130725
     62          8           0       -2.568166   -3.909161    7.867900
     63          8           0       -6.809390    0.794763    7.802755
     64          8           0       -7.825961   -1.176840   10.138278
     65          8           0       -1.559376   -1.868487   10.138805
     66          8           0       -3.355540   -1.158195    8.007894
     67          8           0       -6.020753   -1.958087    8.033770
     68          8           0       -5.116324   -0.207619    9.943618
     69          8           0       -4.235394   -2.846589    9.974305
     70         19           0       -3.212039   -6.134595    5.645497
     71         19           0       -0.108537    0.053342   12.339451
     72         19           0       -9.286796   -2.835516   12.433496
     73         23           0       -4.684130   -1.539081    8.988239
 ---------------------------------------------------------------------
 Rotational constants (GHZ):           0.0172124           0.0132187           0.0129931
 Standard basis: def2SVP (5D, 7F)
  1217 basis functions,  2313 primitive gaussians,  1337 cartesian basis functions
   321 alpha electrons      321 beta electrons
       nuclear repulsion energy     20973.3556668502 Hartrees.
 NAtoms=   73 NActive=   73 NUniq=   73 SFac= 1.00D+00 NAtFMM=   60 NAOKFM=T Big=T
 Integral buffers will be    131072 words long.
 Raffenetti 2 integral format.
 Two-electron integral symmetry is turned off.
 Nuclear repulsion after empirical dispersion term =    20973.0791374501 Hartrees.
 Force PCM accuracy= 1.00D-10.
 ------------------------------------------------------------------------------
 Polarizable Continuum Model (PCM)
 =================================
 Model                : PCM (using non-symmetric T matrix).
 Atomic radii         : SMD-Coulomb.
 Polarization charges : Total charges.
 Charge compensation  : None.
 Solution method      : On-the-fly selection.
 Cavity type          : VdW (van der Waals Surface) (Alpha=1.000).
 Cavity algorithm     : GePol (No added spheres)
                        Default sphere list used, NSphG=   73.
                        Lebedev-Laikov grids with approx.  5.0 points / Ang**2.
                        Smoothing algorithm: York/Karplus (Gamma=1.0000).
                        Polarization charges: spherical gaussians, with
                                              point-specific exponents (IZeta= 3).
                        Self-potential: point-specific (ISelfS= 7).
                        Self-field    : sphere-specific E.n sum rule (ISelfD= 2).
 1st derivatives      : Analytical E(r).r(x)/FMM algorithm (CHGder, D1EAlg=3).
                        Cavity 1st derivative terms included.
 Solvent              : Acetonitrile, Eps=  35.688000 Eps(inf)=   1.806874
 ------------------------------------------------------------------------------
 ------------------------------------------------------------------------------
 Atomic radii for non-electrostatic terms: SMD-CDS.
 ------------------------------------------------------------------------------
 Nuclear repulsion after PCM non-electrostatic terms =    20973.0734133622 Hartrees.
 One-electron integrals computed using PRISM.
   1 Symmetry operations used in ECPInt.
 ECPInt:  NShTT=  127765 NPrTT=  468030 LenC2=   96549 LenP2D=  220906.
 LDataN:  DoStor=T MaxTD1= 8 Len=  415
 NBasis=  1217 RedAO= T EigKep=  1.38D-04  NBF=  1217
 NBsUse=  1217 1.00D-06 EigRej= -1.00D+00 NBFU=  1217
 Defaulting to unpruned grid for atomic number  74.
 Defaulting to unpruned grid for atomic number  74.
 Defaulting to unpruned grid for atomic number  74.
 Defaulting to unpruned grid for atomic number  74.
 Defaulting to unpruned grid for atomic number  74.
 Defaulting to unpruned grid for atomic number  74.
 Defaulting to unpruned grid for atomic number  74.
 Defaulting to unpruned grid for atomic number  74.
 Initial guess from the checkpoint file:  "a.chk"
 B after Tr=     0.001551   -0.001837    0.000114
         Rot=    1.000000   -0.000002    0.000012    0.000070 Ang=  -0.01 deg.
 Requested convergence on RMS density matrix=1.00D-08 within  64 cycles.
 Requested convergence on MAX density matrix=1.00D-06.
 Requested convergence on             energy=1.00D-06.
 No special actions if energy rises.
 Defaulting to unpruned grid for atomic number  74.
 Defaulting to unpruned grid for atomic number  74.
 Defaulting to unpruned grid for atomic number  74.
 Defaulting to unpruned grid for atomic number  74.
 Defaulting to unpruned grid for atomic number  74.
 Defaulting to unpruned grid for atomic number  74.
 Defaulting to unpruned grid for atomic number  74.
 Defaulting to unpruned grid for atomic number  74.
 Defaulting to unpruned grid for atomic number  74.
 Defaulting to unpruned grid for atomic number  74.
 Defaulting to unpruned grid for atomic number  74.
 Defaulting to unpruned grid for atomic number  74.
 Defaulting to unpruned grid for atomic number  74.
 Defaulting to unpruned grid for atomic number  74.
 Defaulting to unpruned grid for atomic number  74.
 Defaulting to unpruned grid for atomic number  74.
 Defaulting to unpruned grid for atomic number  74.
 Defaulting to unpruned grid for atomic number  74.
 Defaulting to unpruned grid for atomic number  74.
 Defaulting to unpruned grid for atomic number  74.
 Defaulting to unpruned grid for atomic number  74.
 Defaulting to unpruned grid for atomic number  74.
 Defaulting to unpruned grid for atomic number  74.
 Defaulting to unpruned grid for atomic number  74.
 Defaulting to unpruned grid for atomic number  74.
 Defaulting to unpruned grid for atomic number  74.
 Defaulting to unpruned grid for atomic number  74.
 Defaulting to unpruned grid for atomic number  74.
 Defaulting to unpruned grid for atomic number  74.
 Defaulting to unpruned grid for atomic number  74.
 Defaulting to unpruned grid for atomic number  74.
 Defaulting to unpruned grid for atomic number  74.
 Defaulting to unpruned grid for atomic number  74.
 Defaulting to unpruned grid for atomic number  74.
 Defaulting to unpruned grid for atomic number  74.
 Defaulting to unpruned grid for atomic number  74.
 Defaulting to unpruned grid for atomic number  74.
 Defaulting to unpruned grid for atomic number  74.
 Defaulting to unpruned grid for atomic number  74.
 Defaulting to unpruned grid for atomic number  74.
 Defaulting to unpruned grid for atomic number  74.
 Defaulting to unpruned grid for atomic number  74.
 Defaulting to unpruned grid for atomic number  74.
 Defaulting to unpruned grid for atomic number  74.
 Defaulting to unpruned grid for atomic number  74.
 Defaulting to unpruned grid for atomic number  74.
 Defaulting to unpruned grid for atomic number  74.
 Defaulting to unpruned grid for atomic number  74.
 Defaulting to unpruned grid for atomic number  74.
 Defaulting to unpruned grid for atomic number  74.
 Defaulting to unpruned grid for atomic number  74.
 Defaulting to unpruned grid for atomic number  74.
 Defaulting to unpruned grid for atomic number  74.
 Defaulting to unpruned grid for atomic number  74.
 Defaulting to unpruned grid for atomic number  74.
 Defaulting to unpruned grid for atomic number  74.
 Inv3:  Mode=1 IEnd=    87447603.
 Iteration    1 A*A^-1 deviation from unit magnitude is 3.33D-15 for    966.
 Iteration    1 A*A^-1 deviation from orthogonality  is 3.43D-15 for    967    356.
 Iteration    1 A^-1*A deviation from unit magnitude is 3.22D-15 for   3781.
 Iteration    1 A^-1*A deviation from orthogonality  is 7.45D-09 for   3511   3219.
 Iteration    2 A*A^-1 deviation from unit magnitude is 4.44D-15 for    899.
 Iteration    2 A*A^-1 deviation from orthogonality  is 4.86D-15 for    877    751.
 Iteration    2 A^-1*A deviation from unit magnitude is 1.11D-15 for    934.
 Iteration    2 A^-1*A deviation from orthogonality  is 6.72D-16 for   4147   4133.
 Error on total polarization charges =  0.01610
 SCF Done:  E(RwB97XD) =  -7327.70167843     A.U. after   10 cycles
            NFock= 10  Conv=0.69D-08     -V/T= 2.0832
 SMD-CDS (non-electrostatic) energy       (kcal/mol) =      -3.59
 (included in total energy above)
 QCSCF skips out because SCF is already converged.

 **********************************************************************

            Population analysis using the SCF Density.

 **********************************************************************

 Alpha  occ. eigenvalues -- -197.29608-130.00109-130.00079-129.99977-101.48213
 Alpha  occ. eigenvalues --  -22.62715 -19.33693 -19.33688 -19.33684 -19.33660
 Alpha  occ. eigenvalues --  -19.30728 -19.30684 -19.30683 -19.30677 -19.30671
 Alpha  occ. eigenvalues --  -19.30668 -19.30661 -19.30626 -19.30545 -19.30379
 Alpha  occ. eigenvalues --  -19.30346 -19.30180 -19.29322 -19.29306 -19.29306
 Alpha  occ. eigenvalues --  -19.29284 -19.29271 -19.29255 -19.29223 -19.29195
 Alpha  occ. eigenvalues --  -19.29183 -19.29171 -19.29163 -19.29148 -19.29130
 Alpha  occ. eigenvalues --  -19.29099 -19.29092 -19.29070 -19.29069 -19.29059
 Alpha  occ. eigenvalues --  -19.29050 -19.28995 -19.28979 -19.28964 -19.28919
 Alpha  occ. eigenvalues --  -19.28848 -19.11674 -19.11666 -19.11656 -13.37515
 Alpha  occ. eigenvalues --  -13.37483 -13.37376 -10.70444 -10.70437 -10.70436
 Alpha  occ. eigenvalues --  -10.70413 -10.70406 -10.70405 -10.70306 -10.70300
 Alpha  occ. eigenvalues --  -10.70294 -10.29893 -10.29354 -10.29299 -10.29089
 Alpha  occ. eigenvalues --  -10.29005 -10.29003 -10.28163 -10.27651  -9.38681
 Alpha  occ. eigenvalues --   -7.13506  -7.13461  -7.13453  -3.23321  -3.23317
 Alpha  occ. eigenvalues --   -3.23309  -3.23297  -3.23296  -3.23282  -3.23270
 Alpha  occ. eigenvalues --   -3.23258  -3.23225  -3.22988  -3.22981  -3.22794
 Alpha  occ. eigenvalues --   -2.91913  -1.94282  -1.94247  -1.94237  -1.87722
 Alpha  occ. eigenvalues --   -1.87674  -1.87660  -1.87630  -1.87488  -1.87473
 Alpha  occ. eigenvalues --   -1.87467  -1.87452  -1.87425  -1.87288  -1.87256
 Alpha  occ. eigenvalues --   -1.87102  -1.86628  -1.86510  -1.86502  -1.86485
 Alpha  occ. eigenvalues --   -1.86460  -1.86438  -1.86346  -1.86336  -1.86318
 Alpha  occ. eigenvalues --   -1.86299  -1.86294  -1.86263  -1.86149  -1.86137
 Alpha  occ. eigenvalues --   -1.86128  -1.86118  -1.86048  -1.86031  -1.85994
 Alpha  occ. eigenvalues --   -1.85929  -1.85912  -1.85813  -1.85721  -1.85673
 Alpha  occ. eigenvalues --   -1.51200  -1.51174  -1.51072  -1.13093  -1.11327
 Alpha  occ. eigenvalues --   -1.11249  -1.11241  -1.08975  -1.08535  -1.08492
 Alpha  occ. eigenvalues --   -1.08308  -1.07573  -1.07519  -1.07505  -1.06899
 Alpha  occ. eigenvalues --   -1.06885  -1.06868  -1.06325  -1.06309  -1.05309
 Alpha  occ. eigenvalues --   -1.05298  -1.04976  -1.04970  -1.04964  -1.04188
 Alpha  occ. eigenvalues --   -1.04180  -1.04167  -1.04022  -1.04004  -1.03991
 Alpha  occ. eigenvalues --   -1.03935  -1.03908  -1.03892  -1.03760  -1.03729
 Alpha  occ. eigenvalues --   -1.03613  -1.03547  -1.03306  -1.03261  -1.03112
 Alpha  occ. eigenvalues --   -1.03098  -1.03020  -1.02957  -0.94386  -0.86666
 Alpha  occ. eigenvalues --   -0.86641  -0.86548  -0.86514  -0.86477  -0.86461
 Alpha  occ. eigenvalues --   -0.86449  -0.86445  -0.86361  -0.86323  -0.82821
 Alpha  occ. eigenvalues --   -0.79797  -0.71427  -0.69709  -0.68035  -0.64613
 Alpha  occ. eigenvalues --   -0.63985  -0.63915  -0.63907  -0.63342  -0.63322
 Alpha  occ. eigenvalues --   -0.63188  -0.62984  -0.62705  -0.62610  -0.62028
 Alpha  occ. eigenvalues --   -0.61630  -0.61620  -0.61524  -0.61254  -0.61240
 Alpha  occ. eigenvalues --   -0.61172  -0.60410  -0.59492  -0.59478  -0.59460
 Alpha  occ. eigenvalues --   -0.59425  -0.59376  -0.58596  -0.57996  -0.57972
 Alpha  occ. eigenvalues --   -0.57878  -0.57089  -0.57046  -0.57017  -0.56301
 Alpha  occ. eigenvalues --   -0.56278  -0.56118  -0.55700  -0.54860  -0.54804
 Alpha  occ. eigenvalues --   -0.54769  -0.54543  -0.54240  -0.54109  -0.54087
 Alpha  occ. eigenvalues --   -0.54015  -0.53957  -0.53230  -0.53191  -0.53061
 Alpha  occ. eigenvalues --   -0.53027  -0.52902  -0.52695  -0.52658  -0.52633
 Alpha  occ. eigenvalues --   -0.52579  -0.52522  -0.52464  -0.52460  -0.51603
 Alpha  occ. eigenvalues --   -0.51578  -0.51337  -0.51312  -0.51271  -0.51230
 Alpha  occ. eigenvalues --   -0.51176  -0.51168  -0.50950  -0.50755  -0.50575
 Alpha  occ. eigenvalues --   -0.50557  -0.50551  -0.49872  -0.49851  -0.49299
 Alpha  occ. eigenvalues --   -0.49287  -0.49255  -0.49219  -0.49161  -0.49069
 Alpha  occ. eigenvalues --   -0.48899  -0.48085  -0.48032  -0.47931  -0.47728
 Alpha  occ. eigenvalues --   -0.47385  -0.47285  -0.47243  -0.46999  -0.46924
 Alpha  occ. eigenvalues --   -0.46814  -0.46555  -0.46486  -0.46468  -0.46200
 Alpha  occ. eigenvalues --   -0.46147  -0.46110  -0.45605  -0.45097  -0.44917
 Alpha  occ. eigenvalues --   -0.44875  -0.44209  -0.44148  -0.44037  -0.43541
 Alpha  occ. eigenvalues --   -0.43273  -0.43221  -0.43111  -0.43094  -0.43060
 Alpha  occ. eigenvalues --   -0.42698  -0.42674  -0.42652  -0.42586  -0.42578
 Alpha  occ. eigenvalues --   -0.42495  -0.42454  -0.42437  -0.42278  -0.42261
 Alpha  occ. eigenvalues --   -0.42243  -0.42019  -0.41907  -0.41849  -0.41829
 Alpha  occ. eigenvalues --   -0.41190  -0.41150  -0.41136  -0.41009  -0.40543
 Alpha  occ. eigenvalues --   -0.40512  -0.40493  -0.40398  -0.39444  -0.39426
 Alpha  occ. eigenvalues --   -0.36983  -0.32549  -0.29118  -0.25007  -0.24985
 Alpha  occ. eigenvalues --   -0.23588
 Alpha virt. eigenvalues --   -0.09595  -0.09360  -0.08549  -0.08482  -0.07077
 Alpha virt. eigenvalues --   -0.07047  -0.06935  -0.04604  -0.04246  -0.04201
 Alpha virt. eigenvalues --   -0.03732  -0.03520  -0.03470  -0.03266  -0.03162
 Alpha virt. eigenvalues --   -0.03120  -0.03091  -0.02233  -0.02182  -0.02146
 Alpha virt. eigenvalues --   -0.01531  -0.01515  -0.01472  -0.01317  -0.01264
 Alpha virt. eigenvalues --   -0.00111  -0.00103  -0.00037   0.01392   0.01441
 Alpha virt. eigenvalues --    0.01895   0.01922   0.02014   0.02115   0.02153
 Alpha virt. eigenvalues --    0.02182   0.02238   0.02283   0.02758   0.02823
 Alpha virt. eigenvalues --    0.02887   0.02962   0.02997   0.04306   0.04508
 Alpha virt. eigenvalues --    0.06747   0.07259   0.07519   0.07535   0.07792
 Alpha virt. eigenvalues --    0.08015   0.08472   0.08530   0.08785   0.09156
 Alpha virt. eigenvalues --    0.09342   0.09383   0.09663   0.09890   0.10268
 Alpha virt. eigenvalues --    0.10330   0.10384   0.10444   0.10478   0.10646
 Alpha virt. eigenvalues --    0.10890   0.11043   0.11057   0.11637   0.11722
 Alpha virt. eigenvalues --    0.12212   0.13110   0.13232   0.13316   0.13582
 Alpha virt. eigenvalues --    0.13743   0.14413   0.14540   0.14671   0.14979
 Alpha virt. eigenvalues --    0.15555   0.16148   0.16335   0.16568   0.16752
 Alpha virt. eigenvalues --    0.16769   0.16893   0.17085   0.17249   0.17702
 Alpha virt. eigenvalues --    0.17900   0.18162   0.18224   0.18363   0.18574
 Alpha virt. eigenvalues --    0.18751   0.19065   0.19315   0.19417   0.19565
 Alpha virt. eigenvalues --    0.19661   0.20195   0.20273   0.20503   0.20584
 Alpha virt. eigenvalues --    0.20759   0.20882   0.20979   0.21373   0.21423
 Alpha virt. eigenvalues --    0.21538   0.21627   0.21734   0.21873   0.22024
 Alpha virt. eigenvalues --    0.22427   0.22731   0.22918   0.23127   0.23220
 Alpha virt. eigenvalues --    0.23475   0.23802   0.23990   0.24281   0.24579
 Alpha virt. eigenvalues --    0.24731   0.25212   0.25419   0.25640   0.25851
 Alpha virt. eigenvalues --    0.26008   0.26212   0.26410   0.26608   0.26644
 Alpha virt. eigenvalues --    0.26969   0.27210   0.27336   0.27440   0.27743
 Alpha virt. eigenvalues --    0.28006   0.28273   0.28333   0.28685   0.28736
 Alpha virt. eigenvalues --    0.29181   0.29452   0.29877   0.30172   0.30491
 Alpha virt. eigenvalues --    0.30695   0.30894   0.31254   0.31502   0.31835
 Alpha virt. eigenvalues --    0.32294   0.34724   0.35195   0.35748   0.36294
 Alpha virt. eigenvalues --    0.36663   0.36903   0.37227   0.38092   0.38360
 Alpha virt. eigenvalues --    0.38624   0.39174   0.39519   0.39610   0.40212
 Alpha virt. eigenvalues --    0.40693   0.40838   0.40976   0.41103   0.41734
 Alpha virt. eigenvalues --    0.42128   0.42449   0.42803   0.43292   0.43552
 Alpha virt. eigenvalues --    0.43719   0.44527   0.44782   0.44904   0.45275
 Alpha virt. eigenvalues --    0.45780   0.46333   0.46524   0.46703   0.47321
 Alpha virt. eigenvalues --    0.47412   0.47645   0.47874   0.48078   0.48223
 Alpha virt. eigenvalues --    0.48423   0.48454   0.48587   0.48701   0.48994
 Alpha virt. eigenvalues --    0.49147   0.49411   0.49456   0.49770   0.49860
 Alpha virt. eigenvalues --    0.50183   0.50564   0.50699   0.50710   0.50983
 Alpha virt. eigenvalues --    0.51613   0.51688   0.51846   0.52193   0.52420
 Alpha virt. eigenvalues --    0.52668   0.52876   0.53022   0.53135   0.53309
 Alpha virt. eigenvalues --    0.53675   0.54027   0.54300   0.54351   0.54529
 Alpha virt. eigenvalues --    0.54931   0.55398   0.55645   0.56360   0.56426
 Alpha virt. eigenvalues --    0.56860   0.57395   0.57788   0.58022   0.58282
 Alpha virt. eigenvalues --    0.58567   0.59066   0.59425   0.60119   0.60731
 Alpha virt. eigenvalues --    0.61329   0.62196   0.62534   0.62760   0.63142
 Alpha virt. eigenvalues --    0.64046   0.65263   0.65657   0.65695   0.65907
 Alpha virt. eigenvalues --    0.66073   0.66572   0.66976   0.67351   0.67406
 Alpha virt. eigenvalues --    0.67792   0.68317   0.69666   0.70242   0.71062
 Alpha virt. eigenvalues --    0.71383   0.71857   0.72105   0.72163   0.72233
 Alpha virt. eigenvalues --    0.72520   0.72666   0.73213   0.73384   0.73944
 Alpha virt. eigenvalues --    0.74589   0.74827   0.75509   0.75648   0.75817
 Alpha virt. eigenvalues --    0.76161   0.76772   0.76878   0.77195   0.77462
 Alpha virt. eigenvalues --    0.77814   0.78423   0.78997   0.79472   0.79727
 Alpha virt. eigenvalues --    0.80188   0.80326   0.80593   0.80700   0.81488
 Alpha virt. eigenvalues --    0.81513   0.81792   0.81994   0.82520   0.83103
 Alpha virt. eigenvalues --    0.83994   0.84206   0.84775   0.85322   0.85805
 Alpha virt. eigenvalues --    0.87179   0.87556   0.87954   0.88044   0.88749
 Alpha virt. eigenvalues --    0.88832   0.89029   0.89465   0.89642   0.90205
 Alpha virt. eigenvalues --    0.90733   0.90951   0.91219   0.91484   0.91714
 Alpha virt. eigenvalues --    0.92862   0.93011   0.93573   0.93898   0.94033
 Alpha virt. eigenvalues --    0.94217   0.94746   0.95708   0.95950   0.96589
 Alpha virt. eigenvalues --    0.96812   0.97054   0.97286   0.97691   0.97792
 Alpha virt. eigenvalues --    0.98118   0.98293   0.98417   0.98544   0.98774
 Alpha virt. eigenvalues --    0.98899   0.99458   0.99927   1.00382   1.00583
 Alpha virt. eigenvalues --    1.00884   1.01287   1.01590   1.01693   1.01946
 Alpha virt. eigenvalues --    1.02122   1.02219   1.02438   1.02446   1.02620
 Alpha virt. eigenvalues --    1.02919   1.03541   1.03562   1.03745   1.03812
 Alpha virt. eigenvalues --    1.04111   1.04183   1.04382   1.04604   1.04665
 Alpha virt. eigenvalues --    1.04929   1.05050   1.05178   1.05377   1.05782
 Alpha virt. eigenvalues --    1.05913   1.06308   1.06370   1.06976   1.07135
 Alpha virt. eigenvalues --    1.07521   1.07801   1.08600   1.09041   1.09262
 Alpha virt. eigenvalues --    1.09387   1.09840   1.09900   1.10136   1.10197
 Alpha virt. eigenvalues --    1.10713   1.10852   1.10968   1.11003   1.11258
 Alpha virt. eigenvalues --    1.11473   1.11644   1.11751   1.12028   1.12486
 Alpha virt. eigenvalues --    1.12825   1.13447   1.13667   1.14160   1.14752
 Alpha virt. eigenvalues --    1.15267   1.15802   1.16006   1.16309   1.16592
 Alpha virt. eigenvalues --    1.17019   1.17649   1.17845   1.18566   1.18667
 Alpha virt. eigenvalues --    1.19293   1.20628   1.20952   1.21177   1.21314
 Alpha virt. eigenvalues --    1.21466   1.21910   1.22188   1.23010   1.23496
 Alpha virt. eigenvalues --    1.25101   1.26079   1.26518   1.26732   1.27111
 Alpha virt. eigenvalues --    1.27534   1.27815   1.28309   1.28516   1.28575
 Alpha virt. eigenvalues --    1.28775   1.29150   1.29181   1.29412   1.29679
 Alpha virt. eigenvalues --    1.30093   1.30252   1.30377   1.30804   1.30867
 Alpha virt. eigenvalues --    1.31284   1.32192   1.32494   1.33014   1.33174
 Alpha virt. eigenvalues --    1.33244   1.33402   1.33612   1.33892   1.34029
 Alpha virt. eigenvalues --    1.34283   1.34380   1.34571   1.34798   1.34891
 Alpha virt. eigenvalues --    1.34916   1.35254   1.35510   1.35752   1.36072
 Alpha virt. eigenvalues --    1.36144   1.36596   1.36746   1.36888   1.36973
 Alpha virt. eigenvalues --    1.37081   1.37315   1.37599   1.37891   1.37922
 Alpha virt. eigenvalues --    1.38049   1.38485   1.38710   1.38868   1.39011
 Alpha virt. eigenvalues --    1.39282   1.39472   1.39568   1.39716   1.40173
 Alpha virt. eigenvalues --    1.40221   1.40408   1.40511   1.40692   1.40902
 Alpha virt. eigenvalues --    1.40966   1.41108   1.41346   1.41845   1.41959
 Alpha virt. eigenvalues --    1.42604   1.43014   1.43308   1.43487   1.43513
 Alpha virt. eigenvalues --    1.43926   1.44295   1.44572   1.44840   1.45671
 Alpha virt. eigenvalues --    1.46400   1.47142   1.47599   1.47718   1.48116
 Alpha virt. eigenvalues --    1.48251   1.48712   1.49177   1.49579   1.49885
 Alpha virt. eigenvalues --    1.50508   1.51009   1.51318   1.51939   1.53351
 Alpha virt. eigenvalues --    1.53759   1.55299   1.55779   1.55805   1.56014
 Alpha virt. eigenvalues --    1.56152   1.56317   1.56636   1.56762   1.57116
 Alpha virt. eigenvalues --    1.57178   1.58012   1.58232   1.59214   1.59336
 Alpha virt. eigenvalues --    1.59852   1.60230   1.60309   1.60465   1.60522
 Alpha virt. eigenvalues --    1.60676   1.61192   1.61864   1.62218   1.62378
 Alpha virt. eigenvalues --    1.63870   1.64451   1.65138   1.65715   1.66765
 Alpha virt. eigenvalues --    1.67463   1.67897   1.69933   1.70472   1.70821
 Alpha virt. eigenvalues --    1.71266   1.71604   1.72301   1.72978   1.74127
 Alpha virt. eigenvalues --    1.75307   1.75436   1.75575   1.75940   1.76835
 Alpha virt. eigenvalues --    1.76952   1.76980   1.77590   1.77873   1.78679
 Alpha virt. eigenvalues --    1.78899   1.79363   1.80010   1.80440   1.80716
 Alpha virt. eigenvalues --    1.81118   1.81259   1.82049   1.82086   1.82876
 Alpha virt. eigenvalues --    1.82922   1.83235   1.83945   1.84180   1.84522
 Alpha virt. eigenvalues --    1.85188   1.85388   1.85724   1.86132   1.86327
 Alpha virt. eigenvalues --    1.86517   1.87118   1.87463   1.88197   1.88669
 Alpha virt. eigenvalues --    1.89375   1.89906   1.90148   1.90308   1.90352
 Alpha virt. eigenvalues --    1.90712   1.90930   1.91264   1.92348   1.93201
 Alpha virt. eigenvalues --    1.94881   1.95340   1.95537   1.95751   1.96017
 Alpha virt. eigenvalues --    1.98005   1.99265   1.99479   1.99557   2.04085
 Alpha virt. eigenvalues --    2.06223   2.07427   2.08143   2.08593   2.08722
 Alpha virt. eigenvalues --    2.09066   2.09102   2.09552   2.10214   2.11116
 Alpha virt. eigenvalues --    2.11505   2.11979   2.12795   2.14750   2.15438
 Alpha virt. eigenvalues --    2.15991   2.16846   2.17259   2.17509   2.17755
 Alpha virt. eigenvalues --    2.19888   2.20272   2.20375   2.20699   2.20826
 Alpha virt. eigenvalues --    2.21087   2.22219   2.24398   2.25310   2.26044
 Alpha virt. eigenvalues --    2.26418   2.26839   2.27435   2.28487   2.28947
 Alpha virt. eigenvalues --    2.29159   2.29904   2.30359   2.33340   2.35716
 Alpha virt. eigenvalues --    2.36587   2.40288   2.40998   2.41102   2.43617
 Alpha virt. eigenvalues --    2.44206   2.50217   2.51434   2.57199   2.64719
 Alpha virt. eigenvalues --    2.64782   2.64911   2.65393   2.65942   2.66597
 Alpha virt. eigenvalues --    2.66707   2.66813   2.66931   2.66950   2.67049
 Alpha virt. eigenvalues --    2.67095   2.67161   2.67330   2.67356   2.67417
 Alpha virt. eigenvalues --    2.67641   2.67679   2.67771   2.67822   2.67884
 Alpha virt. eigenvalues --    2.68521   2.68902   2.69236   2.69378   2.69993
 Alpha virt. eigenvalues --    2.70184   2.70301   2.70645   2.70724   2.70837
 Alpha virt. eigenvalues --    2.70973   2.71364   2.71419   2.71516   2.71585
 Alpha virt. eigenvalues --    2.71652   2.71912   2.72690   2.72942   2.72975
 Alpha virt. eigenvalues --    2.73139   2.73221   2.73251   2.73339   2.73366
 Alpha virt. eigenvalues --    2.73496   2.73776   2.73881   2.73907   2.73987
 Alpha virt. eigenvalues --    2.74058   2.74159   2.74323   2.74528   2.74697
 Alpha virt. eigenvalues --    2.74760   2.74913   2.75039   2.75546   2.75962
 Alpha virt. eigenvalues --    2.76148   2.76325   2.76457   2.76716   2.76901
 Alpha virt. eigenvalues --    2.77093   2.77192   2.77216   2.78443   2.78590
 Alpha virt. eigenvalues --    2.78624   2.78920   2.79774   2.80072   2.80155
 Alpha virt. eigenvalues --    2.81120   2.81794   2.81826   2.82113   2.82278
 Alpha virt. eigenvalues --    2.82340   2.82655   2.83029   2.83221   2.83634
 Alpha virt. eigenvalues --    2.83759   2.83905   2.84000   2.84225   2.85065
 Alpha virt. eigenvalues --    2.85510   2.86098   2.86160   2.86279   2.86334
 Alpha virt. eigenvalues --    2.86593   2.86803   2.86910   2.88298   2.88586
 Alpha virt. eigenvalues --    2.88691   2.89097   2.89666   2.89750   2.89824
 Alpha virt. eigenvalues --    2.89887   2.90021   2.90087   2.90586   2.90677
 Alpha virt. eigenvalues --    2.90779   2.91738   2.91881   2.92046   2.92081
 Alpha virt. eigenvalues --    2.92239   2.92516   2.92756   2.92898   2.93050
 Alpha virt. eigenvalues --    2.93333   2.93453   2.93661   2.93945   2.94109
 Alpha virt. eigenvalues --    2.94180   2.94996   2.95173   2.95375   2.95707
 Alpha virt. eigenvalues --    2.95766   2.95801   2.96310   2.96531   2.96602
 Alpha virt. eigenvalues --    2.96696   2.96882   2.96923   2.97148   2.97369
 Alpha virt. eigenvalues --    2.97560   2.97725   2.97911   2.98218   2.99149
 Alpha virt. eigenvalues --    2.99262   2.99404   2.99612   2.99655   2.99999
 Alpha virt. eigenvalues --    3.00103   3.00362   3.00953   3.01260   3.01265
 Alpha virt. eigenvalues --    3.02598   3.02970   3.03261   3.03592   3.05182
 Alpha virt. eigenvalues --    3.06529   3.06748   3.07183   3.10980   3.11636
 Alpha virt. eigenvalues --    3.11778   3.11901   3.12177   3.12683   3.13706
 Alpha virt. eigenvalues --    3.13831   3.14016   3.16616   3.19688   3.21836
 Alpha virt. eigenvalues --    3.21925   3.23862   3.32598   3.41284   3.41701
 Alpha virt. eigenvalues --    3.42322   3.43276   3.45027   3.45094   3.46016
 Alpha virt. eigenvalues --    3.46346   3.46428   3.47286   3.47618   3.47843
 Alpha virt. eigenvalues --    3.47976   3.51234   3.51898   3.52518   3.53639
 Alpha virt. eigenvalues --    3.53940   3.54374   3.54688   3.54767   3.54990
 Alpha virt. eigenvalues --    3.55252   3.55478   3.55664   3.56788   3.57556
 Alpha virt. eigenvalues --    3.57715   3.58633   3.59554   3.59652   3.60422
 Alpha virt. eigenvalues --    3.60664   3.61293   3.61573   3.62181   3.62457
 Alpha virt. eigenvalues --    3.69356   3.74694  68.64080  68.65235  68.66220
 Alpha virt. eigenvalues --   68.68306  68.72505  68.73532  68.81682  68.82645
 Alpha virt. eigenvalues --   68.83393  68.85528  68.86695  68.88057 576.22522
 Alpha virt. eigenvalues --  576.23651 576.24615 576.26657 576.30861 576.31875
 Alpha virt. eigenvalues --  576.39876 576.40816 576.41543 576.43584 576.44721
 Alpha virt. eigenvalues --  576.46075
          Condensed to atoms (all electrons):
 Mulliken charges:
               1
     1  Cl  -0.902962
     2  C   -0.078542
     3  C    0.047427
     4  C   -0.077742
     5  C   -0.033885
     6  C   -0.033405
     7  C   -0.050146
     8  H    0.030872
     9  H    0.030053
    10  H    0.041406
    11  H    0.037193
    12  H    0.040266
    13  C   -0.121022
    14  C    0.020313
    15  H    0.022314
    16  H    0.039360
    17  H    0.025271
    18  O   -0.664022
    19  O   -0.663827
    20  O   -0.655469
    21  O   -0.664226
    22  W    1.737105
    23  W    1.678260
    24  W    1.687735
    25  W    1.698267
    26  W    1.678177
    27  W    1.730565
    28  W    1.622451
    29  W    1.689365
    30  O   -0.319997
    31  O   -0.365626
    32  O   -0.367592
    33  O   -0.360771
    34  O   -0.666054
    35  O   -0.671770
    36  O   -0.662217
    37  O   -0.665317
    38  O   -0.368460
    39  O   -0.365200
    40  O   -0.297251
    41  O   -0.365282
    42  O   -0.670974
    43  O   -0.664355
    44  O   -0.662259
    45  O   -0.666385
    46  O   -0.369465
    47  O   -0.320511
    48  O   -0.362492
    49  O   -0.362343
    50  W    1.677006
    51  W    1.682159
    52  W    1.685981
    53  W    1.688278
    54  O   -0.725773
    55  O   -0.709601
    56  O   -0.726760
    57  O   -0.723952
    58  O   -0.707821
    59  O   -0.728237
    60  O   -0.725882
    61  O   -0.722070
    62  O   -0.725758
    63  O   -0.709245
    64  O   -0.724825
    65  O   -0.727332
    66  O   -0.803076
    67  O   -0.802246
    68  O   -0.798558
    69  O   -0.809518
    70  K    0.863269
    71  K    0.863925
    72  K    0.860476
    73  V    1.192725
 Sum of Mulliken charges =  -1.00000
 Mulliken charges with hydrogens summed into heavy atoms:
               1
     1  Cl  -0.902962
     2  C   -0.047670
     3  C    0.047427
     4  C   -0.047688
     5  C    0.007521
     6  C    0.003788
     7  C   -0.009880
    13  C   -0.098708
    14  C    0.084944
    18  O   -0.664022
    19  O   -0.663827
    20  O   -0.655469
    21  O   -0.664226
    22  W    1.737105
    23  W    1.678260
    24  W    1.687735
    25  W    1.698267
    26  W    1.678177
    27  W    1.730565
    28  W    1.622451
    29  W    1.689365
    30  O   -0.319997
    31  O   -0.365626
    32  O   -0.367592
    33  O   -0.360771
    34  O   -0.666054
    35  O   -0.671770
    36  O   -0.662217
    37  O   -0.665317
    38  O   -0.368460
    39  O   -0.365200
    40  O   -0.297251
    41  O   -0.365282
    42  O   -0.670974
    43  O   -0.664355
    44  O   -0.662259
    45  O   -0.666385
    46  O   -0.369465
    47  O   -0.320511
    48  O   -0.362492
    49  O   -0.362343
    50  W    1.677006
    51  W    1.682159
    52  W    1.685981
    53  W    1.688278
    54  O   -0.725773
    55  O   -0.709601
    56  O   -0.726760
    57  O   -0.723952
    58  O   -0.707821
    59  O   -0.728237
    60  O   -0.725882
    61  O   -0.722070
    62  O   -0.725758
    63  O   -0.709245
    64  O   -0.724825
    65  O   -0.727332
    66  O   -0.803076
    67  O   -0.802246
    68  O   -0.798558
    69  O   -0.809518
    70  K    0.863269
    71  K    0.863925
    72  K    0.860476
    73  V    1.192725
 Electronic spatial extent (au):  <R**2>=         317375.9027
 Charge=             -1.0000 electrons
 Dipole moment (field-independent basis, Debye):
    X=             50.5897    Y=            -51.4414    Z=            -38.6740  Tot=             81.8610
 Quadrupole moment (field-independent basis, Debye-Ang):
   XX=          -1045.9676   YY=           -892.1071   ZZ=           -913.4382
   XY=            451.6033   XZ=            453.0790   YZ=           -480.6670
 Traceless Quadrupole moment (field-independent basis, Debye-Ang):
   XX=            -95.4633   YY=             58.3972   ZZ=             37.0661
   XY=            451.6033   XZ=            453.0790   YZ=           -480.6670
 Octapole moment (field-independent basis, Debye-Ang**2):
  XXX=          13268.3363  YYY=          -1121.4715  ZZZ=         -19118.5572  XYY=           6088.9505
  XXY=          -3595.1508  XXZ=          -9328.0307  XZZ=           7279.1190  YZZ=          -4209.1719
  YYZ=          -9082.7597  XYZ=           4778.8618
 Hexadecapole moment (field-independent basis, Debye-Ang**3):
 XXXX=        -156684.5220 YYYY=         -54366.5688 ZZZZ=        -345840.3314 XXXY=          36073.3483
 XXXZ=         121059.1023 YYYX=          21126.5605 YYYZ=         -13384.9707 ZZZX=         126874.5150
 ZZZY=         -36083.0929 XXYY=         -55655.2283 XXZZ=        -106757.7111 YYZZ=        -100299.8628
 XXYZ=         -41735.3262 YYXZ=          61755.3527 ZZXY=          50266.6476
 N-N= 2.097307341336D+04 E-N=-5.903033647091D+04  KE= 6.765093153453D+03
   1 Symmetry operations used in ECPInt.
 ECPInt:  NShTT=  127765 NPrTT=  468030 LenC2=   96549 LenP2D=  220906.
 LDataN:  DoStor=T MaxTD1= 9 Len=  602
 D1PCM: PCM CHGder 1st derivatives, ID1Alg=3 FixD1E=F DoIter=F DoCFld=F I1PDM=0.
 Calling FoFJK, ICntrl=      2127 FMM=T ISym2X=0 I1Cent= 0 IOpClX= 0 NMat=1 NMatS=1 NMatT=0.
 Defaulting to unpruned grid for atomic number  74.
 Defaulting to unpruned grid for atomic number  74.
 Defaulting to unpruned grid for atomic number  74.
 Defaulting to unpruned grid for atomic number  74.
 Defaulting to unpruned grid for atomic number  74.
 Defaulting to unpruned grid for atomic number  74.
 Defaulting to unpruned grid for atomic number  74.
 Defaulting to unpruned grid for atomic number  74.
 Defaulting to unpruned grid for atomic number  74.
 Defaulting to unpruned grid for atomic number  74.
 Defaulting to unpruned grid for atomic number  74.
 Defaulting to unpruned grid for atomic number  74.
 Defaulting to unpruned grid for atomic number  74.
 Defaulting to unpruned grid for atomic number  74.
 Defaulting to unpruned grid for atomic number  74.
 Defaulting to unpruned grid for atomic number  74.
 Defaulting to unpruned grid for atomic number  74.
 Defaulting to unpruned grid for atomic number  74.
 Defaulting to unpruned grid for atomic number  74.
 Defaulting to unpruned grid for atomic number  74.
 Defaulting to unpruned grid for atomic number  74.
 Defaulting to unpruned grid for atomic number  74.
 Defaulting to unpruned grid for atomic number  74.
 Defaulting to unpruned grid for atomic number  74.
 Defaulting to unpruned grid for atomic number  74.
 Defaulting to unpruned grid for atomic number  74.
 Defaulting to unpruned grid for atomic number  74.
 Defaulting to unpruned grid for atomic number  74.
 Defaulting to unpruned grid for atomic number  74.
 Defaulting to unpruned grid for atomic number  74.
 Defaulting to unpruned grid for atomic number  74.
 Defaulting to unpruned grid for atomic number  74.
 Defaulting to unpruned grid for atomic number  74.
 Defaulting to unpruned grid for atomic number  74.
 Defaulting to unpruned grid for atomic number  74.
 Defaulting to unpruned grid for atomic number  74.
 Defaulting to unpruned grid for atomic number  74.
 Defaulting to unpruned grid for atomic number  74.
 Defaulting to unpruned grid for atomic number  74.
 Defaulting to unpruned grid for atomic number  74.
 Defaulting to unpruned grid for atomic number  74.
 Defaulting to unpruned grid for atomic number  74.
 Defaulting to unpruned grid for atomic number  74.
 Defaulting to unpruned grid for atomic number  74.
 Defaulting to unpruned grid for atomic number  74.
 Defaulting to unpruned grid for atomic number  74.
 Defaulting to unpruned grid for atomic number  74.
 Defaulting to unpruned grid for atomic number  74.
 Defaulting to unpruned grid for atomic number  74.
 Defaulting to unpruned grid for atomic number  74.
 Defaulting to unpruned grid for atomic number  74.
 Defaulting to unpruned grid for atomic number  74.
 Defaulting to unpruned grid for atomic number  74.
 Defaulting to unpruned grid for atomic number  74.
 Defaulting to unpruned grid for atomic number  74.
 Defaulting to unpruned grid for atomic number  74.
 -------------------------------------------------------------------
 Center     Atomic                   Forces (Hartrees/Bohr)
 Number     Number              X              Y              Z
 -------------------------------------------------------------------
      1       17          -0.002314716    0.006725819    0.001916457
      2        6          -0.001503670   -0.000599479   -0.002088495
      3        6          -0.000494878   -0.002377675    0.003523852
      4        6           0.001484286    0.002145743    0.000471631
      5        6           0.000730774    0.000176023    0.001463291
      6        6           0.000063915   -0.000268753    0.000707937
      7        6          -0.001127380   -0.001101378    0.000572100
      8        1          -0.000536065    0.000777164   -0.000151671
      9        1          -0.000560373    0.000658893   -0.000074945
     10        1          -0.000341511    0.000026036    0.000141280
     11        1           0.000686046   -0.000566127   -0.000150739
     12        1           0.000005918    0.000342410    0.000219838
     13        6           0.008352563    0.010901318   -0.007982533
     14        6          -0.002044196   -0.017736678    0.000547574
     15        1          -0.000843526    0.000187763   -0.000122634
     16        1          -0.000938391    0.001362385    0.001084632
     17        1          -0.001893114    0.000517267   -0.000118523
     18        8          -0.003561262    0.000535286    0.000816972
     19        8           0.003563280   -0.000813107    0.001090096
     20        8           0.002797095   -0.003100635   -0.000560316
     21        8          -0.002532835    0.002427547   -0.001015374
     22       74           0.001840154    0.011142102   -0.010246352
     23       74          -0.002520228   -0.010697659   -0.010558286
     24       74           0.006881907    0.008957068    0.010374816
     25       74          -0.007411991   -0.007689282    0.010744178
     26       74           0.008569387   -0.007889503   -0.011221810
     27       74          -0.008575266    0.008501595   -0.011198188
     28       74          -0.012200788    0.003149182    0.011356749
     29       74           0.011391452   -0.002009132    0.011294674
     30        8          -0.000587751   -0.002818986    0.003593112
     31        8           0.000233363    0.003319030    0.003233861
     32        8          -0.002507478   -0.002210042   -0.003429863
     33        8           0.002517915    0.001832811   -0.003415364
     34        8          -0.001404302   -0.000644707    0.003429331
     35        8           0.001442762    0.000111699    0.003513840
     36        8           0.000813038   -0.001481589   -0.003435097
     37        8          -0.000357025    0.001159652   -0.003365163
     38        8          -0.004589045   -0.001910500   -0.001682339
     39        8           0.004706402    0.001702274   -0.001671163
     40        8           0.002229097   -0.006460308    0.000961685
     41        8          -0.001227954    0.004930707    0.001423472
     42        8          -0.002047756   -0.002898493    0.001325939
     43        8           0.002475401    0.002661070    0.001065709
     44        8          -0.000338755   -0.003754342   -0.000732329
     45        8           0.000962210    0.003401161   -0.001234112
     46        8          -0.002761958    0.003550512    0.003117338
     47        8           0.003077828   -0.002684240    0.003245578
     48        8           0.004661929   -0.000227603   -0.003529823
     49        8          -0.004307915    0.000306058   -0.003080725
     50       74           0.015090010    0.005080970    0.003296910
     51       74          -0.015315271   -0.004193743    0.003450974
     52       74          -0.006050555    0.016628353   -0.003507799
     53       74           0.004874828   -0.015020519   -0.002941207
     54        8          -0.000712969    0.001565585    0.002339749
     55        8           0.000752459   -0.001666849    0.002255599
     56        8           0.001966586   -0.000110388   -0.002249753
     57        8          -0.001622677   -0.000708701   -0.002474024
     58        8           0.000386406   -0.002757848    0.001362191
     59        8           0.000254637    0.002373215    0.001649579
     60        8          -0.001534196   -0.001816032   -0.001751236
     61        8           0.001906661    0.001504597   -0.001518578
     62        8          -0.001469972    0.002317980    0.000987807
     63        8           0.001189810   -0.002792088    0.000625571
     64        8           0.002590309   -0.000208079   -0.001068476
     65        8          -0.002498374   -0.000354847   -0.000916306
     66        8          -0.027924450   -0.005051523    0.018021964
     67        8           0.028537471    0.005726656    0.017780409
     68        8           0.012042298   -0.026843572   -0.017975240
     69        8          -0.011926404    0.025628410   -0.018143517
     70       19           0.000160029   -0.000896254   -0.000587127
     71       19           0.000566622    0.000030470    0.000430828
     72       19          -0.000799074   -0.000236553    0.000449920
     73       23          -0.000420777    0.000232405    0.000311664
 -------------------------------------------------------------------
 Cartesian Forces:  Max     0.028537471 RMS     0.006419671

 GradGradGradGradGradGradGradGradGradGradGradGradGradGradGradGradGradGrad
 Berny optimization.
 Search for a local minimum.
 Step number   1 out of a maximum of    2
 All quantities printed in internal units (Hartrees-Bohrs-Radians)
 Second derivative matrix not updated -- first step.
 ITU=  0
     Eigenvalues ---    0.00000   0.00000   0.00000   0.00010   0.00093
     Eigenvalues ---    0.00094   0.00256   0.00547   0.00636   0.01641
     Eigenvalues ---    0.01958   0.02903   0.02928   0.03213   0.03431
     Eigenvalues ---    0.03455   0.03724   0.03733   0.04160   0.04488
     Eigenvalues ---    0.04603   0.04613   0.04646   0.04843   0.04855
     Eigenvalues ---    0.04983   0.05361   0.05578   0.05610   0.06372
     Eigenvalues ---    0.06409   0.06530   0.06783   0.06855   0.07044
     Eigenvalues ---    0.07296   0.07395   0.07603   0.08359   0.08389
     Eigenvalues ---    0.08723   0.08760   0.08906   0.08921   0.09738
     Eigenvalues ---    0.09973   0.10115   0.10422   0.10464   0.10556
     Eigenvalues ---    0.10830   0.10900   0.11590   0.11703   0.12066
     Eigenvalues ---    0.12080   0.12181   0.12539   0.12543   0.12696
     Eigenvalues ---    0.12705   0.12808   0.12836   0.13076   0.13161
     Eigenvalues ---    0.13814   0.14010   0.14332   0.14571   0.14759
     Eigenvalues ---    0.16933   0.16958   0.17119   0.17160   0.17578
     Eigenvalues ---    0.17687   0.18578   0.19851   0.20009   0.20264
     Eigenvalues ---    0.20927   0.21013   0.21986   0.22127   0.22173
     Eigenvalues ---    0.22592   0.23168   0.23452   0.24009   0.24034
     Eigenvalues ---    0.24628   0.24797   0.24979   0.25530   0.26239
     Eigenvalues ---    0.26397   0.26566   0.27628   0.27732   0.27993
     Eigenvalues ---    0.28307   0.28343   0.28855   0.29597   0.29892
     Eigenvalues ---    0.30532   0.30600   0.30647   0.30716   0.30744
     Eigenvalues ---    0.30949   0.31211   0.31428   0.31571   0.32327
     Eigenvalues ---    0.32490   0.32539   0.32748   0.32888   0.33419
     Eigenvalues ---    0.33540   0.35116   0.35598   0.35881   0.36921
     Eigenvalues ---    0.37455   0.37623   0.37846   0.38275   0.38620
     Eigenvalues ---    0.38988   0.39178   0.40169   0.40289   0.41205
     Eigenvalues ---    0.42271   0.42322   0.43580   0.44256   0.44844
     Eigenvalues ---    0.45319   0.45626   0.45998   0.48130   0.48368
     Eigenvalues ---    0.48635   0.48917   0.48964   0.49552   0.49722
     Eigenvalues ---    0.50085   0.50851   0.51346   0.52016   0.52471
     Eigenvalues ---    0.53149   0.54076   0.56552   0.58452   0.64472
     Eigenvalues ---    0.67512   0.76623   0.81445   0.82704   0.96748
     Eigenvalues ---    0.97253   0.98621   0.99306   1.01477   1.04370
     Eigenvalues ---    1.07263   1.10895   1.11425   1.12199   1.15186
     Eigenvalues ---    1.18598   1.19111   1.20369   1.22105   1.22463
     Eigenvalues ---    1.22734   1.25841   1.26542   1.26744   1.27077
     Eigenvalues ---    1.27793   1.29291   1.29462   1.45239   1.45524
     Eigenvalues ---    1.45741   1.48153   1.51400   1.51721   1.52092
     Eigenvalues ---    1.52609   1.55673   1.55756   1.57071   1.58528
     Eigenvalues ---    1.58565   1.59315   1.61685   1.64277   1.73844
     Eigenvalues ---    1.83329   1.87763   1.93128   1.95947   1.97525
     Eigenvalues ---    2.09093   2.17119   3.76628
 Eigenvalue     1 is   0.00D+00 Eigenvector:
                          Y16       Y15       Y14       Y13       Y17
   1                    0.17436   0.17436   0.17436   0.17436   0.17436
                          Y9        Y3        Y4        Y8        Y2
   1                    0.17436   0.17436   0.17436   0.17436   0.17436
 Eigenvalue     2 is   3.51D-07 Eigenvector:
                          Y16       X16       X11       Y11       Y14
   1                    0.32339  -0.27084   0.26424  -0.24638   0.23621
                          Y15       Y17       X14       Y13       X6
   1                    0.23099   0.19731  -0.19365   0.18516   0.18475
 Eigenvalue     3 is   3.12D-06 Eigenvector:
                          X9        X10       Y12       X12       Y8
   1                    0.34003   0.28849   0.27794  -0.25656   0.25188
                          Y9        X15       Y10       X4        X8
   1                   -0.24668   0.23478  -0.21975   0.20620  -0.20609
 Quadratic step=2.214D+01 exceeds max=3.000D-01 adjusted using Lamda=-1.061D-02.
 Angle between NR and scaled steps=  45.21 degrees.
 Angle between quadratic step and forces=  64.52 degrees.
 Linear search not attempted -- first point.
 B after Tr=     0.000311    0.005642    0.001314
         Rot=    1.000000   -0.000129    0.000018    0.000078 Ang=  -0.02 deg.
 Variable       Old X    -DE/DX   Delta X   Delta X   Delta X     New X
                                 (Linear)    (Quad)   (Total)
    X1      -18.30531  -0.00231   0.00000  -0.00226  -0.00023 -18.30554
    Y1       15.64870   0.00673   0.00000   0.00677   0.01014  15.65884
    Z1       19.94576   0.00192   0.00000   0.00201   0.00668  19.95244
    X2      -15.75767  -0.00150   0.00000  -0.01173  -0.01102 -15.76869
    Y2        8.01797  -0.00060   0.00000  -0.00883  -0.00666   8.01131
    Z2       23.08794  -0.00209   0.00000  -0.01241  -0.00962  23.07832
    X3      -17.26297  -0.00049   0.00000   0.00856   0.00926 -17.25371
    Y3        7.42663  -0.00238   0.00000  -0.03529  -0.03234   7.39429
    Z3       20.97624   0.00352   0.00000  -0.01553  -0.01295  20.96329
    X4      -18.98207   0.00148   0.00000  -0.01136  -0.01099 -18.99306
    Y4        5.40732   0.00215   0.00000  -0.00726  -0.00411   5.40321
    Z4       21.19126   0.00047   0.00000   0.01397   0.01597  21.20723
    X5      -19.28225   0.00073   0.00000  -0.00740  -0.00731 -19.28956
    Y5        4.11551   0.00018   0.00000   0.00154   0.00415   4.11967
    Z5       23.46057   0.00146   0.00000   0.02218   0.02385  23.48442
    X6      -17.84520   0.00006   0.00000   0.00622   0.00634 -17.83887
    Y6        4.79208  -0.00027   0.00000  -0.00503  -0.00318   4.78890
    Z6       25.56607   0.00071   0.00000   0.01336   0.01525  25.58132
    X7      -16.05163  -0.00113   0.00000  -0.00839  -0.00796 -16.05959
    Y7        6.71681  -0.00110   0.00000   0.00491   0.00654   6.72335
    Z7       25.35484   0.00057   0.00000  -0.00018   0.00227  25.35711
    X8      -14.32778  -0.00054   0.00000  -0.02536  -0.02441 -14.35218
    Y8        9.50088   0.00078   0.00000   0.00528   0.00726   9.50814
    Z8       22.95464  -0.00015   0.00000  -0.01738  -0.01415  22.94049
    X9      -20.10163  -0.00056   0.00000  -0.02806  -0.02771 -20.12934
    Y9        4.85885   0.00066   0.00000   0.00155   0.00530   4.86415
    Z9       19.54294  -0.00007   0.00000   0.02168   0.02350  19.56644
   X10      -20.63849  -0.00034   0.00000  -0.01584  -0.01599 -20.65449
   Y10        2.56374   0.00003   0.00000   0.00901   0.01181   2.57555
   Z10       23.58805   0.00014   0.00000   0.02987   0.03109  23.61914
   X11      -18.09945   0.00069   0.00000   0.02680   0.02670 -18.07275
   Y11        3.80166  -0.00057   0.00000  -0.01352  -0.01210   3.78956
   Z11       27.35907  -0.00015   0.00000   0.01132   0.01295  27.37202
   X12      -14.87173   0.00001   0.00000  -0.01034  -0.00990 -14.88163
   Y12        7.20690   0.00034   0.00000   0.02250   0.02353   7.23043
   Z12       26.97748   0.00022   0.00000  -0.00293  -0.00031  26.97717
   X13      -17.13289   0.00835   0.00000   0.04699   0.04799 -17.08490
   Y13        8.82619   0.01090   0.00000  -0.07989  -0.07634   8.74984
   Z13       18.59255  -0.00798   0.00000  -0.05161  -0.04867  18.54388
   X14      -15.84798  -0.00204   0.00000   0.06113   0.06247 -15.78550
   Y14       10.98653  -0.01774   0.00000  -0.11849  -0.11504  10.87149
   Z14       18.15776   0.00055   0.00000  -0.04951  -0.04599  18.11177
   X15      -18.23217  -0.00084   0.00000   0.01831   0.01924 -18.21293
   Y15        8.00912   0.00019   0.00000  -0.06334  -0.05923   7.94989
   Z15       17.03957  -0.00012   0.00000  -0.03985  -0.03716  17.00241
   X16      -15.83624  -0.00094   0.00000   0.03508   0.03663 -15.79961
   Y16       11.82267   0.00136   0.00000  -0.07247  -0.06853  11.75414
   Z16       16.27142   0.00108   0.00000  -0.02796  -0.02421  16.24721
   X17      -14.66834  -0.00189   0.00000   0.01550   0.01694 -14.65140
   Y17       11.90242   0.00052   0.00000  -0.09378  -0.09088  11.81154
   Z17       19.57667  -0.00012   0.00000  -0.02897  -0.02516  19.55151
   X18       -1.84533  -0.00356   0.00000  -0.02144  -0.02218  -1.86751
   Y18       -3.39631   0.00054   0.00000   0.00235   0.00465  -3.39166
   Z18       14.11081   0.00082   0.00000   0.00764   0.00801  14.11882
   X19      -15.86566   0.00356   0.00000   0.01731   0.01671 -15.84895
   Y19       -2.52049  -0.00081   0.00000   0.00873   0.01321  -2.50728
   Z19       14.09968   0.00109   0.00000   0.01165   0.01173  14.11141
   X20      -13.27401   0.00280   0.00000   0.01259   0.01257 -13.26144
   Y20        2.54816  -0.00310   0.00000  -0.01238  -0.00975   2.53841
   Z20       19.78939  -0.00056   0.00000  -0.00282  -0.00134  19.78804
   X21       -4.41089  -0.00253   0.00000  -0.01265  -0.01436  -4.42525
   Y21       -8.30487   0.00243   0.00000   0.01705   0.01825  -8.28661
   Z21       19.94478  -0.00102   0.00000  -0.01029  -0.01127  19.93351
   X22       -6.43462   0.00184   0.00000  -0.00743  -0.00736  -6.44198
   Y22        1.30122   0.01114   0.00000   0.02295   0.02646   1.32767
   Z22       12.23379  -0.01025   0.00000  -0.00347  -0.00205  12.23174
   X23      -11.32004  -0.00252   0.00000   0.00410   0.00283 -11.31720
   Y23       -7.21495  -0.01070   0.00000  -0.00489  -0.00066  -7.21561
   Z23       12.39414  -0.01056   0.00000  -0.00549  -0.00645  12.38769
   X24       -6.82786   0.00688   0.00000   0.01627   0.01604  -6.81181
   Y24        1.64491   0.00896   0.00000   0.00213   0.00329   1.64820
   Z24       21.58204   0.01037   0.00000   0.00774   0.00922  21.59126
   X25      -10.88873  -0.00741   0.00000  -0.01677  -0.01839 -10.90712
   Y25       -7.29677  -0.00769   0.00000   0.00253   0.00429  -7.29248
   Z25       21.69709   0.01074   0.00000   0.00702   0.00606  21.70315
   X26       -4.59196   0.00857   0.00000  -0.00751  -0.00840  -4.60036
   Y26       -4.89985  -0.00789   0.00000  -0.00363  -0.00038  -4.90022
   Z26       12.10045  -0.01122   0.00000  -0.00832  -0.00844  12.09201
   X27      -13.11812  -0.00858   0.00000  -0.00018  -0.00046 -13.11858
   Y27       -1.00691   0.00850   0.00000   0.02000   0.02459  -0.98232
   Z27       12.04301  -0.01120   0.00000  -0.00779  -0.00721  12.03580
   X28      -12.88914  -0.01220   0.00000  -0.00609  -0.00666 -12.89579
   Y28       -0.46956   0.00315   0.00000  -0.00420  -0.00217  -0.47172
   Z28       21.84413   0.01136   0.00000   0.01131   0.01203  21.85616
   X29       -4.80444   0.01139   0.00000   0.00569   0.00439  -4.80005
   Y29       -5.16695  -0.00201   0.00000   0.00928   0.01003  -5.15692
   Z29       21.92413   0.01129   0.00000   0.00777   0.00758  21.93171
   X30       -5.98996  -0.00059   0.00000   0.01139   0.01189  -5.97807
   Y30        3.53374  -0.00282   0.00000   0.01655   0.02055   3.55430
   Z30        9.99925   0.00359   0.00000   0.00603   0.00803  10.00728
   X31      -11.57153   0.00023   0.00000  -0.01099  -0.01254 -11.58407
   Y31       -9.57980   0.00332   0.00000   0.00311   0.00793  -9.57187
   Z31       10.23745   0.00323   0.00000  -0.00024  -0.00181  10.23564
   X32       -5.07756  -0.00251   0.00000   0.00349   0.00343  -5.07412
   Y32        3.23741  -0.00221   0.00000   0.00770   0.00803   3.24544
   Z32       23.75454  -0.00343   0.00000   0.00119   0.00316  23.75770
   X33      -12.62478   0.00252   0.00000  -0.00300  -0.00494 -12.62972
   Y33       -8.80772   0.00183   0.00000  -0.00542  -0.00396  -8.81168
   Z33       23.93425  -0.00342   0.00000   0.00047  -0.00095  23.93331
   X34       -5.02057  -0.00140   0.00000  -0.01762  -0.01796  -5.03853
   Y34       -1.73155  -0.00064   0.00000   0.00580   0.00951  -1.72204
   Z34       10.55854   0.00343   0.00000   0.01252   0.01321  10.57175
   X35      -12.66604   0.00144   0.00000   0.01024   0.00949 -12.65655
   Y35       -4.28444   0.00011   0.00000   0.00983   0.01471  -4.26973
   Z35       10.62262   0.00351   0.00000   0.01371   0.01347  10.63609
   X36      -10.03687   0.00081   0.00000   0.00911   0.00872 -10.02815
   Y36        1.04159  -0.00148   0.00000  -0.01093  -0.00973   1.03186
   Z36       23.35757  -0.00344   0.00000  -0.00788  -0.00667  23.35089
   X37       -7.65269  -0.00036   0.00000  -0.00708  -0.00867  -7.66136
   Y37       -6.66968   0.00116   0.00000   0.01249   0.01330  -6.65637
   Z37       23.44317  -0.00337   0.00000  -0.01061  -0.01129  23.43188
   X38        0.58262  -0.00459   0.00000   0.00431   0.00397   0.58659
   Y38       -0.02217  -0.00191   0.00000  -0.00695  -0.00591  -0.02808
   Z38       17.54157  -0.00168   0.00000  -0.00430  -0.00298  17.53859
   X39      -18.31850   0.00471   0.00000  -0.00561  -0.00684 -18.32534
   Y39       -5.74889   0.00170   0.00000   0.01267   0.01664  -5.73225
   Z39       17.62959  -0.00167   0.00000  -0.00298  -0.00382  17.62577
   X40      -11.98843   0.00223   0.00000   0.00239   0.00311 -11.98532
   Y40        6.48357  -0.00646   0.00000   0.00504   0.00834   6.49191
   Z40       16.37425   0.00096   0.00000   0.00865   0.01119  16.38544
   X41       -5.68739  -0.00123   0.00000   0.00186  -0.00035  -5.68774
   Y41      -12.26815   0.00493   0.00000   0.00517   0.00746 -12.26070
   Z41       16.52550   0.00142   0.00000   0.00120  -0.00085  16.52465
   X42       -3.36902  -0.00205   0.00000  -0.01262  -0.01261  -3.38163
   Y42        1.41711  -0.00290   0.00000  -0.00334  -0.00080   1.41631
   Z42       14.12313   0.00133   0.00000   0.01214   0.01369  14.13682
   X43      -14.35804   0.00248   0.00000   0.01126   0.00991 -14.34814
   Y43       -7.33930   0.00266   0.00000   0.01353   0.01774  -7.32155
   Z43       14.25262   0.00107   0.00000   0.01042   0.00933  14.26195
   X44       -8.49127  -0.00034   0.00000   0.00584   0.00608  -8.48519
   Y44        4.15182  -0.00375   0.00000  -0.01347  -0.01157   4.14025
   Z44       19.70579  -0.00073   0.00000  -0.00426  -0.00219  19.70359
   X45       -9.21063   0.00096   0.00000  -0.00640  -0.00836  -9.21899
   Y45       -9.88387   0.00340   0.00000   0.01812   0.02009  -9.86378
   Z45       19.89572  -0.00123   0.00000  -0.01016  -0.01172  19.88400
   X46       -3.02416  -0.00276   0.00000  -0.00598  -0.00708  -3.03124
   Y46       -6.69060   0.00355   0.00000   0.01437   0.01793  -6.67266
   Z46        9.93998   0.00312   0.00000  -0.00800  -0.00851   9.93147
   X47      -14.78010   0.00308   0.00000  -0.00357  -0.00353 -14.78363
   Y47        0.52887  -0.00268   0.00000  -0.00023   0.00521   0.53407
   Z47        9.79355   0.00325   0.00000  -0.00553  -0.00462   9.78893
   X48      -15.20513   0.00466   0.00000   0.00549   0.00487 -15.20026
   Y48       -0.31896  -0.00023   0.00000   0.00810   0.00993  -0.30903
   Z48       24.06268  -0.00353   0.00000   0.00801   0.00869  24.07137
   X49       -2.46113  -0.00431   0.00000  -0.00615  -0.00757  -2.46870
   Y49       -5.39729   0.00031   0.00000  -0.00346  -0.00363  -5.40092
   Z49       24.10740  -0.00308   0.00000   0.00543   0.00526  24.11266
   X50       -2.35996   0.01509   0.00000   0.00581   0.00535  -2.35461
   Y50       -1.00032   0.00508   0.00000   0.00486   0.00657  -0.99374
   Z50       16.69956   0.00330   0.00000   0.01223   0.01321  16.71276
   X51      -15.37259  -0.01532   0.00000  -0.00815  -0.00920 -15.38179
   Y51       -4.79899  -0.00419   0.00000   0.00428   0.00801  -4.79098
   Z51       16.77020   0.00345   0.00000   0.01376   0.01328  16.78348
   X52      -11.09067  -0.00605   0.00000  -0.00114  -0.00091 -11.09157
   Y52        3.51260   0.01663   0.00000   0.01337   0.01635   3.52894
   Z52       17.09063  -0.00351   0.00000  -0.00761  -0.00580  17.08484
   X53       -6.60360   0.00487   0.00000  -0.00292  -0.00470  -6.60830
   Y53       -9.29301  -0.01502   0.00000  -0.00265  -0.00043  -9.29344
   Z53       17.31853  -0.00294   0.00000  -0.01272  -0.01404  17.30449
   X54       -7.95800  -0.00071   0.00000  -0.00360  -0.00463  -7.96263
   Y54       -5.87951   0.00157   0.00000  -0.00414  -0.00021  -5.87972
   Z54       11.47348   0.00234   0.00000  -0.00785  -0.00834  11.46514
   X55       -9.73738   0.00075   0.00000  -0.00308  -0.00320  -9.74058
   Y55       -0.11644  -0.00167   0.00000   0.02298   0.02722  -0.08922
   Z55       11.36615   0.00226   0.00000  -0.00637  -0.00544  11.36071
   X56      -11.65998   0.00197   0.00000  -0.00981  -0.01092 -11.67090
   Y56       -3.77386  -0.00011   0.00000  -0.00295  -0.00127  -3.77513
   Z56       22.50125  -0.00225   0.00000   0.01045   0.01037  22.51161
   X57       -5.99145  -0.00162   0.00000   0.01005   0.00925  -5.98220
   Y57       -1.86458  -0.00071   0.00000   0.00623   0.00701  -1.85757
   Z57       22.53691  -0.00247   0.00000   0.00787   0.00849  22.54540
   X58       -8.22789   0.00039   0.00000  -0.00280  -0.00256  -8.23046
   Y58        2.98686  -0.00276   0.00000   0.01700   0.02013   3.00699
   Z58       14.79714   0.00136   0.00000  -0.00286  -0.00108  14.79607
   X59       -9.46021   0.00025   0.00000   0.00043  -0.00118  -9.46140
   Y59       -8.84526   0.00237   0.00000  -0.00519  -0.00191  -8.84718
   Z59       14.97117   0.00165   0.00000  -0.00737  -0.00868  14.96249
   X60       -4.39272  -0.00153   0.00000   0.01328   0.01306  -4.37966
   Y60        1.07266  -0.00182   0.00000   0.00372   0.00515   1.07781
   Z60       19.04811  -0.00175   0.00000   0.00833   0.00976  19.05787
   X61      -13.31763   0.00191   0.00000  -0.01401  -0.01547 -13.33310
   Y61       -6.83069   0.00150   0.00000   0.00291   0.00571  -6.82499
   Z61       19.14430  -0.00152   0.00000   0.00882   0.00789  19.15218
   X62       -4.85313  -0.00147   0.00000  -0.00497  -0.00635  -4.85948
   Y62       -7.38724   0.00232   0.00000  -0.00128   0.00130  -7.38595
   Z62       14.86818   0.00099   0.00000  -0.01049  -0.01125  14.85693
   X63      -12.86788   0.00119   0.00000  -0.00089  -0.00088 -12.86876
   Y63        1.50188  -0.00279   0.00000   0.01379   0.01765   1.51953
   Z63       14.74507   0.00063   0.00000  -0.00799  -0.00676  14.73831
   X64      -14.78892   0.00259   0.00000  -0.00633  -0.00707 -14.79599
   Y64       -2.22390  -0.00021   0.00000   0.00109   0.00411  -2.21980
   Z64       19.15857  -0.00107   0.00000   0.01264   0.01284  19.17140
   X65       -2.94679  -0.00250   0.00000   0.00480   0.00385  -2.94294
   Y65       -3.53093  -0.00035   0.00000   0.00476   0.00593  -3.52500
   Z65       19.15956  -0.00092   0.00000   0.00937   0.00967  19.16923
   X66       -6.34105  -0.02792   0.00000  -0.05286  -0.05344  -6.39450
   Y66       -2.18867  -0.00505   0.00000  -0.00113   0.00162  -2.18705
   Z66       15.13273   0.01802   0.00000   0.03092   0.03144  15.16416
   X67      -11.37757   0.02854   0.00000   0.04853   0.04771 -11.32986
   Y67       -3.70025   0.00573   0.00000   0.01524   0.01874  -3.68151
   Z67       15.18163   0.01778   0.00000   0.03123   0.03118  15.21280
   X68       -9.66845   0.01204   0.00000   0.02318   0.02273  -9.64572
   Y68       -0.39234  -0.02684   0.00000  -0.04174  -0.03942  -0.43176
   Z68       18.79071  -0.01798   0.00000  -0.02826  -0.02741  18.76330
   X69       -8.00373  -0.01193   0.00000  -0.02546  -0.02667  -8.03041
   Y69       -5.37927   0.02563   0.00000   0.04743   0.04949  -5.32978
   Z69       18.84871  -0.01814   0.00000  -0.02954  -0.02990  18.81881
   X70       -6.06987   0.00016   0.00000  -0.00282  -0.00470  -6.07458
   Y70      -11.59271  -0.00090   0.00000  -0.00341   0.00044 -11.59227
   Z70       10.66844  -0.00059   0.00000  -0.01030  -0.01219  10.65625
   X71       -0.20511   0.00057   0.00000   0.01041   0.00988  -0.19523
   Y71        0.10080   0.00003   0.00000   0.00230   0.00197   0.10277
   Z71       23.31818   0.00043   0.00000   0.00823   0.00956  23.32775
   X72      -17.54950  -0.00080   0.00000  -0.01146  -0.01284 -17.56235
   Y72       -5.35835  -0.00024   0.00000   0.00208   0.00442  -5.35393
   Z72       23.49590   0.00045   0.00000   0.01019   0.00949  23.50539
   X73       -8.85172  -0.00042   0.00000  -0.00212  -0.00289  -8.85461
   Y73       -2.90844   0.00023   0.00000   0.00485   0.00751  -2.90094
   Z73       16.98531   0.00031   0.00000   0.00165   0.00189  16.98720
         Item               Value     Threshold  Converged?
 Maximum Force            0.028537     0.000450     NO 
 RMS     Force            0.006420     0.000300     NO 
 Maximum Displacement     0.115042     0.001800     NO 
 RMS     Displacement     0.020181     0.001200     NO 
 Predicted change in Energy=-6.566223D-03
 GradGradGradGradGradGradGradGradGradGradGradGradGradGradGradGradGradGrad

 Unable to Open any file for archive entry.
 1\1\GINC-X11P1N2\Force\RwB97XD\def2SVP\C8H8Cl1K3O40V1W12(1-)\MAYUMIAO\
 02-Jun-2024\0\\# def2svp wb97xd scrf=(smd,solvent=acetonitrile) g09def
 ault scf=(xqc,maxcycle=64) force guess=read nosymm\\Title Card\\-1,1\C
 l,-9.68675166,8.28093504,10.55484198\C,-8.33860137,4.24292514,12.21761
 384\C,-9.13516775,3.93000436,11.10014586\C,-10.04488023,2.86142847,11.
 21393128\C,-10.20372517,2.17783626,12.41480148\C,-9.44327468,2.5358606
 7,13.52898402\C,-8.49415626,3.55438258,13.41720287\H,-7.58193344,5.027
 65103,12.14707152\H,-10.63732323,2.57119111,10.34167585\H,-10.92142073
 ,1.35667251,12.48226035\H,-9.5778165,2.01175082,14.47779829\H,-7.86978
 243,3.81372768,14.27586688\C,-9.06633489,4.67061743,9.83875327\C,-8.38
 638752,5.81382366,9.60867092\H,-9.64804771,4.23824234,9.0169542\H,-8.3
 8017629,6.25628815,8.61046319\H,-7.76214875,6.29848928,10.35952837\O,-
 0.97650555,-1.79724983,7.46711882\O,-8.39574738,-1.33378826,7.46122805
 \O,-7.0243017,1.34842731,10.47209186\O,-2.33414089,-4.39474555,10.5543
 2141\W,-3.40505323,0.68857369,6.47384472\W,-5.99030501,-3.81798565,6.5
 5869452\W,-3.61314552,0.87044891,11.42072402\W,-5.76206781,-3.86128488
 ,11.48160451\W,-2.42996098,-2.59288682,6.40328001\W,-6.94181129,-0.532
 83338,6.37288421\W,-6.82063718,-0.24847837,11.55941677\W,-2.54239861,-
 2.73423401,11.60175188\O,-3.16974888,1.86997581,5.29137613\O,-6.123388
 91,-5.06941341,5.41742755\O,-2.6869268,1.71316421,12.57036201\O,-6.680
 74484,-4.66084672,12.66546026\O,-2.65677054,-0.9162993,5.58733864\O,-6
 .70257979,-2.2672287,5.62124839\O,-5.31128545,0.55118324,12.36029173\O
 ,-4.04963089,-3.52944152,12.40559066\O,0.30831148,-0.01173346,9.282598
 83\O,-9.69373089,-3.04218384,9.32917717\O,-6.34400216,3.43095808,8.664
 87839\O,-3.00963673,-6.49202741,8.74491897\O,-1.78280977,0.74990403,7.
 47363613\O,-7.59794887,-3.88378872,7.54216417\O,-4.49338537,2.19705018
 ,10.42785455\O,-4.87405759,-5.23031644,10.5283639\O,-1.60031577,-3.540
 5105,5.26001187\O,-7.82128945,0.27986401,5.18252566\O,-8.04621001,-0.1
 6878677,12.73341958\O,-1.30237269,-2.85612535,12.75708456\W,-1.2488377
 3,-0.5293443,8.83702447\W,-8.13482238,-2.5395179,8.87440718\W,-5.86892
 735,1.85878528,9.04397381\W,-3.49447345,-4.91765078,9.1645689\O,-4.211
 19243,-3.11130476,6.07150489\O,-5.15279787,-0.06161815,6.01470692\O,-6
 .17019522,-1.99704038,11.90714789\O,-3.17053947,-0.98669355,11.9260187
 2\O,-4.35401421,1.58058077,7.83031067\O,-5.00612818,-4.68071062,7.9224
 0098\O,-2.32452853,0.56762902,10.07982639\O,-7.04738699,-3.61464654,10
 .13072459\O,-2.56816556,-3.90916063,7.86789981\O,-6.80938962,0.7947629
 ,7.80275489\O,-7.82596149,-1.17683965,10.13827775\O,-1.5593761,-1.8684
 8695,10.13880509\O,-3.35554038,-1.15819484,8.00789388\O,-6.02075299,-1
 .95808722,8.03377029\O,-5.11632397,-0.20761907,9.94361806\O,-4.2353940
 4,-2.84658884,9.97430511\K,-3.21203927,-6.1345955,5.6454971\K,-0.10853
 728,0.05334224,12.33945138\K,-9.28679608,-2.83551579,12.43349615\V,-4.
 68412997,-1.53908092,8.98823899\\Version=ES64L-G16RevC.01\HF=-7327.701
 6784\RMSD=6.860e-09\RMSF=6.420e-03\Dipole=10.1485516,-22.0199526,2.477
 957\Quadrupole=-70.97462,43.4168878,27.5577322,335.7559694,336.8531481
 ,-357.364146\PG=C01 [X(C8H8Cl1K3O40V1W12)]\\@
 The archive entry for this job was punched.


 IF YOU WISH TO UNDERSTAND THE FRAGRANCE OF THE ROSE, 
 OR THE TENACITY OF THE OAK; 
 IF YOU ARE NOT SATISFIED UNTIL YOU KNOW THE SECRET PATHS 
 BY WHICH THE SUNSHINE AND THE AIR ACHIEVE THESE WONDERS; 
 IF YOU WISH TO SEE THE PATTERN WHICH UNDERLIES ONE LARGE FIELD OF 
 HUMAN EXPERIENCE AND HUMAN MEASUREMENT, THEN TAKE UP CHEMISTRY.

                                         -- C. A. COULSON, 1973.
 Job cpu time:       0 days  8 hours 40 minutes 37.3 seconds.
 Elapsed time:       0 days  0 hours  9 minutes 51.0 seconds.
 File lengths (MBytes):  RWF=   1257 Int=      0 D2E=      0 Chk=    249 Scr=      1
 Normal termination of Gaussian 16 at Sun Jun  2 15:02:42 2024.
