 Entering Gaussian System, Link 0=g16
 Input=JOBS/49_A.gjf
 Output=JOBS/49_A.log
 Initial command:
 /data/app/gaussian/C01-avx2//g16/l1.exe "/tmp/Gau-673085.inp" -scrdir="/tmp/"
 Entering Link 1 = /data/app/gaussian/C01-avx2//g16/l1.exe PID=    673086.
  
 Copyright (c) 1988-2019, Gaussian, Inc.  All Rights Reserved.
  
 This is part of the Gaussian(R) 16 program.  It is based on
 the Gaussian(R) 09 system (copyright 2009, Gaussian, Inc.),
 the Gaussian(R) 03 system (copyright 2003, Gaussian, Inc.),
 the Gaussian(R) 98 system (copyright 1998, Gaussian, Inc.),
 the Gaussian(R) 94 system (copyright 1995, Gaussian, Inc.),
 the Gaussian 92(TM) system (copyright 1992, Gaussian, Inc.),
 the Gaussian 90(TM) system (copyright 1990, Gaussian, Inc.),
 the Gaussian 88(TM) system (copyright 1988, Gaussian, Inc.),
 the Gaussian 86(TM) system (copyright 1986, Carnegie Mellon
 University), and the Gaussian 82(TM) system (copyright 1983,
 Carnegie Mellon University). Gaussian is a federally registered
 trademark of Gaussian, Inc.
  
 This software contains proprietary and confidential information,
 including trade secrets, belonging to Gaussian, Inc.
  
 This software is provided under written license and may be
 used, copied, transmitted, or stored only in accord with that
 written license.
  
 The following legend is applicable only to US Government
 contracts under FAR:
  
                    RESTRICTED RIGHTS LEGEND
  
 Use, reproduction and disclosure by the US Government is
 subject to restrictions as set forth in subparagraphs (a)
 and (c) of the Commercial Computer Software - Restricted
 Rights clause in FAR 52.227-19.
  
 Gaussian, Inc.
 340 Quinnipiac St., Bldg. 40, Wallingford CT 06492
  
  
 ---------------------------------------------------------------
 Warning -- This program may not be used in any manner that
 competes with the business of Gaussian, Inc. or will provide
 assistance to any competitor of Gaussian, Inc.  The licensee
 of this program is prohibited from giving any competitor of
 Gaussian, Inc. access to this program.  By using this program,
 the user acknowledges that Gaussian, Inc. is engaged in the
 business of creating and licensing software in the field of
 computational chemistry and represents and warrants to the
 licensee that it is not a competitor of Gaussian, Inc. and that
 it will not use this program in any manner prohibited above.
 ---------------------------------------------------------------
  

 Cite this work as:
 Gaussian 16, Revision C.01,
 M. J. Frisch, G. W. Trucks, H. B. Schlegel, G. E. Scuseria, 
 M. A. Robb, J. R. Cheeseman, G. Scalmani, V. Barone, 
 G. A. Petersson, H. Nakatsuji, X. Li, M. Caricato, A. V. Marenich, 
 J. Bloino, B. G. Janesko, R. Gomperts, B. Mennucci, H. P. Hratchian, 
 J. V. Ortiz, A. F. Izmaylov, J. L. Sonnenberg, D. Williams-Young, 
 F. Ding, F. Lipparini, F. Egidi, J. Goings, B. Peng, A. Petrone, 
 T. Henderson, D. Ranasinghe, V. G. Zakrzewski, J. Gao, N. Rega, 
 G. Zheng, W. Liang, M. Hada, M. Ehara, K. Toyota, R. Fukuda, 
 J. Hasegawa, M. Ishida, T. Nakajima, Y. Honda, O. Kitao, H. Nakai, 
 T. Vreven, K. Throssell, J. A. Montgomery, Jr., J. E. Peralta, 
 F. Ogliaro, M. J. Bearpark, J. J. Heyd, E. N. Brothers, K. N. Kudin, 
 V. N. Staroverov, T. A. Keith, R. Kobayashi, J. Normand, 
 K. Raghavachari, A. P. Rendell, J. C. Burant, S. S. Iyengar, 
 J. Tomasi, M. Cossi, J. M. Millam, M. Klene, C. Adamo, R. Cammi, 
 J. W. Ochterski, R. L. Martin, K. Morokuma, O. Farkas, 
 J. B. Foresman, and D. J. Fox, Gaussian, Inc., Wallingford CT, 2019.
 
 ******************************************
 Gaussian 16:  ES64L-G16RevC.01  3-Jul-2019
                 2-Jun-2024 
 ******************************************
 %chk=a.chk
 %nprocshared=56
 Will use up to   56 processors via shared memory.
 %mem=96gb
 ----------------------------------------------------------------------
 # def2svp wb97xd scrf=(smd,solvent=acetonitrile) g09default scf=(xqc,m
 axcycle=64) force guess=read nosymm
 ----------------------------------------------------------------------
 1/10=7,30=1,38=1,158=3,167=1/1,3;
 2/12=2,15=1,17=6,18=5,40=1/2;
 3/5=43,7=101,11=2,25=1,27=10,30=1,70=32201,71=1,72=2,74=-58,75=-4,116=-2,158=3/1,2,3;
 4/5=1,60=-1/1;
 5/5=2,7=64,8=3,13=1,38=6,53=2,87=10/2,8;
 6/7=2,8=2,9=2,10=2,28=1,87=10/1;
 7/29=1,30=1,87=10/1,2,3,16;
 1/10=7,30=1,158=3,167=1/3;
 99//99;
 Using 2006 physical constants.
 ----------
 Title Card
 ----------
 Symbolic Z-matrix:
 Charge = -1 Multiplicity = 1
 17                   -9.66015   8.27827   10.54954 
 6                    -8.34192   4.24686   12.21581 
 6                    -9.13801   3.93099   11.09875 
 6                    -10.04909   2.86421   11.21481 
 6                    -10.20493   2.17985   12.41555 
 6                    -9.44023   2.53582   13.52748 
 6                    -8.49419   3.55727   13.4153 
 1                    -7.5901    5.0363    12.14547 
 1                    -10.64703   2.5792    10.34462 
 1                    -10.9241   1.36012   12.48429 
 1                    -9.56935   2.0081    14.47503 
 1                    -7.87012   3.81838   14.2737 
 6                    -9.07406   4.67208   9.83767 
 6                    -8.40469   5.82259   9.61385 
 1                    -9.65527   4.23915   9.01578 
 1                    -8.4103    6.27842   8.62208 
 1                    -7.78322   6.30543   10.36762 
 8                    -0.97541  -1.80042   7.46663 
 8                    -8.39192  -1.33313   7.46168 
 8                    -7.02144   1.34786   10.47247 
 8                    -2.33428  -4.39714   10.55472 
 74                   -3.40242   0.68921   6.4756 
 74                   -5.98915  -3.81899   6.55796 
 74                   -3.61126   0.86885   11.41848 
 74                   -5.76128  -3.86348   11.48257 
 74                   -2.42907  -2.59306   6.40335 
 74                   -6.93902  -0.53361   6.37164 
 74                   -6.81764  -0.24957   11.55998 
 74                   -2.54256  -2.73786   11.60211 
 8                    -3.16789   1.87026   5.29274 
 8                    -6.12218  -5.07008   5.4164 
 8                    -2.68312   1.70979   12.56765 
 8                    -6.68113  -4.66307   12.66555 
 8                    -2.65724  -0.91732   5.58845 
 8                    -6.7009   -2.26797   5.62058 
 8                    -5.30805   0.5503    12.35968 
 8                    -4.04951  -3.53236   12.40711 
 8                     0.31168  -0.01596   9.2803 
 8                    -9.69162  -3.04282   9.32752 
 8                    -6.34342   3.43051   8.66425 
 8                    -3.0114   -6.49407   8.74377 
 8                    -1.78011   0.74679   7.47316 
 8                    -7.59717  -3.88344   7.5412 
 8                    -4.49077   2.19552   10.42663 
 8                    -4.87332  -5.23252   10.52994 
 8                    -1.59968  -3.53751   5.25777 
 8                    -7.81655   0.27918   5.18004 
 8                    -8.04123  -0.16754   12.73563 
 8                    -1.30457  -2.85877   12.7597 
 74                   -1.24627  -0.53324   8.83769 
 74                   -8.13236  -2.54011   8.87414 
 74                   -5.86872   1.85843   9.0433 
 74                   -3.49522  -4.91965   9.16421 
 8                    -4.21086  -3.11294   6.07308 
 8                    -5.15018  -0.06309   6.01695 
 8                    -6.16817  -1.99829   11.90759 
 8                    -3.17162  -0.99013   11.92168 
 8                    -4.3516    1.57964   7.83168 
 8                    -5.00731  -4.68209   7.92377 
 8                    -2.32187   0.56447   10.078 
 8                    -7.04497  -3.61509   10.13012 
 8                    -2.56889  -3.91001   7.86889 
 8                    -6.80757   0.79451   7.80264 
 8                    -7.82338  -1.17736   10.13886 
 8                    -1.55651  -1.87202   10.13907 
 8                    -3.35407  -1.15987   8.01015 
 8                    -6.01739  -1.95984   8.03382 
 8                    -5.11433  -0.20958   9.94303 
 8                    -4.23566  -2.84876   9.97506 
 19                   -3.21249  -6.1334    5.6465 
 19                   -0.11179   0.04907   12.33382 
 19                   -9.28469  -2.82845   12.43012 
 23                   -4.68244  -1.54128   8.98912 
 

 GradGradGradGradGradGradGradGradGradGradGradGradGradGradGradGradGradGrad
 Berny optimization.
 Initialization pass.
 Trust Radius=3.00D-01 FncErr=1.00D-07 GrdErr=1.00D-07 EigMax=2.50D+02 EigMin=1.00D-04
 Number of steps in this run=      2 maximum allowed number of steps=      2.
 GradGradGradGradGradGradGradGradGradGradGradGradGradGradGradGradGradGrad

 Symmetry turned off by external request.
 Stoichiometry    C8H8ClK3O40VW12(1-)
 Framework group  C1[X(C8H8ClK3O40VW12)]
 Deg. of freedom   213
 Full point group                 C1      NOp   1
                          Input orientation:                          
 ---------------------------------------------------------------------
 Center     Atomic      Atomic             Coordinates (Angstroms)
 Number     Number       Type             X           Y           Z
 ---------------------------------------------------------------------
      1         17           0       -9.660150    8.278267   10.549537
      2          6           0       -8.341923    4.246861   12.215806
      3          6           0       -9.138015    3.930987   11.098746
      4          6           0      -10.049093    2.864214   11.214807
      5          6           0      -10.204933    2.179854   12.415549
      6          6           0       -9.440227    2.535820   13.527478
      7          6           0       -8.494194    3.557272   13.415301
      8          1           0       -7.590103    5.036304   12.145475
      9          1           0      -10.647028    2.579204   10.344624
     10          1           0      -10.924098    1.360122   12.484293
     11          1           0       -9.569350    2.008104   14.475031
     12          1           0       -7.870120    3.818380   14.273701
     13          6           0       -9.074056    4.672076    9.837671
     14          6           0       -8.404686    5.822588    9.613849
     15          1           0       -9.655274    4.239152    9.015777
     16          1           0       -8.410299    6.278419    8.622083
     17          1           0       -7.783215    6.305434   10.367618
     18          8           0       -0.975409   -1.800422    7.466629
     19          8           0       -8.391916   -1.333126    7.461677
     20          8           0       -7.021436    1.347858   10.472472
     21          8           0       -2.334284   -4.397143   10.554719
     22         74           0       -3.402420    0.689209    6.475605
     23         74           0       -5.989151   -3.818989    6.557963
     24         74           0       -3.611258    0.868848   11.418482
     25         74           0       -5.761284   -3.863483   11.482569
     26         74           0       -2.429073   -2.593055    6.403347
     27         74           0       -6.939018   -0.533605    6.371639
     28         74           0       -6.817645   -0.249573   11.559978
     29         74           0       -2.542561   -2.737857   11.602106
     30          8           0       -3.167886    1.870263    5.292737
     31          8           0       -6.122179   -5.070082    5.416400
     32          8           0       -2.683122    1.709792   12.567652
     33          8           0       -6.681131   -4.663071   12.665547
     34          8           0       -2.657237   -0.917323    5.588448
     35          8           0       -6.700896   -2.267970    5.620576
     36          8           0       -5.308045    0.550303   12.359681
     37          8           0       -4.049513   -3.532356   12.407109
     38          8           0        0.311681   -0.015957    9.280303
     39          8           0       -9.691624   -3.042820    9.327516
     40          8           0       -6.343425    3.430509    8.664252
     41          8           0       -3.011405   -6.494069    8.743772
     42          8           0       -1.780114    0.746787    7.473163
     43          8           0       -7.597172   -3.883440    7.541203
     44          8           0       -4.490766    2.195520   10.426634
     45          8           0       -4.873321   -5.232516   10.529936
     46          8           0       -1.599684   -3.537508    5.257769
     47          8           0       -7.816546    0.279175    5.180036
     48          8           0       -8.041233   -0.167541   12.735628
     49          8           0       -1.304574   -2.858765   12.759697
     50         74           0       -1.246273   -0.533238    8.837693
     51         74           0       -8.132359   -2.540112    8.874143
     52         74           0       -5.868725    1.858430    9.043299
     53         74           0       -3.495216   -4.919646    9.164206
     54          8           0       -4.210859   -3.112935    6.073079
     55          8           0       -5.150175   -0.063090    6.016947
     56          8           0       -6.168172   -1.998290   11.907587
     57          8           0       -3.171615   -0.990132   11.921681
     58          8           0       -4.351601    1.579643    7.831684
     59          8           0       -5.007311   -4.682086    7.923772
     60          8           0       -2.321868    0.564469   10.077999
     61          8           0       -7.044974   -3.615094   10.130120
     62          8           0       -2.568893   -3.910013    7.868894
     63          8           0       -6.807573    0.794512    7.802639
     64          8           0       -7.823376   -1.177360   10.138862
     65          8           0       -1.556513   -1.872017   10.139067
     66          8           0       -3.354071   -1.159872    8.010152
     67          8           0       -6.017392   -1.959836    8.033819
     68          8           0       -5.114329   -0.209582    9.943027
     69          8           0       -4.235664   -2.848758    9.975057
     70         19           0       -3.212492   -6.133403    5.646500
     71         19           0       -0.111794    0.049066   12.333818
     72         19           0       -9.284690   -2.828445   12.430118
     73         23           0       -4.682435   -1.541275    8.989123
 ---------------------------------------------------------------------
 Rotational constants (GHZ):           0.0172149           0.0132201           0.0129960
 Standard basis: def2SVP (5D, 7F)
  1217 basis functions,  2313 primitive gaussians,  1337 cartesian basis functions
   321 alpha electrons      321 beta electrons
       nuclear repulsion energy     20975.6694616462 Hartrees.
 NAtoms=   73 NActive=   73 NUniq=   73 SFac= 1.00D+00 NAtFMM=   60 NAOKFM=T Big=T
 Integral buffers will be    131072 words long.
 Raffenetti 2 integral format.
 Two-electron integral symmetry is turned off.
 Nuclear repulsion after empirical dispersion term =    20975.3929931795 Hartrees.
 Force PCM accuracy= 1.00D-10.
 ------------------------------------------------------------------------------
 Polarizable Continuum Model (PCM)
 =================================
 Model                : PCM (using non-symmetric T matrix).
 Atomic radii         : SMD-Coulomb.
 Polarization charges : Total charges.
 Charge compensation  : None.
 Solution method      : On-the-fly selection.
 Cavity type          : VdW (van der Waals Surface) (Alpha=1.000).
 Cavity algorithm     : GePol (No added spheres)
                        Default sphere list used, NSphG=   73.
                        Lebedev-Laikov grids with approx.  5.0 points / Ang**2.
                        Smoothing algorithm: York/Karplus (Gamma=1.0000).
                        Polarization charges: spherical gaussians, with
                                              point-specific exponents (IZeta= 3).
                        Self-potential: point-specific (ISelfS= 7).
                        Self-field    : sphere-specific E.n sum rule (ISelfD= 2).
 1st derivatives      : Analytical E(r).r(x)/FMM algorithm (CHGder, D1EAlg=3).
                        Cavity 1st derivative terms included.
 Solvent              : Acetonitrile, Eps=  35.688000 Eps(inf)=   1.806874
 ------------------------------------------------------------------------------
 ------------------------------------------------------------------------------
 Atomic radii for non-electrostatic terms: SMD-CDS.
 ------------------------------------------------------------------------------
 Nuclear repulsion after PCM non-electrostatic terms =    20975.3872849223 Hartrees.
 One-electron integrals computed using PRISM.
   1 Symmetry operations used in ECPInt.
 ECPInt:  NShTT=  127765 NPrTT=  468030 LenC2=   96537 LenP2D=  220892.
 LDataN:  DoStor=T MaxTD1= 8 Len=  415
 NBasis=  1217 RedAO= T EigKep=  1.38D-04  NBF=  1217
 NBsUse=  1217 1.00D-06 EigRej= -1.00D+00 NBFU=  1217
 Defaulting to unpruned grid for atomic number  74.
 Defaulting to unpruned grid for atomic number  74.
 Defaulting to unpruned grid for atomic number  74.
 Defaulting to unpruned grid for atomic number  74.
 Defaulting to unpruned grid for atomic number  74.
 Defaulting to unpruned grid for atomic number  74.
 Defaulting to unpruned grid for atomic number  74.
 Defaulting to unpruned grid for atomic number  74.
 Initial guess from the checkpoint file:  "a.chk"
 B after Tr=     0.001303   -0.001235    0.000146
         Rot=    1.000000   -0.000004    0.000013    0.000048 Ang=  -0.01 deg.
 Requested convergence on RMS density matrix=1.00D-08 within  64 cycles.
 Requested convergence on MAX density matrix=1.00D-06.
 Requested convergence on             energy=1.00D-06.
 No special actions if energy rises.
 Defaulting to unpruned grid for atomic number  74.
 Defaulting to unpruned grid for atomic number  74.
 Defaulting to unpruned grid for atomic number  74.
 Defaulting to unpruned grid for atomic number  74.
 Defaulting to unpruned grid for atomic number  74.
 Defaulting to unpruned grid for atomic number  74.
 Defaulting to unpruned grid for atomic number  74.
 Defaulting to unpruned grid for atomic number  74.
 Defaulting to unpruned grid for atomic number  74.
 Defaulting to unpruned grid for atomic number  74.
 Defaulting to unpruned grid for atomic number  74.
 Defaulting to unpruned grid for atomic number  74.
 Defaulting to unpruned grid for atomic number  74.
 Defaulting to unpruned grid for atomic number  74.
 Defaulting to unpruned grid for atomic number  74.
 Defaulting to unpruned grid for atomic number  74.
 Defaulting to unpruned grid for atomic number  74.
 Defaulting to unpruned grid for atomic number  74.
 Defaulting to unpruned grid for atomic number  74.
 Defaulting to unpruned grid for atomic number  74.
 Defaulting to unpruned grid for atomic number  74.
 Defaulting to unpruned grid for atomic number  74.
 Defaulting to unpruned grid for atomic number  74.
 Defaulting to unpruned grid for atomic number  74.
 Defaulting to unpruned grid for atomic number  74.
 Defaulting to unpruned grid for atomic number  74.
 Defaulting to unpruned grid for atomic number  74.
 Defaulting to unpruned grid for atomic number  74.
 Defaulting to unpruned grid for atomic number  74.
 Defaulting to unpruned grid for atomic number  74.
 Defaulting to unpruned grid for atomic number  74.
 Defaulting to unpruned grid for atomic number  74.
 Defaulting to unpruned grid for atomic number  74.
 Defaulting to unpruned grid for atomic number  74.
 Defaulting to unpruned grid for atomic number  74.
 Defaulting to unpruned grid for atomic number  74.
 Defaulting to unpruned grid for atomic number  74.
 Defaulting to unpruned grid for atomic number  74.
 Defaulting to unpruned grid for atomic number  74.
 Defaulting to unpruned grid for atomic number  74.
 Defaulting to unpruned grid for atomic number  74.
 Defaulting to unpruned grid for atomic number  74.
 Defaulting to unpruned grid for atomic number  74.
 Defaulting to unpruned grid for atomic number  74.
 Defaulting to unpruned grid for atomic number  74.
 Defaulting to unpruned grid for atomic number  74.
 Defaulting to unpruned grid for atomic number  74.
 Defaulting to unpruned grid for atomic number  74.
 Defaulting to unpruned grid for atomic number  74.
 Defaulting to unpruned grid for atomic number  74.
 Defaulting to unpruned grid for atomic number  74.
 Defaulting to unpruned grid for atomic number  74.
 Defaulting to unpruned grid for atomic number  74.
 Defaulting to unpruned grid for atomic number  74.
 Defaulting to unpruned grid for atomic number  74.
 Defaulting to unpruned grid for atomic number  74.
 Inv3:  Mode=1 IEnd=    87415212.
 Iteration    1 A*A^-1 deviation from unit magnitude is 4.44D-15 for    411.
 Iteration    1 A*A^-1 deviation from orthogonality  is 2.89D-15 for    566    224.
 Iteration    1 A^-1*A deviation from unit magnitude is 3.77D-15 for    194.
 Iteration    1 A^-1*A deviation from orthogonality  is 3.69D-11 for    814    738.
 Error on total polarization charges =  0.01612
 SCF Done:  E(RwB97XD) =  -7327.70175813     A.U. after   10 cycles
            NFock= 10  Conv=0.61D-08     -V/T= 2.0832
 SMD-CDS (non-electrostatic) energy       (kcal/mol) =      -3.58
 (included in total energy above)
 QCSCF skips out because SCF is already converged.

 **********************************************************************

            Population analysis using the SCF Density.

 **********************************************************************

 Alpha  occ. eigenvalues -- -197.29539-130.00096-130.00081-129.99974-101.48292
 Alpha  occ. eigenvalues --  -22.62653 -19.33662 -19.33656 -19.33655 -19.33630
 Alpha  occ. eigenvalues --  -19.30729 -19.30686 -19.30685 -19.30681 -19.30671
 Alpha  occ. eigenvalues --  -19.30667 -19.30665 -19.30630 -19.30553 -19.30374
 Alpha  occ. eigenvalues --  -19.30346 -19.30183 -19.29320 -19.29309 -19.29302
 Alpha  occ. eigenvalues --  -19.29277 -19.29269 -19.29255 -19.29222 -19.29197
 Alpha  occ. eigenvalues --  -19.29192 -19.29172 -19.29169 -19.29147 -19.29130
 Alpha  occ. eigenvalues --  -19.29099 -19.29090 -19.29078 -19.29076 -19.29055
 Alpha  occ. eigenvalues --  -19.29053 -19.28999 -19.28983 -19.28964 -19.28928
 Alpha  occ. eigenvalues --  -19.28853 -19.11611 -19.11603 -19.11594 -13.37501
 Alpha  occ. eigenvalues --  -13.37485 -13.37372 -10.70431 -10.70424 -10.70422
 Alpha  occ. eigenvalues --  -10.70415 -10.70408 -10.70407 -10.70302 -10.70296
 Alpha  occ. eigenvalues --  -10.70290 -10.29868 -10.29349 -10.29290 -10.29071
 Alpha  occ. eigenvalues --  -10.28984 -10.28975 -10.28111 -10.27570  -9.38764
 Alpha  occ. eigenvalues --   -7.13590  -7.13543  -7.13535  -3.23323  -3.23318
 Alpha  occ. eigenvalues --   -3.23308  -3.23299  -3.23295  -3.23282  -3.23268
 Alpha  occ. eigenvalues --   -3.23260  -3.23228  -3.22986  -3.22974  -3.22792
 Alpha  occ. eigenvalues --   -2.91869  -1.94243  -1.94208  -1.94198  -1.87722
 Alpha  occ. eigenvalues --   -1.87677  -1.87662  -1.87633  -1.87490  -1.87473
 Alpha  occ. eigenvalues --   -1.87469  -1.87453  -1.87429  -1.87284  -1.87254
 Alpha  occ. eigenvalues --   -1.87104  -1.86630  -1.86512  -1.86503  -1.86486
 Alpha  occ. eigenvalues --   -1.86461  -1.86439  -1.86346  -1.86337  -1.86320
 Alpha  occ. eigenvalues --   -1.86300  -1.86295  -1.86265  -1.86151  -1.86138
 Alpha  occ. eigenvalues --   -1.86128  -1.86119  -1.86048  -1.86032  -1.85993
 Alpha  occ. eigenvalues --   -1.85927  -1.85911  -1.85811  -1.85720  -1.85673
 Alpha  occ. eigenvalues --   -1.51188  -1.51176  -1.51070  -1.13079  -1.11312
 Alpha  occ. eigenvalues --   -1.11230  -1.11224  -1.08972  -1.08534  -1.08492
 Alpha  occ. eigenvalues --   -1.08316  -1.07571  -1.07515  -1.07501  -1.06900
 Alpha  occ. eigenvalues --   -1.06891  -1.06872  -1.06328  -1.06310  -1.05314
 Alpha  occ. eigenvalues --   -1.05304  -1.04979  -1.04975  -1.04967  -1.04191
 Alpha  occ. eigenvalues --   -1.04181  -1.04170  -1.04026  -1.04007  -1.03994
 Alpha  occ. eigenvalues --   -1.03938  -1.03914  -1.03896  -1.03763  -1.03735
 Alpha  occ. eigenvalues --   -1.03616  -1.03550  -1.03305  -1.03263  -1.03117
 Alpha  occ. eigenvalues --   -1.03103  -1.03023  -1.02962  -0.94372  -0.86657
 Alpha  occ. eigenvalues --   -0.86645  -0.86546  -0.86495  -0.86466  -0.86452
 Alpha  occ. eigenvalues --   -0.86450  -0.86449  -0.86359  -0.86321  -0.82810
 Alpha  occ. eigenvalues --   -0.79766  -0.71530  -0.69678  -0.68015  -0.64618
 Alpha  occ. eigenvalues --   -0.63992  -0.63915  -0.63906  -0.63333  -0.63314
 Alpha  occ. eigenvalues --   -0.63183  -0.62950  -0.62696  -0.62608  -0.62016
 Alpha  occ. eigenvalues --   -0.61630  -0.61619  -0.61522  -0.61258  -0.61247
 Alpha  occ. eigenvalues --   -0.61176  -0.60415  -0.59491  -0.59475  -0.59459
 Alpha  occ. eigenvalues --   -0.59422  -0.59373  -0.58576  -0.58002  -0.57975
 Alpha  occ. eigenvalues --   -0.57882  -0.57082  -0.57041  -0.57013  -0.56298
 Alpha  occ. eigenvalues --   -0.56278  -0.56122  -0.55702  -0.54860  -0.54809
 Alpha  occ. eigenvalues --   -0.54771  -0.54526  -0.54242  -0.54111  -0.54094
 Alpha  occ. eigenvalues --   -0.54017  -0.53960  -0.53235  -0.53196  -0.53067
 Alpha  occ. eigenvalues --   -0.53034  -0.52904  -0.52702  -0.52666  -0.52638
 Alpha  occ. eigenvalues --   -0.52593  -0.52513  -0.52467  -0.52449  -0.51609
 Alpha  occ. eigenvalues --   -0.51587  -0.51329  -0.51308  -0.51265  -0.51226
 Alpha  occ. eigenvalues --   -0.51172  -0.51165  -0.50935  -0.50762  -0.50584
 Alpha  occ. eigenvalues --   -0.50567  -0.50561  -0.49873  -0.49859  -0.49299
 Alpha  occ. eigenvalues --   -0.49281  -0.49251  -0.49218  -0.49162  -0.49073
 Alpha  occ. eigenvalues --   -0.48898  -0.48081  -0.48030  -0.47927  -0.47701
 Alpha  occ. eigenvalues --   -0.47387  -0.47287  -0.47246  -0.46998  -0.46927
 Alpha  occ. eigenvalues --   -0.46812  -0.46553  -0.46489  -0.46474  -0.46193
 Alpha  occ. eigenvalues --   -0.46143  -0.46107  -0.45593  -0.45101  -0.44918
 Alpha  occ. eigenvalues --   -0.44875  -0.44213  -0.44145  -0.44035  -0.43517
 Alpha  occ. eigenvalues --   -0.43276  -0.43224  -0.43113  -0.43098  -0.43065
 Alpha  occ. eigenvalues --   -0.42700  -0.42677  -0.42655  -0.42588  -0.42578
 Alpha  occ. eigenvalues --   -0.42496  -0.42459  -0.42439  -0.42283  -0.42266
 Alpha  occ. eigenvalues --   -0.42249  -0.42023  -0.41912  -0.41855  -0.41835
 Alpha  occ. eigenvalues --   -0.41172  -0.41154  -0.41133  -0.41012  -0.40545
 Alpha  occ. eigenvalues --   -0.40514  -0.40495  -0.40387  -0.39444  -0.39429
 Alpha  occ. eigenvalues --   -0.36977  -0.32544  -0.29150  -0.25079  -0.25055
 Alpha  occ. eigenvalues --   -0.23571
 Alpha virt. eigenvalues --   -0.09538  -0.09309  -0.08546  -0.08482  -0.07069
 Alpha virt. eigenvalues --   -0.07042  -0.06942  -0.04548  -0.04206  -0.04162
 Alpha virt. eigenvalues --   -0.03725  -0.03506  -0.03458  -0.03258  -0.03155
 Alpha virt. eigenvalues --   -0.03116  -0.03087  -0.02225  -0.02174  -0.02138
 Alpha virt. eigenvalues --   -0.01525  -0.01508  -0.01463  -0.01312  -0.01255
 Alpha virt. eigenvalues --   -0.00110  -0.00097  -0.00033   0.01394   0.01452
 Alpha virt. eigenvalues --    0.01901   0.01926   0.02023   0.02121   0.02159
 Alpha virt. eigenvalues --    0.02181   0.02241   0.02286   0.02761   0.02829
 Alpha virt. eigenvalues --    0.02893   0.02969   0.03004   0.04364   0.04516
 Alpha virt. eigenvalues --    0.06752   0.07273   0.07525   0.07542   0.07801
 Alpha virt. eigenvalues --    0.08016   0.08477   0.08531   0.08793   0.09155
 Alpha virt. eigenvalues --    0.09341   0.09385   0.09664   0.09889   0.10262
 Alpha virt. eigenvalues --    0.10333   0.10382   0.10446   0.10482   0.10644
 Alpha virt. eigenvalues --    0.10893   0.11048   0.11059   0.11639   0.11723
 Alpha virt. eigenvalues --    0.12214   0.13117   0.13234   0.13320   0.13589
 Alpha virt. eigenvalues --    0.13749   0.14438   0.14547   0.14676   0.14990
 Alpha virt. eigenvalues --    0.15558   0.16152   0.16336   0.16576   0.16754
 Alpha virt. eigenvalues --    0.16772   0.16901   0.17085   0.17250   0.17714
 Alpha virt. eigenvalues --    0.17906   0.18163   0.18226   0.18368   0.18577
 Alpha virt. eigenvalues --    0.18750   0.19063   0.19311   0.19415   0.19574
 Alpha virt. eigenvalues --    0.19659   0.20195   0.20278   0.20499   0.20586
 Alpha virt. eigenvalues --    0.20760   0.20885   0.20988   0.21374   0.21422
 Alpha virt. eigenvalues --    0.21537   0.21629   0.21734   0.21872   0.22030
 Alpha virt. eigenvalues --    0.22440   0.22734   0.22919   0.23129   0.23219
 Alpha virt. eigenvalues --    0.23472   0.23793   0.23987   0.24281   0.24582
 Alpha virt. eigenvalues --    0.24737   0.25212   0.25421   0.25649   0.25858
 Alpha virt. eigenvalues --    0.26009   0.26211   0.26417   0.26607   0.26651
 Alpha virt. eigenvalues --    0.26967   0.27219   0.27348   0.27443   0.27751
 Alpha virt. eigenvalues --    0.28020   0.28274   0.28328   0.28671   0.28742
 Alpha virt. eigenvalues --    0.29175   0.29470   0.29885   0.30231   0.30502
 Alpha virt. eigenvalues --    0.30713   0.30904   0.31257   0.31492   0.31838
 Alpha virt. eigenvalues --    0.32306   0.34744   0.35204   0.35755   0.36311
 Alpha virt. eigenvalues --    0.36663   0.36918   0.37256   0.38102   0.38383
 Alpha virt. eigenvalues --    0.38640   0.39186   0.39523   0.39630   0.40219
 Alpha virt. eigenvalues --    0.40700   0.40845   0.40972   0.41115   0.41743
 Alpha virt. eigenvalues --    0.42128   0.42473   0.42809   0.43292   0.43551
 Alpha virt. eigenvalues --    0.43709   0.44516   0.44775   0.44902   0.45276
 Alpha virt. eigenvalues --    0.45787   0.46334   0.46540   0.46694   0.47341
 Alpha virt. eigenvalues --    0.47405   0.47646   0.47860   0.48085   0.48223
 Alpha virt. eigenvalues --    0.48425   0.48459   0.48585   0.48699   0.48992
 Alpha virt. eigenvalues --    0.49152   0.49405   0.49452   0.49774   0.49847
 Alpha virt. eigenvalues --    0.50180   0.50546   0.50677   0.50707   0.50978
 Alpha virt. eigenvalues --    0.51614   0.51702   0.51847   0.52203   0.52423
 Alpha virt. eigenvalues --    0.52666   0.52888   0.53018   0.53140   0.53312
 Alpha virt. eigenvalues --    0.53664   0.54032   0.54289   0.54352   0.54521
 Alpha virt. eigenvalues --    0.54936   0.55393   0.55644   0.56355   0.56431
 Alpha virt. eigenvalues --    0.56845   0.57398   0.57787   0.58023   0.58286
 Alpha virt. eigenvalues --    0.58568   0.59072   0.59438   0.60130   0.60752
 Alpha virt. eigenvalues --    0.61340   0.62254   0.62565   0.62766   0.63186
 Alpha virt. eigenvalues --    0.64085   0.65262   0.65669   0.65704   0.65924
 Alpha virt. eigenvalues --    0.66097   0.66558   0.66989   0.67363   0.67419
 Alpha virt. eigenvalues --    0.67812   0.68328   0.69652   0.70236   0.71079
 Alpha virt. eigenvalues --    0.71390   0.71874   0.72122   0.72181   0.72246
 Alpha virt. eigenvalues --    0.72539   0.72688   0.73232   0.73388   0.73961
 Alpha virt. eigenvalues --    0.74596   0.74834   0.75527   0.75653   0.75849
 Alpha virt. eigenvalues --    0.76165   0.76780   0.76888   0.77182   0.77463
 Alpha virt. eigenvalues --    0.77896   0.78445   0.79031   0.79476   0.79724
 Alpha virt. eigenvalues --    0.80265   0.80432   0.80610   0.80705   0.81491
 Alpha virt. eigenvalues --    0.81521   0.81810   0.82008   0.82519   0.83147
 Alpha virt. eigenvalues --    0.84003   0.84218   0.84768   0.85346   0.85814
 Alpha virt. eigenvalues --    0.87187   0.87550   0.87958   0.88047   0.88746
 Alpha virt. eigenvalues --    0.88851   0.89022   0.89480   0.89649   0.90225
 Alpha virt. eigenvalues --    0.90722   0.90961   0.91221   0.91487   0.91732
 Alpha virt. eigenvalues --    0.92858   0.93030   0.93559   0.93890   0.94044
 Alpha virt. eigenvalues --    0.94199   0.94766   0.95670   0.95921   0.96548
 Alpha virt. eigenvalues --    0.96818   0.97055   0.97284   0.97693   0.97791
 Alpha virt. eigenvalues --    0.98125   0.98291   0.98404   0.98541   0.98777
 Alpha virt. eigenvalues --    0.98905   0.99444   0.99915   1.00403   1.00605
 Alpha virt. eigenvalues --    1.00887   1.01282   1.01586   1.01689   1.01810
 Alpha virt. eigenvalues --    1.02119   1.02229   1.02439   1.02449   1.02638
 Alpha virt. eigenvalues --    1.02912   1.03476   1.03538   1.03695   1.03821
 Alpha virt. eigenvalues --    1.04107   1.04188   1.04370   1.04614   1.04677
 Alpha virt. eigenvalues --    1.04957   1.05079   1.05198   1.05398   1.05790
 Alpha virt. eigenvalues --    1.05923   1.06335   1.06412   1.06980   1.07134
 Alpha virt. eigenvalues --    1.07523   1.07812   1.08606   1.09057   1.09271
 Alpha virt. eigenvalues --    1.09414   1.09851   1.09898   1.10130   1.10217
 Alpha virt. eigenvalues --    1.10733   1.10849   1.10963   1.11023   1.11274
 Alpha virt. eigenvalues --    1.11480   1.11664   1.11754   1.12071   1.12484
 Alpha virt. eigenvalues --    1.12810   1.13447   1.13636   1.14146   1.14788
 Alpha virt. eigenvalues --    1.15275   1.15780   1.16061   1.16285   1.16611
 Alpha virt. eigenvalues --    1.17040   1.17652   1.17848   1.18589   1.18667
 Alpha virt. eigenvalues --    1.19394   1.20612   1.20955   1.21171   1.21317
 Alpha virt. eigenvalues --    1.21477   1.21918   1.22171   1.22995   1.23517
 Alpha virt. eigenvalues --    1.25107   1.26078   1.26505   1.26735   1.27102
 Alpha virt. eigenvalues --    1.27559   1.27928   1.28321   1.28521   1.28590
 Alpha virt. eigenvalues --    1.28772   1.29153   1.29167   1.29418   1.29691
 Alpha virt. eigenvalues --    1.30115   1.30245   1.30381   1.30787   1.30850
 Alpha virt. eigenvalues --    1.31244   1.32204   1.32498   1.33010   1.33190
 Alpha virt. eigenvalues --    1.33258   1.33444   1.33629   1.33897   1.34036
 Alpha virt. eigenvalues --    1.34303   1.34369   1.34573   1.34813   1.34907
 Alpha virt. eigenvalues --    1.34923   1.35250   1.35561   1.35775   1.36085
 Alpha virt. eigenvalues --    1.36153   1.36599   1.36754   1.36867   1.36995
 Alpha virt. eigenvalues --    1.37106   1.37309   1.37607   1.37913   1.37923
 Alpha virt. eigenvalues --    1.38172   1.38504   1.38713   1.38938   1.39042
 Alpha virt. eigenvalues --    1.39339   1.39508   1.39589   1.39763   1.40183
 Alpha virt. eigenvalues --    1.40289   1.40437   1.40524   1.40703   1.40938
 Alpha virt. eigenvalues --    1.41096   1.41171   1.41393   1.41873   1.41953
 Alpha virt. eigenvalues --    1.42598   1.43027   1.43306   1.43474   1.43507
 Alpha virt. eigenvalues --    1.43925   1.44294   1.44572   1.44761   1.45673
 Alpha virt. eigenvalues --    1.46360   1.47170   1.47588   1.47711   1.48112
 Alpha virt. eigenvalues --    1.48249   1.48688   1.49182   1.49579   1.49882
 Alpha virt. eigenvalues --    1.50505   1.51010   1.51314   1.51927   1.53337
 Alpha virt. eigenvalues --    1.53742   1.55327   1.55785   1.55796   1.56022
 Alpha virt. eigenvalues --    1.56174   1.56337   1.56651   1.56771   1.57131
 Alpha virt. eigenvalues --    1.57181   1.58019   1.58240   1.59225   1.59345
 Alpha virt. eigenvalues --    1.59857   1.60243   1.60340   1.60468   1.60539
 Alpha virt. eigenvalues --    1.60690   1.61202   1.61883   1.62218   1.62389
 Alpha virt. eigenvalues --    1.63976   1.64448   1.65132   1.65739   1.66761
 Alpha virt. eigenvalues --    1.67468   1.67910   1.69905   1.70497   1.70848
 Alpha virt. eigenvalues --    1.71271   1.71630   1.72315   1.73124   1.74150
 Alpha virt. eigenvalues --    1.75293   1.75449   1.75574   1.75946   1.76805
 Alpha virt. eigenvalues --    1.76956   1.76997   1.77616   1.77869   1.78706
 Alpha virt. eigenvalues --    1.78899   1.79386   1.79988   1.80475   1.80740
 Alpha virt. eigenvalues --    1.81150   1.81270   1.82082   1.82190   1.82914
 Alpha virt. eigenvalues --    1.82973   1.83247   1.83955   1.84188   1.84533
 Alpha virt. eigenvalues --    1.85194   1.85464   1.85742   1.86131   1.86331
 Alpha virt. eigenvalues --    1.86534   1.87141   1.87441   1.88177   1.88672
 Alpha virt. eigenvalues --    1.89371   1.89915   1.90157   1.90329   1.90362
 Alpha virt. eigenvalues --    1.90740   1.90944   1.91286   1.92349   1.93222
 Alpha virt. eigenvalues --    1.94880   1.95316   1.95516   1.95723   1.96029
 Alpha virt. eigenvalues --    1.98062   1.99275   1.99482   1.99550   2.04116
 Alpha virt. eigenvalues --    2.06247   2.07363   2.08155   2.08579   2.08727
 Alpha virt. eigenvalues --    2.09070   2.09109   2.09548   2.10201   2.11079
 Alpha virt. eigenvalues --    2.11527   2.11993   2.12773   2.14760   2.15542
 Alpha virt. eigenvalues --    2.15989   2.16855   2.17264   2.17496   2.17784
 Alpha virt. eigenvalues --    2.19958   2.20359   2.20446   2.20695   2.20861
 Alpha virt. eigenvalues --    2.21140   2.22232   2.24363   2.25336   2.26091
 Alpha virt. eigenvalues --    2.26432   2.26837   2.27408   2.28500   2.28960
 Alpha virt. eigenvalues --    2.29174   2.29913   2.30420   2.33427   2.35701
 Alpha virt. eigenvalues --    2.36691   2.40301   2.41004   2.41087   2.43630
 Alpha virt. eigenvalues --    2.44238   2.50317   2.51515   2.57221   2.64716
 Alpha virt. eigenvalues --    2.64779   2.64912   2.65415   2.65952   2.66600
 Alpha virt. eigenvalues --    2.66738   2.66820   2.66936   2.66952   2.67052
 Alpha virt. eigenvalues --    2.67096   2.67159   2.67327   2.67352   2.67414
 Alpha virt. eigenvalues --    2.67641   2.67681   2.67779   2.67829   2.67889
 Alpha virt. eigenvalues --    2.68557   2.68901   2.69228   2.69377   2.69995
 Alpha virt. eigenvalues --    2.70187   2.70298   2.70653   2.70725   2.70833
 Alpha virt. eigenvalues --    2.70994   2.71365   2.71421   2.71521   2.71589
 Alpha virt. eigenvalues --    2.71651   2.71909   2.72700   2.72937   2.72975
 Alpha virt. eigenvalues --    2.73125   2.73213   2.73254   2.73337   2.73372
 Alpha virt. eigenvalues --    2.73500   2.73767   2.73881   2.73906   2.73987
 Alpha virt. eigenvalues --    2.74052   2.74150   2.74317   2.74523   2.74694
 Alpha virt. eigenvalues --    2.74756   2.74905   2.75037   2.75547   2.75953
 Alpha virt. eigenvalues --    2.76151   2.76313   2.76456   2.76709   2.76895
 Alpha virt. eigenvalues --    2.77084   2.77199   2.77206   2.78440   2.78587
 Alpha virt. eigenvalues --    2.78626   2.78914   2.79778   2.80064   2.80152
 Alpha virt. eigenvalues --    2.81104   2.81817   2.81839   2.82133   2.82309
 Alpha virt. eigenvalues --    2.82359   2.82689   2.83072   2.83244   2.83641
 Alpha virt. eigenvalues --    2.83764   2.83914   2.83996   2.84240   2.85090
 Alpha virt. eigenvalues --    2.85534   2.86111   2.86174   2.86296   2.86343
 Alpha virt. eigenvalues --    2.86604   2.86803   2.86919   2.88277   2.88567
 Alpha virt. eigenvalues --    2.88695   2.89105   2.89675   2.89752   2.89834
 Alpha virt. eigenvalues --    2.89911   2.90026   2.90098   2.90592   2.90674
 Alpha virt. eigenvalues --    2.90786   2.91752   2.91894   2.92061   2.92086
 Alpha virt. eigenvalues --    2.92262   2.92514   2.92768   2.92901   2.93048
 Alpha virt. eigenvalues --    2.93352   2.93480   2.93667   2.93970   2.94120
 Alpha virt. eigenvalues --    2.94184   2.94994   2.95170   2.95376   2.95721
 Alpha virt. eigenvalues --    2.95799   2.95821   2.96352   2.96561   2.96624
 Alpha virt. eigenvalues --    2.96718   2.96905   2.96950   2.97175   2.97385
 Alpha virt. eigenvalues --    2.97573   2.97726   2.97919   2.98266   2.99151
 Alpha virt. eigenvalues --    2.99281   2.99403   2.99625   2.99686   3.00016
 Alpha virt. eigenvalues --    3.00094   3.00379   3.00984   3.01311   3.01328
 Alpha virt. eigenvalues --    3.02661   3.03046   3.03308   3.03647   3.05208
 Alpha virt. eigenvalues --    3.06554   3.06768   3.07203   3.11013   3.11664
 Alpha virt. eigenvalues --    3.11799   3.11927   3.12204   3.12700   3.13728
 Alpha virt. eigenvalues --    3.13858   3.14032   3.16699   3.19701   3.21838
 Alpha virt. eigenvalues --    3.21878   3.23892   3.32609   3.41252   3.41640
 Alpha virt. eigenvalues --    3.42266   3.43282   3.45012   3.45048   3.45986
 Alpha virt. eigenvalues --    3.46361   3.46444   3.47262   3.47571   3.47910
 Alpha virt. eigenvalues --    3.48022   3.51228   3.51868   3.52471   3.53620
 Alpha virt. eigenvalues --    3.53942   3.54361   3.54679   3.54778   3.54996
 Alpha virt. eigenvalues --    3.55260   3.55419   3.55624   3.56742   3.57514
 Alpha virt. eigenvalues --    3.57695   3.58604   3.59522   3.59646   3.60377
 Alpha virt. eigenvalues --    3.60650   3.61280   3.61553   3.62162   3.62441
 Alpha virt. eigenvalues --    3.69396   3.74724  68.64092  68.65251  68.66223
 Alpha virt. eigenvalues --   68.68312  68.72514  68.73550  68.81674  68.82642
 Alpha virt. eigenvalues --   68.83403  68.85538  68.86717  68.88064 576.22534
 Alpha virt. eigenvalues --  576.23667 576.24618 576.26662 576.30870 576.31893
 Alpha virt. eigenvalues --  576.39867 576.40812 576.41552 576.43594 576.44742
 Alpha virt. eigenvalues --  576.46082
          Condensed to atoms (all electrons):
 Mulliken charges:
               1
     1  Cl  -0.897754
     2  C   -0.079227
     3  C    0.048143
     4  C   -0.078498
     5  C   -0.033828
     6  C   -0.033732
     7  C   -0.049961
     8  H    0.030631
     9  H    0.029637
    10  H    0.041242
    11  H    0.037035
    12  H    0.040126
    13  C   -0.122631
    14  C    0.021610
    15  H    0.021677
    16  H    0.037966
    17  H    0.024625
    18  O   -0.663987
    19  O   -0.663851
    20  O   -0.655482
    21  O   -0.664331
    22  W    1.736416
    23  W    1.678364
    24  W    1.688107
    25  W    1.698486
    26  W    1.678155
    27  W    1.730178
    28  W    1.622039
    29  W    1.689437
    30  O   -0.320062
    31  O   -0.365709
    32  O   -0.367793
    33  O   -0.360607
    34  O   -0.665665
    35  O   -0.671643
    36  O   -0.662056
    37  O   -0.665125
    38  O   -0.368347
    39  O   -0.365124
    40  O   -0.297291
    41  O   -0.365287
    42  O   -0.670944
    43  O   -0.664383
    44  O   -0.661942
    45  O   -0.666265
    46  O   -0.369047
    47  O   -0.320482
    48  O   -0.362528
    49  O   -0.362299
    50  W    1.676559
    51  W    1.682175
    52  W    1.685578
    53  W    1.688179
    54  O   -0.726174
    55  O   -0.709490
    56  O   -0.726763
    57  O   -0.724150
    58  O   -0.707521
    59  O   -0.728184
    60  O   -0.726133
    61  O   -0.722129
    62  O   -0.725808
    63  O   -0.708850
    64  O   -0.725244
    65  O   -0.727249
    66  O   -0.802885
    67  O   -0.802074
    68  O   -0.798715
    69  O   -0.810228
    70  K    0.863173
    71  K    0.863411
    72  K    0.860314
    73  V    1.194216
 Sum of Mulliken charges =  -1.00000
 Mulliken charges with hydrogens summed into heavy atoms:
               1
     1  Cl  -0.897754
     2  C   -0.048596
     3  C    0.048143
     4  C   -0.048862
     5  C    0.007414
     6  C    0.003302
     7  C   -0.009835
    13  C   -0.100954
    14  C    0.084201
    18  O   -0.663987
    19  O   -0.663851
    20  O   -0.655482
    21  O   -0.664331
    22  W    1.736416
    23  W    1.678364
    24  W    1.688107
    25  W    1.698486
    26  W    1.678155
    27  W    1.730178
    28  W    1.622039
    29  W    1.689437
    30  O   -0.320062
    31  O   -0.365709
    32  O   -0.367793
    33  O   -0.360607
    34  O   -0.665665
    35  O   -0.671643
    36  O   -0.662056
    37  O   -0.665125
    38  O   -0.368347
    39  O   -0.365124
    40  O   -0.297291
    41  O   -0.365287
    42  O   -0.670944
    43  O   -0.664383
    44  O   -0.661942
    45  O   -0.666265
    46  O   -0.369047
    47  O   -0.320482
    48  O   -0.362528
    49  O   -0.362299
    50  W    1.676559
    51  W    1.682175
    52  W    1.685578
    53  W    1.688179
    54  O   -0.726174
    55  O   -0.709490
    56  O   -0.726763
    57  O   -0.724150
    58  O   -0.707521
    59  O   -0.728184
    60  O   -0.726133
    61  O   -0.722129
    62  O   -0.725808
    63  O   -0.708850
    64  O   -0.725244
    65  O   -0.727249
    66  O   -0.802885
    67  O   -0.802074
    68  O   -0.798715
    69  O   -0.810228
    70  K    0.863173
    71  K    0.863411
    72  K    0.860314
    73  V    1.194216
 Electronic spatial extent (au):  <R**2>=         317313.7816
 Charge=             -1.0000 electrons
 Dipole moment (field-independent basis, Debye):
    X=             50.4052    Y=            -51.2704    Z=            -38.7114  Tot=             81.6573
 Quadrupole moment (field-independent basis, Debye-Ang):
   XX=          -1043.0101   YY=           -890.7491   ZZ=           -914.4260
   XY=            448.7924   XZ=            451.2337   YZ=           -478.6297
 Traceless Quadrupole moment (field-independent basis, Debye-Ang):
   XX=            -93.6150   YY=             58.6459   ZZ=             34.9691
   XY=            448.7924   XZ=            451.2337   YZ=           -478.6297
 Octapole moment (field-independent basis, Debye-Ang**2):
  XXX=          13224.8716  YYY=          -1102.8284  ZZZ=         -19137.6109  XYY=           6066.0228
  XXY=          -3557.6340  XXZ=          -9298.1878  XZZ=           7260.6506  YZZ=          -4184.2823
  YYZ=          -9066.8229  XYZ=           4746.6335
 Hexadecapole moment (field-independent basis, Debye-Ang**3):
 XXXX=        -156107.0976 YYYY=         -54258.6485 ZZZZ=        -346160.3341 XXXY=          35613.7380
 XXXZ=         120619.3773 YYYX=          20891.7087 YYYZ=         -13176.7430 ZZZX=         126695.6758
 ZZZY=         -35776.2700 XXYY=         -55350.8846 XXZZ=        -106453.4491 YYZZ=        -100122.1808
 XXYZ=         -41315.3269 YYXZ=          61502.7454 ZZXY=          49895.4604
 N-N= 2.097538728492D+04 E-N=-5.903506554805D+04  KE= 6.765118058554D+03
   1 Symmetry operations used in ECPInt.
 ECPInt:  NShTT=  127765 NPrTT=  468030 LenC2=   96537 LenP2D=  220892.
 LDataN:  DoStor=T MaxTD1= 9 Len=  602
 D1PCM: PCM CHGder 1st derivatives, ID1Alg=3 FixD1E=F DoIter=F DoCFld=F I1PDM=0.
 Calling FoFJK, ICntrl=      2127 FMM=T ISym2X=0 I1Cent= 0 IOpClX= 0 NMat=1 NMatS=1 NMatT=0.
 Defaulting to unpruned grid for atomic number  74.
 Defaulting to unpruned grid for atomic number  74.
 Defaulting to unpruned grid for atomic number  74.
 Defaulting to unpruned grid for atomic number  74.
 Defaulting to unpruned grid for atomic number  74.
 Defaulting to unpruned grid for atomic number  74.
 Defaulting to unpruned grid for atomic number  74.
 Defaulting to unpruned grid for atomic number  74.
 Defaulting to unpruned grid for atomic number  74.
 Defaulting to unpruned grid for atomic number  74.
 Defaulting to unpruned grid for atomic number  74.
 Defaulting to unpruned grid for atomic number  74.
 Defaulting to unpruned grid for atomic number  74.
 Defaulting to unpruned grid for atomic number  74.
 Defaulting to unpruned grid for atomic number  74.
 Defaulting to unpruned grid for atomic number  74.
 Defaulting to unpruned grid for atomic number  74.
 Defaulting to unpruned grid for atomic number  74.
 Defaulting to unpruned grid for atomic number  74.
 Defaulting to unpruned grid for atomic number  74.
 Defaulting to unpruned grid for atomic number  74.
 Defaulting to unpruned grid for atomic number  74.
 Defaulting to unpruned grid for atomic number  74.
 Defaulting to unpruned grid for atomic number  74.
 Defaulting to unpruned grid for atomic number  74.
 Defaulting to unpruned grid for atomic number  74.
 Defaulting to unpruned grid for atomic number  74.
 Defaulting to unpruned grid for atomic number  74.
 Defaulting to unpruned grid for atomic number  74.
 Defaulting to unpruned grid for atomic number  74.
 Defaulting to unpruned grid for atomic number  74.
 Defaulting to unpruned grid for atomic number  74.
 Defaulting to unpruned grid for atomic number  74.
 Defaulting to unpruned grid for atomic number  74.
 Defaulting to unpruned grid for atomic number  74.
 Defaulting to unpruned grid for atomic number  74.
 Defaulting to unpruned grid for atomic number  74.
 Defaulting to unpruned grid for atomic number  74.
 Defaulting to unpruned grid for atomic number  74.
 Defaulting to unpruned grid for atomic number  74.
 Defaulting to unpruned grid for atomic number  74.
 Defaulting to unpruned grid for atomic number  74.
 Defaulting to unpruned grid for atomic number  74.
 Defaulting to unpruned grid for atomic number  74.
 Defaulting to unpruned grid for atomic number  74.
 Defaulting to unpruned grid for atomic number  74.
 Defaulting to unpruned grid for atomic number  74.
 Defaulting to unpruned grid for atomic number  74.
 Defaulting to unpruned grid for atomic number  74.
 Defaulting to unpruned grid for atomic number  74.
 Defaulting to unpruned grid for atomic number  74.
 Defaulting to unpruned grid for atomic number  74.
 Defaulting to unpruned grid for atomic number  74.
 Defaulting to unpruned grid for atomic number  74.
 Defaulting to unpruned grid for atomic number  74.
 Defaulting to unpruned grid for atomic number  74.
 -------------------------------------------------------------------
 Center     Atomic                   Forces (Hartrees/Bohr)
 Number     Number              X              Y              Z
 -------------------------------------------------------------------
      1       17          -0.002786277    0.007523686    0.002190695
      2        6          -0.001517070   -0.000661190   -0.002027228
      3        6          -0.000654387   -0.002240012    0.003500933
      4        6           0.001450120    0.002048552    0.000518184
      5        6           0.000762448    0.000070948    0.001393907
      6        6           0.000070387   -0.000292628    0.000759812
      7        6          -0.001091781   -0.001150461    0.000478927
      8        1          -0.000414583    0.000599255   -0.000154453
      9        1          -0.000479417    0.000379939   -0.000064157
     10        1          -0.000304491   -0.000050865    0.000202324
     11        1           0.000563284   -0.000444533   -0.000100659
     12        1           0.000034163    0.000296284    0.000181972
     13        6           0.007990698    0.010964924   -0.007831268
     14        6          -0.001764186   -0.017667078    0.000394096
     15        1          -0.000933299    0.000242420   -0.000042239
     16        1          -0.000544549    0.001024492    0.000889941
     17        1          -0.001617837    0.000483969   -0.000350639
     18        8          -0.003464764    0.000548634    0.000780383
     19        8           0.003403277   -0.000826354    0.001019846
     20        8           0.002718679   -0.003035500   -0.000529742
     21        8          -0.002502769    0.002379331   -0.001004239
     22       74           0.001759457    0.010795676   -0.009947324
     23       74          -0.002475330   -0.010475312   -0.010302681
     24       74           0.006748772    0.008724505    0.010104398
     25       74          -0.007406241   -0.007565218    0.010556084
     26       74           0.008317310   -0.007688665   -0.010991404
     27       74          -0.008351202    0.008324298   -0.010889981
     28       74          -0.011915457    0.003119019    0.011116672
     29       74           0.011266437   -0.001899067    0.011127329
     30        8          -0.000534652   -0.002698445    0.003514896
     31        8           0.000242378    0.003184797    0.003195243
     32        8          -0.002397351   -0.002065486   -0.003205191
     33        8           0.002508083    0.001904125   -0.003432705
     34        8          -0.001290187   -0.000680528    0.003299965
     35        8           0.001399556    0.000100038    0.003481703
     36        8           0.000789335   -0.001480208   -0.003359976
     37        8          -0.000338456    0.001199890   -0.003390718
     38        8          -0.004478313   -0.001858854   -0.001452116
     39        8           0.004686660    0.001764761   -0.001570035
     40        8           0.002113927   -0.006148485    0.000923183
     41        8          -0.001137379    0.004872302    0.001387751
     42        8          -0.001994383   -0.002823380    0.001334791
     43        8           0.002444798    0.002568312    0.001081164
     44        8          -0.000320140   -0.003676634   -0.000675460
     45        8           0.000889294    0.003358118   -0.001311804
     46        8          -0.002682432    0.003150511    0.003066791
     47        8           0.002930589   -0.002591014    0.003215185
     48        8           0.004411611   -0.000325272   -0.003506283
     49        8          -0.004163753    0.000361129   -0.003164519
     50       74           0.014729499    0.004958476    0.003148953
     51       74          -0.015129964   -0.004068252    0.003404227
     52       74          -0.005799130    0.016011766   -0.003324033
     53       74           0.004819460   -0.014715045   -0.002925057
     54        8          -0.000686795    0.001504383    0.002156970
     55        8           0.000725742   -0.001580169    0.002087414
     56        8           0.001835828   -0.000143266   -0.002141370
     57        8          -0.001437221   -0.000600440   -0.002254726
     58        8           0.000361811   -0.002581948    0.001261537
     59        8           0.000301855    0.002255479    0.001530251
     60        8          -0.001426512   -0.001695639   -0.001629817
     61        8           0.001769632    0.001433852   -0.001454593
     62        8          -0.001386921    0.002129495    0.000831202
     63        8           0.001156788   -0.002668146    0.000552579
     64        8           0.002451469   -0.000230706   -0.000994242
     65        8          -0.002412524   -0.000299786   -0.000845821
     66        8          -0.027333403   -0.004971638    0.017538237
     67        8           0.027808098    0.005632071    0.017376870
     68        8           0.011734334   -0.026272057   -0.017599428
     69        8          -0.011567944    0.025066722   -0.017748618
     70       19           0.000176869   -0.000953510   -0.000622939
     71       19           0.000665148    0.000056872    0.000529163
     72       19          -0.000887522   -0.000305245    0.000518544
     73       23          -0.000409174    0.000392003    0.000193341
 -------------------------------------------------------------------
 Cartesian Forces:  Max     0.027808098 RMS     0.006279286

 GradGradGradGradGradGradGradGradGradGradGradGradGradGradGradGradGradGrad
 Berny optimization.
 Search for a local minimum.
 Step number   1 out of a maximum of    2
 All quantities printed in internal units (Hartrees-Bohrs-Radians)
 Second derivative matrix not updated -- first step.
 ITU=  0
     Eigenvalues ---   -0.00000   0.00000   0.00000   0.00010   0.00093
     Eigenvalues ---    0.00094   0.00256   0.00544   0.00639   0.01641
     Eigenvalues ---    0.01954   0.02903   0.02928   0.03213   0.03432
     Eigenvalues ---    0.03455   0.03724   0.03734   0.04160   0.04493
     Eigenvalues ---    0.04604   0.04615   0.04649   0.04845   0.04856
     Eigenvalues ---    0.04987   0.05362   0.05579   0.05611   0.06374
     Eigenvalues ---    0.06412   0.06531   0.06783   0.06857   0.07045
     Eigenvalues ---    0.07298   0.07398   0.07602   0.08366   0.08392
     Eigenvalues ---    0.08724   0.08763   0.08908   0.08931   0.09739
     Eigenvalues ---    0.09977   0.10121   0.10425   0.10470   0.10559
     Eigenvalues ---    0.10832   0.10902   0.11594   0.11704   0.12068
     Eigenvalues ---    0.12091   0.12186   0.12543   0.12547   0.12695
     Eigenvalues ---    0.12713   0.12812   0.12837   0.13093   0.13162
     Eigenvalues ---    0.13816   0.14010   0.14341   0.14580   0.14760
     Eigenvalues ---    0.16937   0.16965   0.17121   0.17155   0.17585
     Eigenvalues ---    0.17689   0.18583   0.19867   0.20018   0.20270
     Eigenvalues ---    0.20935   0.21036   0.21997   0.22132   0.22187
     Eigenvalues ---    0.22616   0.23178   0.23440   0.24013   0.24037
     Eigenvalues ---    0.24637   0.24796   0.24985   0.25560   0.26257
     Eigenvalues ---    0.26395   0.26599   0.27638   0.27739   0.27995
     Eigenvalues ---    0.28323   0.28354   0.28884   0.29627   0.29910
     Eigenvalues ---    0.30543   0.30631   0.30660   0.30731   0.30768
     Eigenvalues ---    0.30971   0.31221   0.31441   0.31585   0.32363
     Eigenvalues ---    0.32526   0.32580   0.32760   0.32903   0.33434
     Eigenvalues ---    0.33553   0.35115   0.35600   0.35899   0.36925
     Eigenvalues ---    0.37481   0.37647   0.37858   0.38321   0.38636
     Eigenvalues ---    0.38992   0.39217   0.40208   0.40303   0.41219
     Eigenvalues ---    0.42293   0.42340   0.43583   0.44283   0.44846
     Eigenvalues ---    0.45361   0.45640   0.46005   0.48155   0.48401
     Eigenvalues ---    0.48641   0.48957   0.49008   0.49618   0.49766
     Eigenvalues ---    0.50111   0.50891   0.51355   0.52058   0.52498
     Eigenvalues ---    0.53182   0.54049   0.56531   0.58515   0.64488
     Eigenvalues ---    0.67516   0.76647   0.81482   0.82724   0.96808
     Eigenvalues ---    0.97256   0.98696   0.99332   1.01528   1.04406
     Eigenvalues ---    1.07337   1.11018   1.11548   1.12229   1.15336
     Eigenvalues ---    1.18708   1.19204   1.20399   1.22132   1.22527
     Eigenvalues ---    1.22758   1.26024   1.26583   1.26773   1.27111
     Eigenvalues ---    1.27774   1.29307   1.29554   1.45249   1.45560
     Eigenvalues ---    1.45777   1.48181   1.51415   1.51788   1.52114
     Eigenvalues ---    1.52681   1.55726   1.55808   1.57161   1.58581
     Eigenvalues ---    1.58649   1.59338   1.61748   1.64305   1.74782
     Eigenvalues ---    1.84900   1.88865   1.94978   1.95788   1.96697
     Eigenvalues ---    2.07803   2.14726   3.67714
 Eigenvalue     1 is  -5.55D-16 should be greater than     0.000000 Eigenvector:
                          Y16       Y14       Y15       Y17       Y13
   1                    0.17433   0.17433   0.17433   0.17433   0.17433
                          Y9        Y3        Y8        Y4        Y2
   1                    0.17433   0.17433   0.17433   0.17433   0.17433
 Eigenvalue     2 is   3.33D-07 Eigenvector:
                          Y16       X16       X11       Y11       Y14
   1                    0.32086  -0.27124   0.26491  -0.24608   0.23429
                          Y15       Y17       X14       Y13       X6
   1                    0.23304   0.19343  -0.19312   0.18560   0.18485
 Eigenvalue     3 is   2.99D-06 Eigenvector:
                          X9        X10       Y12       X12       Y8
   1                    0.33922   0.29060   0.27497  -0.25446   0.25185
                          Y9        X15       Y10       X17       X8
   1                   -0.24536   0.23365  -0.22150  -0.20732  -0.20679
 Quadratic step=2.606D+01 exceeds max=3.000D-01 adjusted using Lamda=-1.185D-02.
 Angle between NR and scaled steps=  42.37 degrees.
 Angle between quadratic step and forces=  65.04 degrees.
 Linear search not attempted -- first point.
 B after Tr=    -0.000057    0.006240    0.001340
         Rot=    1.000000   -0.000129    0.000016    0.000061 Ang=  -0.02 deg.
 Variable       Old X    -DE/DX   Delta X   Delta X   Delta X     New X
                                 (Linear)    (Quad)   (Total)
    X1      -18.25504  -0.00279   0.00000  -0.00273  -0.00151 -18.25655
    Y1       15.64366   0.00752   0.00000   0.00756   0.01086  15.65452
    Z1       19.93574   0.00219   0.00000   0.00229   0.00710  19.94283
    X2      -15.76395  -0.00152   0.00000  -0.01095  -0.01077 -15.77472
    Y2        8.02540  -0.00066   0.00000  -0.01084  -0.00864   8.01676
    Z2       23.08453  -0.00203   0.00000  -0.01157  -0.00866  23.07587
    X3      -17.26835  -0.00065   0.00000   0.00548   0.00566 -17.26269
    Y3        7.42849  -0.00224   0.00000  -0.03237  -0.02945   7.39904
    Z3       20.97359   0.00350   0.00000  -0.01339  -0.01069  20.96290
    X4      -18.99003   0.00145   0.00000  -0.01069  -0.01076 -19.00080
    Y4        5.41258   0.00205   0.00000  -0.00847  -0.00540   5.40718
    Z4       21.19291   0.00052   0.00000   0.01411   0.01624  21.20916
    X5      -19.28453   0.00076   0.00000  -0.00651  -0.00682 -19.29134
    Y5        4.11933   0.00007   0.00000  -0.00067   0.00185   4.12118
    Z5       23.46199   0.00139   0.00000   0.02182   0.02361  23.48560
    X6      -17.83944   0.00007   0.00000   0.00419   0.00390 -17.83555
    Y6        4.79200  -0.00029   0.00000  -0.00509  -0.00329   4.78872
    Z6       25.56323   0.00076   0.00000   0.01419   0.01620  25.57943
    X7      -16.05170  -0.00109   0.00000  -0.00785  -0.00790 -16.05960
    Y7        6.72227  -0.00115   0.00000   0.00222   0.00387   6.72614
    Z7       25.35124   0.00048   0.00000   0.00003   0.00260  25.35384
    X8      -14.34322  -0.00041   0.00000  -0.02044  -0.02007 -14.36328
    Y8        9.51724   0.00060   0.00000  -0.00093   0.00113   9.51837
    Z8       22.95162  -0.00015   0.00000  -0.01695  -0.01360  22.93802
    X9      -20.11997  -0.00048   0.00000  -0.02317  -0.02326 -20.14322
    Y9        4.87399   0.00038   0.00000  -0.00466  -0.00102   4.87297
    Z9       19.54851  -0.00006   0.00000   0.02063   0.02259  19.57109
   X10      -20.64355  -0.00030   0.00000  -0.01273  -0.01322 -20.65678
   Y10        2.57026  -0.00005   0.00000   0.00478   0.00743   2.57769
   Z10       23.59189   0.00020   0.00000   0.02890   0.03024  23.62214
   X11      -18.08345   0.00056   0.00000   0.02107   0.02060 -18.06285
   Y11        3.79477  -0.00044   0.00000  -0.01035  -0.00898   3.78578
   Z11       27.35384  -0.00010   0.00000   0.01322   0.01497  27.36881
   X12      -14.87237   0.00003   0.00000  -0.00814  -0.00817 -14.88055
   Y12        7.21569   0.00030   0.00000   0.01767   0.01874   7.23444
   Z12       26.97338   0.00018   0.00000  -0.00338  -0.00065  26.97274
   X13      -17.14748   0.00799   0.00000   0.04311   0.04353 -17.10395
   Y13        8.82894   0.01096   0.00000  -0.07402  -0.07049   8.75845
   Z13       18.59050  -0.00783   0.00000  -0.04840  -0.04534  18.54517
   X14      -15.88255  -0.00176   0.00000   0.06861   0.06930 -15.81325
   Y14       11.00310  -0.01767   0.00000  -0.11927  -0.11579  10.88730
   Z14       18.16754   0.00039   0.00000  -0.05279  -0.04914  18.11841
   X15      -18.24582  -0.00093   0.00000   0.00840   0.00877 -18.23705
   Y15        8.01084   0.00024   0.00000  -0.05385  -0.04978   7.96106
   Z15       17.03735  -0.00004   0.00000  -0.03409  -0.03127  17.00608
   X16      -15.89316  -0.00054   0.00000   0.04810   0.04896 -15.84420
   Y16       11.86449   0.00102   0.00000  -0.08200  -0.07804  11.78646
   Z16       16.29337   0.00089   0.00000  -0.03443  -0.03055  16.26283
   X17      -14.70815  -0.00162   0.00000   0.03097   0.03173 -14.67642
   Y17       11.91554   0.00048   0.00000  -0.09667  -0.09370  11.82184
   Z17       19.59196  -0.00035   0.00000  -0.03753  -0.03360  19.55836
   X18       -1.84326  -0.00346   0.00000  -0.02061  -0.02153  -1.86479
   Y18       -3.40230   0.00055   0.00000   0.00276   0.00558  -3.39673
   Z18       14.10988   0.00078   0.00000   0.00736   0.00776  14.11765
   X19      -15.85842   0.00340   0.00000   0.01565   0.01483 -15.84359
   Y19       -2.51924  -0.00083   0.00000   0.00829   0.01282  -2.50643
   Z19       14.10053   0.00102   0.00000   0.01120   0.01138  14.11191
   X20      -13.26859   0.00272   0.00000   0.01159   0.01121 -13.25739
   Y20        2.54708  -0.00304   0.00000  -0.01192  -0.00918   2.53790
   Z20       19.79010  -0.00053   0.00000  -0.00246  -0.00089  19.78922
   X21       -4.41116  -0.00250   0.00000  -0.01194  -0.01364  -4.42480
   Y21       -8.30940   0.00238   0.00000   0.01743   0.01906  -8.29034
   Z21       19.94553  -0.00100   0.00000  -0.01046  -0.01140  19.93413
   X22       -6.42964   0.00176   0.00000  -0.00733  -0.00762  -6.43726
   Y22        1.30242   0.01080   0.00000   0.02228   0.02614   1.32856
   Z22       12.23712  -0.00995   0.00000  -0.00379  -0.00231  12.23481
   X23      -11.31785  -0.00248   0.00000   0.00377   0.00244 -11.31542
   Y23       -7.21684  -0.01048   0.00000  -0.00513  -0.00071  -7.21755
   Z23       12.39275  -0.01030   0.00000  -0.00548  -0.00637  12.38639
   X24       -6.82429   0.00675   0.00000   0.01587   0.01532  -6.80897
   Y24        1.64189   0.00872   0.00000   0.00277   0.00426   1.64614
   Z24       21.57780   0.01010   0.00000   0.00855   0.01010  21.58791
   X25      -10.88725  -0.00741   0.00000  -0.01684  -0.01848 -10.90573
   Y25       -7.30092  -0.00757   0.00000   0.00287   0.00483  -7.29610
   Z25       21.69891   0.01056   0.00000   0.00650   0.00560  21.70451
   X26       -4.59028   0.00832   0.00000  -0.00691  -0.00795  -4.59823
   Y26       -4.90016  -0.00769   0.00000  -0.00432  -0.00065  -4.90081
   Z26       12.10057  -0.01099   0.00000  -0.00867  -0.00875  12.09183
   X27      -13.11284  -0.00835   0.00000  -0.00106  -0.00162 -13.11447
   Y27       -1.00837   0.00832   0.00000   0.01974   0.02447  -0.98390
   Z27       12.04065  -0.01089   0.00000  -0.00747  -0.00680  12.03385
   X28      -12.88348  -0.01192   0.00000  -0.00709  -0.00790 -12.89138
   Y28       -0.47162   0.00312   0.00000  -0.00407  -0.00191  -0.47354
   Z28       21.84519   0.01112   0.00000   0.01122   0.01203  21.85722
   X29       -4.80474   0.01127   0.00000   0.00633   0.00494  -4.79980
   Y29       -5.17380  -0.00190   0.00000   0.01002   0.01117  -5.16263
   Z29       21.92480   0.01113   0.00000   0.00753   0.00738  21.93219
   X30       -5.98644  -0.00053   0.00000   0.01125   0.01131  -5.97513
   Y30        3.53429  -0.00270   0.00000   0.01622   0.02060   3.55488
   Z30       10.00182   0.00351   0.00000   0.00562   0.00769  10.00951
   X31      -11.56924   0.00024   0.00000  -0.01084  -0.01239 -11.58163
   Y31       -9.58107   0.00318   0.00000   0.00229   0.00730  -9.57377
   Z31       10.23551   0.00320   0.00000  -0.00001  -0.00151  10.23400
   X32       -5.07037  -0.00240   0.00000   0.00309   0.00267  -5.06770
   Y32        3.23104  -0.00207   0.00000   0.00844   0.00915   3.24019
   Z32       23.74942  -0.00321   0.00000   0.00270   0.00472  23.75414
   X33      -12.62551   0.00251   0.00000  -0.00315  -0.00505 -12.63055
   Y33       -8.81193   0.00190   0.00000  -0.00486  -0.00327  -8.81520
   Z33       23.93442  -0.00343   0.00000   0.00001  -0.00134  23.93308
   X34       -5.02145  -0.00129   0.00000  -0.01642  -0.01703  -5.03848
   Y34       -1.73349  -0.00068   0.00000   0.00511   0.00923  -1.72426
   Z34       10.56064   0.00330   0.00000   0.01164   0.01237  10.57300
   X35      -12.66286   0.00140   0.00000   0.00916   0.00825 -12.65461
   Y35       -4.28584   0.00010   0.00000   0.00948   0.01451  -4.27133
   Z35       10.62135   0.00348   0.00000   0.01359   0.01342  10.63477
   X36      -10.03075   0.00079   0.00000   0.00815   0.00748 -10.02328
   Y36        1.03992  -0.00148   0.00000  -0.01083  -0.00941   1.03051
   Z36       23.35641  -0.00336   0.00000  -0.00723  -0.00595  23.35047
   X37       -7.65247  -0.00034   0.00000  -0.00673  -0.00835  -7.66082
   Y37       -6.67518   0.00120   0.00000   0.01318   0.01429  -6.66089
   Z37       23.44604  -0.00339   0.00000  -0.01108  -0.01171  23.43433
   X38        0.58899  -0.00448   0.00000   0.00422   0.00360   0.59259
   Y38       -0.03015  -0.00186   0.00000  -0.00558  -0.00395  -0.03410
   Z38       17.53723  -0.00145   0.00000  -0.00293  -0.00158  17.53565
   X39      -18.31451   0.00469   0.00000  -0.00630  -0.00762 -18.32214
   Y39       -5.75010   0.00176   0.00000   0.01261   0.01653  -5.73357
   Z39       17.62645  -0.00157   0.00000  -0.00230  -0.00303  17.62342
   X40      -11.98734   0.00211   0.00000   0.00182   0.00203 -11.98531
   Y40        6.48272  -0.00615   0.00000   0.00546   0.00893   6.49165
   Z40       16.37306   0.00092   0.00000   0.00913   0.01176  16.38482
   X41       -5.69073  -0.00114   0.00000   0.00254   0.00046  -5.69027
   Y41      -12.27201   0.00487   0.00000   0.00517   0.00782 -12.26419
   Z41       16.52334   0.00139   0.00000   0.00108  -0.00094  16.52240
   X42       -3.36393  -0.00199   0.00000  -0.01251  -0.01285  -3.37677
   Y42        1.41122  -0.00282   0.00000  -0.00265   0.00034   1.41157
   Z42       14.12223   0.00133   0.00000   0.01197   0.01357  14.13580
   X43      -14.35657   0.00244   0.00000   0.01075   0.00934 -14.34723
   Y43       -7.33864   0.00257   0.00000   0.01287   0.01717  -7.32147
   Z43       14.25081   0.00108   0.00000   0.01058   0.00957  14.26038
   X44       -8.48632  -0.00032   0.00000   0.00534   0.00516  -8.48116
   Y44        4.14893  -0.00368   0.00000  -0.01277  -0.01059   4.13834
   Z44       19.70348  -0.00068   0.00000  -0.00327  -0.00113  19.70235
   X45       -9.20924   0.00089   0.00000  -0.00658  -0.00848  -9.21772
   Y45       -9.88802   0.00336   0.00000   0.01834   0.02056  -9.86746
   Z45       19.89870  -0.00131   0.00000  -0.01091  -0.01242  19.88628
   X46       -3.02296  -0.00268   0.00000  -0.00561  -0.00680  -3.02976
   Y46       -6.68492   0.00315   0.00000   0.01185   0.01589  -6.66903
   Z46        9.93574   0.00307   0.00000  -0.00777  -0.00825   9.92749
   X47      -14.77113   0.00293   0.00000  -0.00511  -0.00541 -14.77655
   Y47        0.52756  -0.00259   0.00000   0.00038   0.00589   0.53346
   Z47        9.78885   0.00322   0.00000  -0.00451  -0.00350   9.78535
   X48      -15.19573   0.00441   0.00000   0.00366   0.00280 -15.19293
   Y48       -0.31661  -0.00033   0.00000   0.00727   0.00914  -0.30747
   Z48       24.06685  -0.00351   0.00000   0.00763   0.00840  24.07525
   X49       -2.46529  -0.00416   0.00000  -0.00485  -0.00634  -2.47163
   Y49       -5.40228   0.00036   0.00000  -0.00242  -0.00212  -5.40440
   Z49       24.11233  -0.00316   0.00000   0.00470   0.00456  24.11689
   X50       -2.35511   0.01473   0.00000   0.00591   0.00520  -2.34992
   Y50       -1.00767   0.00496   0.00000   0.00567   0.00787  -0.99980
   Z50       16.70082   0.00315   0.00000   0.01220   0.01320  16.71402
   X51      -15.36793  -0.01513   0.00000  -0.00904  -0.01022 -15.37815
   Y51       -4.80012  -0.00407   0.00000   0.00425   0.00803  -4.79209
   Z51       16.76970   0.00340   0.00000   0.01357   0.01318  16.78288
   X52      -11.09028  -0.00580   0.00000  -0.00138  -0.00156 -11.09184
   Y52        3.51192   0.01601   0.00000   0.01328   0.01645   3.52837
   Z52       17.08936  -0.00332   0.00000  -0.00698  -0.00508  17.08427
   X53       -6.60500   0.00482   0.00000  -0.00236  -0.00411  -6.60911
   Y53       -9.29678  -0.01472   0.00000  -0.00248   0.00009  -9.29669
   Z53       17.31784  -0.00293   0.00000  -0.01287  -0.01415  17.30369
   X54       -7.95737  -0.00069   0.00000  -0.00337  -0.00451  -7.96188
   Y54       -5.88260   0.00150   0.00000  -0.00458  -0.00033  -5.88293
   Z54       11.47646   0.00216   0.00000  -0.00855  -0.00898  11.46747
   X55       -9.73242   0.00073   0.00000  -0.00361  -0.00404  -9.73646
   Y55       -0.11922  -0.00158   0.00000   0.02257   0.02706  -0.09216
   Z55       11.37038   0.00209   0.00000  -0.00686  -0.00586  11.36453
   X56      -11.65616   0.00184   0.00000  -0.01071  -0.01195 -11.66810
   Y56       -3.77622  -0.00014   0.00000  -0.00279  -0.00095  -3.77717
   Z56       22.50208  -0.00214   0.00000   0.01034   0.01033  22.51241
   X57       -5.99348  -0.00144   0.00000   0.01084   0.00984  -5.98365
   Y57       -1.87108  -0.00060   0.00000   0.00707   0.00821  -1.86287
   Z57       22.52871  -0.00225   0.00000   0.00881   0.00947  22.53819
   X58       -8.22333   0.00036   0.00000  -0.00313  -0.00329  -8.22662
   Y58        2.98509  -0.00258   0.00000   0.01701   0.02042   3.00552
   Z58       14.79974   0.00126   0.00000  -0.00323  -0.00138  14.79836
   X59       -9.46245   0.00030   0.00000   0.00089  -0.00073  -9.46317
   Y59       -8.84786   0.00226   0.00000  -0.00541  -0.00189  -8.84975
   Z59       14.97376   0.00153   0.00000  -0.00775  -0.00900  14.96476
   X60       -4.38769  -0.00143   0.00000   0.01326   0.01272  -4.37497
   Y60        1.06669  -0.00170   0.00000   0.00483   0.00667   1.07337
   Z60       19.04466  -0.00163   0.00000   0.00903   0.01051  19.05517
   X61      -13.31307   0.00177   0.00000  -0.01472  -0.01622 -13.32929
   Y61       -6.83154   0.00143   0.00000   0.00292   0.00584  -6.82570
   Z61       19.14315  -0.00145   0.00000   0.00865   0.00780  19.15095
   X62       -4.85450  -0.00139   0.00000  -0.00424  -0.00567  -4.86018
   Y62       -7.38885   0.00213   0.00000  -0.00201   0.00098  -7.38788
   Z62       14.87005   0.00083   0.00000  -0.01110  -0.01183  14.85823
   X63      -12.86445   0.00116   0.00000  -0.00123  -0.00158 -12.86603
   Y63        1.50141  -0.00267   0.00000   0.01391   0.01791   1.51932
   Z63       14.74485   0.00055   0.00000  -0.00773  -0.00641  14.73845
   X64      -14.78404   0.00245   0.00000  -0.00750  -0.00844 -14.79248
   Y64       -2.22489  -0.00023   0.00000   0.00113   0.00422  -2.22067
   Z64       19.15967  -0.00099   0.00000   0.01252   0.01281  19.17248
   X65       -2.94138  -0.00241   0.00000   0.00525   0.00415  -2.93723
   Y65       -3.53760  -0.00030   0.00000   0.00577   0.00741  -3.53019
   Z65       19.16006  -0.00085   0.00000   0.00944   0.00977  19.16983
   X66       -6.33828  -0.02733   0.00000  -0.05164  -0.05245  -6.39073
   Y66       -2.19184  -0.00497   0.00000  -0.00079   0.00230  -2.18954
   Z66       15.13699   0.01754   0.00000   0.02947   0.03004  15.16703
   X67      -11.37122   0.02781   0.00000   0.04669   0.04570 -11.32552
   Y67       -3.70355   0.00563   0.00000   0.01524   0.01892  -3.68463
   Z67       15.18172   0.01738   0.00000   0.03021   0.03024  15.21195
   X68       -9.66468   0.01173   0.00000   0.02228   0.02157  -9.64311
   Y68       -0.39605  -0.02627   0.00000  -0.04030  -0.03773  -0.43379
   Z68       18.78960  -0.01760   0.00000  -0.02751  -0.02659  18.76301
   X69       -8.00425  -0.01157   0.00000  -0.02468  -0.02599  -8.03024
   Y69       -5.38337   0.02507   0.00000   0.04700   0.04935  -5.33402
   Z69       18.85013  -0.01775   0.00000  -0.02929  -0.02959  18.82053
   X70       -6.07073   0.00018   0.00000  -0.00239  -0.00420  -6.07493
   Y70      -11.59045  -0.00095   0.00000  -0.00416   0.00007 -11.59039
   Z70       10.67034  -0.00062   0.00000  -0.01027  -0.01213  10.65821
   X71       -0.21126   0.00067   0.00000   0.01079   0.01000  -0.20126
   Y71        0.09272   0.00006   0.00000   0.00320   0.00343   0.09616
   Z71       23.30754   0.00053   0.00000   0.00892   0.01028  23.31782
   X72      -17.54552  -0.00089   0.00000  -0.01224  -0.01370 -17.55922
   Y72       -5.34499  -0.00031   0.00000   0.00180   0.00411  -5.34088
   Z72       23.48952   0.00052   0.00000   0.01010   0.00949  23.49901
   X73       -8.84852  -0.00041   0.00000  -0.00231  -0.00326  -8.85178
   Y73       -2.91259   0.00039   0.00000   0.00546   0.00838  -2.90421
   Z73       16.98698   0.00019   0.00000   0.00107   0.00138  16.98836
         Item               Value     Threshold  Converged?
 Maximum Force            0.027808     0.000450     NO 
 RMS     Force            0.006279     0.000300     NO 
 Maximum Displacement     0.115792     0.001800     NO 
 RMS     Displacement     0.020204     0.001200     NO 
 Predicted change in Energy=-6.381016D-03
 GradGradGradGradGradGradGradGradGradGradGradGradGradGradGradGradGradGrad

 Unable to Open any file for archive entry.
 1\1\GINC-X11P1N2\Force\RwB97XD\def2SVP\C8H8Cl1K3O40V1W12(1-)\MAYUMIAO\
 02-Jun-2024\0\\# def2svp wb97xd scrf=(smd,solvent=acetonitrile) g09def
 ault scf=(xqc,maxcycle=64) force guess=read nosymm\\Title Card\\-1,1\C
 l,-9.66014986,8.2782673,10.54953683\C,-8.3419227,4.24686118,12.2158060
 8\C,-9.13801485,3.93098711,11.09874568\C,-10.04909271,2.86421437,11.21
 480748\C,-10.20493285,2.17985378,12.41554875\C,-9.44022721,2.53581972,
 13.52747798\C,-8.49419367,3.55727202,13.41530086\H,-7.59010333,5.03630
 429,12.14547491\H,-10.64702795,2.57920414,10.34462397\H,-10.92409817,1
 .36012166,12.48429289\H,-9.56934988,2.00810384,14.475031\H,-7.87011986
 ,3.8183799,14.27370054\C,-9.07405581,4.6720757,9.83767058\C,-8.4046856
 8,5.82258795,9.61384927\H,-9.65527437,4.23915228,9.01577746\H,-8.41029
 888,6.27841942,8.6220826\H,-7.78321547,6.30543428,10.36761839\O,-0.975
 4088,-1.8004219,7.46662875\O,-8.39191586,-1.33312641,7.46167723\O,-7.0
 2143649,1.34785842,10.47247231\O,-2.33428447,-4.39714312,10.55471938\W
 ,-3.4024203,0.68920902,6.47560488\W,-5.98915083,-3.81898905,6.55796272
 \W,-3.61125826,0.86884814,11.41848243\W,-5.76128376,-3.86348272,11.482
 56945\W,-2.42907288,-2.59305544,6.40334662\W,-6.93901764,-0.53360527,6
 .37163874\W,-6.81764496,-0.2495727,11.55997778\W,-2.54256149,-2.737856
 59,11.60210572\O,-3.16788601,1.87026342,5.29273728\O,-6.1221792,-5.070
 08184,5.41639965\O,-2.68312173,1.70979165,12.56765193\O,-6.68113078,-4
 .66307058,12.66554741\O,-2.65723694,-0.91732324,5.58844769\O,-6.700895
 77,-2.26797004,5.62057562\O,-5.30804532,0.55030308,12.35968121\O,-4.04
 951258,-3.53235551,12.40710857\O,0.31168132,-0.01595706,9.28030275\O,-
 9.69162385,-3.04281961,9.32751595\O,-6.34342473,3.4305089,8.66425198\O
 ,-3.01140458,-6.49406936,8.74377237\O,-1.78011432,0.74678739,7.4731633
 5\O,-7.59717161,-3.88343973,7.54120254\O,-4.49076601,2.19552048,10.426
 63447\O,-4.87332067,-5.23251582,10.52993642\O,-1.59968417,-3.5375083,5
 .25776907\O,-7.8165461,0.27917518,5.18003602\O,-8.04123265,-0.16754136
 ,12.73562757\O,-1.30457378,-2.85876516,12.75969673\W,-1.246273,-0.5332
 3772,8.83769317\W,-8.13235855,-2.54011176,8.87414319\W,-5.86872473,1.8
 5842954,9.04329915\W,-3.49521592,-4.91964595,9.1642062\O,-4.21085898,-
 3.11293545,6.07307926\O,-5.15017506,-0.06308961,6.01694705\O,-6.168172
 27,-1.99828983,11.90758736\O,-3.17161532,-0.99013194,11.92168085\O,-4.
 35160114,1.57964327,7.83168387\O,-5.00731115,-4.68208616,7.92377167\O,
 -2.32186803,0.56446909,10.0779992\O,-7.04497371,-3.61509369,10.1301196
 5\O,-2.56889251,-3.91001337,7.86889352\O,-6.80757277,0.79451213,7.8026
 3949\O,-7.82337619,-1.17736018,10.13886211\O,-1.55651262,-1.87201677,1
 0.1390671\O,-3.35407143,-1.15987162,8.01015233\O,-6.01739246,-1.959835
 68,8.03381946\O,-5.11432872,-0.20958186,9.94302743\O,-4.23566411,-2.84
 875804,9.97505667\K,-3.21249163,-6.13340283,5.64649989\K,-0.11179383,0
 .04906607,12.33381841\K,-9.28469048,-2.82844501,12.43011835\V,-4.68243
 516,-1.54127548,8.98912284\\Version=ES64L-G16RevC.01\HF=-7327.7017581\
 RMSD=6.104e-09\RMSF=6.279e-03\Dipole=10.0786594,-21.9542011,2.4625173\
 Quadrupole=-69.6004627,43.6018139,25.9986487,333.6661865,335.4811826,-
 355.8494474\PG=C01 [X(C8H8Cl1K3O40V1W12)]\\@
 The archive entry for this job was punched.


 WHAT, THEN, IS TIME?  IF NO ONE ASKS ME, I KNOW WHAT IT IS.
 IF I WISH TO EXPLAIN WHAT IT IS TO HIM WHO ASKS ME, I DO NOT KNOW.
                                   -- ST. AUGUSTINE (FIFTH CENTURY)
 Job cpu time:       0 days  8 hours 34 minutes 30.4 seconds.
 Elapsed time:       0 days  0 hours  9 minutes 44.2 seconds.
 File lengths (MBytes):  RWF=   1257 Int=      0 D2E=      0 Chk=    249 Scr=      1
 Normal termination of Gaussian 16 at Sun Jun  2 17:20:19 2024.
