 Entering Gaussian System, Link 0=g16
 Input=JOBS/4_A.gjf
 Output=JOBS/4_A.log
 Initial command:
 /data/app/gaussian/C01-avx2//g16/l1.exe "/tmp/Gau-582448.inp" -scrdir="/tmp/"
 Entering Link 1 = /data/app/gaussian/C01-avx2//g16/l1.exe PID=    582449.
  
 Copyright (c) 1988-2019, Gaussian, Inc.  All Rights Reserved.
  
 This is part of the Gaussian(R) 16 program.  It is based on
 the Gaussian(R) 09 system (copyright 2009, Gaussian, Inc.),
 the Gaussian(R) 03 system (copyright 2003, Gaussian, Inc.),
 the Gaussian(R) 98 system (copyright 1998, Gaussian, Inc.),
 the Gaussian(R) 94 system (copyright 1995, Gaussian, Inc.),
 the Gaussian 92(TM) system (copyright 1992, Gaussian, Inc.),
 the Gaussian 90(TM) system (copyright 1990, Gaussian, Inc.),
 the Gaussian 88(TM) system (copyright 1988, Gaussian, Inc.),
 the Gaussian 86(TM) system (copyright 1986, Carnegie Mellon
 University), and the Gaussian 82(TM) system (copyright 1983,
 Carnegie Mellon University). Gaussian is a federally registered
 trademark of Gaussian, Inc.
  
 This software contains proprietary and confidential information,
 including trade secrets, belonging to Gaussian, Inc.
  
 This software is provided under written license and may be
 used, copied, transmitted, or stored only in accord with that
 written license.
  
 The following legend is applicable only to US Government
 contracts under FAR:
  
                    RESTRICTED RIGHTS LEGEND
  
 Use, reproduction and disclosure by the US Government is
 subject to restrictions as set forth in subparagraphs (a)
 and (c) of the Commercial Computer Software - Restricted
 Rights clause in FAR 52.227-19.
  
 Gaussian, Inc.
 340 Quinnipiac St., Bldg. 40, Wallingford CT 06492
  
  
 ---------------------------------------------------------------
 Warning -- This program may not be used in any manner that
 competes with the business of Gaussian, Inc. or will provide
 assistance to any competitor of Gaussian, Inc.  The licensee
 of this program is prohibited from giving any competitor of
 Gaussian, Inc. access to this program.  By using this program,
 the user acknowledges that Gaussian, Inc. is engaged in the
 business of creating and licensing software in the field of
 computational chemistry and represents and warrants to the
 licensee that it is not a competitor of Gaussian, Inc. and that
 it will not use this program in any manner prohibited above.
 ---------------------------------------------------------------
  

 Cite this work as:
 Gaussian 16, Revision C.01,
 M. J. Frisch, G. W. Trucks, H. B. Schlegel, G. E. Scuseria, 
 M. A. Robb, J. R. Cheeseman, G. Scalmani, V. Barone, 
 G. A. Petersson, H. Nakatsuji, X. Li, M. Caricato, A. V. Marenich, 
 J. Bloino, B. G. Janesko, R. Gomperts, B. Mennucci, H. P. Hratchian, 
 J. V. Ortiz, A. F. Izmaylov, J. L. Sonnenberg, D. Williams-Young, 
 F. Ding, F. Lipparini, F. Egidi, J. Goings, B. Peng, A. Petrone, 
 T. Henderson, D. Ranasinghe, V. G. Zakrzewski, J. Gao, N. Rega, 
 G. Zheng, W. Liang, M. Hada, M. Ehara, K. Toyota, R. Fukuda, 
 J. Hasegawa, M. Ishida, T. Nakajima, Y. Honda, O. Kitao, H. Nakai, 
 T. Vreven, K. Throssell, J. A. Montgomery, Jr., J. E. Peralta, 
 F. Ogliaro, M. J. Bearpark, J. J. Heyd, E. N. Brothers, K. N. Kudin, 
 V. N. Staroverov, T. A. Keith, R. Kobayashi, J. Normand, 
 K. Raghavachari, A. P. Rendell, J. C. Burant, S. S. Iyengar, 
 J. Tomasi, M. Cossi, J. M. Millam, M. Klene, C. Adamo, R. Cammi, 
 J. W. Ochterski, R. L. Martin, K. Morokuma, O. Farkas, 
 J. B. Foresman, and D. J. Fox, Gaussian, Inc., Wallingford CT, 2019.
 
 ******************************************
 Gaussian 16:  ES64L-G16RevC.01  3-Jul-2019
                 1-Jun-2024 
 ******************************************
 %chk=a.chk
 %nprocshared=56
 Will use up to   56 processors via shared memory.
 %mem=96gb
 ----------------------------------------------------------------------
 # def2svp wb97xd scrf=(smd,solvent=acetonitrile) g09default scf=(xqc,m
 axcycle=64) force guess=read nosymm
 ----------------------------------------------------------------------
 1/10=7,30=1,38=1,158=3,167=1/1,3;
 2/12=2,15=1,17=6,18=5,40=1/2;
 3/5=43,7=101,11=2,25=1,27=10,30=1,70=32201,71=1,72=2,74=-58,75=-4,116=-2,158=3/1,2,3;
 4/5=1,60=-1/1;
 5/5=2,7=64,8=3,13=1,38=6,53=2,87=10/2,8;
 6/7=2,8=2,9=2,10=2,28=1,87=10/1;
 7/29=1,30=1,87=10/1,2,3,16;
 1/10=7,30=1,158=3,167=1/3;
 99//99;
 Using 2006 physical constants.
 ----------
 Title Card
 ----------
 Symbolic Z-matrix:
 Charge = -1 Multiplicity = 1
 17                   -9.85639   7.54528   10.37187 
 6                    -8.31064   4.25531   12.23975 
 6                    -9.07536   3.94079   11.10146 
 6                    -10.00932   2.89154   11.19464 
 6                    -10.18389   2.19127   12.38208 
 6                    -9.42561   2.52291   13.50604 
 6                    -8.48426   3.55128   13.42743 
 1                    -7.57279   5.06063   12.19881 
 1                    -10.59909   2.62858   10.31085 
 1                    -10.91263   1.37781   12.4336 
 1                    -9.55912   1.97355   14.4391 
 1                    -7.88264   3.80841   14.30341 
 6                    -8.92585   4.65159   9.83349 
 6                    -8.11836   5.68066   9.59454 
 1                    -9.61156   4.32155   9.04048 
 1                    -8.04643   6.11926   8.5916 
 1                    -7.36783   6.04209   10.31195 
 8                    -0.98748  -1.76161   7.44681 
 8                    -8.43356  -1.32585   7.45378 
 8                    -7.07677   1.35511   10.50494 
 8                    -2.3227   -4.36609   10.5747 
 74                   -3.42449   0.74942   6.52233 
 74                   -6.0226   -3.82742   6.59939 
 74                   -3.64074   0.92982   11.3884 
 74                   -5.7719   -3.87483   11.45919 
 74                   -2.473    -2.53754   6.37229 
 74                   -6.94481  -0.54196   6.35093 
 74                   -6.82358  -0.24854   11.60346 
 74                   -2.58086  -2.69297   11.63285 
 8                    -3.20871   1.94391   5.35438 
 8                    -6.13473  -5.08064   5.4668 
 8                    -2.70954   1.76136   12.5318 
 8                    -6.69481  -4.67194   12.63325 
 8                    -2.68573  -0.86081   5.5859 
 8                    -6.72704  -2.27636   5.62653 
 8                    -5.32745   0.5811    12.37047 
 8                    -4.06603  -3.52205   12.41758 
 8                     0.28899  -0.00492   9.28445 
 8                    -9.71049  -3.01425   9.34657 
 8                    -6.44882   3.41226   8.66577 
 8                    -2.96981  -6.44223   8.73755 
 8                    -1.79819   0.78455   7.48583 
 8                    -7.6297   -3.87544   7.55806 
 8                    -4.5515    2.23825   10.43009 
 8                    -4.85702  -5.2234    10.52765 
 8                    -1.65347  -3.47747   5.2284 
 8                    -7.81577   0.26486   5.15456 
 8                    -8.03301  -0.18289   12.7803 
 8                    -1.34612  -2.78979   12.78611 
 74                   -1.25387  -0.53262   8.83476 
 74                   -8.16995  -2.49416   8.87896 
 74                   -5.96744   1.85574   9.05951 
 74                   -3.45111  -4.87841   9.17218 
 8                    -4.24305  -3.07099   6.09063 
 8                    -5.17023  -0.05397   6.03925 
 8                    -6.16565  -1.99019   11.90394 
 8                    -3.21588  -0.95883   11.91065 
 8                    -4.39921   1.58747   7.86807 
 8                    -5.01127  -4.64534   7.95051 
 8                    -2.36756   0.58812   10.06008 
 8                    -7.04483  -3.59446   10.12053 
 8                    -2.57256  -3.85965   7.87124 
 8                    -6.85888   0.78372   7.81212 
 8                    -7.84381  -1.16049   10.15146 
 8                    -1.57809  -1.84464   10.14247 
 8                    -3.38814  -1.13952   8.03047 
 8                    -6.03152  -1.93295   8.05572 
 8                    -5.15222  -0.20218   9.93371 
 8                    -4.24253  -2.80926   9.96816 
 19                   -3.24622  -6.07153   5.70069 
 19                   -0.19596   0.01825   12.31484 
 19                   -9.219    -2.91925   12.36842 
 23                   -4.70657  -1.5174    8.99531 
 

 GradGradGradGradGradGradGradGradGradGradGradGradGradGradGradGradGradGrad
 Berny optimization.
 Initialization pass.
 Trust Radius=3.00D-01 FncErr=1.00D-07 GrdErr=1.00D-07 EigMax=2.50D+02 EigMin=1.00D-04
 Number of steps in this run=      2 maximum allowed number of steps=      2.
 GradGradGradGradGradGradGradGradGradGradGradGradGradGradGradGradGradGrad

 Symmetry turned off by external request.
 Stoichiometry    C8H8ClK3O40VW12(1-)
 Framework group  C1[X(C8H8ClK3O40VW12)]
 Deg. of freedom   213
 Full point group                 C1      NOp   1
                          Input orientation:                          
 ---------------------------------------------------------------------
 Center     Atomic      Atomic             Coordinates (Angstroms)
 Number     Number       Type             X           Y           Z
 ---------------------------------------------------------------------
      1         17           0       -9.856391    7.545276   10.371873
      2          6           0       -8.310643    4.255311   12.239753
      3          6           0       -9.075364    3.940788   11.101458
      4          6           0      -10.009321    2.891536   11.194644
      5          6           0      -10.183887    2.191270   12.382077
      6          6           0       -9.425609    2.522912   13.506040
      7          6           0       -8.484264    3.551284   13.427434
      8          1           0       -7.572787    5.060634   12.198809
      9          1           0      -10.599093    2.628582   10.310851
     10          1           0      -10.912628    1.377809   12.433595
     11          1           0       -9.559123    1.973546   14.439101
     12          1           0       -7.882638    3.808407   14.303407
     13          6           0       -8.925855    4.651590    9.833493
     14          6           0       -8.118358    5.680665    9.594542
     15          1           0       -9.611564    4.321546    9.040482
     16          1           0       -8.046429    6.119258    8.591601
     17          1           0       -7.367833    6.042091   10.311954
     18          8           0       -0.987484   -1.761613    7.446806
     19          8           0       -8.433564   -1.325853    7.453780
     20          8           0       -7.076769    1.355109   10.504941
     21          8           0       -2.322703   -4.366087   10.574702
     22         74           0       -3.424490    0.749424    6.522330
     23         74           0       -6.022595   -3.827422    6.599389
     24         74           0       -3.640737    0.929824   11.388398
     25         74           0       -5.771903   -3.874831   11.459190
     26         74           0       -2.472999   -2.537535    6.372288
     27         74           0       -6.944807   -0.541964    6.350932
     28         74           0       -6.823579   -0.248539   11.603459
     29         74           0       -2.580856   -2.692967   11.632853
     30          8           0       -3.208711    1.943909    5.354381
     31          8           0       -6.134731   -5.080640    5.466798
     32          8           0       -2.709544    1.761356   12.531798
     33          8           0       -6.694810   -4.671942   12.633250
     34          8           0       -2.685729   -0.860809    5.585895
     35          8           0       -6.727039   -2.276360    5.626532
     36          8           0       -5.327449    0.581101   12.370465
     37          8           0       -4.066034   -3.522055   12.417578
     38          8           0        0.288993   -0.004924    9.284452
     39          8           0       -9.710494   -3.014248    9.346569
     40          8           0       -6.448816    3.412263    8.665773
     41          8           0       -2.969806   -6.442233    8.737547
     42          8           0       -1.798186    0.784555    7.485832
     43          8           0       -7.629698   -3.875441    7.558056
     44          8           0       -4.551502    2.238247   10.430086
     45          8           0       -4.857022   -5.223399   10.527647
     46          8           0       -1.653468   -3.477471    5.228402
     47          8           0       -7.815767    0.264859    5.154555
     48          8           0       -8.033010   -0.182891   12.780301
     49          8           0       -1.346123   -2.789795   12.786107
     50         74           0       -1.253865   -0.532618    8.834758
     51         74           0       -8.169952   -2.494165    8.878964
     52         74           0       -5.967443    1.855736    9.059510
     53         74           0       -3.451107   -4.878410    9.172176
     54          8           0       -4.243051   -3.070987    6.090631
     55          8           0       -5.170233   -0.053973    6.039250
     56          8           0       -6.165646   -1.990193   11.903944
     57          8           0       -3.215880   -0.958831   11.910655
     58          8           0       -4.399206    1.587467    7.868071
     59          8           0       -5.011270   -4.645337    7.950514
     60          8           0       -2.367564    0.588120   10.060081
     61          8           0       -7.044827   -3.594460   10.120526
     62          8           0       -2.572564   -3.859648    7.871239
     63          8           0       -6.858885    0.783725    7.812118
     64          8           0       -7.843812   -1.160494   10.151463
     65          8           0       -1.578091   -1.844639   10.142465
     66          8           0       -3.388141   -1.139518    8.030466
     67          8           0       -6.031521   -1.932953    8.055716
     68          8           0       -5.152223   -0.202179    9.933707
     69          8           0       -4.242532   -2.809259    9.968158
     70         19           0       -3.246216   -6.071531    5.700692
     71         19           0       -0.195963    0.018249   12.314838
     72         19           0       -9.218999   -2.919248   12.368417
     73         23           0       -4.706570   -1.517397    8.995312
 ---------------------------------------------------------------------
 Rotational constants (GHZ):           0.0172827           0.0134257           0.0132060
 Standard basis: def2SVP (5D, 7F)
  1217 basis functions,  2313 primitive gaussians,  1337 cartesian basis functions
   321 alpha electrons      321 beta electrons
       nuclear repulsion energy     21075.0092490260 Hartrees.
 NAtoms=   73 NActive=   73 NUniq=   73 SFac= 1.00D+00 NAtFMM=   60 NAOKFM=T Big=T
 Integral buffers will be    131072 words long.
 Raffenetti 2 integral format.
 Two-electron integral symmetry is turned off.
 Nuclear repulsion after empirical dispersion term =    21074.7308000263 Hartrees.
 Force PCM accuracy= 1.00D-10.
 ------------------------------------------------------------------------------
 Polarizable Continuum Model (PCM)
 =================================
 Model                : PCM (using non-symmetric T matrix).
 Atomic radii         : SMD-Coulomb.
 Polarization charges : Total charges.
 Charge compensation  : None.
 Solution method      : On-the-fly selection.
 Cavity type          : VdW (van der Waals Surface) (Alpha=1.000).
 Cavity algorithm     : GePol (No added spheres)
                        Default sphere list used, NSphG=   73.
                        Lebedev-Laikov grids with approx.  5.0 points / Ang**2.
                        Smoothing algorithm: York/Karplus (Gamma=1.0000).
                        Polarization charges: spherical gaussians, with
                                              point-specific exponents (IZeta= 3).
                        Self-potential: point-specific (ISelfS= 7).
                        Self-field    : sphere-specific E.n sum rule (ISelfD= 2).
 1st derivatives      : Analytical E(r).r(x)/FMM algorithm (CHGder, D1EAlg=3).
                        Cavity 1st derivative terms included.
 Solvent              : Acetonitrile, Eps=  35.688000 Eps(inf)=   1.806874
 ------------------------------------------------------------------------------
 ------------------------------------------------------------------------------
 Atomic radii for non-electrostatic terms: SMD-CDS.
 ------------------------------------------------------------------------------
 Nuclear repulsion after PCM non-electrostatic terms =    21074.7250247137 Hartrees.
 One-electron integrals computed using PRISM.
   1 Symmetry operations used in ECPInt.
 ECPInt:  NShTT=  127765 NPrTT=  468030 LenC2=   96933 LenP2D=  222039.
 LDataN:  DoStor=T MaxTD1= 8 Len=  415
 NBasis=  1217 RedAO= T EigKep=  1.33D-04  NBF=  1217
 NBsUse=  1217 1.00D-06 EigRej= -1.00D+00 NBFU=  1217
 Defaulting to unpruned grid for atomic number  74.
 Defaulting to unpruned grid for atomic number  74.
 Defaulting to unpruned grid for atomic number  74.
 Defaulting to unpruned grid for atomic number  74.
 Defaulting to unpruned grid for atomic number  74.
 Defaulting to unpruned grid for atomic number  74.
 Defaulting to unpruned grid for atomic number  74.
 Defaulting to unpruned grid for atomic number  74.
 Initial guess from the checkpoint file:  "a.chk"
 B after Tr=     0.000119    0.000183    0.000870
         Rot=    1.000000   -0.000005    0.000007    0.000026 Ang=  -0.00 deg.
 Requested convergence on RMS density matrix=1.00D-08 within  64 cycles.
 Requested convergence on MAX density matrix=1.00D-06.
 Requested convergence on             energy=1.00D-06.
 No special actions if energy rises.
 Defaulting to unpruned grid for atomic number  74.
 Defaulting to unpruned grid for atomic number  74.
 Defaulting to unpruned grid for atomic number  74.
 Defaulting to unpruned grid for atomic number  74.
 Defaulting to unpruned grid for atomic number  74.
 Defaulting to unpruned grid for atomic number  74.
 Defaulting to unpruned grid for atomic number  74.
 Defaulting to unpruned grid for atomic number  74.
 Defaulting to unpruned grid for atomic number  74.
 Defaulting to unpruned grid for atomic number  74.
 Defaulting to unpruned grid for atomic number  74.
 Defaulting to unpruned grid for atomic number  74.
 Defaulting to unpruned grid for atomic number  74.
 Defaulting to unpruned grid for atomic number  74.
 Defaulting to unpruned grid for atomic number  74.
 Defaulting to unpruned grid for atomic number  74.
 Defaulting to unpruned grid for atomic number  74.
 Defaulting to unpruned grid for atomic number  74.
 Defaulting to unpruned grid for atomic number  74.
 Defaulting to unpruned grid for atomic number  74.
 Defaulting to unpruned grid for atomic number  74.
 Defaulting to unpruned grid for atomic number  74.
 Defaulting to unpruned grid for atomic number  74.
 Defaulting to unpruned grid for atomic number  74.
 Defaulting to unpruned grid for atomic number  74.
 Defaulting to unpruned grid for atomic number  74.
 Defaulting to unpruned grid for atomic number  74.
 Defaulting to unpruned grid for atomic number  74.
 Defaulting to unpruned grid for atomic number  74.
 Defaulting to unpruned grid for atomic number  74.
 Defaulting to unpruned grid for atomic number  74.
 Defaulting to unpruned grid for atomic number  74.
 Defaulting to unpruned grid for atomic number  74.
 Defaulting to unpruned grid for atomic number  74.
 Defaulting to unpruned grid for atomic number  74.
 Defaulting to unpruned grid for atomic number  74.
 Defaulting to unpruned grid for atomic number  74.
 Defaulting to unpruned grid for atomic number  74.
 Defaulting to unpruned grid for atomic number  74.
 Defaulting to unpruned grid for atomic number  74.
 Defaulting to unpruned grid for atomic number  74.
 Defaulting to unpruned grid for atomic number  74.
 Defaulting to unpruned grid for atomic number  74.
 Defaulting to unpruned grid for atomic number  74.
 Defaulting to unpruned grid for atomic number  74.
 Defaulting to unpruned grid for atomic number  74.
 Defaulting to unpruned grid for atomic number  74.
 Defaulting to unpruned grid for atomic number  74.
 Defaulting to unpruned grid for atomic number  74.
 Defaulting to unpruned grid for atomic number  74.
 Defaulting to unpruned grid for atomic number  74.
 Defaulting to unpruned grid for atomic number  74.
 Defaulting to unpruned grid for atomic number  74.
 Defaulting to unpruned grid for atomic number  74.
 Defaulting to unpruned grid for atomic number  74.
 Defaulting to unpruned grid for atomic number  74.
 Inv3:  Mode=1 IEnd=    84047547.
 Iteration    1 A*A^-1 deviation from unit magnitude is 3.77D-15 for   4404.
 Iteration    1 A*A^-1 deviation from orthogonality  is 2.66D-15 for   3226   1656.
 Iteration    1 A^-1*A deviation from unit magnitude is 3.55D-15 for   4767.
 Iteration    1 A^-1*A deviation from orthogonality  is 6.46D-13 for   3984   3943.
 Error on total polarization charges =  0.01637
 SCF Done:  E(RwB97XD) =  -7327.68881470     A.U. after   20 cycles
            NFock= 20  Conv=0.28D-08     -V/T= 2.0831
 SMD-CDS (non-electrostatic) energy       (kcal/mol) =      -3.62
 (included in total energy above)
 QCSCF skips out because SCF is already converged.

 **********************************************************************

            Population analysis using the SCF Density.

 **********************************************************************

 Alpha  occ. eigenvalues -- -197.28105-129.99949-129.99929-129.99840-101.48268
 Alpha  occ. eigenvalues --  -22.61379 -19.33106 -19.33071 -19.33060 -19.33054
 Alpha  occ. eigenvalues --  -19.30743 -19.30726 -19.30722 -19.30705 -19.30698
 Alpha  occ. eigenvalues --  -19.30680 -19.30674 -19.30668 -19.30574 -19.30297
 Alpha  occ. eigenvalues --  -19.30272 -19.30078 -19.29211 -19.29209 -19.29203
 Alpha  occ. eigenvalues --  -19.29175 -19.29171 -19.29170 -19.29162 -19.29159
 Alpha  occ. eigenvalues --  -19.29140 -19.29116 -19.29115 -19.29105 -19.29079
 Alpha  occ. eigenvalues --  -19.29066 -19.29052 -19.29034 -19.29022 -19.28989
 Alpha  occ. eigenvalues --  -19.28980 -19.28916 -19.28902 -19.28891 -19.28881
 Alpha  occ. eigenvalues --  -19.28774 -19.10319 -19.10310 -19.10298 -13.37344
 Alpha  occ. eigenvalues --  -13.37323 -13.37221 -10.70275 -10.70267 -10.70266
 Alpha  occ. eigenvalues --  -10.70255 -10.70246 -10.70246 -10.70154 -10.70146
 Alpha  occ. eigenvalues --  -10.70144 -10.29209 -10.29010 -10.28952 -10.28555
 Alpha  occ. eigenvalues --  -10.28429 -10.28397 -10.27671 -10.25667  -9.38782
 Alpha  occ. eigenvalues --   -7.13630  -7.13542  -7.13530  -3.23197  -3.23177
 Alpha  occ. eigenvalues --   -3.23176  -3.23161  -3.23156  -3.23138  -3.23125
 Alpha  occ. eigenvalues --   -3.23095  -3.23054  -3.22846  -3.22806  -3.22522
 Alpha  occ. eigenvalues --   -2.90976  -1.93498  -1.93432  -1.93399  -1.87710
 Alpha  occ. eigenvalues --   -1.87647  -1.87634  -1.87573  -1.87476  -1.87461
 Alpha  occ. eigenvalues --   -1.87448  -1.87440  -1.87385  -1.87189  -1.87161
 Alpha  occ. eigenvalues --   -1.86975  -1.86501  -1.86384  -1.86372  -1.86357
 Alpha  occ. eigenvalues --   -1.86325  -1.86290  -1.86214  -1.86190  -1.86174
 Alpha  occ. eigenvalues --   -1.86164  -1.86124  -1.86104  -1.86028  -1.85999
 Alpha  occ. eigenvalues --   -1.85990  -1.85962  -1.85916  -1.85870  -1.85855
 Alpha  occ. eigenvalues --   -1.85776  -1.85758  -1.85662  -1.85508  -1.85418
 Alpha  occ. eigenvalues --   -1.51051  -1.51032  -1.50933  -1.12699  -1.10866
 Alpha  occ. eigenvalues --   -1.10793  -1.10762  -1.08725  -1.08345  -1.08293
 Alpha  occ. eigenvalues --   -1.08109  -1.07332  -1.07269  -1.07261  -1.06731
 Alpha  occ. eigenvalues --   -1.06717  -1.06689  -1.06120  -1.06094  -1.05287
 Alpha  occ. eigenvalues --   -1.05271  -1.04862  -1.04852  -1.04842  -1.04231
 Alpha  occ. eigenvalues --   -1.04217  -1.04183  -1.04070  -1.04064  -1.04025
 Alpha  occ. eigenvalues --   -1.03933  -1.03910  -1.03866  -1.03813  -1.03787
 Alpha  occ. eigenvalues --   -1.03657  -1.03498  -1.03270  -1.03228  -1.03084
 Alpha  occ. eigenvalues --   -1.03026  -1.02949  -1.02877  -0.93889  -0.86544
 Alpha  occ. eigenvalues --   -0.86527  -0.86438  -0.86337  -0.86332  -0.86317
 Alpha  occ. eigenvalues --   -0.86312  -0.86222  -0.86210  -0.85924  -0.82422
 Alpha  occ. eigenvalues --   -0.79330  -0.71586  -0.69164  -0.67574  -0.64343
 Alpha  occ. eigenvalues --   -0.63744  -0.63672  -0.63650  -0.63117  -0.63113
 Alpha  occ. eigenvalues --   -0.62898  -0.62520  -0.62423  -0.62367  -0.61621
 Alpha  occ. eigenvalues --   -0.61424  -0.61406  -0.61307  -0.61045  -0.61032
 Alpha  occ. eigenvalues --   -0.60975  -0.60278  -0.59302  -0.59232  -0.59188
 Alpha  occ. eigenvalues --   -0.59148  -0.59114  -0.58160  -0.57872  -0.57847
 Alpha  occ. eigenvalues --   -0.57763  -0.56901  -0.56840  -0.56789  -0.56197
 Alpha  occ. eigenvalues --   -0.56158  -0.56045  -0.55686  -0.54887  -0.54811
 Alpha  occ. eigenvalues --   -0.54782  -0.54256  -0.54125  -0.54091  -0.54052
 Alpha  occ. eigenvalues --   -0.54013  -0.54010  -0.53256  -0.53201  -0.53020
 Alpha  occ. eigenvalues --   -0.52968  -0.52810  -0.52663  -0.52620  -0.52595
 Alpha  occ. eigenvalues --   -0.52529  -0.52441  -0.52403  -0.52028  -0.51578
 Alpha  occ. eigenvalues --   -0.51549  -0.51349  -0.51319  -0.51313  -0.51261
 Alpha  occ. eigenvalues --   -0.51223  -0.51134  -0.50934  -0.50702  -0.50676
 Alpha  occ. eigenvalues --   -0.50637  -0.50439  -0.49906  -0.49869  -0.49292
 Alpha  occ. eigenvalues --   -0.49277  -0.49258  -0.49133  -0.49089  -0.48905
 Alpha  occ. eigenvalues --   -0.48832  -0.48071  -0.48016  -0.47885  -0.47326
 Alpha  occ. eigenvalues --   -0.47275  -0.47223  -0.47124  -0.46933  -0.46911
 Alpha  occ. eigenvalues --   -0.46778  -0.46475  -0.46414  -0.46311  -0.46023
 Alpha  occ. eigenvalues --   -0.46000  -0.45938  -0.45236  -0.45040  -0.44853
 Alpha  occ. eigenvalues --   -0.44795  -0.44101  -0.44053  -0.43902  -0.43257
 Alpha  occ. eigenvalues --   -0.43202  -0.43104  -0.43068  -0.43019  -0.42920
 Alpha  occ. eigenvalues --   -0.42700  -0.42681  -0.42667  -0.42562  -0.42540
 Alpha  occ. eigenvalues --   -0.42507  -0.42490  -0.42370  -0.42311  -0.42253
 Alpha  occ. eigenvalues --   -0.42227  -0.42065  -0.41997  -0.41881  -0.41840
 Alpha  occ. eigenvalues --   -0.41161  -0.41159  -0.40996  -0.40679  -0.40475
 Alpha  occ. eigenvalues --   -0.40432  -0.40397  -0.39622  -0.39361  -0.39313
 Alpha  occ. eigenvalues --   -0.36588  -0.32234  -0.29410  -0.25204  -0.25091
 Alpha  occ. eigenvalues --   -0.21643
 Alpha virt. eigenvalues --   -0.08485  -0.08241  -0.08127  -0.08051  -0.06743
 Alpha virt. eigenvalues --   -0.06703  -0.06585  -0.03837  -0.03647  -0.03532
 Alpha virt. eigenvalues --   -0.03310  -0.03108  -0.03035  -0.02882  -0.02775
 Alpha virt. eigenvalues --   -0.02670  -0.02609  -0.01928  -0.01849  -0.01809
 Alpha virt. eigenvalues --   -0.01240  -0.01161  -0.01091  -0.01045  -0.00958
 Alpha virt. eigenvalues --    0.00109   0.00137   0.00230   0.01495   0.01581
 Alpha virt. eigenvalues --    0.01979   0.01987   0.02077   0.02164   0.02278
 Alpha virt. eigenvalues --    0.02340   0.02367   0.02393   0.02797   0.02919
 Alpha virt. eigenvalues --    0.03040   0.03113   0.03158   0.04631   0.05180
 Alpha virt. eigenvalues --    0.07106   0.07548   0.07649   0.07693   0.07966
 Alpha virt. eigenvalues --    0.08076   0.08592   0.08651   0.09075   0.09194
 Alpha virt. eigenvalues --    0.09339   0.09374   0.09665   0.09908   0.10201
 Alpha virt. eigenvalues --    0.10325   0.10367   0.10397   0.10498   0.10687
 Alpha virt. eigenvalues --    0.10958   0.11162   0.11178   0.11822   0.11890
 Alpha virt. eigenvalues --    0.12501   0.13258   0.13368   0.13509   0.13694
 Alpha virt. eigenvalues --    0.13832   0.14626   0.14779   0.14802   0.15534
 Alpha virt. eigenvalues --    0.15592   0.16257   0.16525   0.16639   0.16867
 Alpha virt. eigenvalues --    0.16945   0.17069   0.17301   0.17341   0.17829
 Alpha virt. eigenvalues --    0.18082   0.18214   0.18274   0.18421   0.18674
 Alpha virt. eigenvalues --    0.18850   0.18959   0.19219   0.19362   0.19536
 Alpha virt. eigenvalues --    0.19619   0.20198   0.20347   0.20418   0.20665
 Alpha virt. eigenvalues --    0.20748   0.20924   0.21012   0.21290   0.21415
 Alpha virt. eigenvalues --    0.21517   0.21672   0.21817   0.21977   0.22442
 Alpha virt. eigenvalues --    0.22772   0.22877   0.23138   0.23354   0.23533
 Alpha virt. eigenvalues --    0.23685   0.24033   0.24164   0.24347   0.24710
 Alpha virt. eigenvalues --    0.24891   0.25275   0.25551   0.25780   0.26123
 Alpha virt. eigenvalues --    0.26315   0.26471   0.26581   0.26693   0.26880
 Alpha virt. eigenvalues --    0.27287   0.27389   0.27572   0.27682   0.27899
 Alpha virt. eigenvalues --    0.28259   0.28396   0.28507   0.28764   0.28889
 Alpha virt. eigenvalues --    0.29494   0.29959   0.30089   0.30312   0.30775
 Alpha virt. eigenvalues --    0.30921   0.31336   0.31432   0.31886   0.32009
 Alpha virt. eigenvalues --    0.32469   0.35255   0.35596   0.36059   0.36579
 Alpha virt. eigenvalues --    0.36782   0.37224   0.37592   0.38439   0.38783
 Alpha virt. eigenvalues --    0.39035   0.39566   0.39899   0.40075   0.40539
 Alpha virt. eigenvalues --    0.40949   0.41152   0.41223   0.41400   0.41912
 Alpha virt. eigenvalues --    0.42353   0.42562   0.42780   0.43339   0.43551
 Alpha virt. eigenvalues --    0.43719   0.44468   0.44687   0.44878   0.45192
 Alpha virt. eigenvalues --    0.45693   0.46291   0.46621   0.46837   0.47154
 Alpha virt. eigenvalues --    0.47451   0.47780   0.47982   0.48139   0.48196
 Alpha virt. eigenvalues --    0.48458   0.48582   0.48746   0.49022   0.49082
 Alpha virt. eigenvalues --    0.49177   0.49302   0.49603   0.49700   0.49935
 Alpha virt. eigenvalues --    0.50220   0.50288   0.50686   0.50921   0.51521
 Alpha virt. eigenvalues --    0.51924   0.51962   0.52198   0.52265   0.52639
 Alpha virt. eigenvalues --    0.52801   0.53032   0.53202   0.53445   0.53611
 Alpha virt. eigenvalues --    0.53644   0.54007   0.54347   0.54463   0.54692
 Alpha virt. eigenvalues --    0.54950   0.55385   0.55883   0.56350   0.56442
 Alpha virt. eigenvalues --    0.56861   0.57235   0.57900   0.58261   0.58710
 Alpha virt. eigenvalues --    0.58922   0.59303   0.59665   0.60762   0.61372
 Alpha virt. eigenvalues --    0.61747   0.62853   0.63039   0.63108   0.64615
 Alpha virt. eigenvalues --    0.65051   0.65542   0.65915   0.65985   0.66272
 Alpha virt. eigenvalues --    0.66422   0.67253   0.67655   0.67708   0.68008
 Alpha virt. eigenvalues --    0.68488   0.68845   0.70599   0.71122   0.71575
 Alpha virt. eigenvalues --    0.71800   0.72384   0.72519   0.72589   0.72761
 Alpha virt. eigenvalues --    0.72917   0.73085   0.73507   0.74038   0.74303
 Alpha virt. eigenvalues --    0.74946   0.75244   0.75948   0.75989   0.76275
 Alpha virt. eigenvalues --    0.76539   0.76977   0.77283   0.77746   0.77918
 Alpha virt. eigenvalues --    0.78755   0.79001   0.79633   0.79916   0.80014
 Alpha virt. eigenvalues --    0.80108   0.80708   0.80973   0.81404   0.81615
 Alpha virt. eigenvalues --    0.81809   0.81922   0.82404   0.83121   0.83561
 Alpha virt. eigenvalues --    0.84456   0.84541   0.85214   0.85644   0.86312
 Alpha virt. eigenvalues --    0.87108   0.87513   0.88105   0.88206   0.89109
 Alpha virt. eigenvalues --    0.89370   0.89415   0.89657   0.89730   0.90644
 Alpha virt. eigenvalues --    0.90976   0.91062   0.91518   0.91880   0.92123
 Alpha virt. eigenvalues --    0.92577   0.92962   0.94003   0.94191   0.94317
 Alpha virt. eigenvalues --    0.94549   0.95143   0.96036   0.96275   0.97242
 Alpha virt. eigenvalues --    0.97258   0.97456   0.97569   0.98040   0.98199
 Alpha virt. eigenvalues --    0.98399   0.98556   0.98809   0.98942   0.99043
 Alpha virt. eigenvalues --    0.99299   0.99935   1.00278   1.00442   1.00642
 Alpha virt. eigenvalues --    1.00686   1.01095   1.01579   1.01630   1.01810
 Alpha virt. eigenvalues --    1.02115   1.02283   1.02575   1.02795   1.02918
 Alpha virt. eigenvalues --    1.03121   1.03388   1.03731   1.04047   1.04221
 Alpha virt. eigenvalues --    1.04517   1.04670   1.04714   1.04864   1.05087
 Alpha virt. eigenvalues --    1.05463   1.05594   1.05738   1.05939   1.05961
 Alpha virt. eigenvalues --    1.06296   1.06606   1.07128   1.07198   1.07580
 Alpha virt. eigenvalues --    1.08182   1.08377   1.09050   1.09245   1.09634
 Alpha virt. eigenvalues --    1.09665   1.10058   1.10317   1.10496   1.10659
 Alpha virt. eigenvalues --    1.11091   1.11112   1.11260   1.11456   1.11826
 Alpha virt. eigenvalues --    1.11894   1.12074   1.12253   1.13012   1.13191
 Alpha virt. eigenvalues --    1.13816   1.14145   1.14571   1.15379   1.15558
 Alpha virt. eigenvalues --    1.15989   1.16145   1.16543   1.17103   1.17432
 Alpha virt. eigenvalues --    1.17793   1.17974   1.18760   1.19098   1.19418
 Alpha virt. eigenvalues --    1.20739   1.20952   1.21260   1.21342   1.21425
 Alpha virt. eigenvalues --    1.21784   1.22073   1.22396   1.22927   1.23774
 Alpha virt. eigenvalues --    1.25077   1.25920   1.26393   1.26548   1.26819
 Alpha virt. eigenvalues --    1.26991   1.27964   1.28311   1.28451   1.28587
 Alpha virt. eigenvalues --    1.28724   1.28881   1.29158   1.29368   1.30086
 Alpha virt. eigenvalues --    1.30195   1.30283   1.30702   1.30856   1.31150
 Alpha virt. eigenvalues --    1.32132   1.32281   1.33085   1.33228   1.33475
 Alpha virt. eigenvalues --    1.33735   1.33865   1.33944   1.34170   1.34249
 Alpha virt. eigenvalues --    1.34445   1.34521   1.34768   1.34894   1.35072
 Alpha virt. eigenvalues --    1.35185   1.35619   1.35968   1.36220   1.36322
 Alpha virt. eigenvalues --    1.36466   1.36838   1.36897   1.37254   1.37353
 Alpha virt. eigenvalues --    1.37452   1.37588   1.37870   1.37999   1.38306
 Alpha virt. eigenvalues --    1.38620   1.38736   1.38932   1.39080   1.39406
 Alpha virt. eigenvalues --    1.39673   1.39824   1.40008   1.40401   1.40558
 Alpha virt. eigenvalues --    1.40669   1.40831   1.40972   1.41157   1.41266
 Alpha virt. eigenvalues --    1.41548   1.41672   1.42163   1.42216   1.42516
 Alpha virt. eigenvalues --    1.42992   1.43119   1.43158   1.43391   1.43485
 Alpha virt. eigenvalues --    1.44047   1.44401   1.44665   1.45627   1.46395
 Alpha virt. eigenvalues --    1.46768   1.47414   1.47667   1.47777   1.48178
 Alpha virt. eigenvalues --    1.48730   1.49183   1.49620   1.50165   1.50518
 Alpha virt. eigenvalues --    1.50910   1.51114   1.51643   1.52055   1.53241
 Alpha virt. eigenvalues --    1.53643   1.55426   1.55658   1.55810   1.56005
 Alpha virt. eigenvalues --    1.56274   1.56583   1.56910   1.57138   1.57376
 Alpha virt. eigenvalues --    1.57477   1.58200   1.58797   1.59337   1.59720
 Alpha virt. eigenvalues --    1.60258   1.60631   1.60947   1.61205   1.61243
 Alpha virt. eigenvalues --    1.61307   1.61720   1.62812   1.62952   1.63189
 Alpha virt. eigenvalues --    1.63947   1.64998   1.65226   1.65830   1.67239
 Alpha virt. eigenvalues --    1.68014   1.68464   1.69070   1.70794   1.71293
 Alpha virt. eigenvalues --    1.71669   1.72287   1.72924   1.74531   1.74798
 Alpha virt. eigenvalues --    1.74860   1.75021   1.75240   1.75792   1.76322
 Alpha virt. eigenvalues --    1.76390   1.77199   1.77378   1.77622   1.78599
 Alpha virt. eigenvalues --    1.78675   1.78684   1.79068   1.80613   1.81025
 Alpha virt. eigenvalues --    1.81715   1.81951   1.82157   1.82799   1.83047
 Alpha virt. eigenvalues --    1.83353   1.83835   1.84146   1.84779   1.85011
 Alpha virt. eigenvalues --    1.85291   1.85730   1.86039   1.86199   1.86591
 Alpha virt. eigenvalues --    1.86905   1.87584   1.88042   1.88604   1.88958
 Alpha virt. eigenvalues --    1.89660   1.90380   1.90591   1.90947   1.91200
 Alpha virt. eigenvalues --    1.91491   1.91799   1.92138   1.92758   1.94769
 Alpha virt. eigenvalues --    1.95080   1.95526   1.95768   1.96111   1.96188
 Alpha virt. eigenvalues --    1.98961   1.99121   1.99398   1.99619   2.05831
 Alpha virt. eigenvalues --    2.07516   2.08201   2.08467   2.08583   2.08948
 Alpha virt. eigenvalues --    2.09497   2.09756   2.10239   2.11088   2.11830
 Alpha virt. eigenvalues --    2.12178   2.12726   2.13505   2.15045   2.15308
 Alpha virt. eigenvalues --    2.16227   2.16566   2.17258   2.17398   2.17824
 Alpha virt. eigenvalues --    2.20621   2.21274   2.22042   2.22163   2.22409
 Alpha virt. eigenvalues --    2.23052   2.23536   2.24705   2.25857   2.26454
 Alpha virt. eigenvalues --    2.26780   2.26905   2.27566   2.28545   2.29419
 Alpha virt. eigenvalues --    2.29833   2.30560   2.30918   2.33459   2.36550
 Alpha virt. eigenvalues --    2.37096   2.40230   2.41583   2.42373   2.44457
 Alpha virt. eigenvalues --    2.44703   2.50994   2.52892   2.59514   2.65020
 Alpha virt. eigenvalues --    2.65102   2.65242   2.65786   2.66589   2.66808
 Alpha virt. eigenvalues --    2.66913   2.66967   2.67001   2.67078   2.67131
 Alpha virt. eigenvalues --    2.67203   2.67348   2.67444   2.67470   2.67788
 Alpha virt. eigenvalues --    2.67877   2.67987   2.68019   2.68109   2.68319
 Alpha virt. eigenvalues --    2.68951   2.69205   2.69279   2.69832   2.70047
 Alpha virt. eigenvalues --    2.70196   2.70452   2.70507   2.70598   2.70723
 Alpha virt. eigenvalues --    2.71001   2.71389   2.71533   2.71597   2.71711
 Alpha virt. eigenvalues --    2.71767   2.72067   2.72500   2.72730   2.72888
 Alpha virt. eigenvalues --    2.72941   2.73068   2.73326   2.73388   2.73441
 Alpha virt. eigenvalues --    2.73772   2.73842   2.73895   2.73956   2.74024
 Alpha virt. eigenvalues --    2.74341   2.74424   2.74582   2.74650   2.74786
 Alpha virt. eigenvalues --    2.74882   2.75175   2.75470   2.76024   2.76127
 Alpha virt. eigenvalues --    2.76274   2.76586   2.76716   2.76797   2.77057
 Alpha virt. eigenvalues --    2.77252   2.77330   2.77409   2.78375   2.78499
 Alpha virt. eigenvalues --    2.78786   2.79006   2.80121   2.80338   2.80493
 Alpha virt. eigenvalues --    2.81470   2.82112   2.82236   2.82661   2.82741
 Alpha virt. eigenvalues --    2.83041   2.83319   2.83571   2.83677   2.84005
 Alpha virt. eigenvalues --    2.84154   2.84265   2.84444   2.84789   2.85462
 Alpha virt. eigenvalues --    2.85909   2.86257   2.86509   2.86715   2.86845
 Alpha virt. eigenvalues --    2.86949   2.87054   2.87198   2.87384   2.88503
 Alpha virt. eigenvalues --    2.88765   2.89599   2.89654   2.89772   2.89910
 Alpha virt. eigenvalues --    2.90057   2.90183   2.90331   2.90447   2.90564
 Alpha virt. eigenvalues --    2.90736   2.91674   2.91898   2.92134   2.92277
 Alpha virt. eigenvalues --    2.92454   2.92576   2.92788   2.93094   2.93257
 Alpha virt. eigenvalues --    2.93583   2.93937   2.94169   2.94280   2.94489
 Alpha virt. eigenvalues --    2.94932   2.95295   2.95593   2.95764   2.96058
 Alpha virt. eigenvalues --    2.96252   2.96337   2.96737   2.96846   2.96920
 Alpha virt. eigenvalues --    2.97286   2.97296   2.97533   2.97696   2.98171
 Alpha virt. eigenvalues --    2.98243   2.98399   2.98654   2.98986   2.99488
 Alpha virt. eigenvalues --    2.99782   2.99901   3.00081   3.00283   3.00606
 Alpha virt. eigenvalues --    3.00852   3.01110   3.01875   3.02313   3.02520
 Alpha virt. eigenvalues --    3.04470   3.04736   3.04976   3.05397   3.05582
 Alpha virt. eigenvalues --    3.06413   3.06682   3.07195   3.11143   3.11192
 Alpha virt. eigenvalues --    3.11400   3.11657   3.12225   3.12733   3.13542
 Alpha virt. eigenvalues --    3.13772   3.13865   3.17056   3.18895   3.21892
 Alpha virt. eigenvalues --    3.22339   3.24444   3.33887   3.40352   3.40901
 Alpha virt. eigenvalues --    3.41696   3.42396   3.43877   3.43931   3.44966
 Alpha virt. eigenvalues --    3.45164   3.45233   3.46249   3.46675   3.46822
 Alpha virt. eigenvalues --    3.50170   3.50337   3.51352   3.51917   3.52865
 Alpha virt. eigenvalues --    3.53055   3.53787   3.53971   3.54443   3.54638
 Alpha virt. eigenvalues --    3.54864   3.54983   3.55510   3.55710   3.56922
 Alpha virt. eigenvalues --    3.57013   3.57676   3.58869   3.59315   3.59989
 Alpha virt. eigenvalues --    3.60208   3.60636   3.60906   3.61234   3.62014
 Alpha virt. eigenvalues --    3.70006   3.75622  68.64971  68.65912  68.67293
 Alpha virt. eigenvalues --   68.69865  68.73543  68.74886  68.82279  68.83249
 Alpha virt. eigenvalues --   68.83832  68.86950  68.87909  68.89317 576.23387
 Alpha virt. eigenvalues --  576.24305 576.25660 576.28172 576.31870 576.33196
 Alpha virt. eigenvalues --  576.40446 576.41391 576.41957 576.44973 576.45910
 Alpha virt. eigenvalues --  576.47307
          Condensed to atoms (all electrons):
 Mulliken charges:
               1
     1  Cl  -0.867937
     2  C   -0.094843
     3  C    0.046118
     4  C   -0.085967
     5  C   -0.033713
     6  C   -0.041925
     7  C   -0.050155
     8  H    0.020754
     9  H    0.024035
    10  H    0.037020
    11  H    0.031195
    12  H    0.035551
    13  C   -0.077371
    14  C    0.048198
    15  H   -0.003651
    16  H    0.027416
    17  H    0.032458
    18  O   -0.659755
    19  O   -0.657449
    20  O   -0.649957
    21  O   -0.659677
    22  W    1.727370
    23  W    1.663686
    24  W    1.674568
    25  W    1.685434
    26  W    1.666530
    27  W    1.724868
    28  W    1.612083
    29  W    1.678864
    30  O   -0.319280
    31  O   -0.364569
    32  O   -0.363687
    33  O   -0.362360
    34  O   -0.660683
    35  O   -0.669065
    36  O   -0.658676
    37  O   -0.661213
    38  O   -0.362913
    39  O   -0.363538
    40  O   -0.282603
    41  O   -0.363861
    42  O   -0.668105
    43  O   -0.659873
    44  O   -0.655425
    45  O   -0.662673
    46  O   -0.363638
    47  O   -0.319707
    48  O   -0.350038
    49  O   -0.363078
    50  W    1.664110
    51  W    1.667897
    52  W    1.665441
    53  W    1.675106
    54  O   -0.722224
    55  O   -0.705136
    56  O   -0.725794
    57  O   -0.719561
    58  O   -0.702625
    59  O   -0.725540
    60  O   -0.723242
    61  O   -0.720961
    62  O   -0.722069
    63  O   -0.706066
    64  O   -0.721351
    65  O   -0.725998
    66  O   -0.802954
    67  O   -0.803052
    68  O   -0.797977
    69  O   -0.812266
    70  K    0.858886
    71  K    0.858414
    72  K    0.854125
    73  V    1.214075
 Sum of Mulliken charges =  -1.00000
 Mulliken charges with hydrogens summed into heavy atoms:
               1
     1  Cl  -0.867937
     2  C   -0.074089
     3  C    0.046118
     4  C   -0.061932
     5  C    0.003307
     6  C   -0.010730
     7  C   -0.014604
    13  C   -0.081022
    14  C    0.108072
    18  O   -0.659755
    19  O   -0.657449
    20  O   -0.649957
    21  O   -0.659677
    22  W    1.727370
    23  W    1.663686
    24  W    1.674568
    25  W    1.685434
    26  W    1.666530
    27  W    1.724868
    28  W    1.612083
    29  W    1.678864
    30  O   -0.319280
    31  O   -0.364569
    32  O   -0.363687
    33  O   -0.362360
    34  O   -0.660683
    35  O   -0.669065
    36  O   -0.658676
    37  O   -0.661213
    38  O   -0.362913
    39  O   -0.363538
    40  O   -0.282603
    41  O   -0.363861
    42  O   -0.668105
    43  O   -0.659873
    44  O   -0.655425
    45  O   -0.662673
    46  O   -0.363638
    47  O   -0.319707
    48  O   -0.350038
    49  O   -0.363078
    50  W    1.664110
    51  W    1.667897
    52  W    1.665441
    53  W    1.675106
    54  O   -0.722224
    55  O   -0.705136
    56  O   -0.725794
    57  O   -0.719561
    58  O   -0.702625
    59  O   -0.725540
    60  O   -0.723242
    61  O   -0.720961
    62  O   -0.722069
    63  O   -0.706066
    64  O   -0.721351
    65  O   -0.725998
    66  O   -0.802954
    67  O   -0.803052
    68  O   -0.797977
    69  O   -0.812266
    70  K    0.858886
    71  K    0.858414
    72  K    0.854125
    73  V    1.214075
 Electronic spatial extent (au):  <R**2>=         316529.1897
 Charge=             -1.0000 electrons
 Dipole moment (field-independent basis, Debye):
    X=             51.0110    Y=            -46.8849    Z=            -38.6448  Tot=             79.3331
 Quadrupole moment (field-independent basis, Debye-Ang):
   XX=          -1061.7910   YY=           -830.1726   ZZ=           -917.0508
   XY=            414.0685   XZ=            456.6310   YZ=           -431.3853
 Traceless Quadrupole moment (field-independent basis, Debye-Ang):
   XX=           -125.4529   YY=            106.1655   ZZ=             19.2873
   XY=            414.0685   XZ=            456.6310   YZ=           -431.3853
 Octapole moment (field-independent basis, Debye-Ang**2):
  XXX=          13550.4225  YYY=           -421.3978  ZZZ=         -19243.4186  XYY=           5534.9205
  XXY=          -3292.7195  XXZ=          -9497.2373  XZZ=           7345.9632  YZZ=          -3663.2759
  YYZ=          -8371.2597  XYZ=           4343.0519
 Hexadecapole moment (field-independent basis, Debye-Ang**3):
 XXXX=        -160575.3278 YYYY=         -46244.3627 ZZZZ=        -348504.8410 XXXY=          33427.4108
 XXXZ=         123955.3494 YYYX=          14647.7051 YYYZ=          -5751.9181 ZZZX=         128249.3919
 ZZZY=         -29882.8406 XXYY=         -50487.3619 XXZZ=        -108898.8218 YYZZ=         -92105.0274
 XXYZ=         -38015.8161 YYXZ=          55460.2842 ZZXY=          45169.7261
 N-N= 2.107472502471D+04 E-N=-5.923675141781D+04  KE= 6.765550100226D+03
   1 Symmetry operations used in ECPInt.
 ECPInt:  NShTT=  127765 NPrTT=  468030 LenC2=   96933 LenP2D=  222039.
 LDataN:  DoStor=T MaxTD1= 9 Len=  602
 D1PCM: PCM CHGder 1st derivatives, ID1Alg=3 FixD1E=F DoIter=F DoCFld=F I1PDM=0.
 Calling FoFJK, ICntrl=      2127 FMM=T ISym2X=0 I1Cent= 0 IOpClX= 0 NMat=1 NMatS=1 NMatT=0.
 Defaulting to unpruned grid for atomic number  74.
 Defaulting to unpruned grid for atomic number  74.
 Defaulting to unpruned grid for atomic number  74.
 Defaulting to unpruned grid for atomic number  74.
 Defaulting to unpruned grid for atomic number  74.
 Defaulting to unpruned grid for atomic number  74.
 Defaulting to unpruned grid for atomic number  74.
 Defaulting to unpruned grid for atomic number  74.
 Defaulting to unpruned grid for atomic number  74.
 Defaulting to unpruned grid for atomic number  74.
 Defaulting to unpruned grid for atomic number  74.
 Defaulting to unpruned grid for atomic number  74.
 Defaulting to unpruned grid for atomic number  74.
 Defaulting to unpruned grid for atomic number  74.
 Defaulting to unpruned grid for atomic number  74.
 Defaulting to unpruned grid for atomic number  74.
 Defaulting to unpruned grid for atomic number  74.
 Defaulting to unpruned grid for atomic number  74.
 Defaulting to unpruned grid for atomic number  74.
 Defaulting to unpruned grid for atomic number  74.
 Defaulting to unpruned grid for atomic number  74.
 Defaulting to unpruned grid for atomic number  74.
 Defaulting to unpruned grid for atomic number  74.
 Defaulting to unpruned grid for atomic number  74.
 Defaulting to unpruned grid for atomic number  74.
 Defaulting to unpruned grid for atomic number  74.
 Defaulting to unpruned grid for atomic number  74.
 Defaulting to unpruned grid for atomic number  74.
 Defaulting to unpruned grid for atomic number  74.
 Defaulting to unpruned grid for atomic number  74.
 Defaulting to unpruned grid for atomic number  74.
 Defaulting to unpruned grid for atomic number  74.
 Defaulting to unpruned grid for atomic number  74.
 Defaulting to unpruned grid for atomic number  74.
 Defaulting to unpruned grid for atomic number  74.
 Defaulting to unpruned grid for atomic number  74.
 Defaulting to unpruned grid for atomic number  74.
 Defaulting to unpruned grid for atomic number  74.
 Defaulting to unpruned grid for atomic number  74.
 Defaulting to unpruned grid for atomic number  74.
 Defaulting to unpruned grid for atomic number  74.
 Defaulting to unpruned grid for atomic number  74.
 Defaulting to unpruned grid for atomic number  74.
 Defaulting to unpruned grid for atomic number  74.
 Defaulting to unpruned grid for atomic number  74.
 Defaulting to unpruned grid for atomic number  74.
 Defaulting to unpruned grid for atomic number  74.
 Defaulting to unpruned grid for atomic number  74.
 Defaulting to unpruned grid for atomic number  74.
 Defaulting to unpruned grid for atomic number  74.
 Defaulting to unpruned grid for atomic number  74.
 Defaulting to unpruned grid for atomic number  74.
 Defaulting to unpruned grid for atomic number  74.
 Defaulting to unpruned grid for atomic number  74.
 Defaulting to unpruned grid for atomic number  74.
 Defaulting to unpruned grid for atomic number  74.
 -------------------------------------------------------------------
 Center     Atomic                   Forces (Hartrees/Bohr)
 Number     Number              X              Y              Z
 -------------------------------------------------------------------
      1       17          -0.009001427    0.019574147    0.005430309
      2        6          -0.001182626   -0.000927073    0.000276136
      3        6           0.001488070    0.000883861   -0.002530523
      4        6           0.001180462    0.001396981    0.000650500
      5        6          -0.000043600   -0.000005352    0.001486379
      6        6          -0.000090440   -0.000515407    0.001883551
      7        6          -0.001114481   -0.000675326    0.000312374
      8        1          -0.000536071   -0.000326594   -0.000159977
      9        1           0.000074215   -0.000029812    0.000379938
     10        1           0.000051561    0.000073069    0.000098920
     11        1           0.000034937   -0.000623288    0.000843457
     12        1          -0.000009611    0.000011744    0.000194089
     13        6          -0.004438731   -0.015686867   -0.003295089
     14        6           0.014938803    0.001145824   -0.006932381
     15        1           0.001812519    0.000895228    0.000877020
     16        1          -0.002221622   -0.000481111    0.004215066
     17        1          -0.005260860   -0.001172430   -0.001993089
     18        8          -0.004540625    0.000594767    0.001531705
     19        8           0.004653571   -0.000975617    0.001576352
     20        8           0.003410077   -0.003808361   -0.000912881
     21        8          -0.003192524    0.003203304   -0.001420083
     22       74          -0.000388888    0.004767379   -0.005404184
     23       74           0.000707058   -0.001895206   -0.002725178
     24       74           0.001211504    0.000316337    0.002564616
     25       74          -0.001465246    0.000139422    0.002300947
     26       74           0.001227173   -0.001308774   -0.000312814
     27       74          -0.004930484    0.005935066   -0.005491772
     28       74          -0.001810989    0.000437899   -0.000058944
     29       74           0.002183493    0.000211681    0.000721296
     30        8          -0.000137696    0.000556780    0.000150545
     31        8          -0.000312624   -0.002512688   -0.001772866
     32        8           0.002095348    0.002051293    0.001998167
     33        8          -0.002132523   -0.001884070    0.002049955
     34        8          -0.001375724   -0.000949900    0.003983038
     35        8           0.001645834    0.000551818    0.004242333
     36        8           0.000717504   -0.001873498   -0.003682077
     37        8          -0.000318187    0.001479129   -0.003857313
     38        8           0.004824293    0.000980058    0.001266325
     39        8          -0.004647937   -0.000899683    0.001184382
     40        8           0.002068705    0.000831771   -0.002918635
     41        8           0.001721713   -0.003337903   -0.000860265
     42        8          -0.002819028   -0.003191252    0.001393689
     43        8           0.002947245    0.003058092    0.001392724
     44        8          -0.000619313   -0.004392831   -0.001211770
     45        8           0.000773449    0.004098506   -0.001420011
     46        8           0.001838097   -0.002275301   -0.003658204
     47        8           0.001100408   -0.000295334    0.000278796
     48        8          -0.003097024   -0.000369546    0.003832846
     49        8           0.002759160   -0.000102058    0.003440132
     50       74          -0.000126106    0.001344164    0.000927057
     51       74          -0.000604023   -0.001229702    0.000945799
     52       74          -0.000392579    0.004520113   -0.001765978
     53       74          -0.000506505   -0.002186968   -0.001142895
     54        8          -0.000276410   -0.000261396    0.000599403
     55        8           0.000327082   -0.000132947    0.000627102
     56        8          -0.000147692   -0.000559611   -0.000718989
     57        8           0.000369631    0.000170564   -0.000712053
     58        8          -0.000247222   -0.000601195    0.000024901
     59        8           0.000790543    0.000344569    0.000099306
     60        8           0.000506860   -0.000840926   -0.000258602
     61        8          -0.000395459    0.000619316   -0.000375652
     62        8          -0.000697482    0.000608758   -0.000297564
     63        8           0.000744793   -0.001305151   -0.000304662
     64        8           0.000787529   -0.000599544    0.000074828
     65        8          -0.000831092    0.000118045    0.000161010
     66        8          -0.012862702    0.000266630    0.005854587
     67        8           0.012259334   -0.000310548    0.005569206
     68        8           0.008147587   -0.010772763   -0.005443186
     69        8          -0.007814972    0.010254577   -0.006272373
     70       19           0.000538059   -0.001896086   -0.001374456
     71       19           0.001830713    0.000800077    0.001408957
     72       19          -0.001994691   -0.000539775    0.001571497
     73       23           0.000817890   -0.000489075    0.000865227
 -------------------------------------------------------------------
 Cartesian Forces:  Max     0.019574147 RMS     0.003450581

 GradGradGradGradGradGradGradGradGradGradGradGradGradGradGradGradGradGrad
 Berny optimization.
 Search for a local minimum.
 Step number   1 out of a maximum of    2
 All quantities printed in internal units (Hartrees-Bohrs-Radians)
 Second derivative matrix not updated -- first step.
 ITU=  0
     Eigenvalues ---   -0.00000   0.00000   0.00000   0.00010   0.00091
     Eigenvalues ---    0.00093   0.00265   0.00571   0.00618   0.01645
     Eigenvalues ---    0.02046   0.02910   0.02996   0.03222   0.03413
     Eigenvalues ---    0.03450   0.03701   0.03716   0.04148   0.04560
     Eigenvalues ---    0.04590   0.04598   0.04615   0.04845   0.04855
     Eigenvalues ---    0.05006   0.05337   0.05569   0.05590   0.06392
     Eigenvalues ---    0.06440   0.06544   0.06776   0.06868   0.07045
     Eigenvalues ---    0.07308   0.07400   0.07601   0.08416   0.08468
     Eigenvalues ---    0.08721   0.08788   0.08902   0.09092   0.09741
     Eigenvalues ---    0.09874   0.10113   0.10524   0.10547   0.10707
     Eigenvalues ---    0.10955   0.10980   0.11492   0.11589   0.12019
     Eigenvalues ---    0.12098   0.12114   0.12574   0.12736   0.12767
     Eigenvalues ---    0.12796   0.12841   0.13219   0.13304   0.13506
     Eigenvalues ---    0.13967   0.14055   0.14387   0.14594   0.14707
     Eigenvalues ---    0.16667   0.16731   0.16873   0.17145   0.17620
     Eigenvalues ---    0.17732   0.18494   0.19685   0.19754   0.20256
     Eigenvalues ---    0.20712   0.20728   0.21731   0.21842   0.21996
     Eigenvalues ---    0.23116   0.23459   0.23580   0.23893   0.24034
     Eigenvalues ---    0.24658   0.25043   0.25112   0.25427   0.25978
     Eigenvalues ---    0.26136   0.26214   0.27751   0.27841   0.27951
     Eigenvalues ---    0.28806   0.28844   0.29218   0.29860   0.30035
     Eigenvalues ---    0.30908   0.31031   0.31153   0.31229   0.31386
     Eigenvalues ---    0.31527   0.31721   0.31831   0.32158   0.32800
     Eigenvalues ---    0.32859   0.33089   0.33305   0.33381   0.34083
     Eigenvalues ---    0.34223   0.35828   0.36057   0.36302   0.37008
     Eigenvalues ---    0.37673   0.37742   0.37860   0.38223   0.38847
     Eigenvalues ---    0.39114   0.39678   0.40534   0.40676   0.42915
     Eigenvalues ---    0.43256   0.43538   0.43673   0.44232   0.45244
     Eigenvalues ---    0.46078   0.46244   0.46474   0.47533   0.48488
     Eigenvalues ---    0.48643   0.49799   0.49982   0.50169   0.50375
     Eigenvalues ---    0.50874   0.51009   0.51444   0.52129   0.53024
     Eigenvalues ---    0.54332   0.55106   0.56572   0.60858   0.64287
     Eigenvalues ---    0.67487   0.76503   0.82680   0.83444   0.95886
     Eigenvalues ---    0.97255   0.99232   1.00109   1.02666   1.04033
     Eigenvalues ---    1.07710   1.12031   1.12546   1.13377   1.18500
     Eigenvalues ---    1.20805   1.21264   1.21964   1.22963   1.23369
     Eigenvalues ---    1.23823   1.26780   1.26838   1.27245   1.27652
     Eigenvalues ---    1.28302   1.29972   1.31282   1.46254   1.46416
     Eigenvalues ---    1.47268   1.50591   1.53883   1.54378   1.54717
     Eigenvalues ---    1.55108   1.57447   1.57805   1.58767   1.59869
     Eigenvalues ---    1.60503   1.61156   1.63783   1.69048   1.85415
     Eigenvalues ---    1.98300   2.04521   2.05039   2.08179   2.08922
     Eigenvalues ---    2.21676   2.38909   4.39861
 Eigenvalue     1 is  -1.11D-16 should be greater than     0.000000 Eigenvector:
                          Y15       Y9        Y16       Y13       Y4
   1                    0.17537   0.17537   0.17537   0.17537   0.17537
                          Y14       Y10       Y3        Y5        Y17
   1                    0.17537   0.17537   0.17537   0.17537   0.17537
 Eigenvalue     2 is   4.17D-07 Eigenvector:
                          Y16       X16       X11       Y11       Y14
   1                    0.33615  -0.26130   0.26125  -0.25293   0.24280
                          Y15       Y17       Y13       X12       Y12
   1                    0.24224   0.20123   0.19320   0.18877  -0.18228
 Eigenvalue     3 is   3.20D-06 Eigenvector:
                          X9        X10       Y12       Y9        Y8
   1                    0.32784   0.30226   0.26875  -0.25585   0.24939
                          X12       Y10       Y17       X8        X4
   1                   -0.24196  -0.23654   0.22327  -0.21831   0.20184
 Quadratic step=6.023D+01 exceeds max=3.000D-01 adjusted using Lamda=-2.649D-02.
 Angle between NR and scaled steps=  40.36 degrees.
 Angle between quadratic step and forces=  60.11 degrees.
 Linear search not attempted -- first point.
 B after Tr=    -0.000071    0.004254    0.000789
         Rot=    1.000000   -0.000084    0.000013    0.000088 Ang=  -0.01 deg.
 Variable       Old X    -DE/DX   Delta X   Delta X   Delta X     New X
                                 (Linear)    (Quad)   (Total)
    X1      -18.62588  -0.00900   0.00000  -0.00888  -0.00696 -18.63284
    Y1       14.25850   0.01957   0.00000   0.01932   0.02354  14.28205
    Z1       19.60000   0.00543   0.00000   0.00566   0.00836  19.60835
    X2      -15.70484  -0.00118   0.00000  -0.00266  -0.00195 -15.70678
    Y2        8.04137  -0.00093   0.00000  -0.02137  -0.01825   8.02312
    Z2       23.12978   0.00028   0.00000  -0.00415  -0.00243  23.12735
    X3      -17.14995   0.00149   0.00000   0.02843   0.02909 -17.12086
    Y3        7.44701   0.00088   0.00000  -0.05103  -0.04730   7.39971
    Z3       20.97872  -0.00253   0.00000  -0.01865  -0.01708  20.96164
    X4      -18.91487   0.00118   0.00000   0.00483   0.00515 -18.90972
    Y4        5.46421   0.00140   0.00000  -0.02064  -0.01663   5.44758
    Z4       21.15481   0.00065   0.00000   0.01355   0.01475  21.16956
    X5      -19.24476  -0.00004   0.00000  -0.00807  -0.00804 -19.25280
    Y5        4.14090  -0.00001   0.00000  -0.00182   0.00187   4.14277
    Z5       23.39873   0.00149   0.00000   0.02540   0.02637  23.42510
    X6      -17.81182  -0.00009   0.00000  -0.00885  -0.00877 -17.82059
    Y6        4.76761  -0.00052   0.00000  -0.00263   0.00045   4.76806
    Z6       25.52272   0.00188   0.00000   0.02593   0.02704  25.54976
    X7      -16.03293  -0.00111   0.00000  -0.01298  -0.01255 -16.04549
    Y7        6.71095  -0.00068   0.00000  -0.00109   0.00170   6.71266
    Z7       25.37417   0.00031   0.00000   0.01015   0.01164  25.38581
    X8      -14.31049  -0.00054   0.00000  -0.00677  -0.00579 -14.31628
    Y8        9.56321  -0.00033   0.00000  -0.01818  -0.01529   9.54792
    Z8       23.05241  -0.00016   0.00000  -0.00709  -0.00507  23.04734
    X9      -20.02938   0.00007   0.00000   0.00093   0.00120 -20.02818
    Y9        4.96730  -0.00003   0.00000  -0.02207  -0.01758   4.94972
    Z9       19.48469   0.00038   0.00000   0.01712   0.01821  19.50289
   X10      -20.62188   0.00005   0.00000  -0.01247  -0.01271 -20.63459
   Y10        2.60368   0.00007   0.00000   0.00318   0.00710   2.61078
   Z10       23.49609   0.00010   0.00000   0.02424   0.02491  23.52100
   X11      -18.06412   0.00003   0.00000  -0.00487  -0.00502 -18.06914
   Y11        3.72946  -0.00062   0.00000  -0.00195   0.00088   3.73034
   Z11       27.28595   0.00084   0.00000   0.02818   0.02911  27.31506
   X12      -14.89603  -0.00001   0.00000  -0.01263  -0.01216 -14.90819
   Y12        7.19685   0.00001   0.00000   0.01018   0.01250   7.20934
   Z12       27.02952   0.00019   0.00000   0.00722   0.00882  27.03834
   X13      -16.86742  -0.00444   0.00000   0.06263   0.06358 -16.80384
   Y13        8.79023  -0.01569   0.00000  -0.12061  -0.11653   8.67370
   Z13       18.58261  -0.00330   0.00000  -0.05189  -0.05009  18.53252
   X14      -15.34147   0.01494   0.00000   0.06707   0.06838 -15.27309
   Y14       10.73490   0.00115   0.00000  -0.10846  -0.10457  10.63033
   Z14       18.13106  -0.00693   0.00000  -0.05606  -0.05389  18.07716
   X15      -18.16322   0.00181   0.00000   0.04262   0.04351 -18.11971
   Y15        8.16654   0.00090   0.00000  -0.08702  -0.08246   8.08408
   Z15       17.08403   0.00088   0.00000  -0.03716  -0.03549  17.04854
   X16      -15.20555  -0.00222   0.00000   0.01486   0.01637 -15.18917
   Y16       11.56372  -0.00048   0.00000  -0.04777  -0.04358  11.52014
   Z16       16.23577   0.00422   0.00000  -0.01966  -0.01734  16.21843
   X17      -13.92319  -0.00526   0.00000  -0.00247  -0.00107 -13.92426
   Y17       11.41790  -0.00117   0.00000  -0.05653  -0.05311  11.36479
   Z17       19.48677  -0.00199   0.00000  -0.02853  -0.02620  19.46057
   X18       -1.86607  -0.00454   0.00000  -0.02610  -0.02713  -1.89321
   Y18       -3.32897   0.00059   0.00000   0.00450   0.00671  -3.32225
   Z18       14.07242   0.00153   0.00000   0.01179   0.01196  14.08439
   X19      -15.93713   0.00465   0.00000   0.01829   0.01741 -15.91972
   Y19       -2.50550  -0.00098   0.00000   0.00880   0.01348  -2.49202
   Z19       14.08560   0.00158   0.00000   0.01281   0.01276  14.09836
   X20      -13.37315   0.00341   0.00000   0.01829   0.01813 -13.35502
   Y20        2.56079  -0.00381   0.00000  -0.01146  -0.00820   2.55259
   Z20       19.85146  -0.00091   0.00000  -0.01036  -0.00949  19.84197
   X21       -4.38927  -0.00319   0.00000  -0.01572  -0.01777  -4.40704
   Y21       -8.25071   0.00320   0.00000   0.02246   0.02412  -8.22659
   Z21       19.98329  -0.00142   0.00000  -0.01165  -0.01237  19.97093
   X22       -6.47135  -0.00039   0.00000  -0.00957  -0.00972  -6.48107
   Y22        1.41621   0.00477   0.00000   0.01722   0.02054   1.43675
   Z22       12.32542  -0.00540   0.00000  -0.00988  -0.00903  12.31639
   X23      -11.38106   0.00071   0.00000   0.00339   0.00172 -11.37934
   Y23       -7.23278  -0.00190   0.00000  -0.00118   0.00297  -7.22981
   Z23       12.47104  -0.00273   0.00000  -0.00613  -0.00686  12.46418
   X24       -6.88000   0.00121   0.00000   0.01248   0.01214  -6.86786
   Y24        1.75711   0.00032   0.00000   0.00190   0.00373   1.76084
   Z24       21.52095   0.00256   0.00000   0.01017   0.01107  21.53203
   X25      -10.90732  -0.00147   0.00000  -0.01641  -0.01834 -10.92566
   Y25       -7.32237   0.00014   0.00000   0.00648   0.00900  -7.31337
   Z25       21.65473   0.00230   0.00000   0.00664   0.00590  21.66064
   X26       -4.67329   0.00123   0.00000  -0.00803  -0.00926  -4.68255
   Y26       -4.79525  -0.00131   0.00000  -0.00079   0.00226  -4.79299
   Z26       12.04188  -0.00031   0.00000  -0.00514  -0.00528  12.03660
   X27      -13.12378  -0.00493   0.00000  -0.00263  -0.00320 -13.12698
   Y27       -1.02416   0.00594   0.00000   0.01986   0.02440  -0.99976
   Z27       12.00152  -0.00549   0.00000  -0.00578  -0.00551  11.99601
   X28      -12.89470  -0.00181   0.00000  -0.00488  -0.00562 -12.90032
   Y28       -0.46967   0.00044   0.00000  -0.00232   0.00050  -0.46917
   Z28       21.92736  -0.00006   0.00000   0.00725   0.00761  21.93497
   X29       -4.87711   0.00218   0.00000   0.00250   0.00095  -4.87617
   Y29       -5.08897   0.00021   0.00000   0.01159   0.01300  -5.07597
   Z29       21.98291   0.00072   0.00000   0.00604   0.00584  21.98875
   X30       -6.06358  -0.00014   0.00000   0.00157   0.00188  -6.06171
   Y30        3.67346   0.00056   0.00000   0.01696   0.02058   3.69403
   Z30       10.11831   0.00015   0.00000  -0.00783  -0.00658  10.11173
   X31      -11.59296  -0.00031   0.00000  -0.00651  -0.00855 -11.60151
   Y31       -9.60102  -0.00251   0.00000  -0.00283   0.00172  -9.59929
   Z31       10.33075  -0.00177   0.00000  -0.01103  -0.01217  10.31858
   X32       -5.12030   0.00210   0.00000   0.00957   0.00945  -5.11085
   Y32        3.32848   0.00205   0.00000   0.01202   0.01318   3.34166
   Z32       23.68167   0.00200   0.00000   0.01375   0.01497  23.69663
   X33      -12.65136  -0.00213   0.00000  -0.01401  -0.01627 -12.66763
   Y33       -8.82869  -0.00188   0.00000  -0.00301  -0.00056  -8.82925
   Z33       23.87338   0.00205   0.00000   0.01069   0.00965  23.88303
   X34       -5.07529  -0.00138   0.00000  -0.01583  -0.01647  -5.09176
   Y34       -1.62669  -0.00095   0.00000   0.00328   0.00664  -1.62005
   Z34       10.55581   0.00398   0.00000   0.01052   0.01090  10.56671
   X35      -12.71226   0.00165   0.00000   0.00788   0.00677 -12.70549
   Y35       -4.30170   0.00055   0.00000   0.01319   0.01788  -4.28382
   Z35       10.63260   0.00424   0.00000   0.01338   0.01311  10.64571
   X36      -10.06742   0.00072   0.00000   0.00628   0.00577 -10.06165
   Y36        1.09812  -0.00187   0.00000  -0.01129  -0.00920   1.08892
   Z36       23.37679  -0.00368   0.00000  -0.00622  -0.00552  23.37127
   X37       -7.68369  -0.00032   0.00000  -0.00800  -0.00987  -7.69356
   Y37       -6.65572   0.00148   0.00000   0.01644   0.01809  -6.63763
   Z37       23.46582  -0.00386   0.00000  -0.01039  -0.01092  23.45490
   X38        0.54612   0.00482   0.00000   0.00984   0.00930   0.55542
   Y38       -0.00931   0.00098   0.00000   0.00739   0.00859  -0.00071
   Z38       17.54507   0.00127   0.00000   0.00487   0.00568  17.55075
   X39      -18.35017  -0.00465   0.00000  -0.01731  -0.01885 -18.36903
   Y39       -5.69610  -0.00090   0.00000   0.00559   0.01009  -5.68601
   Z39       17.66246   0.00118   0.00000   0.00571   0.00505  17.66751
   X40      -12.18650   0.00207   0.00000   0.02946   0.03008 -12.15641
   Y40        6.44824   0.00083   0.00000   0.01240   0.01603   6.46427
   Z40       16.37594  -0.00292   0.00000  -0.02391  -0.02236  16.35358
   X41       -5.61212   0.00172   0.00000   0.00057  -0.00208  -5.61420
   Y41      -12.17406  -0.00334   0.00000  -0.00393  -0.00147 -12.17553
   Z41       16.51157  -0.00086   0.00000  -0.00564  -0.00705  16.50452
   X42       -3.39808  -0.00282   0.00000  -0.01947  -0.01966  -3.41774
   Y42        1.48259  -0.00319   0.00000  -0.00117   0.00130   1.48389
   Z42       14.14617   0.00139   0.00000   0.00871   0.00965  14.15582
   X43      -14.41804   0.00295   0.00000   0.01237   0.01063 -14.40741
   Y43       -7.32352   0.00306   0.00000   0.01301   0.01739  -7.30613
   Z43       14.28266   0.00139   0.00000   0.00977   0.00894  14.29159
   X44       -8.60109  -0.00062   0.00000   0.00789   0.00803  -8.59306
   Y44        4.22967  -0.00439   0.00000  -0.01495  -0.01250   4.21717
   Z44       19.71001  -0.00121   0.00000  -0.00496  -0.00369  19.70632
   X45       -9.17844   0.00077   0.00000  -0.00974  -0.01208  -9.19052
   Y45       -9.87079   0.00410   0.00000   0.02219   0.02471  -9.84609
   Z45       19.89437  -0.00142   0.00000  -0.00982  -0.01093  19.88344
   X46       -3.12460   0.00184   0.00000   0.00014  -0.00134  -3.12595
   Y46       -6.57147  -0.00228   0.00000  -0.00024   0.00290  -6.56857
   Z46        9.88025  -0.00366   0.00000  -0.01168  -0.01208   9.86816
   X47      -14.76966   0.00110   0.00000  -0.00670  -0.00694 -14.77660
   Y47        0.50051  -0.00030   0.00000   0.01331   0.01852   0.51903
   Z47        9.74070   0.00028   0.00000  -0.00435  -0.00387   9.73683
   X48      -15.18019  -0.00310   0.00000  -0.01297  -0.01375 -15.19394
   Y48       -0.34561  -0.00037   0.00000   0.00438   0.00723  -0.33839
   Z48       24.15127   0.00383   0.00000   0.01112   0.01145  24.16272
   X49       -2.54380   0.00276   0.00000   0.00809   0.00645  -2.53736
   Y49       -5.27195  -0.00010   0.00000   0.00342   0.00405  -5.26790
   Z49       24.16224   0.00344   0.00000   0.01071   0.01054  24.17278
   X50       -2.36946  -0.00013   0.00000  -0.00218  -0.00287  -2.37233
   Y50       -1.00650   0.00134   0.00000   0.00912   0.01097  -0.99553
   Z50       16.69527   0.00093   0.00000   0.01025   0.01081  16.70608
   X51      -15.43897  -0.00060   0.00000  -0.00550  -0.00685 -15.44582
   Y51       -4.71329  -0.00123   0.00000   0.00302   0.00715  -4.70613
   Z51       16.77881   0.00095   0.00000   0.01060   0.01018  16.78899
   X52      -11.27683  -0.00039   0.00000   0.01212   0.01221 -11.26462
   Y52        3.50683   0.00452   0.00000   0.00853   0.01188   3.51871
   Z52       17.11999  -0.00177   0.00000  -0.01196  -0.01088  17.10911
   X53       -6.52165  -0.00051   0.00000  -0.00691  -0.00906  -6.53071
   Y53       -9.21886  -0.00219   0.00000   0.00239   0.00487  -9.21399
   Z53       17.33290  -0.00114   0.00000  -0.01022  -0.01116  17.32174
   X54       -8.01820  -0.00028   0.00000  -0.00286  -0.00426  -8.02246
   Y54       -5.80332  -0.00026   0.00000  -0.00507  -0.00135  -5.80467
   Z54       11.50963   0.00060   0.00000  -0.01073  -0.01113  11.49849
   X55       -9.77033   0.00033   0.00000  -0.00706  -0.00745  -9.77778
   Y55       -0.10199  -0.00013   0.00000   0.02334   0.02739  -0.07461
   Z55       11.41253   0.00063   0.00000  -0.01193  -0.01142  11.40111
   X56      -11.65138  -0.00015   0.00000  -0.01524  -0.01657 -11.66795
   Y56       -3.76092  -0.00056   0.00000  -0.00155   0.00096  -3.75996
   Z56       22.49519  -0.00072   0.00000   0.01222   0.01206  22.50725
   X57       -6.07713   0.00037   0.00000   0.01213   0.01114  -6.06599
   Y57       -1.81193   0.00017   0.00000   0.00985   0.01137  -1.80056
   Z57       22.50788  -0.00071   0.00000   0.01296   0.01328  22.52116
   X58       -8.31329  -0.00025   0.00000   0.00000   0.00006  -8.31323
   Y58        2.99988  -0.00060   0.00000   0.01517   0.01838   3.01825
   Z58       14.86850   0.00002   0.00000  -0.01104  -0.00997  14.85853
   X59       -9.46993   0.00079   0.00000   0.00039  -0.00163  -9.47155
   Y59       -8.77841   0.00034   0.00000  -0.00569  -0.00230  -8.78071
   Z59       15.02429   0.00010   0.00000  -0.01094  -0.01188  15.01241
   X60       -4.47405   0.00051   0.00000   0.01229   0.01190  -4.46214
   Y60        1.11139  -0.00084   0.00000   0.00819   0.01002   1.12140
   Z60       19.01080  -0.00026   0.00000   0.01261   0.01347  19.02427
   X61      -13.31279  -0.00040   0.00000  -0.01816  -0.01994 -13.33273
   Y61       -6.79254   0.00062   0.00000   0.00202   0.00539  -6.78716
   Z61       19.12502  -0.00038   0.00000   0.01066   0.00995  19.13497
   X62       -4.86144  -0.00070   0.00000  -0.00628  -0.00803  -4.86947
   Y62       -7.29368   0.00061   0.00000  -0.00109   0.00152  -7.29216
   Z62       14.87449  -0.00030   0.00000  -0.01044  -0.01101  14.86348
   X63      -12.96141   0.00074   0.00000   0.00508   0.00487 -12.95654
   Y63        1.48102  -0.00131   0.00000   0.01366   0.01771   1.49873
   Z63       14.76276  -0.00030   0.00000  -0.00920  -0.00851  14.75425
   X64      -14.82266   0.00079   0.00000  -0.00792  -0.00889 -14.83155
   Y64       -2.19302  -0.00060   0.00000   0.00021   0.00383  -2.18918
   Z64       19.18348   0.00007   0.00000   0.01117   0.01120  19.19468
   X65       -2.98216  -0.00083   0.00000   0.00287   0.00167  -2.98049
   Y65       -3.48586   0.00012   0.00000   0.01022   0.01176  -3.47410
   Z65       19.16648   0.00016   0.00000   0.01021   0.01033  19.17681
   X66       -6.40266  -0.01286   0.00000  -0.02930  -0.03016  -6.43281
   Y66       -2.15338   0.00027   0.00000   0.00842   0.01124  -2.14214
   Z66       15.17538   0.00585   0.00000   0.01064   0.01089  15.18627
   X67      -11.39792   0.01226   0.00000   0.02165   0.02053 -11.37739
   Y67       -3.65275  -0.00031   0.00000   0.00338   0.00707  -3.64569
   Z67       15.22310   0.00557   0.00000   0.01046   0.01033  15.23342
   X68       -9.73629   0.00815   0.00000   0.01740   0.01676  -9.71953
   Y68       -0.38206  -0.01077   0.00000  -0.01636  -0.01356  -0.39563
   Z68       18.77199  -0.00544   0.00000  -0.00533  -0.00487  18.76712
   X69       -8.01722  -0.00781   0.00000  -0.02075  -0.02225  -8.03947
   Y69       -5.30873   0.01025   0.00000   0.02364   0.02613  -5.28260
   Z69       18.83709  -0.00627   0.00000  -0.00931  -0.00962  18.82747
   X70       -6.13446   0.00054   0.00000  -0.00164  -0.00402  -6.13848
   Y70      -11.47353  -0.00190   0.00000  -0.00643  -0.00291 -11.47644
   Z70       10.77275  -0.00137   0.00000  -0.01329  -0.01460  10.75815
   X71       -0.37032   0.00183   0.00000   0.01286   0.01218  -0.35814
   Y71        0.03449   0.00080   0.00000   0.00984   0.01023   0.04472
   Z71       23.27167   0.00141   0.00000   0.01332   0.01411  23.28578
   X72      -17.42138  -0.00199   0.00000  -0.01843  -0.02010 -17.44148
   Y72       -5.51658  -0.00054   0.00000   0.00146   0.00484  -5.51174
   Z72       23.37292   0.00157   0.00000   0.01347   0.01286  23.38578
   X73       -8.89413   0.00082   0.00000  -0.00230  -0.00333  -8.89746
   Y73       -2.86747  -0.00049   0.00000   0.00406   0.00702  -2.86045
   Z73       16.99868   0.00087   0.00000   0.00255   0.00262  17.00130
         Item               Value     Threshold  Converged?
 Maximum Force            0.019574     0.000450     NO 
 RMS     Force            0.003451     0.000300     NO 
 Maximum Displacement     0.116530     0.001800     NO 
 RMS     Displacement     0.020179     0.001200     NO 
 Predicted change in Energy=-4.921523D-03
 GradGradGradGradGradGradGradGradGradGradGradGradGradGradGradGradGradGrad

 Unable to Open any file for archive entry.
 1\1\GINC-X11P1N2\Force\RwB97XD\def2SVP\C8H8Cl1K3O40V1W12(1-)\MAYUMIAO\
 01-Jun-2024\0\\# def2svp wb97xd scrf=(smd,solvent=acetonitrile) g09def
 ault scf=(xqc,maxcycle=64) force guess=read nosymm\\Title Card\\-1,1\C
 l,-9.85639142,7.54527583,10.37187295\C,-8.31064284,4.25531139,12.23975
 296\C,-9.0753645,3.9407884,11.10145846\C,-10.00932051,2.89153638,11.19
 464412\C,-10.18388741,2.19127047,12.38207683\C,-9.42560869,2.52291179,
 13.50604044\C,-8.48426358,3.55128418,13.42743368\H,-7.57278682,5.06063
 432,12.19880879\H,-10.59909272,2.62858198,10.31085123\H,-10.91262791,1
 .37780936,12.43359514\H,-9.55912282,1.97354571,14.43910105\H,-7.882638
 36,3.80840678,14.30340749\C,-8.92585467,4.65159008,9.83349302\C,-8.118
 3579,5.68066479,9.59454223\H,-9.61156362,4.32154645,9.04048185\H,-8.04
 642936,6.11925793,8.59160129\H,-7.36783309,6.04209096,10.31195401\O,-0
 .98748407,-1.76161255,7.44680626\O,-8.43356395,-1.32585325,7.45377955\
 O,-7.07676882,1.35510925,10.5049409\O,-2.32270344,-4.36608707,10.57470
 226\W,-3.42449004,0.74942418,6.52233032\W,-6.02259526,-3.82742163,6.59
 938886\W,-3.64073736,0.92982387,11.38839821\W,-5.77190258,-3.8748313,1
 1.45919035\W,-2.47299871,-2.53753549,6.3722877\W,-6.94480693,-0.541963
 51,6.35093229\W,-6.8235791,-0.24853915,11.60345875\W,-2.58085621,-2.69
 296665,11.63285327\O,-3.20871074,1.94390908,5.35438061\O,-6.13473062,-
 5.08064017,5.46679763\O,-2.70954439,1.76135571,12.53179798\O,-6.694809
 57,-4.67194232,12.6332498\O,-2.68572892,-0.86080931,5.58589502\O,-6.72
 703909,-2.27636033,5.62653178\O,-5.32744899,0.58110126,12.37046522\O,-
 4.06603357,-3.52205458,12.41757777\O,0.28899283,-0.00492429,9.28445197
 \O,-9.71049357,-3.0142479,9.34656879\O,-6.44881566,3.41226279,8.665772
 88\O,-2.96980648,-6.4422327,8.73754748\O,-1.79818561,0.7845547,7.48583
 191\O,-7.62969831,-3.8754411,7.55805568\O,-4.55150232,2.2382473,10.430
 08632\O,-4.85702206,-5.22339887,10.52764748\O,-1.65346844,-3.47747109,
 5.22840217\O,-7.81576653,0.26485856,5.15455518\O,-8.0330096,-0.1828911
 7,12.78030095\O,-1.34612274,-2.78979458,12.78610716\W,-1.2538651,-0.53
 261819,8.8347581\W,-8.16995158,-2.49416467,8.87896411\W,-5.96744336,1.
 85573594,9.05950995\W,-3.45110723,-4.87840998,9.17217648\O,-4.24305069
 ,-3.07098703,6.09063123\O,-5.17023333,-0.05397319,6.03924987\O,-6.1656
 4553,-1.99019317,11.90394368\O,-3.21588024,-0.95883131,11.91065484\O,-
 4.39920584,1.58746675,7.86807051\O,-5.01127004,-4.64533706,7.95051395\
 O,-2.36756359,0.58812005,10.06008143\O,-7.04482719,-3.59445995,10.1205
 2608\O,-2.57256416,-3.85964841,7.87123861\O,-6.85888486,0.78372465,7.8
 1211755\O,-7.84381246,-1.16049373,10.15146294\O,-1.57809063,-1.8446388
 7,10.14246522\O,-3.38814103,-1.13951784,8.03046591\O,-6.03152061,-1.93
 295333,8.05571642\O,-5.15222277,-0.20217922,9.9337072\O,-4.2425316,-2.
 80925864,9.96815765\K,-3.24621633,-6.07153106,5.70069153\K,-0.19596302
 ,0.01824939,12.31483829\K,-9.21899946,-2.9192475,12.36841677\V,-4.7065
 7029,-1.51739713,8.99531159\\Version=ES64L-G16RevC.01\HF=-7327.6888147
 \RMSD=2.836e-09\RMSF=3.451e-03\Dipole=10.2817603,-20.2374231,2.4872899
 \Quadrupole=-93.2711549,78.931486,14.3396689,307.8497768,339.4939584,-
 320.7244345\PG=C01 [X(C8H8Cl1K3O40V1W12)]\\@
 The archive entry for this job was punched.


 "PERFECTION IS NOT AN ACCIDENT"
         --  EAGLE ELECTRIC MANUFACTURING CO.,INC. NY
 Job cpu time:       0 days 13 hours 26 minutes 40.6 seconds.
 Elapsed time:       0 days  0 hours 15 minutes 21.1 seconds.
 File lengths (MBytes):  RWF=   1238 Int=      0 D2E=      0 Chk=    249 Scr=      1
 Normal termination of Gaussian 16 at Sat Jun  1 12:53:41 2024.
