 Entering Gaussian System, Link 0=g16
 Input=JOBS/4_B.gjf
 Output=JOBS/4_B.log
 Initial command:
 /data/app/gaussian/C01-avx2//g16/l1.exe "/tmp/Gau-581421.inp" -scrdir="/tmp/"
 Entering Link 1 = /data/app/gaussian/C01-avx2//g16/l1.exe PID=    581422.
  
 Copyright (c) 1988-2019, Gaussian, Inc.  All Rights Reserved.
  
 This is part of the Gaussian(R) 16 program.  It is based on
 the Gaussian(R) 09 system (copyright 2009, Gaussian, Inc.),
 the Gaussian(R) 03 system (copyright 2003, Gaussian, Inc.),
 the Gaussian(R) 98 system (copyright 1998, Gaussian, Inc.),
 the Gaussian(R) 94 system (copyright 1995, Gaussian, Inc.),
 the Gaussian 92(TM) system (copyright 1992, Gaussian, Inc.),
 the Gaussian 90(TM) system (copyright 1990, Gaussian, Inc.),
 the Gaussian 88(TM) system (copyright 1988, Gaussian, Inc.),
 the Gaussian 86(TM) system (copyright 1986, Carnegie Mellon
 University), and the Gaussian 82(TM) system (copyright 1983,
 Carnegie Mellon University). Gaussian is a federally registered
 trademark of Gaussian, Inc.
  
 This software contains proprietary and confidential information,
 including trade secrets, belonging to Gaussian, Inc.
  
 This software is provided under written license and may be
 used, copied, transmitted, or stored only in accord with that
 written license.
  
 The following legend is applicable only to US Government
 contracts under FAR:
  
                    RESTRICTED RIGHTS LEGEND
  
 Use, reproduction and disclosure by the US Government is
 subject to restrictions as set forth in subparagraphs (a)
 and (c) of the Commercial Computer Software - Restricted
 Rights clause in FAR 52.227-19.
  
 Gaussian, Inc.
 340 Quinnipiac St., Bldg. 40, Wallingford CT 06492
  
  
 ---------------------------------------------------------------
 Warning -- This program may not be used in any manner that
 competes with the business of Gaussian, Inc. or will provide
 assistance to any competitor of Gaussian, Inc.  The licensee
 of this program is prohibited from giving any competitor of
 Gaussian, Inc. access to this program.  By using this program,
 the user acknowledges that Gaussian, Inc. is engaged in the
 business of creating and licensing software in the field of
 computational chemistry and represents and warrants to the
 licensee that it is not a competitor of Gaussian, Inc. and that
 it will not use this program in any manner prohibited above.
 ---------------------------------------------------------------
  

 Cite this work as:
 Gaussian 16, Revision C.01,
 M. J. Frisch, G. W. Trucks, H. B. Schlegel, G. E. Scuseria, 
 M. A. Robb, J. R. Cheeseman, G. Scalmani, V. Barone, 
 G. A. Petersson, H. Nakatsuji, X. Li, M. Caricato, A. V. Marenich, 
 J. Bloino, B. G. Janesko, R. Gomperts, B. Mennucci, H. P. Hratchian, 
 J. V. Ortiz, A. F. Izmaylov, J. L. Sonnenberg, D. Williams-Young, 
 F. Ding, F. Lipparini, F. Egidi, J. Goings, B. Peng, A. Petrone, 
 T. Henderson, D. Ranasinghe, V. G. Zakrzewski, J. Gao, N. Rega, 
 G. Zheng, W. Liang, M. Hada, M. Ehara, K. Toyota, R. Fukuda, 
 J. Hasegawa, M. Ishida, T. Nakajima, Y. Honda, O. Kitao, H. Nakai, 
 T. Vreven, K. Throssell, J. A. Montgomery, Jr., J. E. Peralta, 
 F. Ogliaro, M. J. Bearpark, J. J. Heyd, E. N. Brothers, K. N. Kudin, 
 V. N. Staroverov, T. A. Keith, R. Kobayashi, J. Normand, 
 K. Raghavachari, A. P. Rendell, J. C. Burant, S. S. Iyengar, 
 J. Tomasi, M. Cossi, J. M. Millam, M. Klene, C. Adamo, R. Cammi, 
 J. W. Ochterski, R. L. Martin, K. Morokuma, O. Farkas, 
 J. B. Foresman, and D. J. Fox, Gaussian, Inc., Wallingford CT, 2019.
 
 ******************************************
 Gaussian 16:  ES64L-G16RevC.01  3-Jul-2019
                 1-Jun-2024 
 ******************************************
 %chk=b.chk
 %nprocshared=56
 Will use up to   56 processors via shared memory.
 %mem=96gb
 ----------------------------------------------------------------------
 # def2svp wb97xd scrf=(smd,solvent=acetonitrile) g09default scf=(xqc,m
 axcycle=64) force guess=read nosymm
 ----------------------------------------------------------------------
 1/10=7,30=1,38=1,158=3,167=1/1,3;
 2/12=2,15=1,17=6,18=5,40=1/2;
 3/5=43,7=101,11=2,25=1,27=10,30=1,70=32201,71=1,72=2,74=-58,75=-4,116=-2,158=3/1,2,3;
 4/5=1,60=-1/1;
 5/5=2,7=64,8=3,13=1,38=6,53=2,87=10/2,8;
 6/7=2,8=2,9=2,10=2,28=1,87=10/1;
 7/29=1,30=1,87=10/1,2,3,16;
 1/10=7,30=1,158=3,167=1/3;
 99//99;
 Using 2006 physical constants.
 ----------
 Title Card
 ----------
 Symbolic Z-matrix:
 Charge = -1 Multiplicity = 1
 17                   -9.85639   7.54528   10.37187 
 6                    -8.31064   4.25531   12.23975 
 6                    -9.07536   3.94079   11.10146 
 6                    -10.00932   2.89154   11.19464 
 6                    -10.18389   2.19127   12.38208 
 6                    -9.42561   2.52291   13.50604 
 6                    -8.48426   3.55128   13.42743 
 1                    -7.57279   5.06063   12.19881 
 1                    -10.59909   2.62858   10.31085 
 1                    -10.91263   1.37781   12.4336 
 1                    -9.55912   1.97355   14.4391 
 1                    -7.88264   3.80841   14.30341 
 6                    -8.92585   4.65159   9.83349 
 6                    -8.11836   5.68066   9.59454 
 1                    -9.61156   4.32155   9.04048 
 1                    -8.04643   6.11926   8.5916 
 1                    -7.36783   6.04209   10.31195 
 8                    -0.98748  -1.76161   7.44681 
 8                    -8.43356  -1.32585   7.45378 
 8                    -7.07677   1.35511   10.50494 
 8                    -2.3227   -4.36609   10.5747 
 74                   -3.42449   0.74942   6.52233 
 74                   -6.0226   -3.82742   6.59939 
 74                   -3.64074   0.92982   11.3884 
 74                   -5.7719   -3.87483   11.45919 
 74                   -2.473    -2.53754   6.37229 
 74                   -6.94481  -0.54196   6.35093 
 74                   -6.82358  -0.24854   11.60346 
 74                   -2.58086  -2.69297   11.63285 
 8                    -3.20871   1.94391   5.35438 
 8                    -6.13473  -5.08064   5.4668 
 8                    -2.70954   1.76136   12.5318 
 8                    -6.69481  -4.67194   12.63325 
 8                    -2.68573  -0.86081   5.5859 
 8                    -6.72704  -2.27636   5.62653 
 8                    -5.32745   0.5811    12.37047 
 8                    -4.06603  -3.52205   12.41758 
 8                     0.28899  -0.00492   9.28445 
 8                    -9.71049  -3.01425   9.34657 
 8                    -6.44882   3.41226   8.66577 
 8                    -2.96981  -6.44223   8.73755 
 8                    -1.79819   0.78455   7.48583 
 8                    -7.6297   -3.87544   7.55806 
 8                    -4.5515    2.23825   10.43009 
 8                    -4.85702  -5.2234    10.52765 
 8                    -1.65347  -3.47747   5.2284 
 8                    -7.81577   0.26486   5.15456 
 8                    -8.03301  -0.18289   12.7803 
 8                    -1.34612  -2.78979   12.78611 
 74                   -1.25387  -0.53262   8.83476 
 74                   -8.16995  -2.49416   8.87896 
 74                   -5.96744   1.85574   9.05951 
 74                   -3.45111  -4.87841   9.17218 
 8                    -4.24305  -3.07099   6.09063 
 8                    -5.17023  -0.05397   6.03925 
 8                    -6.16565  -1.99019   11.90394 
 8                    -3.21588  -0.95883   11.91065 
 8                    -4.39921   1.58747   7.86807 
 8                    -5.01127  -4.64534   7.95051 
 8                    -2.36756   0.58812   10.06008 
 8                    -7.04483  -3.59446   10.12053 
 8                    -2.57256  -3.85965   7.87124 
 8                    -6.85888   0.78372   7.81212 
 8                    -7.84381  -1.16049   10.15146 
 8                    -1.57809  -1.84464   10.14247 
 8                    -3.38814  -1.13952   8.03047 
 8                    -6.03152  -1.93295   8.05572 
 8                    -5.15222  -0.20218   9.93371 
 8                    -4.24253  -2.80926   9.96816 
 19                   -3.24622  -6.07153   5.70069 
 19                   -0.19596   0.01825   12.31484 
 19                   -9.219    -2.91925   12.36842 
 23                   -4.70657  -1.5174    8.99531 
 

 GradGradGradGradGradGradGradGradGradGradGradGradGradGradGradGradGradGrad
 Berny optimization.
 Initialization pass.
 Trust Radius=3.00D-01 FncErr=1.00D-07 GrdErr=1.00D-07 EigMax=2.50D+02 EigMin=1.00D-04
 Number of steps in this run=      2 maximum allowed number of steps=      2.
 GradGradGradGradGradGradGradGradGradGradGradGradGradGradGradGradGradGrad

 Symmetry turned off by external request.
 Stoichiometry    C8H8ClK3O40VW12(1-)
 Framework group  C1[X(C8H8ClK3O40VW12)]
 Deg. of freedom   213
 Full point group                 C1      NOp   1
                          Input orientation:                          
 ---------------------------------------------------------------------
 Center     Atomic      Atomic             Coordinates (Angstroms)
 Number     Number       Type             X           Y           Z
 ---------------------------------------------------------------------
      1         17           0       -9.856391    7.545276   10.371873
      2          6           0       -8.310643    4.255311   12.239753
      3          6           0       -9.075364    3.940788   11.101458
      4          6           0      -10.009321    2.891536   11.194644
      5          6           0      -10.183887    2.191270   12.382077
      6          6           0       -9.425609    2.522912   13.506040
      7          6           0       -8.484264    3.551284   13.427434
      8          1           0       -7.572787    5.060634   12.198809
      9          1           0      -10.599093    2.628582   10.310851
     10          1           0      -10.912628    1.377809   12.433595
     11          1           0       -9.559123    1.973546   14.439101
     12          1           0       -7.882638    3.808407   14.303407
     13          6           0       -8.925855    4.651590    9.833493
     14          6           0       -8.118358    5.680665    9.594542
     15          1           0       -9.611564    4.321546    9.040482
     16          1           0       -8.046429    6.119258    8.591601
     17          1           0       -7.367833    6.042091   10.311954
     18          8           0       -0.987484   -1.761613    7.446806
     19          8           0       -8.433564   -1.325853    7.453780
     20          8           0       -7.076769    1.355109   10.504941
     21          8           0       -2.322703   -4.366087   10.574702
     22         74           0       -3.424490    0.749424    6.522330
     23         74           0       -6.022595   -3.827422    6.599389
     24         74           0       -3.640737    0.929824   11.388398
     25         74           0       -5.771903   -3.874831   11.459190
     26         74           0       -2.472999   -2.537535    6.372288
     27         74           0       -6.944807   -0.541964    6.350932
     28         74           0       -6.823579   -0.248539   11.603459
     29         74           0       -2.580856   -2.692967   11.632853
     30          8           0       -3.208711    1.943909    5.354381
     31          8           0       -6.134731   -5.080640    5.466798
     32          8           0       -2.709544    1.761356   12.531798
     33          8           0       -6.694810   -4.671942   12.633250
     34          8           0       -2.685729   -0.860809    5.585895
     35          8           0       -6.727039   -2.276360    5.626532
     36          8           0       -5.327449    0.581101   12.370465
     37          8           0       -4.066034   -3.522055   12.417578
     38          8           0        0.288993   -0.004924    9.284452
     39          8           0       -9.710494   -3.014248    9.346569
     40          8           0       -6.448816    3.412263    8.665773
     41          8           0       -2.969806   -6.442233    8.737547
     42          8           0       -1.798186    0.784555    7.485832
     43          8           0       -7.629698   -3.875441    7.558056
     44          8           0       -4.551502    2.238247   10.430086
     45          8           0       -4.857022   -5.223399   10.527647
     46          8           0       -1.653468   -3.477471    5.228402
     47          8           0       -7.815767    0.264859    5.154555
     48          8           0       -8.033010   -0.182891   12.780301
     49          8           0       -1.346123   -2.789795   12.786107
     50         74           0       -1.253865   -0.532618    8.834758
     51         74           0       -8.169952   -2.494165    8.878964
     52         74           0       -5.967443    1.855736    9.059510
     53         74           0       -3.451107   -4.878410    9.172176
     54          8           0       -4.243051   -3.070987    6.090631
     55          8           0       -5.170233   -0.053973    6.039250
     56          8           0       -6.165646   -1.990193   11.903944
     57          8           0       -3.215880   -0.958831   11.910655
     58          8           0       -4.399206    1.587467    7.868071
     59          8           0       -5.011270   -4.645337    7.950514
     60          8           0       -2.367564    0.588120   10.060081
     61          8           0       -7.044827   -3.594460   10.120526
     62          8           0       -2.572564   -3.859648    7.871239
     63          8           0       -6.858885    0.783725    7.812118
     64          8           0       -7.843812   -1.160494   10.151463
     65          8           0       -1.578091   -1.844639   10.142465
     66          8           0       -3.388141   -1.139518    8.030466
     67          8           0       -6.031521   -1.932953    8.055716
     68          8           0       -5.152223   -0.202179    9.933707
     69          8           0       -4.242532   -2.809259    9.968158
     70         19           0       -3.246216   -6.071531    5.700692
     71         19           0       -0.195963    0.018249   12.314838
     72         19           0       -9.218999   -2.919248   12.368417
     73         23           0       -4.706570   -1.517397    8.995312
 ---------------------------------------------------------------------
 Rotational constants (GHZ):           0.0172827           0.0134257           0.0132060
 Standard basis: def2SVP (5D, 7F)
  1217 basis functions,  2313 primitive gaussians,  1337 cartesian basis functions
   321 alpha electrons      321 beta electrons
       nuclear repulsion energy     21075.0092490260 Hartrees.
 NAtoms=   73 NActive=   73 NUniq=   73 SFac= 1.00D+00 NAtFMM=   60 NAOKFM=T Big=T
 Integral buffers will be    131072 words long.
 Raffenetti 2 integral format.
 Two-electron integral symmetry is turned off.
 Nuclear repulsion after empirical dispersion term =    21074.7308000263 Hartrees.
 Force PCM accuracy= 1.00D-10.
 ------------------------------------------------------------------------------
 Polarizable Continuum Model (PCM)
 =================================
 Model                : PCM (using non-symmetric T matrix).
 Atomic radii         : SMD-Coulomb.
 Polarization charges : Total charges.
 Charge compensation  : None.
 Solution method      : On-the-fly selection.
 Cavity type          : VdW (van der Waals Surface) (Alpha=1.000).
 Cavity algorithm     : GePol (No added spheres)
                        Default sphere list used, NSphG=   73.
                        Lebedev-Laikov grids with approx.  5.0 points / Ang**2.
                        Smoothing algorithm: York/Karplus (Gamma=1.0000).
                        Polarization charges: spherical gaussians, with
                                              point-specific exponents (IZeta= 3).
                        Self-potential: point-specific (ISelfS= 7).
                        Self-field    : sphere-specific E.n sum rule (ISelfD= 2).
 1st derivatives      : Analytical E(r).r(x)/FMM algorithm (CHGder, D1EAlg=3).
                        Cavity 1st derivative terms included.
 Solvent              : Acetonitrile, Eps=  35.688000 Eps(inf)=   1.806874
 ------------------------------------------------------------------------------
 ------------------------------------------------------------------------------
 Atomic radii for non-electrostatic terms: SMD-CDS.
 ------------------------------------------------------------------------------
 Nuclear repulsion after PCM non-electrostatic terms =    21074.7250247137 Hartrees.
 One-electron integrals computed using PRISM.
   1 Symmetry operations used in ECPInt.
 ECPInt:  NShTT=  127765 NPrTT=  468030 LenC2=   96933 LenP2D=  222039.
 LDataN:  DoStor=T MaxTD1= 8 Len=  415
 NBasis=  1217 RedAO= T EigKep=  1.33D-04  NBF=  1217
 NBsUse=  1217 1.00D-06 EigRej= -1.00D+00 NBFU=  1217
 Defaulting to unpruned grid for atomic number  74.
 Defaulting to unpruned grid for atomic number  74.
 Defaulting to unpruned grid for atomic number  74.
 Defaulting to unpruned grid for atomic number  74.
 Defaulting to unpruned grid for atomic number  74.
 Defaulting to unpruned grid for atomic number  74.
 Defaulting to unpruned grid for atomic number  74.
 Defaulting to unpruned grid for atomic number  74.
 Initial guess from the checkpoint file:  "b.chk"
 B after Tr=     0.000119    0.000183    0.000870
         Rot=    1.000000   -0.000005    0.000007    0.000026 Ang=  -0.00 deg.
 Initial guess <Sx>= 0.0000 <Sy>= 0.0000 <Sz>= 0.0000 <S**2>= 1.0228 S= 0.6282
 Requested convergence on RMS density matrix=1.00D-08 within  64 cycles.
 Requested convergence on MAX density matrix=1.00D-06.
 Requested convergence on             energy=1.00D-06.
 No special actions if energy rises.
 Defaulting to unpruned grid for atomic number  74.
 Defaulting to unpruned grid for atomic number  74.
 Defaulting to unpruned grid for atomic number  74.
 Defaulting to unpruned grid for atomic number  74.
 Defaulting to unpruned grid for atomic number  74.
 Defaulting to unpruned grid for atomic number  74.
 Defaulting to unpruned grid for atomic number  74.
 Defaulting to unpruned grid for atomic number  74.
 Defaulting to unpruned grid for atomic number  74.
 Defaulting to unpruned grid for atomic number  74.
 Defaulting to unpruned grid for atomic number  74.
 Defaulting to unpruned grid for atomic number  74.
 Defaulting to unpruned grid for atomic number  74.
 Defaulting to unpruned grid for atomic number  74.
 Defaulting to unpruned grid for atomic number  74.
 Defaulting to unpruned grid for atomic number  74.
 Defaulting to unpruned grid for atomic number  74.
 Defaulting to unpruned grid for atomic number  74.
 Defaulting to unpruned grid for atomic number  74.
 Defaulting to unpruned grid for atomic number  74.
 Defaulting to unpruned grid for atomic number  74.
 Defaulting to unpruned grid for atomic number  74.
 Defaulting to unpruned grid for atomic number  74.
 Defaulting to unpruned grid for atomic number  74.
 Defaulting to unpruned grid for atomic number  74.
 Defaulting to unpruned grid for atomic number  74.
 Defaulting to unpruned grid for atomic number  74.
 Defaulting to unpruned grid for atomic number  74.
 Defaulting to unpruned grid for atomic number  74.
 Defaulting to unpruned grid for atomic number  74.
 Defaulting to unpruned grid for atomic number  74.
 Defaulting to unpruned grid for atomic number  74.
 Defaulting to unpruned grid for atomic number  74.
 Defaulting to unpruned grid for atomic number  74.
 Defaulting to unpruned grid for atomic number  74.
 Defaulting to unpruned grid for atomic number  74.
 Defaulting to unpruned grid for atomic number  74.
 Defaulting to unpruned grid for atomic number  74.
 Defaulting to unpruned grid for atomic number  74.
 Defaulting to unpruned grid for atomic number  74.
 Defaulting to unpruned grid for atomic number  74.
 Defaulting to unpruned grid for atomic number  74.
 Defaulting to unpruned grid for atomic number  74.
 Defaulting to unpruned grid for atomic number  74.
 Defaulting to unpruned grid for atomic number  74.
 Defaulting to unpruned grid for atomic number  74.
 Defaulting to unpruned grid for atomic number  74.
 Defaulting to unpruned grid for atomic number  74.
 Defaulting to unpruned grid for atomic number  74.
 Defaulting to unpruned grid for atomic number  74.
 Defaulting to unpruned grid for atomic number  74.
 Defaulting to unpruned grid for atomic number  74.
 Defaulting to unpruned grid for atomic number  74.
 Defaulting to unpruned grid for atomic number  74.
 Defaulting to unpruned grid for atomic number  74.
 Defaulting to unpruned grid for atomic number  74.
 Inv3:  Mode=1 IEnd=    84047547.
 Iteration    1 A*A^-1 deviation from unit magnitude is 3.33D-15 for   4287.
 Iteration    1 A*A^-1 deviation from orthogonality  is 2.44D-15 for   2780    884.
 Iteration    1 A^-1*A deviation from unit magnitude is 3.66D-15 for   4962.
 Iteration    1 A^-1*A deviation from orthogonality  is 7.75D-13 for   3984   3943.
 Restarting incremental Fock formation.
 Error on total polarization charges =  0.01568
 SCF Done:  E(UwB97XD) =  -7327.70239980     A.U. after   36 cycles
            NFock= 36  Conv=0.47D-09     -V/T= 2.0830
 <Sx>= 0.0000 <Sy>= 0.0000 <Sz>= 0.0000 <S**2>= 1.0195 S= 0.6267
 <L.S>=  0.00000000000    
 SMD-CDS (non-electrostatic) energy       (kcal/mol) =      -3.62
 (included in total energy above)
 Annihilation of the first spin contaminant:
 S**2 before annihilation     1.0195,   after     0.1570
 QCSCF skips out because SCF is already converged.

 **********************************************************************

            Population analysis using the SCF Density.

 **********************************************************************

 Alpha  occ. eigenvalues -- -197.09387-129.98929-129.98907-129.98884-101.60929
 Alpha  occ. eigenvalues --  -22.43192 -19.28585 -19.28554 -19.28524 -19.28518
 Alpha  occ. eigenvalues --  -19.28470 -19.28468 -19.28430 -19.28396 -19.28393
 Alpha  occ. eigenvalues --  -19.28383 -19.28253 -19.28141 -19.26941 -19.26917
 Alpha  occ. eigenvalues --  -19.26901 -19.26873 -19.26854 -19.26846 -19.26839
 Alpha  occ. eigenvalues --  -19.26835 -19.26812 -19.26809 -19.26783 -19.26773
 Alpha  occ. eigenvalues --  -19.26771 -19.26751 -19.26738 -19.26736 -19.26731
 Alpha  occ. eigenvalues --  -19.26728 -19.26713 -19.26700 -19.26671 -19.26661
 Alpha  occ. eigenvalues --  -19.26644 -19.26613 -19.24283 -19.24234 -19.24229
 Alpha  occ. eigenvalues --  -19.24225 -18.92743 -18.91662 -18.91631 -13.36329
 Alpha  occ. eigenvalues --  -13.36308 -13.36271 -10.69258 -10.69252 -10.69252
 Alpha  occ. eigenvalues --  -10.69236 -10.69231 -10.69230 -10.69202 -10.69196
 Alpha  occ. eigenvalues --  -10.69194 -10.32831 -10.32742 -10.31629 -10.30796
 Alpha  occ. eigenvalues --  -10.30769 -10.30740 -10.30418 -10.30334  -9.51333
 Alpha  occ. eigenvalues --   -7.26189  -7.25914  -7.25895  -3.21010  -3.21001
 Alpha  occ. eigenvalues --   -3.20959  -3.20958  -3.20935  -3.20931  -3.20922
 Alpha  occ. eigenvalues --   -3.20886  -3.20869  -3.20852  -3.20767  -3.20753
 Alpha  occ. eigenvalues --   -2.77870  -1.85390  -1.85307  -1.85291  -1.85252
 Alpha  occ. eigenvalues --   -1.85172  -1.85135  -1.85100  -1.85084  -1.85038
 Alpha  occ. eigenvalues --   -1.85024  -1.84979  -1.84915  -1.84300  -1.84188
 Alpha  occ. eigenvalues --   -1.84174  -1.84162  -1.84125  -1.84109  -1.84072
 Alpha  occ. eigenvalues --   -1.84030  -1.84012  -1.83997  -1.83969  -1.83961
 Alpha  occ. eigenvalues --   -1.83864  -1.83823  -1.83804  -1.83796  -1.83789
 Alpha  occ. eigenvalues --   -1.83734  -1.83721  -1.83701  -1.83688  -1.83623
 Alpha  occ. eigenvalues --   -1.83611  -1.83580  -1.81182  -1.80805  -1.80774
 Alpha  occ. eigenvalues --   -1.50052  -1.50029  -1.49997  -1.08474  -1.06869
 Alpha  occ. eigenvalues --   -1.06816  -1.06778  -1.05880  -1.05857  -1.05825
 Alpha  occ. eigenvalues --   -1.04479  -1.04464  -1.04449  -1.03850  -1.03829
 Alpha  occ. eigenvalues --   -1.03515  -1.03241  -1.03209  -1.03195  -1.03045
 Alpha  occ. eigenvalues --   -1.03009  -1.02281  -1.02269  -1.02247  -1.02191
 Alpha  occ. eigenvalues --   -1.02119  -1.02093  -1.02049  -1.01997  -1.01839
 Alpha  occ. eigenvalues --   -1.01716  -1.01681  -1.01659  -1.01581  -1.01523
 Alpha  occ. eigenvalues --   -1.01255  -1.00780  -1.00715  -1.00669  -1.00652
 Alpha  occ. eigenvalues --   -0.99778  -0.99734  -0.99629  -0.96040  -0.89516
 Alpha  occ. eigenvalues --   -0.85524  -0.85499  -0.85479  -0.85348  -0.85344
 Alpha  occ. eigenvalues --   -0.85327  -0.85322  -0.85298  -0.85285  -0.84126
 Alpha  occ. eigenvalues --   -0.82660  -0.80195  -0.71800  -0.69486  -0.64911
 Alpha  occ. eigenvalues --   -0.62112  -0.61523  -0.61476  -0.61441  -0.60555
 Alpha  occ. eigenvalues --   -0.58828  -0.58828  -0.58799  -0.58789  -0.58747
 Alpha  occ. eigenvalues --   -0.58652  -0.58641  -0.58593  -0.58395  -0.57317
 Alpha  occ. eigenvalues --   -0.57259  -0.57226  -0.56943  -0.56780  -0.56347
 Alpha  occ. eigenvalues --   -0.56306  -0.56261  -0.55869  -0.55762  -0.55290
 Alpha  occ. eigenvalues --   -0.55281  -0.55249  -0.54398  -0.54196  -0.54161
 Alpha  occ. eigenvalues --   -0.53991  -0.53670  -0.53573  -0.53568  -0.52772
 Alpha  occ. eigenvalues --   -0.52680  -0.52593  -0.52549  -0.52510  -0.51565
 Alpha  occ. eigenvalues --   -0.51535  -0.51497  -0.51456  -0.51400  -0.50807
 Alpha  occ. eigenvalues --   -0.50576  -0.50547  -0.50508  -0.50394  -0.50306
 Alpha  occ. eigenvalues --   -0.50290  -0.50154  -0.50092  -0.50046  -0.49858
 Alpha  occ. eigenvalues --   -0.49778  -0.49751  -0.49514  -0.49481  -0.49324
 Alpha  occ. eigenvalues --   -0.49247  -0.49179  -0.49095  -0.49037  -0.49000
 Alpha  occ. eigenvalues --   -0.48871  -0.48708  -0.48632  -0.48559  -0.47707
 Alpha  occ. eigenvalues --   -0.47653  -0.47101  -0.46497  -0.46111  -0.46085
 Alpha  occ. eigenvalues --   -0.45952  -0.45793  -0.45614  -0.45504  -0.45199
 Alpha  occ. eigenvalues --   -0.45166  -0.45154  -0.44820  -0.44613  -0.44440
 Alpha  occ. eigenvalues --   -0.44398  -0.44374  -0.44207  -0.44178  -0.44127
 Alpha  occ. eigenvalues --   -0.43373  -0.42934  -0.42521  -0.42491  -0.42350
 Alpha  occ. eigenvalues --   -0.42241  -0.42103  -0.42059  -0.41963  -0.41679
 Alpha  occ. eigenvalues --   -0.41636  -0.41622  -0.41089  -0.41022  -0.40770
 Alpha  occ. eigenvalues --   -0.40741  -0.40698  -0.40434  -0.40405  -0.40373
 Alpha  occ. eigenvalues --   -0.40216  -0.40194  -0.40174  -0.40129  -0.39877
 Alpha  occ. eigenvalues --   -0.39455  -0.39267  -0.39161  -0.39099  -0.38976
 Alpha  occ. eigenvalues --   -0.38933  -0.38877  -0.38806  -0.38622  -0.38608
 Alpha  occ. eigenvalues --   -0.38296  -0.38252  -0.38220  -0.38156  -0.37189
 Alpha  occ. eigenvalues --   -0.37105  -0.34055  -0.33949  -0.33453  -0.31374
 Alpha  occ. eigenvalues --   -0.24742
 Alpha virt. eigenvalues --   -0.09294  -0.06142  -0.05996  -0.04643  -0.04583
 Alpha virt. eigenvalues --   -0.04459  -0.01411  -0.01323  -0.01264  -0.00862
 Alpha virt. eigenvalues --   -0.00687  -0.00656  -0.00604   0.00040   0.00101
 Alpha virt. eigenvalues --    0.00153   0.00839   0.00896   0.00949   0.01109
 Alpha virt. eigenvalues --    0.01210   0.01858   0.01888   0.01968   0.02117
 Alpha virt. eigenvalues --    0.02519   0.02807   0.02884   0.03259   0.03612
 Alpha virt. eigenvalues --    0.03765   0.03868   0.04050   0.04103   0.04312
 Alpha virt. eigenvalues --    0.04334   0.04387   0.04406   0.04629   0.04970
 Alpha virt. eigenvalues --    0.05084   0.06150   0.06499   0.08517   0.08549
 Alpha virt. eigenvalues --    0.08659   0.08700   0.09239   0.09280   0.09603
 Alpha virt. eigenvalues --    0.09869   0.09911   0.09969   0.10010   0.10073
 Alpha virt. eigenvalues --    0.10193   0.10390   0.10406   0.11016   0.11124
 Alpha virt. eigenvalues --    0.11571   0.11739   0.11963   0.12097   0.12233
 Alpha virt. eigenvalues --    0.12410   0.12464   0.12543   0.13151   0.13379
 Alpha virt. eigenvalues --    0.13520   0.13743   0.14096   0.14338   0.15021
 Alpha virt. eigenvalues --    0.15136   0.15259   0.15331   0.15453   0.15862
 Alpha virt. eigenvalues --    0.16187   0.16778   0.17195   0.17780   0.17898
 Alpha virt. eigenvalues --    0.18299   0.18493   0.18609   0.18824   0.19118
 Alpha virt. eigenvalues --    0.19392   0.19481   0.19581   0.19635   0.19672
 Alpha virt. eigenvalues --    0.19758   0.19954   0.20161   0.20709   0.20953
 Alpha virt. eigenvalues --    0.21123   0.21326   0.21342   0.21480   0.21612
 Alpha virt. eigenvalues --    0.21687   0.21918   0.21983   0.22100   0.22413
 Alpha virt. eigenvalues --    0.22458   0.22837   0.23130   0.23270   0.23389
 Alpha virt. eigenvalues --    0.23470   0.23665   0.23913   0.24139   0.24422
 Alpha virt. eigenvalues --    0.24680   0.24862   0.24944   0.25167   0.25292
 Alpha virt. eigenvalues --    0.25622   0.25706   0.25771   0.26465   0.26909
 Alpha virt. eigenvalues --    0.26939   0.27282   0.27427   0.27726   0.27930
 Alpha virt. eigenvalues --    0.28115   0.28432   0.28836   0.28893   0.29089
 Alpha virt. eigenvalues --    0.29376   0.29411   0.29532   0.29638   0.29762
 Alpha virt. eigenvalues --    0.30459   0.30782   0.31297   0.31404   0.31777
 Alpha virt. eigenvalues --    0.31879   0.32514   0.32678   0.32890   0.33439
 Alpha virt. eigenvalues --    0.33825   0.34567   0.35687   0.36999   0.37215
 Alpha virt. eigenvalues --    0.38242   0.39039   0.39173   0.39506   0.39720
 Alpha virt. eigenvalues --    0.40469   0.41573   0.42106   0.42133   0.42291
 Alpha virt. eigenvalues --    0.42485   0.42710   0.42895   0.43557   0.44180
 Alpha virt. eigenvalues --    0.44454   0.44695   0.44934   0.45432   0.45629
 Alpha virt. eigenvalues --    0.45745   0.45902   0.46148   0.46417   0.46770
 Alpha virt. eigenvalues --    0.47017   0.47192   0.47600   0.47911   0.48239
 Alpha virt. eigenvalues --    0.48390   0.48681   0.48854   0.49009   0.49176
 Alpha virt. eigenvalues --    0.49443   0.49842   0.49975   0.50137   0.50169
 Alpha virt. eigenvalues --    0.50385   0.50447   0.50623   0.50659   0.51107
 Alpha virt. eigenvalues --    0.51287   0.51409   0.51743   0.51786   0.52240
 Alpha virt. eigenvalues --    0.52486   0.52902   0.52946   0.53114   0.53502
 Alpha virt. eigenvalues --    0.53723   0.54035   0.54365   0.54498   0.54667
 Alpha virt. eigenvalues --    0.54780   0.55612   0.55891   0.56079   0.56326
 Alpha virt. eigenvalues --    0.56589   0.56810   0.56980   0.57397   0.57671
 Alpha virt. eigenvalues --    0.58557   0.58623   0.58941   0.59375   0.59961
 Alpha virt. eigenvalues --    0.60402   0.60619   0.61055   0.61738   0.61889
 Alpha virt. eigenvalues --    0.62047   0.62863   0.63811   0.64512   0.64792
 Alpha virt. eigenvalues --    0.65078   0.66533   0.66786   0.66822   0.67173
 Alpha virt. eigenvalues --    0.68318   0.68507   0.68978   0.69113   0.69556
 Alpha virt. eigenvalues --    0.70215   0.70718   0.71453   0.71691   0.72011
 Alpha virt. eigenvalues --    0.72444   0.72809   0.73179   0.73256   0.73439
 Alpha virt. eigenvalues --    0.73541   0.73739   0.73833   0.73885   0.74255
 Alpha virt. eigenvalues --    0.74484   0.74551   0.75181   0.75742   0.75810
 Alpha virt. eigenvalues --    0.76357   0.77219   0.77458   0.77912   0.78450
 Alpha virt. eigenvalues --    0.79241   0.79678   0.79979   0.80588   0.80887
 Alpha virt. eigenvalues --    0.81171   0.81241   0.82300   0.82471   0.82777
 Alpha virt. eigenvalues --    0.83166   0.83524   0.84251   0.84404   0.84503
 Alpha virt. eigenvalues --    0.84910   0.85369   0.85804   0.86576   0.87366
 Alpha virt. eigenvalues --    0.87835   0.88635   0.89186   0.89656   0.90042
 Alpha virt. eigenvalues --    0.90407   0.90460   0.91327   0.91761   0.91914
 Alpha virt. eigenvalues --    0.91998   0.92334   0.92842   0.93088   0.93449
 Alpha virt. eigenvalues --    0.93730   0.93855   0.94118   0.94548   0.94833
 Alpha virt. eigenvalues --    0.95291   0.95307   0.96268   0.97025   0.97231
 Alpha virt. eigenvalues --    0.97459   0.97767   0.97950   0.98902   0.99451
 Alpha virt. eigenvalues --    0.99782   0.99856   1.00086   1.00454   1.00552
 Alpha virt. eigenvalues --    1.00585   1.00903   1.01170   1.01262   1.01303
 Alpha virt. eigenvalues --    1.01417   1.01619   1.02080   1.02477   1.02755
 Alpha virt. eigenvalues --    1.03026   1.03543   1.03698   1.03831   1.04055
 Alpha virt. eigenvalues --    1.04448   1.04745   1.04892   1.05061   1.05532
 Alpha virt. eigenvalues --    1.05732   1.05808   1.06191   1.06812   1.07131
 Alpha virt. eigenvalues --    1.07239   1.07608   1.07631   1.07871   1.08162
 Alpha virt. eigenvalues --    1.08270   1.08423   1.08533   1.08923   1.09038
 Alpha virt. eigenvalues --    1.09393   1.09466   1.09879   1.10552   1.11355
 Alpha virt. eigenvalues --    1.11437   1.11730   1.12160   1.12548   1.12663
 Alpha virt. eigenvalues --    1.12827   1.13183   1.13328   1.13361   1.13659
 Alpha virt. eigenvalues --    1.13686   1.13916   1.14219   1.14408   1.14687
 Alpha virt. eigenvalues --    1.15151   1.15568   1.15727   1.15943   1.16403
 Alpha virt. eigenvalues --    1.17225   1.17679   1.18124   1.18339   1.18741
 Alpha virt. eigenvalues --    1.18938   1.19773   1.19892   1.20250   1.20443
 Alpha virt. eigenvalues --    1.21126   1.22491   1.22806   1.22926   1.23053
 Alpha virt. eigenvalues --    1.23220   1.23550   1.23705   1.24420   1.24696
 Alpha virt. eigenvalues --    1.25502   1.27047   1.27487   1.27744   1.28217
 Alpha virt. eigenvalues --    1.28828   1.29453   1.29838   1.29977   1.30317
 Alpha virt. eigenvalues --    1.30536   1.30675   1.30961   1.31187   1.31520
 Alpha virt. eigenvalues --    1.31701   1.31934   1.32260   1.32445   1.32582
 Alpha virt. eigenvalues --    1.32715   1.32756   1.33252   1.33511   1.34621
 Alpha virt. eigenvalues --    1.34830   1.35062   1.35495   1.35570   1.35861
 Alpha virt. eigenvalues --    1.36170   1.36236   1.36396   1.36623   1.36863
 Alpha virt. eigenvalues --    1.37088   1.37794   1.37979   1.38047   1.38316
 Alpha virt. eigenvalues --    1.38552   1.38856   1.38892   1.39126   1.39295
 Alpha virt. eigenvalues --    1.39560   1.39682   1.39885   1.40025   1.40143
 Alpha virt. eigenvalues --    1.40391   1.40667   1.40815   1.41012   1.41056
 Alpha virt. eigenvalues --    1.41269   1.41466   1.41686   1.42007   1.42060
 Alpha virt. eigenvalues --    1.42374   1.42542   1.42669   1.42873   1.43150
 Alpha virt. eigenvalues --    1.43487   1.43647   1.43791   1.44072   1.44346
 Alpha virt. eigenvalues --    1.44733   1.45026   1.45274   1.45315   1.45472
 Alpha virt. eigenvalues --    1.45990   1.46321   1.46625   1.46870   1.47586
 Alpha virt. eigenvalues --    1.48179   1.48275   1.49469   1.49628   1.49647
 Alpha virt. eigenvalues --    1.50203   1.50739   1.51835   1.52390   1.52498
 Alpha virt. eigenvalues --    1.52758   1.52953   1.53488   1.53770   1.55170
 Alpha virt. eigenvalues --    1.55485   1.57452   1.57970   1.58070   1.58186
 Alpha virt. eigenvalues --    1.58451   1.58893   1.59205   1.59777   1.60159
 Alpha virt. eigenvalues --    1.60725   1.61167   1.61724   1.61925   1.62453
 Alpha virt. eigenvalues --    1.62571   1.62695   1.63274   1.63853   1.64502
 Alpha virt. eigenvalues --    1.65082   1.65239   1.65494   1.65723   1.66306
 Alpha virt. eigenvalues --    1.66390   1.66791   1.68326   1.68828   1.69900
 Alpha virt. eigenvalues --    1.70732   1.71227   1.72418   1.72744   1.72917
 Alpha virt. eigenvalues --    1.73299   1.73765   1.74212   1.74888   1.75301
 Alpha virt. eigenvalues --    1.75804   1.76435   1.77248   1.77387   1.77657
 Alpha virt. eigenvalues --    1.78017   1.78468   1.78680   1.78967   1.79482
 Alpha virt. eigenvalues --    1.79832   1.80689   1.80999   1.81289   1.81357
 Alpha virt. eigenvalues --    1.82386   1.83197   1.84165   1.84278   1.84375
 Alpha virt. eigenvalues --    1.84937   1.85238   1.85419   1.85767   1.86178
 Alpha virt. eigenvalues --    1.86395   1.86818   1.87079   1.87677   1.87718
 Alpha virt. eigenvalues --    1.88334   1.88680   1.89166   1.89425   1.89707
 Alpha virt. eigenvalues --    1.90018   1.90679   1.91590   1.92559   1.92825
 Alpha virt. eigenvalues --    1.93364   1.93552   1.93969   1.94072   1.95226
 Alpha virt. eigenvalues --    1.96788   1.96857   1.97950   1.97971   1.98352
 Alpha virt. eigenvalues --    1.99153   2.01720   2.01885   2.02046   2.04507
 Alpha virt. eigenvalues --    2.05480   2.07025   2.07237   2.08483   2.09488
 Alpha virt. eigenvalues --    2.10709   2.11246   2.11425   2.11679   2.13318
 Alpha virt. eigenvalues --    2.13862   2.15031   2.15482   2.16032   2.17862
 Alpha virt. eigenvalues --    2.18261   2.18934   2.19512   2.20328   2.20542
 Alpha virt. eigenvalues --    2.20868   2.20967   2.21799   2.24903   2.26896
 Alpha virt. eigenvalues --    2.27143   2.27744   2.28209   2.29635   2.30484
 Alpha virt. eigenvalues --    2.31089   2.31516   2.31685   2.32433   2.32906
 Alpha virt. eigenvalues --    2.33552   2.34059   2.34469   2.34724   2.35351
 Alpha virt. eigenvalues --    2.35770   2.39872   2.39948   2.42164   2.43072
 Alpha virt. eigenvalues --    2.44265   2.47788   2.49921   2.56269   2.65445
 Alpha virt. eigenvalues --    2.67219   2.67244   2.67330   2.67882   2.68713
 Alpha virt. eigenvalues --    2.68737   2.69135   2.69193   2.69337   2.69603
 Alpha virt. eigenvalues --    2.69634   2.69752   2.69840   2.69933   2.70061
 Alpha virt. eigenvalues --    2.70131   2.70182   2.70611   2.70678   2.70831
 Alpha virt. eigenvalues --    2.70875   2.70931   2.71130   2.71476   2.71616
 Alpha virt. eigenvalues --    2.71649   2.71952   2.72664   2.72684   2.72839
 Alpha virt. eigenvalues --    2.73084   2.73331   2.73478   2.73658   2.73781
 Alpha virt. eigenvalues --    2.74166   2.74221   2.74321   2.74340   2.75260
 Alpha virt. eigenvalues --    2.75409   2.75449   2.75602   2.75674   2.75697
 Alpha virt. eigenvalues --    2.75789   2.75832   2.76001   2.76047   2.76128
 Alpha virt. eigenvalues --    2.76316   2.76493   2.76605   2.76915   2.77342
 Alpha virt. eigenvalues --    2.77441   2.77782   2.78092   2.78409   2.78550
 Alpha virt. eigenvalues --    2.78755   2.79120   2.79455   2.79638   2.79767
 Alpha virt. eigenvalues --    2.79790   2.80000   2.80410   2.80889   2.81283
 Alpha virt. eigenvalues --    2.82010   2.82358   2.82547   2.82675   2.82729
 Alpha virt. eigenvalues --    2.83017   2.83121   2.83749   2.84157   2.85130
 Alpha virt. eigenvalues --    2.85161   2.85665   2.85807   2.85921   2.85975
 Alpha virt. eigenvalues --    2.86141   2.86378   2.86703   2.87662   2.87978
 Alpha virt. eigenvalues --    2.88117   2.88630   2.88890   2.88983   2.89057
 Alpha virt. eigenvalues --    2.89166   2.89468   2.89531   2.89582   2.89728
 Alpha virt. eigenvalues --    2.91033   2.91221   2.92075   2.92196   2.92356
 Alpha virt. eigenvalues --    2.92677   2.92771   2.92855   2.93217   2.93289
 Alpha virt. eigenvalues --    2.93819   2.93879   2.94453   2.94541   2.94687
 Alpha virt. eigenvalues --    2.94916   2.95004   2.95212   2.95449   2.95886
 Alpha virt. eigenvalues --    2.96165   2.96334   2.96355   2.96663   2.96737
 Alpha virt. eigenvalues --    2.96963   2.97125   2.97320   2.97409   2.97692
 Alpha virt. eigenvalues --    2.97774   2.98322   2.98562   2.98584   2.99008
 Alpha virt. eigenvalues --    2.99121   2.99579   2.99702   3.00095   3.00114
 Alpha virt. eigenvalues --    3.00379   3.00700   3.00986   3.01221   3.01281
 Alpha virt. eigenvalues --    3.01745   3.01951   3.02182   3.02580   3.02845
 Alpha virt. eigenvalues --    3.03093   3.03277   3.03818   3.04759   3.07393
 Alpha virt. eigenvalues --    3.08796   3.08806   3.08947   3.09283   3.09427
 Alpha virt. eigenvalues --    3.11592   3.11957   3.12093   3.12584   3.13675
 Alpha virt. eigenvalues --    3.13718   3.13939   3.14761   3.14912   3.15403
 Alpha virt. eigenvalues --    3.16480   3.16603   3.17046   3.22542   3.26660
 Alpha virt. eigenvalues --    3.29555   3.30063   3.31020   3.42514   3.43003
 Alpha virt. eigenvalues --    3.43772   3.44567   3.46024   3.46104   3.46604
 Alpha virt. eigenvalues --    3.47182   3.47363   3.47441   3.48416   3.48874
 Alpha virt. eigenvalues --    3.48983   3.52539   3.53637   3.54358   3.55058
 Alpha virt. eigenvalues --    3.55314   3.56066   3.56186   3.56722   3.56998
 Alpha virt. eigenvalues --    3.57178   3.57263   3.57751   3.57991   3.59153
 Alpha virt. eigenvalues --    3.59241   3.60327   3.61031   3.61566   3.62189
 Alpha virt. eigenvalues --    3.62232   3.62864   3.63066   3.63442   3.64140
 Alpha virt. eigenvalues --    3.73574   3.77821  68.67105  68.67984  68.69347
 Alpha virt. eigenvalues --   68.71788  68.75600  68.76961  68.84366  68.85306
 Alpha virt. eigenvalues --   68.85893  68.89003  68.89903  68.91267 576.25540
 Alpha virt. eigenvalues --  576.26400 576.27736 576.30119 576.33953 576.35284
 Alpha virt. eigenvalues --  576.42551 576.43473 576.44036 576.47047 576.47928
 Alpha virt. eigenvalues --  576.49276
  Beta  occ. eigenvalues -- -197.09370-129.98929-129.98907-129.98884-101.61302
  Beta  occ. eigenvalues --  -22.41939 -19.28587 -19.28555 -19.28526 -19.28514
  Beta  occ. eigenvalues --  -19.28464 -19.28462 -19.28423 -19.28411 -19.28388
  Beta  occ. eigenvalues --  -19.28376 -19.28255 -19.28134 -19.26941 -19.26915
  Beta  occ. eigenvalues --  -19.26902 -19.26879 -19.26853 -19.26848 -19.26839
  Beta  occ. eigenvalues --  -19.26836 -19.26811 -19.26808 -19.26785 -19.26772
  Beta  occ. eigenvalues --  -19.26770 -19.26751 -19.26739 -19.26736 -19.26731
  Beta  occ. eigenvalues --  -19.26729 -19.26712 -19.26701 -19.26670 -19.26660
  Beta  occ. eigenvalues --  -19.26643 -19.26613 -19.24260 -19.24208 -19.24204
  Beta  occ. eigenvalues --  -19.24203 -18.92404 -18.90225 -18.90163 -13.36329
  Beta  occ. eigenvalues --  -13.36308 -13.36271 -10.69258 -10.69252 -10.69252
  Beta  occ. eigenvalues --  -10.69236 -10.69231 -10.69230 -10.69202 -10.69196
  Beta  occ. eigenvalues --  -10.69194 -10.33150 -10.32958 -10.31549 -10.30904
  Beta  occ. eigenvalues --  -10.30876 -10.30862 -10.30357 -10.30271  -9.51757
  Beta  occ. eigenvalues --   -7.27497  -7.26205  -7.26184  -3.21008  -3.20996
  Beta  occ. eigenvalues --   -3.20959  -3.20958  -3.20928  -3.20924  -3.20915
  Beta  occ. eigenvalues --   -3.20880  -3.20863  -3.20850  -3.20766  -3.20747
  Beta  occ. eigenvalues --   -2.73846  -1.85385  -1.85301  -1.85286  -1.85242
  Beta  occ. eigenvalues --   -1.85168  -1.85131  -1.85094  -1.85078  -1.85029
  Beta  occ. eigenvalues --   -1.85014  -1.84976  -1.84906  -1.84297  -1.84186
  Beta  occ. eigenvalues --   -1.84170  -1.84159  -1.84122  -1.84106  -1.84069
  Beta  occ. eigenvalues --   -1.84027  -1.84008  -1.83994  -1.83966  -1.83957
  Beta  occ. eigenvalues --   -1.83862  -1.83820  -1.83801  -1.83793  -1.83786
  Beta  occ. eigenvalues --   -1.83731  -1.83718  -1.83698  -1.83684  -1.83621
  Beta  occ. eigenvalues --   -1.83608  -1.83578  -1.79872  -1.75164  -1.75030
  Beta  occ. eigenvalues --   -1.50052  -1.50029  -1.49997  -1.08457  -1.06851
  Beta  occ. eigenvalues --   -1.06797  -1.06752  -1.05878  -1.05855  -1.05824
  Beta  occ. eigenvalues --   -1.04481  -1.04464  -1.04448  -1.03852  -1.03827
  Beta  occ. eigenvalues --   -1.03452  -1.03219  -1.03177  -1.03167  -1.03039
  Beta  occ. eigenvalues --   -1.02996  -1.02269  -1.02255  -1.02231  -1.02177
  Beta  occ. eigenvalues --   -1.02115  -1.02079  -1.02047  -1.01989  -1.01833
  Beta  occ. eigenvalues --   -1.01712  -1.01680  -1.01658  -1.01570  -1.01519
  Beta  occ. eigenvalues --   -1.01254  -1.00729  -1.00714  -1.00669  -1.00652
  Beta  occ. eigenvalues --   -0.99619  -0.99545  -0.99511  -0.96290  -0.90430
  Beta  occ. eigenvalues --   -0.85524  -0.85499  -0.85479  -0.85348  -0.85344
  Beta  occ. eigenvalues --   -0.85327  -0.85322  -0.85298  -0.85285  -0.84282
  Beta  occ. eigenvalues --   -0.83828  -0.82414  -0.72125  -0.69604  -0.65205
  Beta  occ. eigenvalues --   -0.62112  -0.61523  -0.61476  -0.61440  -0.60787
  Beta  occ. eigenvalues --   -0.58827  -0.58817  -0.58797  -0.58734  -0.58657
  Beta  occ. eigenvalues --   -0.58639  -0.58622  -0.58573  -0.58394  -0.57246
  Beta  occ. eigenvalues --   -0.57138  -0.57074  -0.57062  -0.56846  -0.56349
  Beta  occ. eigenvalues --   -0.56279  -0.56231  -0.55719  -0.55489  -0.55269
  Beta  occ. eigenvalues --   -0.55261  -0.55249  -0.54613  -0.54191  -0.54154
  Beta  occ. eigenvalues --   -0.53984  -0.53645  -0.53555  -0.53525  -0.52776
  Beta  occ. eigenvalues --   -0.52664  -0.52654  -0.52538  -0.52503  -0.51534
  Beta  occ. eigenvalues --   -0.51477  -0.51465  -0.51421  -0.51386  -0.51051
  Beta  occ. eigenvalues --   -0.50529  -0.50502  -0.50438  -0.50368  -0.50261
  Beta  occ. eigenvalues --   -0.50200  -0.50126  -0.50090  -0.50021  -0.49812
  Beta  occ. eigenvalues --   -0.49756  -0.49743  -0.49505  -0.49472  -0.49322
  Beta  occ. eigenvalues --   -0.49226  -0.49184  -0.49059  -0.49011  -0.48980
  Beta  occ. eigenvalues --   -0.48860  -0.48704  -0.48644  -0.48555  -0.47888
  Beta  occ. eigenvalues --   -0.47618  -0.47597  -0.45976  -0.45955  -0.45847
  Beta  occ. eigenvalues --   -0.45734  -0.45694  -0.45565  -0.45208  -0.45185
  Beta  occ. eigenvalues --   -0.45155  -0.45076  -0.44820  -0.44614  -0.44408
  Beta  occ. eigenvalues --   -0.44363  -0.44342  -0.44185  -0.44165  -0.44120
  Beta  occ. eigenvalues --   -0.43361  -0.43056  -0.42752  -0.42445  -0.42363
  Beta  occ. eigenvalues --   -0.42255  -0.42082  -0.42035  -0.42031  -0.41887
  Beta  occ. eigenvalues --   -0.41666  -0.41601  -0.41576  -0.41084  -0.40986
  Beta  occ. eigenvalues --   -0.40732  -0.40685  -0.40665  -0.40413  -0.40394
  Beta  occ. eigenvalues --   -0.40350  -0.40192  -0.40169  -0.40149  -0.39817
  Beta  occ. eigenvalues --   -0.39564  -0.39457  -0.39129  -0.39052  -0.39017
  Beta  occ. eigenvalues --   -0.38885  -0.38856  -0.38790  -0.38618  -0.38570
  Beta  occ. eigenvalues --   -0.38483  -0.38268  -0.38210  -0.38154  -0.37191
  Beta  occ. eigenvalues --   -0.37101  -0.36245  -0.34802  -0.34713  -0.33765
  Beta  occ. eigenvalues --   -0.29894
  Beta virt. eigenvalues --   -0.06142  -0.05997  -0.04642  -0.04582  -0.04458
  Beta virt. eigenvalues --   -0.01408  -0.01319  -0.01260  -0.00856  -0.00681
  Beta virt. eigenvalues --   -0.00655  -0.00601   0.00043   0.00111   0.00160
  Beta virt. eigenvalues --    0.00845   0.00903   0.00957   0.01080   0.01216
  Beta virt. eigenvalues --    0.01781   0.01916   0.01967   0.01989   0.02530
  Beta virt. eigenvalues --    0.02819   0.02897   0.03261   0.03559   0.03872
  Beta virt. eigenvalues --    0.03956   0.04138   0.04289   0.04343   0.04390
  Beta virt. eigenvalues --    0.04408   0.04605   0.04706   0.04985   0.05105
  Beta virt. eigenvalues --    0.05757   0.06514   0.07991   0.08537   0.08685
  Beta virt. eigenvalues --    0.08710   0.08792   0.09548   0.09798   0.09843
  Beta virt. eigenvalues --    0.09919   0.09940   0.10074   0.10156   0.10362
  Beta virt. eigenvalues --    0.10619   0.10752   0.11010   0.11061   0.11164
  Beta virt. eigenvalues --    0.11543   0.11751   0.11773   0.11992   0.12115
  Beta virt. eigenvalues --    0.12368   0.12440   0.12548   0.12608   0.13401
  Beta virt. eigenvalues --    0.13516   0.13742   0.14061   0.14323   0.15093
  Beta virt. eigenvalues --    0.15179   0.15354   0.15419   0.15461   0.15873
  Beta virt. eigenvalues --    0.16165   0.16721   0.17211   0.17772   0.17885
  Beta virt. eigenvalues --    0.18287   0.18494   0.18645   0.18826   0.19132
  Beta virt. eigenvalues --    0.19438   0.19517   0.19588   0.19678   0.19690
  Beta virt. eigenvalues --    0.20021   0.20153   0.20567   0.20729   0.20956
  Beta virt. eigenvalues --    0.21121   0.21321   0.21345   0.21490   0.21627
  Beta virt. eigenvalues --    0.21694   0.21933   0.21989   0.22108   0.22440
  Beta virt. eigenvalues --    0.22448   0.22843   0.23125   0.23284   0.23395
  Beta virt. eigenvalues --    0.23441   0.23667   0.23881   0.24096   0.24366
  Beta virt. eigenvalues --    0.24626   0.24845   0.24949   0.25114   0.25291
  Beta virt. eigenvalues --    0.25608   0.25695   0.25732   0.26346   0.26912
  Beta virt. eigenvalues --    0.26938   0.27275   0.27412   0.27678   0.27926
  Beta virt. eigenvalues --    0.28106   0.28374   0.28840   0.28891   0.29058
  Beta virt. eigenvalues --    0.29402   0.29422   0.29529   0.29640   0.29761
  Beta virt. eigenvalues --    0.30463   0.30781   0.31294   0.31410   0.31774
  Beta virt. eigenvalues --    0.31882   0.32518   0.32677   0.32894   0.33459
  Beta virt. eigenvalues --    0.33794   0.34561   0.35419   0.36984   0.37186
  Beta virt. eigenvalues --    0.38215   0.39117   0.39169   0.39525   0.39720
  Beta virt. eigenvalues --    0.40376   0.41556   0.42139   0.42206   0.42354
  Beta virt. eigenvalues --    0.42504   0.42722   0.43045   0.43580   0.44263
  Beta virt. eigenvalues --    0.44496   0.44757   0.44953   0.45524   0.45607
  Beta virt. eigenvalues --    0.45801   0.46006   0.46127   0.46392   0.46693
  Beta virt. eigenvalues --    0.47006   0.47119   0.47561   0.47914   0.48224
  Beta virt. eigenvalues --    0.48384   0.48641   0.48794   0.49005   0.49149
  Beta virt. eigenvalues --    0.49427   0.49839   0.49986   0.50141   0.50158
  Beta virt. eigenvalues --    0.50327   0.50393   0.50595   0.50620   0.51024
  Beta virt. eigenvalues --    0.51260   0.51401   0.51716   0.51761   0.52169
  Beta virt. eigenvalues --    0.52481   0.52849   0.52882   0.53100   0.53466
  Beta virt. eigenvalues --    0.53717   0.54027   0.54366   0.54448   0.54662
  Beta virt. eigenvalues --    0.54734   0.55571   0.55900   0.56100   0.56377
  Beta virt. eigenvalues --    0.56574   0.56826   0.56977   0.57296   0.57647
  Beta virt. eigenvalues --    0.58567   0.58609   0.58901   0.59369   0.59838
  Beta virt. eigenvalues --    0.60353   0.60668   0.60777   0.61540   0.61785
  Beta virt. eigenvalues --    0.62030   0.62784   0.63685   0.64654   0.64758
  Beta virt. eigenvalues --    0.65090   0.66426   0.66768   0.66818   0.67005
  Beta virt. eigenvalues --    0.68263   0.68506   0.68846   0.69160   0.69570
  Beta virt. eigenvalues --    0.70281   0.70490   0.70581   0.71716   0.72019
  Beta virt. eigenvalues --    0.72264   0.72813   0.72963   0.73113   0.73351
  Beta virt. eigenvalues --    0.73513   0.73626   0.73752   0.73877   0.74050
  Beta virt. eigenvalues --    0.74310   0.74450   0.74751   0.75559   0.75630
  Beta virt. eigenvalues --    0.76363   0.77224   0.77470   0.77791   0.78305
  Beta virt. eigenvalues --    0.79275   0.79586   0.80066   0.80793   0.81103
  Beta virt. eigenvalues --    0.81208   0.81456   0.82280   0.82492   0.82703
  Beta virt. eigenvalues --    0.83084   0.83463   0.84193   0.84293   0.84495
  Beta virt. eigenvalues --    0.84916   0.85370   0.85770   0.86571   0.87214
  Beta virt. eigenvalues --    0.87436   0.88404   0.88880   0.89545   0.89970
  Beta virt. eigenvalues --    0.90351   0.90423   0.90977   0.91555   0.91655
  Beta virt. eigenvalues --    0.91903   0.91955   0.92378   0.92764   0.93148
  Beta virt. eigenvalues --    0.93403   0.93567   0.93621   0.94037   0.94218
  Beta virt. eigenvalues --    0.94827   0.95244   0.96009   0.96933   0.97142
  Beta virt. eigenvalues --    0.97502   0.97916   0.98160   0.98663   0.99326
  Beta virt. eigenvalues --    0.99536   0.99841   0.99969   1.00169   1.00387
  Beta virt. eigenvalues --    1.00590   1.00887   1.00949   1.01198   1.01306
  Beta virt. eigenvalues --    1.01342   1.01430   1.02065   1.02465   1.02756
  Beta virt. eigenvalues --    1.03016   1.03543   1.03595   1.03834   1.04067
  Beta virt. eigenvalues --    1.04459   1.04757   1.04911   1.05079   1.05559
  Beta virt. eigenvalues --    1.05785   1.05858   1.06210   1.06849   1.07157
  Beta virt. eigenvalues --    1.07267   1.07644   1.07754   1.07922   1.08093
  Beta virt. eigenvalues --    1.08255   1.08478   1.08812   1.08924   1.09039
  Beta virt. eigenvalues --    1.09163   1.09464   1.09756   1.10563   1.11360
  Beta virt. eigenvalues --    1.11438   1.11737   1.12167   1.12555   1.12675
  Beta virt. eigenvalues --    1.12834   1.13184   1.13336   1.13374   1.13661
  Beta virt. eigenvalues --    1.13684   1.13933   1.14223   1.14439   1.14860
  Beta virt. eigenvalues --    1.15183   1.15583   1.15665   1.15856   1.16391
  Beta virt. eigenvalues --    1.17146   1.17655   1.18075   1.18277   1.18727
  Beta virt. eigenvalues --    1.18980   1.19794   1.19958   1.20248   1.20501
  Beta virt. eigenvalues --    1.21175   1.22484   1.22778   1.22907   1.23027
  Beta virt. eigenvalues --    1.23236   1.23505   1.23719   1.24386   1.24485
  Beta virt. eigenvalues --    1.25443   1.27041   1.27423   1.27716   1.28215
  Beta virt. eigenvalues --    1.28790   1.29109   1.29459   1.29976   1.30217
  Beta virt. eigenvalues --    1.30521   1.30653   1.30872   1.31102   1.31543
  Beta virt. eigenvalues --    1.31731   1.31898   1.32239   1.32405   1.32553
  Beta virt. eigenvalues --    1.32690   1.32777   1.33225   1.33480   1.34472
  Beta virt. eigenvalues --    1.34820   1.35031   1.35489   1.35562   1.35851
  Beta virt. eigenvalues --    1.36144   1.36224   1.36370   1.36603   1.36852
  Beta virt. eigenvalues --    1.37043   1.37634   1.37936   1.38060   1.38328
  Beta virt. eigenvalues --    1.38562   1.38851   1.38863   1.39112   1.39242
  Beta virt. eigenvalues --    1.39561   1.39695   1.39849   1.40008   1.40110
  Beta virt. eigenvalues --    1.40381   1.40602   1.40764   1.40962   1.41070
  Beta virt. eigenvalues --    1.41302   1.41481   1.41689   1.41915   1.42030
  Beta virt. eigenvalues --    1.42369   1.42548   1.42669   1.42871   1.43149
  Beta virt. eigenvalues --    1.43437   1.43652   1.43782   1.44092   1.44357
  Beta virt. eigenvalues --    1.44755   1.44996   1.45266   1.45293   1.45480
  Beta virt. eigenvalues --    1.45967   1.46306   1.46344   1.46835   1.47590
  Beta virt. eigenvalues --    1.48133   1.48263   1.49476   1.49627   1.49656
  Beta virt. eigenvalues --    1.50203   1.50733   1.51849   1.52403   1.52510
  Beta virt. eigenvalues --    1.52757   1.52967   1.53506   1.53788   1.55187
  Beta virt. eigenvalues --    1.55493   1.57456   1.57980   1.58093   1.58210
  Beta virt. eigenvalues --    1.58482   1.58907   1.59212   1.59806   1.60179
  Beta virt. eigenvalues --    1.60757   1.61193   1.61727   1.61942   1.62473
  Beta virt. eigenvalues --    1.62579   1.62686   1.63287   1.63835   1.64593
  Beta virt. eigenvalues --    1.65219   1.65338   1.65605   1.65759   1.66394
  Beta virt. eigenvalues --    1.66454   1.66891   1.68478   1.68936   1.69958
  Beta virt. eigenvalues --    1.70769   1.71269   1.72334   1.72674   1.72776
  Beta virt. eigenvalues --    1.73278   1.73770   1.74196   1.74935   1.75270
  Beta virt. eigenvalues --    1.75746   1.76377   1.77230   1.77365   1.77582
  Beta virt. eigenvalues --    1.77961   1.78373   1.78649   1.78906   1.79426
  Beta virt. eigenvalues --    1.79797   1.80694   1.80990   1.81297   1.81325
  Beta virt. eigenvalues --    1.82395   1.83094   1.84150   1.84204   1.84371
  Beta virt. eigenvalues --    1.84913   1.85207   1.85417   1.85756   1.86169
  Beta virt. eigenvalues --    1.86377   1.86854   1.87098   1.87691   1.87738
  Beta virt. eigenvalues --    1.88342   1.88672   1.88980   1.89299   1.89709
  Beta virt. eigenvalues --    1.89962   1.90676   1.91551   1.92452   1.92826
  Beta virt. eigenvalues --    1.93379   1.93527   1.93964   1.94086   1.95219
  Beta virt. eigenvalues --    1.96673   1.96883   1.97990   1.97997   1.98424
  Beta virt. eigenvalues --    1.99200   2.01773   2.01960   2.02155   2.04364
  Beta virt. eigenvalues --    2.05337   2.06778   2.07092   2.08442   2.09000
  Beta virt. eigenvalues --    2.10562   2.10785   2.11286   2.11577   2.13327
  Beta virt. eigenvalues --    2.13870   2.15062   2.15501   2.16069   2.17884
  Beta virt. eigenvalues --    2.18226   2.18681   2.19607   2.20208   2.20521
  Beta virt. eigenvalues --    2.20939   2.21004   2.21897   2.24826   2.27059
  Beta virt. eigenvalues --    2.27271   2.27825   2.28575   2.30127   2.30536
  Beta virt. eigenvalues --    2.31185   2.31902   2.32022   2.32889   2.33448
  Beta virt. eigenvalues --    2.33629   2.34395   2.34569   2.35204   2.36793
  Beta virt. eigenvalues --    2.37382   2.39599   2.39714   2.42040   2.42936
  Beta virt. eigenvalues --    2.44340   2.47121   2.49539   2.55548   2.65107
  Beta virt. eigenvalues --    2.67185   2.67242   2.67284   2.67495   2.68582
  Beta virt. eigenvalues --    2.68737   2.69134   2.69191   2.69325   2.69602
  Beta virt. eigenvalues --    2.69636   2.69754   2.69845   2.69935   2.70074
  Beta virt. eigenvalues --    2.70146   2.70193   2.70624   2.70663   2.70845
  Beta virt. eigenvalues --    2.70895   2.70948   2.71098   2.71428   2.71542
  Beta virt. eigenvalues --    2.71649   2.71948   2.72668   2.72687   2.72845
  Beta virt. eigenvalues --    2.73105   2.73350   2.73479   2.73659   2.73777
  Beta virt. eigenvalues --    2.74008   2.74194   2.74239   2.74323   2.75272
  Beta virt. eigenvalues --    2.75415   2.75464   2.75613   2.75679   2.75703
  Beta virt. eigenvalues --    2.75797   2.75844   2.76004   2.76051   2.76132
  Beta virt. eigenvalues --    2.76324   2.76496   2.76610   2.76911   2.77355
  Beta virt. eigenvalues --    2.77457   2.77812   2.78122   2.78434   2.78561
  Beta virt. eigenvalues --    2.78773   2.79143   2.79485   2.79657   2.79796
  Beta virt. eigenvalues --    2.79834   2.80037   2.80411   2.80683   2.81283
  Beta virt. eigenvalues --    2.82072   2.82391   2.82569   2.82689   2.82719
  Beta virt. eigenvalues --    2.83033   2.83146   2.83714   2.84152   2.85141
  Beta virt. eigenvalues --    2.85174   2.85551   2.85686   2.85935   2.85985
  Beta virt. eigenvalues --    2.86148   2.86389   2.86710   2.87685   2.88001
  Beta virt. eigenvalues --    2.88138   2.88639   2.88892   2.88991   2.89063
  Beta virt. eigenvalues --    2.89170   2.89478   2.89543   2.89604   2.89753
  Beta virt. eigenvalues --    2.91051   2.91245   2.92084   2.92204   2.92363
  Beta virt. eigenvalues --    2.92689   2.92794   2.92865   2.93247   2.93320
  Beta virt. eigenvalues --    2.93781   2.93899   2.94328   2.94500   2.94686
  Beta virt. eigenvalues --    2.94926   2.95021   2.95212   2.95437   2.95898
  Beta virt. eigenvalues --    2.96177   2.96348   2.96379   2.96669   2.96737
  Beta virt. eigenvalues --    2.96902   2.97097   2.97325   2.97415   2.97701
  Beta virt. eigenvalues --    2.97777   2.98340   2.98563   2.98595   2.99029
  Beta virt. eigenvalues --    2.99111   2.99323   2.99677   3.00131   3.00154
  Beta virt. eigenvalues --    3.00398   3.00742   3.01022   3.01260   3.01315
  Beta virt. eigenvalues --    3.01765   3.01962   3.02191   3.02600   3.02872
  Beta virt. eigenvalues --    3.03104   3.03294   3.03834   3.04775   3.07397
  Beta virt. eigenvalues --    3.08611   3.08807   3.08966   3.09432   3.09564
  Beta virt. eigenvalues --    3.11911   3.12314   3.12610   3.12996   3.13691
  Beta virt. eigenvalues --    3.13756   3.13958   3.14659   3.14896   3.15426
  Beta virt. eigenvalues --    3.16512   3.16633   3.17281   3.22466   3.27136
  Beta virt. eigenvalues --    3.30744   3.30842   3.31261   3.42521   3.43011
  Beta virt. eigenvalues --    3.43774   3.44570   3.46017   3.46113   3.46361
  Beta virt. eigenvalues --    3.47187   3.47365   3.47443   3.48419   3.48876
  Beta virt. eigenvalues --    3.48985   3.52545   3.53657   3.54376   3.55063
  Beta virt. eigenvalues --    3.55321   3.56076   3.56194   3.56733   3.57020
  Beta virt. eigenvalues --    3.57197   3.57293   3.57778   3.58010   3.59158
  Beta virt. eigenvalues --    3.59247   3.60344   3.61040   3.61574   3.62192
  Beta virt. eigenvalues --    3.62234   3.62871   3.63069   3.63446   3.64149
  Beta virt. eigenvalues --    3.73498   3.78045  68.67107  68.67985  68.69348
  Beta virt. eigenvalues --   68.71790  68.75601  68.76964  68.84368  68.85307
  Beta virt. eigenvalues --   68.85895  68.89005  68.89904  68.91269 576.25573
  Beta virt. eigenvalues --  576.26426 576.27765 576.30147 576.33970 576.35328
  Beta virt. eigenvalues --  576.42585 576.43495 576.44071 576.47083 576.47950
  Beta virt. eigenvalues --  576.49311
          Condensed to atoms (all electrons):
          Atomic-Atomic Spin Densities.
 Mulliken charges and spin densities:
               1          2
     1  Cl  -0.391701  -0.541624
     2  C   -0.038498  -0.102080
     3  C    0.005554   0.080796
     4  C   -0.032840  -0.098538
     5  C   -0.032580   0.062455
     6  C    0.004114  -0.113397
     7  C   -0.048790   0.061039
     8  H    0.045721   0.004320
     9  H    0.049026   0.004205
    10  H    0.054115  -0.002257
    11  H    0.054037   0.004999
    12  H    0.052519  -0.002169
    13  C    0.020410  -0.319448
    14  C   -0.008450  -0.051827
    15  H    0.073464   0.013740
    16  H    0.099559   0.002225
    17  H    0.102518   0.002041
    18  O   -0.668870  -0.000493
    19  O   -0.666787  -0.000432
    20  O   -0.661920  -0.001909
    21  O   -0.669049  -0.000467
    22  W    1.710733   0.000356
    23  W    1.648825   0.000590
    24  W    1.662199   0.000220
    25  W    1.671012   0.000237
    26  W    1.652326   0.003077
    27  W    1.706822   0.002771
    28  W    1.604649   0.003540
    29  W    1.664381   0.003198
    30  O   -0.348437  -0.000533
    31  O   -0.392343  -0.000551
    32  O   -0.391197  -0.000594
    33  O   -0.390370  -0.000550
    34  O   -0.669344  -0.000382
    35  O   -0.676528  -0.000110
    36  O   -0.667683  -0.000228
    37  O   -0.670497  -0.000302
    38  O   -0.392149   0.002148
    39  O   -0.392955   0.002209
    40  O   -0.335532  -0.001317
    41  O   -0.393396   0.002178
    42  O   -0.675743   0.000063
    43  O   -0.668731   0.000174
    44  O   -0.664393   0.000297
    45  O   -0.671252   0.000100
    46  O   -0.393091   0.002410
    47  O   -0.350892   0.002338
    48  O   -0.382800   0.001950
    49  O   -0.392701   0.002469
    50  W    1.649370   0.003219
    51  W    1.653365   0.003114
    52  W    1.667700   0.004067
    53  W    1.660020   0.003062
    54  O   -0.719395   0.000149
    55  O   -0.702475   0.000029
    56  O   -0.721247   0.000210
    57  O   -0.716894   0.000100
    58  O   -0.699500  -0.000029
    59  O   -0.721743   0.000194
    60  O   -0.719480   0.000272
    61  O   -0.717605   0.000259
    62  O   -0.719980  -0.000226
    63  O   -0.703387  -0.000022
    64  O   -0.720170  -0.000247
    65  O   -0.723459  -0.000258
    66  O   -0.882865   0.006210
    67  O   -0.883573   0.008325
    68  O   -0.879359   0.008077
    69  O   -0.889034   0.007158
    70  K    0.844726   0.000247
    71  K    0.844457   0.000283
    72  K    0.839522   0.000298
    73  V    1.218541   0.928572
 Sum of Mulliken charges =  -1.00000  -0.00000
 Mulliken charges and spin densities with hydrogens summed into heavy atoms:
               1          2
     1  Cl  -0.391701  -0.541624
     2  C    0.007223  -0.097760
     3  C    0.005554   0.080796
     4  C    0.016186  -0.094332
     5  C    0.021535   0.060198
     6  C    0.058151  -0.108398
     7  C    0.003729   0.058871
    13  C    0.093874  -0.305708
    14  C    0.193627  -0.047561
    18  O   -0.668870  -0.000493
    19  O   -0.666787  -0.000432
    20  O   -0.661920  -0.001909
    21  O   -0.669049  -0.000467
    22  W    1.710733   0.000356
    23  W    1.648825   0.000590
    24  W    1.662199   0.000220
    25  W    1.671012   0.000237
    26  W    1.652326   0.003077
    27  W    1.706822   0.002771
    28  W    1.604649   0.003540
    29  W    1.664381   0.003198
    30  O   -0.348437  -0.000533
    31  O   -0.392343  -0.000551
    32  O   -0.391197  -0.000594
    33  O   -0.390370  -0.000550
    34  O   -0.669344  -0.000382
    35  O   -0.676528  -0.000110
    36  O   -0.667683  -0.000228
    37  O   -0.670497  -0.000302
    38  O   -0.392149   0.002148
    39  O   -0.392955   0.002209
    40  O   -0.335532  -0.001317
    41  O   -0.393396   0.002178
    42  O   -0.675743   0.000063
    43  O   -0.668731   0.000174
    44  O   -0.664393   0.000297
    45  O   -0.671252   0.000100
    46  O   -0.393091   0.002410
    47  O   -0.350892   0.002338
    48  O   -0.382800   0.001950
    49  O   -0.392701   0.002469
    50  W    1.649370   0.003219
    51  W    1.653365   0.003114
    52  W    1.667700   0.004067
    53  W    1.660020   0.003062
    54  O   -0.719395   0.000149
    55  O   -0.702475   0.000029
    56  O   -0.721247   0.000210
    57  O   -0.716894   0.000100
    58  O   -0.699500  -0.000029
    59  O   -0.721743   0.000194
    60  O   -0.719480   0.000272
    61  O   -0.717605   0.000259
    62  O   -0.719980  -0.000226
    63  O   -0.703387  -0.000022
    64  O   -0.720170  -0.000247
    65  O   -0.723459  -0.000258
    66  O   -0.882865   0.006210
    67  O   -0.883573   0.008325
    68  O   -0.879359   0.008077
    69  O   -0.889034   0.007158
    70  K    0.844726   0.000247
    71  K    0.844457   0.000283
    72  K    0.839522   0.000298
    73  V    1.218541   0.928572
 Electronic spatial extent (au):  <R**2>=         316130.6207
 Charge=             -1.0000 electrons
 Dipole moment (field-independent basis, Debye):
    X=             29.4373    Y=            -12.9049    Z=            -31.0795  Tot=             44.7105
 Quadrupole moment (field-independent basis, Debye-Ang):
   XX=           -785.5698   YY=           -696.1225   ZZ=           -791.2332
   XY=            126.3177   XZ=            191.2686   YZ=            -87.2191
 Traceless Quadrupole moment (field-independent basis, Debye-Ang):
   XX=            -27.9280   YY=             61.5194   ZZ=            -33.5914
   XY=            126.3177   XZ=            191.2686   YZ=            -87.2191
 Octapole moment (field-independent basis, Debye-Ang**2):
  XXX=          10530.7276  YYY=           1010.5088  ZZZ=         -17598.5033  XYY=           4037.4558
  XXY=           -642.7201  XXZ=          -6333.2285  XZZ=           4260.5510  YZZ=            -72.4641
  YYZ=          -6918.0919  XYZ=           1384.7487
 Hexadecapole moment (field-independent basis, Debye-Ang**3):
 XXXX=        -129103.7363 YYYY=         -37979.7542 ZZZZ=        -328533.2318 XXXY=           8191.5787
 XXXZ=          90208.5082 YYYX=           1698.9504 YYYZ=           8833.0451 ZZZX=          92904.4600
 ZZZY=           8511.7758 XXYY=         -35213.5595 XXZZ=         -73298.0007 YYZZ=         -76590.0730
 XXYZ=         -10595.4147 YYXZ=          39624.0743 ZZXY=          14085.1258
 N-N= 2.107472502471D+04 E-N=-5.925964148416D+04  KE= 6.766024179760D+03
                          Isotropic Fermi Contact Couplings
        Atom                 a.u.       MegaHertz       Gauss      10(-4) cm-1
     1  Cl(35)            -0.12984     -28.46530     -10.15713      -9.49500
     2  C(13)             -0.01642      -9.22990      -3.29346      -3.07876
     3  C(13)              0.02439      13.70720       4.89107       4.57223
     4  C(13)             -0.01608      -9.03696      -3.22461      -3.01440
     5  C(13)              0.01396       7.84443       2.79909       2.61662
     6  C(13)             -0.01866     -10.48622      -3.74174      -3.49783
     7  C(13)              0.01369       7.69296       2.74504       2.56610
     8  H(1)               0.00138       3.09509       1.10440       1.03241
     9  H(1)               0.00137       3.05706       1.09083       1.01972
    10  H(1)              -0.00066      -1.48435      -0.52965      -0.49512
    11  H(1)               0.00151       3.38213       1.20683       1.12816
    12  H(1)              -0.00064      -1.42870      -0.50979      -0.47656
    13  C(13)             -0.04757     -26.73760      -9.54064      -8.91870
    14  C(13)             -0.03858     -21.68676      -7.73837      -7.23392
    15  H(1)               0.00440       9.83216       3.50836       3.27966
    16  H(1)               0.00100       2.23762       0.79844       0.74639
    17  H(1)               0.00092       2.05618       0.73370       0.68587
    18  O(17)             -0.00040       0.12210       0.04357       0.04073
    19  O(17)             -0.00035       0.10755       0.03838       0.03588
    20  O(17)             -0.00146       0.44136       0.15749       0.14722
    21  O(17)             -0.00038       0.11419       0.04075       0.03809
    22  W(183)             0.00000       0.00000       0.00000       0.00000
    23  W(183)             0.00000       0.00000       0.00000       0.00000
    24  W(183)             0.00000       0.00000       0.00000       0.00000
    25  W(183)             0.00000       0.00000       0.00000       0.00000
    26  W(183)             0.00000       0.00000       0.00000       0.00000
    27  W(183)             0.00000       0.00000       0.00000       0.00000
    28  W(183)             0.00000       0.00000       0.00000       0.00000
    29  W(183)             0.00000       0.00000       0.00000       0.00000
    30  O(17)             -0.00020       0.06129       0.02187       0.02044
    31  O(17)             -0.00024       0.07177       0.02561       0.02394
    32  O(17)             -0.00025       0.07684       0.02742       0.02563
    33  O(17)             -0.00023       0.06939       0.02476       0.02315
    34  O(17)             -0.00015       0.04429       0.01580       0.01477
    35  O(17)              0.00004      -0.01321      -0.00471      -0.00441
    36  O(17)              0.00002      -0.00617      -0.00220      -0.00206
    37  O(17)             -0.00007       0.02126       0.00758       0.00709
    38  O(17)              0.00205      -0.62268      -0.22219      -0.20770
    39  O(17)              0.00204      -0.61944      -0.22103      -0.20662
    40  O(17)             -0.01728       5.23858       1.86926       1.74740
    41  O(17)              0.00201      -0.60885      -0.21725      -0.20309
    42  O(17)              0.00020      -0.05990      -0.02138      -0.01998
    43  O(17)              0.00027      -0.08207      -0.02929      -0.02738
    44  O(17)              0.00041      -0.12338      -0.04402      -0.04115
    45  O(17)              0.00020      -0.06126      -0.02186      -0.02043
    46  O(17)              0.00241      -0.73003      -0.26049      -0.24351
    47  O(17)              0.00218      -0.66086      -0.23581      -0.22044
    48  O(17)              0.00084      -0.25364      -0.09051      -0.08461
    49  O(17)              0.00242      -0.73352      -0.26174      -0.24467
    50  W(183)             0.00000       0.00000       0.00000       0.00000
    51  W(183)             0.00000       0.00000       0.00000       0.00000
    52  W(183)             0.00000       0.00000       0.00000       0.00000
    53  W(183)             0.00000       0.00000       0.00000       0.00000
    54  O(17)              0.00024      -0.07147      -0.02550      -0.02384
    55  O(17)              0.00007      -0.02083      -0.00743      -0.00695
    56  O(17)              0.00035      -0.10473      -0.03737      -0.03493
    57  O(17)              0.00010      -0.03011      -0.01074      -0.01004
    58  O(17)              0.00020      -0.06121      -0.02184      -0.02042
    59  O(17)              0.00042      -0.12690      -0.04528      -0.04233
    60  O(17)              0.00054      -0.16240      -0.05795      -0.05417
    61  O(17)              0.00050      -0.15292      -0.05457      -0.05101
    62  O(17)             -0.00031       0.09399       0.03354       0.03135
    63  O(17)             -0.00020       0.06194       0.02210       0.02066
    64  O(17)             -0.00035       0.10561       0.03769       0.03523
    65  O(17)             -0.00037       0.11277       0.04024       0.03761
    66  O(17)             -0.00871       2.63912       0.94170       0.88032
    67  O(17)             -0.00762       2.31087       0.82458       0.77082
    68  O(17)             -0.00782       2.37083       0.84597       0.79083
    69  O(17)             -0.00821       2.48936       0.88826       0.83036
    70  K(39)             -0.00002      -0.00213      -0.00076      -0.00071
    71  K(39)             -0.00002      -0.00209      -0.00074      -0.00070
    72  K(39)             -0.00002      -0.00254      -0.00091      -0.00085
    73  V(51)              0.06674      39.30247      14.02410      13.10989
 --------------------------------------------------------
       Center         ----  Spin Dipole Couplings  ----
                      3XX-RR        3YY-RR        3ZZ-RR
 --------------------------------------------------------
     1   Atom        0.241047     -1.453925      1.212878
     2   Atom       -0.021189     -0.014094      0.035283
     3   Atom        0.013644      0.006649     -0.020293
     4   Atom       -0.022920     -0.014408      0.037328
     5   Atom        0.013915      0.006795     -0.020710
     6   Atom       -0.023001     -0.017269      0.040270
     7   Atom        0.011767      0.006209     -0.017976
     8   Atom       -0.001805     -0.001161      0.002966
     9   Atom       -0.000088      0.000565     -0.000477
    10   Atom        0.001825      0.000699     -0.002525
    11   Atom        0.004163      0.000259     -0.004422
    12   Atom        0.000754     -0.000650     -0.000104
    13   Atom       -0.075416     -0.060969      0.136385
    14   Atom       -0.028419     -0.038067      0.066485
    15   Atom       -0.004576      0.004906     -0.000330
    16   Atom        0.006817      0.003841     -0.010657
    17   Atom       -0.013653      0.005069      0.008585
    18   Atom        0.001406     -0.001370     -0.000036
    19   Atom        0.002039     -0.001964     -0.000075
    20   Atom       -0.002065     -0.000481      0.002546
    21   Atom       -0.000537      0.000562     -0.000025
    22   Atom       -0.002020      0.000659      0.001361
    23   Atom       -0.001803      0.000691      0.001111
    24   Atom       -0.002468      0.001132      0.001337
    25   Atom       -0.002107      0.000664      0.001443
    26   Atom        0.000325     -0.002287      0.001962
    27   Atom        0.000533     -0.002574      0.002042
    28   Atom        0.000941     -0.003239      0.002298
    29   Atom        0.000661     -0.002782      0.002121
    30   Atom       -0.000195      0.000372     -0.000177
    31   Atom       -0.000041      0.000090     -0.000049
    32   Atom       -0.000572      0.000691     -0.000119
    33   Atom       -0.000185      0.000236     -0.000052
    34   Atom        0.000006     -0.001771      0.001765
    35   Atom       -0.000264     -0.002458      0.002722
    36   Atom       -0.002021     -0.000422      0.002442
    37   Atom       -0.001678     -0.000543      0.002221
    38   Atom        0.004968     -0.002496     -0.002472
    39   Atom        0.005283     -0.002694     -0.002590
    40   Atom       -0.012670      0.007938      0.004732
    41   Atom       -0.004927      0.007869     -0.002941
    42   Atom        0.002697     -0.001088     -0.001609
    43   Atom        0.003011     -0.001136     -0.001875
    44   Atom       -0.004622      0.005804     -0.001182
    45   Atom       -0.003282      0.004865     -0.001583
    46   Atom       -0.001048      0.001569     -0.000522
    47   Atom        0.001584     -0.002661      0.001076
    48   Atom        0.006010     -0.007913      0.001903
    49   Atom        0.005821     -0.005324     -0.000497
    50   Atom        0.006116     -0.002779     -0.003337
    51   Atom        0.006527     -0.003238     -0.003290
    52   Atom       -0.002094      0.004493     -0.002399
    53   Atom       -0.001998      0.005413     -0.003415
    54   Atom       -0.003242     -0.001861      0.005103
    55   Atom       -0.002946     -0.002086      0.005032
    56   Atom       -0.001285     -0.004702      0.005987
    57   Atom       -0.001289     -0.003964      0.005253
    58   Atom       -0.004194      0.006605     -0.002410
    59   Atom       -0.004153      0.006923     -0.002770
    60   Atom        0.002656      0.000020     -0.002676
    61   Atom        0.002938     -0.000342     -0.002596
    62   Atom        0.000907      0.000872     -0.001779
    63   Atom        0.001331      0.000081     -0.001412
    64   Atom        0.005315     -0.003881     -0.001434
    65   Atom        0.004903     -0.003082     -0.001821
    66   Atom       -0.029183      0.000876      0.028306
    67   Atom       -0.033181     -0.002471      0.035652
    68   Atom       -0.061936      0.022187      0.039749
    69   Atom       -0.057092      0.027735      0.029356
    70   Atom       -0.000598      0.000574      0.000024
    71   Atom        0.000433     -0.000539      0.000105
    72   Atom        0.000796     -0.001009      0.000213
    73   Atom       -1.009134      0.259030      0.750104
 --------------------------------------------------------
                        XY            XZ            YZ
 --------------------------------------------------------
     1   Atom        2.077196      0.768104     -1.143612
     2   Atom        0.066415      0.028159     -0.025466
     3   Atom       -0.033584     -0.011171      0.016461
     4   Atom        0.064158      0.027788     -0.024978
     5   Atom       -0.033802     -0.015212      0.015105
     6   Atom        0.076062      0.033003     -0.027809
     7   Atom       -0.032835     -0.013399      0.016261
     8   Atom       -0.002753     -0.002219      0.000225
     9   Atom       -0.002404     -0.003978     -0.002925
    10   Atom       -0.000366     -0.001244      0.001166
    11   Atom        0.002021      0.002861      0.006072
    12   Atom       -0.001398      0.000463      0.002560
    13   Atom        0.242244      0.110982     -0.106420
    14   Atom        0.098347      0.048186     -0.044894
    15   Atom       -0.004845     -0.016829     -0.017447
    16   Atom       -0.001055      0.012796      0.006089
    17   Atom       -0.003315     -0.009992     -0.003519
    18   Atom        0.000342     -0.001807      0.000268
    19   Atom        0.000267      0.002154     -0.000631
    20   Atom        0.004039      0.001489     -0.001238
    21   Atom       -0.001243      0.001446     -0.001391
    22   Atom        0.002292     -0.001937     -0.004156
    23   Atom        0.002226      0.002227      0.003901
    24   Atom        0.002397      0.001780      0.004243
    25   Atom        0.002002     -0.001982     -0.004132
    26   Atom       -0.002011     -0.004593      0.002418
    27   Atom       -0.001828      0.004783     -0.002821
    28   Atom       -0.001362     -0.004745      0.002680
    29   Atom       -0.001650      0.004801     -0.002215
    30   Atom        0.000471     -0.000170     -0.000715
    31   Atom        0.000493      0.000733      0.000390
    32   Atom        0.000564     -0.000135      0.000947
    33   Atom        0.000375     -0.000148     -0.000756
    34   Atom        0.000607     -0.002944     -0.000855
    35   Atom        0.000850      0.003757      0.001018
    36   Atom       -0.000201     -0.001696      0.003633
    37   Atom       -0.000557      0.001331     -0.002929
    38   Atom        0.005204      0.004339      0.002293
    39   Atom        0.005397     -0.004241     -0.002508
    40   Atom        0.015229      0.007314     -0.009652
    41   Atom       -0.001493     -0.000362      0.004531
    42   Atom        0.003869     -0.002523     -0.001823
    43   Atom        0.004184      0.002794      0.001784
    44   Atom        0.000462     -0.000127      0.003974
    45   Atom       -0.000469      0.000110     -0.003426
    46   Atom       -0.005241     -0.004493      0.005340
[...]
                                 (Linear)    (Quad)   (Total)
    X1      -18.62588   0.00705   0.00000   0.00698   0.00898 -18.61691
    Y1       14.25850  -0.00919   0.00000  -0.00888  -0.00988  14.24863
    Z1       19.60000  -0.00333   0.00000  -0.00344  -0.00475  19.59525
    X2      -15.70484   0.00189   0.00000   0.00497   0.00642 -15.69842
    Y2        8.04137   0.00040   0.00000   0.00152   0.00050   8.04187
    Z2       23.12978   0.00164   0.00000  -0.00023  -0.00113  23.12865
    X3      -17.14995   0.00292   0.00000  -0.01142  -0.00993 -17.15989
    Y3        7.44701   0.00044   0.00000   0.00545   0.00442   7.45143
    Z3       20.97872  -0.00338   0.00000   0.00652   0.00560  20.98432
    X4      -18.91487  -0.00107   0.00000  -0.00207  -0.00073 -18.91560
    Y4        5.46421  -0.00061   0.00000  -0.00390  -0.00480   5.45941
    Z4       21.15481  -0.00257   0.00000  -0.00639  -0.00727  21.14754
    X5      -19.24476  -0.00142   0.00000  -0.00007   0.00111 -19.24365
    Y5        4.14090  -0.00049   0.00000  -0.00193  -0.00269   4.13821
    Z5       23.39873  -0.00020   0.00000  -0.00636  -0.00718  23.39155
    X6      -17.81182   0.00016   0.00000   0.00429   0.00543 -17.80639
    Y6        4.76761   0.00045   0.00000   0.00179   0.00103   4.76864
    Z6       25.52272  -0.00170   0.00000  -0.00906  -0.00986  25.51286
    X7      -16.03293   0.00110   0.00000   0.00655   0.00783 -16.02510
    Y7        6.71095   0.00192   0.00000   0.00255   0.00166   6.71262
    Z7       25.37417  -0.00018   0.00000  -0.00387  -0.00472  25.36946
    X8      -14.31049  -0.00045   0.00000   0.00068   0.00224 -14.30825
    Y8        9.56321  -0.00069   0.00000   0.00208   0.00096   9.56418
    Z8       23.05241   0.00033   0.00000   0.00118   0.00025  23.05266
    X9      -20.02938   0.00032   0.00000  -0.00343  -0.00206 -20.03144
    Y9        4.96730  -0.00002   0.00000  -0.00101  -0.00191   4.96539
    Z9       19.48469   0.00076   0.00000  -0.00299  -0.00388  19.48081
   X10      -20.62188   0.00056   0.00000   0.00170   0.00277 -20.61911
   Y10        2.60368   0.00072   0.00000   0.00010  -0.00057   2.60312
   Z10       23.49609  -0.00023   0.00000  -0.00419  -0.00498  23.49111
   X11      -18.06412   0.00003   0.00000   0.00416   0.00518 -18.05895
   Y11        3.72946  -0.00031   0.00000   0.00131   0.00066   3.73012
   Z11       27.28595   0.00046   0.00000  -0.00678  -0.00754  27.27841
   X12      -14.89603  -0.00028   0.00000   0.00421   0.00547 -14.89056
   Y12        7.19685   0.00000   0.00000   0.00157   0.00069   7.19753
   Z12       27.02952  -0.00061   0.00000  -0.00427  -0.00509  27.02443
   X13      -16.86742  -0.03729   0.00000  -0.07608  -0.07442 -16.94184
   Y13        8.79023  -0.03452   0.00000   0.04152   0.04036   8.83059
   Z13       18.58261   0.01495   0.00000   0.03649   0.03551  18.61812
   X14      -15.34147   0.02686   0.00000  -0.04968  -0.04786 -15.38934
   Y14       10.73490   0.04872   0.00000   0.11328   0.11199  10.84689
   Z14       18.13106  -0.00782   0.00000   0.02199   0.02096  18.15202
   X15      -18.16322   0.00358   0.00000  -0.01915  -0.01748 -18.18071
   Y15        8.16654   0.00020   0.00000   0.00574   0.00459   8.17113
   Z15       17.08403   0.00069   0.00000   0.01360   0.01261  17.09665
   X16      -15.20555  -0.00108   0.00000  -0.02575  -0.02382 -15.22937
   Y16       11.56372  -0.00283   0.00000   0.05182   0.05043  11.61415
   Z16       16.23577   0.00295   0.00000   0.01036   0.00930  16.24507
   X17      -13.92319  -0.00354   0.00000  -0.02856  -0.02675 -13.94993
   Y17       11.41790  -0.00343   0.00000   0.05135   0.05003  11.46792
   Z17       19.48677  -0.00204   0.00000   0.00847   0.00746  19.49423
   X18       -1.86607   0.00343   0.00000   0.01468   0.01567  -1.85041
   Y18       -3.32897  -0.00057   0.00000  -0.00456  -0.00698  -3.33595
   Z18       14.07242  -0.00057   0.00000  -0.00867  -0.00853  14.06390
   X19      -15.93713  -0.00308   0.00000  -0.00967  -0.00864 -15.94576
   Y19       -2.50550   0.00107   0.00000   0.00211   0.00065  -2.50485
   Z19       14.08560  -0.00085   0.00000  -0.00916  -0.00954  14.07606
   X20      -13.37315  -0.00272   0.00000  -0.00116   0.00003 -13.37313
   Y20        2.56079   0.00399   0.00000   0.01248   0.01114   2.57192
   Z20       19.85146  -0.00028   0.00000   0.00297   0.00242  19.85388
   X21       -4.38927   0.00267   0.00000   0.00872   0.00916  -4.38011
   Y21       -8.25071  -0.00217   0.00000  -0.01256  -0.01451  -8.26522
   Z21       19.98329   0.00100   0.00000   0.01023   0.01054  19.99383
   X22       -6.47135  -0.00383   0.00000   0.01038   0.01175  -6.45960
   Y22        1.41621  -0.02091   0.00000  -0.02159  -0.02378   1.39242
   Z22       12.32542   0.01808   0.00000   0.00797   0.00772  12.33314
   X23      -11.38106   0.00667   0.00000  -0.00906  -0.00829 -11.38935
   Y23       -7.23278   0.02250   0.00000   0.01094   0.00909  -7.22369
   Z23       12.47104   0.02185   0.00000   0.00912   0.00913  12.48017
   X24       -6.88000  -0.01377   0.00000  -0.01493  -0.01385  -6.89385
   Y24        1.75711  -0.02075   0.00000  -0.00356  -0.00526   1.75185
   Z24       21.52095  -0.02152   0.00000  -0.01057  -0.01085  21.51011
   X25      -10.90732   0.01565   0.00000   0.01836   0.01881 -10.88850
   Y25       -7.32237   0.01759   0.00000  -0.00167  -0.00309  -7.32546
   Z25       21.65473  -0.02271   0.00000  -0.00985  -0.00982  21.64491
   X26       -4.67329  -0.01918   0.00000  -0.00100  -0.00005  -4.67334
   Y26       -4.79525   0.01696   0.00000   0.01476   0.01244  -4.78281
   Z26       12.04188   0.02592   0.00000   0.00967   0.00979  12.05167
   X27      -13.12378   0.01565   0.00000   0.00644   0.00764 -13.11614
   Y27       -1.02416  -0.01442   0.00000  -0.02024  -0.02200  -1.04616
   Z27       12.00152   0.01995   0.00000   0.01062   0.01026  12.01179
   X28      -12.89470   0.02698   0.00000   0.02010   0.02101 -12.87369
   Y28       -0.46967  -0.00831   0.00000   0.00552   0.00424  -0.46543
   Z28       21.92736  -0.02596   0.00000  -0.00994  -0.01032  21.91704
   X29       -4.87711  -0.02475   0.00000  -0.01504  -0.01444  -4.89156
   Y29       -5.08897   0.00465   0.00000  -0.01151  -0.01333  -5.10230
   Z29       21.98291  -0.02553   0.00000  -0.00909  -0.00896  21.97394
   X30       -6.06358   0.00134   0.00000  -0.00814  -0.00655  -6.07013
   Y30        3.67346   0.00774   0.00000   0.00104  -0.00129   3.67217
   Z30       10.11831  -0.00729   0.00000  -0.00020  -0.00055  10.11776
   X31      -11.59296  -0.00099   0.00000   0.01175   0.01243 -11.58053
   Y31       -9.60102  -0.01026   0.00000  -0.00683  -0.00877  -9.60979
   Z31       10.33075  -0.00925   0.00000  -0.00933  -0.00921  10.32154
   X32       -5.12030   0.00773   0.00000   0.01301   0.01412  -5.10618
   Y32        3.32848   0.00718   0.00000  -0.00890  -0.01062   3.31786
   Z32       23.68167   0.00950   0.00000   0.00728   0.00698  23.68864
   X33      -12.65136  -0.00790   0.00000  -0.00973  -0.00945 -12.66081
   Y33       -8.82869  -0.00680   0.00000   0.00448   0.00329  -8.82540
   Z33       23.87338   0.00988   0.00000   0.00838   0.00843  23.88181
   X34       -5.07529   0.00118   0.00000   0.00953   0.01074  -5.06455
   Y34       -1.62669   0.00120   0.00000   0.00239   0.00002  -1.62668
   Z34       10.55581  -0.00367   0.00000  -0.01416  -0.01421  10.54160
   X35      -12.71226  -0.00170   0.00000  -0.00937  -0.00834 -12.72060
   Y35       -4.30170   0.00033   0.00000  -0.00586  -0.00771  -4.30941
   Z35       10.63260  -0.00376   0.00000  -0.01307  -0.01325  10.61936
   X36      -10.06742  -0.00096   0.00000   0.00028   0.00125 -10.06617
   Y36        1.09812   0.00158   0.00000   0.00998   0.00859   1.10671
   Z36       23.37679   0.00382   0.00000   0.01186   0.01150  23.38830
   X37       -7.68369   0.00029   0.00000   0.00155   0.00198  -7.68171
   Y37       -6.65572  -0.00145   0.00000  -0.01281  -0.01436  -6.67008
   Z37       23.46582   0.00394   0.00000   0.01266   0.01277  23.47859
   X38        0.54612   0.01575   0.00000   0.00582   0.00691   0.55303
   Y38       -0.00931   0.00526   0.00000   0.00851   0.00610  -0.00320
   Z38       17.54507   0.00467   0.00000   0.01317   0.01323  17.55830
   X39      -18.35017  -0.01563   0.00000  -0.00294  -0.00225 -18.35242
   Y39       -5.69610  -0.00506   0.00000  -0.01137  -0.01248  -5.70858
   Z39       17.66246   0.00475   0.00000   0.01377   0.01347  17.67593
   X40      -12.18650  -0.00584   0.00000   0.00543   0.00701 -12.17949
   Y40        6.44824   0.01864   0.00000   0.00681   0.00521   6.45345
   Z40       16.37594  -0.00457   0.00000  -0.01845  -0.01915  16.35679
   X41       -5.61212   0.00466   0.00000  -0.00655  -0.00626  -5.61838
   Y41      -12.17406  -0.01482   0.00000  -0.01252  -0.01456 -12.18862
   Z41       16.51157  -0.00409   0.00000  -0.01234  -0.01188  16.49969
   X42       -3.39808   0.00186   0.00000   0.01286   0.01417  -3.38391
   Y42        1.48259   0.00344   0.00000   0.00326   0.00095   1.48354
   Z42       14.14617  -0.00176   0.00000  -0.01062  -0.01077  14.13540
   X43      -14.41804  -0.00285   0.00000  -0.01380  -0.01309 -14.43114
   Y43       -7.32352  -0.00285   0.00000  -0.00950  -0.01105  -7.33457
   Z43       14.28266  -0.00090   0.00000  -0.00813  -0.00821  14.27444
   X44       -8.60109  -0.00062   0.00000   0.00069   0.00200  -8.59909
   Y44        4.22967   0.00437   0.00000   0.01371   0.01204   4.24171
   Z44       19.71001  -0.00019   0.00000  -0.00000  -0.00047  19.70954
   X45       -9.17844  -0.00128   0.00000   0.00218   0.00251  -9.17593
   Y45       -9.87079  -0.00377   0.00000  -0.01724  -0.01887  -9.88966
   Z45       19.89437   0.00152   0.00000   0.00850   0.00872  19.90309
   X46       -3.12460   0.00812   0.00000   0.00272   0.00362  -3.12098
   Y46       -6.57147  -0.00932   0.00000  -0.01948  -0.02202  -6.59348
   Z46        9.88025  -0.01156   0.00000  -0.00281  -0.00255   9.87770
   X47      -14.76966  -0.00570   0.00000   0.01064   0.01203 -14.75763
   Y47        0.50051   0.00536   0.00000   0.00732   0.00556   0.50607
   Z47        9.74070  -0.00791   0.00000  -0.00225  -0.00274   9.73796
   X48      -15.18019  -0.01306   0.00000  -0.01357  -0.01272 -15.19291
   Y48       -0.34561   0.00093   0.00000  -0.00773  -0.00873  -0.35434
   Z48       24.15127   0.01273   0.00000   0.00094   0.00048  24.15175
   X49       -2.54380   0.01214   0.00000   0.01414   0.01464  -2.52916
   Y49       -5.27195  -0.00090   0.00000   0.00529   0.00342  -5.26853
   Z49       24.16224   0.01151   0.00000   0.00354   0.00376  24.16600
   X50       -2.36946  -0.03479   0.00000  -0.01173  -0.01068  -2.38014
   Y50       -1.00650  -0.01132   0.00000  -0.01079  -0.01304  -1.01955
   Z50       16.69527  -0.00639   0.00000  -0.01633  -0.01633  16.67895
   X51      -15.43897   0.03502   0.00000   0.01518   0.01597 -15.42300
   Y51       -4.71329   0.00874   0.00000   0.00313   0.00177  -4.71152
   Z51       16.77881  -0.00727   0.00000  -0.01789  -0.01814  16.76067
   X52      -11.27683   0.01482   0.00000   0.01412   0.01546 -11.26137
   Y52        3.50683  -0.03735   0.00000  -0.02002  -0.02164   3.48519
   Z52       17.11999   0.00666   0.00000   0.01162   0.01111  17.13110
   X53       -6.52165  -0.01170   0.00000  -0.00217  -0.00171  -6.52335
   Y53       -9.21886   0.03291   0.00000   0.01114   0.00920  -9.20966
   Z53       17.33290   0.00570   0.00000   0.01627   0.01655  17.34945
   X54       -8.01820   0.00139   0.00000  -0.00110  -0.00020  -8.01840
   Y54       -5.80332  -0.00384   0.00000   0.00543   0.00330  -5.80002
   Z54       11.50963  -0.00484   0.00000   0.00373   0.00378  11.51341
   X55       -9.77033  -0.00167   0.00000   0.00344   0.00474  -9.76559
   Y55       -0.10199   0.00392   0.00000  -0.01027  -0.01228  -0.11427
   Z55       11.41253  -0.00437   0.00000   0.00234   0.00205  11.41458
   X56      -11.65138  -0.00477   0.00000   0.00831   0.00897 -11.64241
   Y56       -3.76092   0.00024   0.00000   0.00247   0.00114  -3.75978
   Z56       22.49519   0.00491   0.00000  -0.00277  -0.00294  22.49226
   X57       -6.07713   0.00402   0.00000  -0.00604  -0.00524  -6.08237
   Y57       -1.81193   0.00175   0.00000  -0.00460  -0.00630  -1.81823
   Z57       22.50788   0.00463   0.00000  -0.00414  -0.00422  22.50366
   X58       -8.31329  -0.00167   0.00000   0.00635   0.00773  -8.30556
   Y58        2.99988   0.00585   0.00000  -0.00990  -0.01183   2.98804
   Z58       14.86850  -0.00214   0.00000   0.00302   0.00263  14.87113
   X59       -9.46993  -0.00033   0.00000  -0.00489  -0.00432  -9.47424
   Y59       -8.77841  -0.00527   0.00000   0.00351   0.00166  -8.77676
   Z59       15.02429  -0.00388   0.00000   0.00398   0.00413  15.02843
   X60       -4.47405   0.00390   0.00000  -0.00734  -0.00622  -4.48026
   Y60        1.11139   0.00379   0.00000  -0.00256  -0.00455   1.10684
   Z60       19.01080   0.00396   0.00000  -0.00505  -0.00522  19.00558
   X61      -13.31279  -0.00457   0.00000   0.00914   0.00971 -13.30308
   Y61       -6.79254  -0.00301   0.00000  -0.00238  -0.00377  -6.79631
   Z61       19.12502   0.00349   0.00000  -0.00565  -0.00572  19.11930
   X62       -4.86144   0.00237   0.00000  -0.00056   0.00012  -4.86132
   Y62       -7.29368  -0.00451   0.00000   0.00422   0.00204  -7.29163
   Z62       14.87449  -0.00229   0.00000   0.00811   0.00834  14.88283
   X63      -12.96141  -0.00161   0.00000   0.01016   0.01145 -12.94997
   Y63        1.48102   0.00581   0.00000  -0.00753  -0.00915   1.47187
   Z63       14.76276  -0.00052   0.00000   0.00879   0.00832  14.77108
   X64      -14.82266  -0.00499   0.00000   0.01075   0.01163 -14.81102
   Y64       -2.19302  -0.00004   0.00000   0.00179   0.00052  -2.19250
   Z64       19.18348   0.00279   0.00000  -0.00857  -0.00892  19.17456
   X65       -2.98216   0.00529   0.00000  -0.00486  -0.00406  -2.98622
   Y65       -3.48586   0.00103   0.00000  -0.00651  -0.00859  -3.49445
   Z65       19.16648   0.00213   0.00000  -0.00770  -0.00759  19.15889
   X66       -6.40266   0.05450   0.00000   0.08875   0.08978  -6.31288
   Y66       -2.15338   0.01281   0.00000   0.01388   0.01182  -2.14156
   Z66       15.17538  -0.03745   0.00000  -0.05506  -0.05513  15.12026
   X67      -11.39792  -0.05655   0.00000  -0.08312  -0.08220 -11.48013
   Y67       -3.65275  -0.01460   0.00000  -0.02833  -0.03004  -3.68279
   Z67       15.22310  -0.03734   0.00000  -0.05713  -0.05730  15.16580
   X68       -9.73629  -0.02154   0.00000  -0.03089  -0.02986  -9.76615
   Y68       -0.38206   0.05479   0.00000   0.07708   0.07544  -0.30662
   Z68       18.77199   0.03812   0.00000   0.05962   0.05934  18.83133
   X69       -8.01722   0.02114   0.00000   0.03516   0.03584  -7.98139
   Y69       -5.30873  -0.05105   0.00000  -0.08144  -0.08319  -5.39192
   Z69       18.83709   0.03737   0.00000   0.05638   0.05641  18.89350
   X70       -6.13446  -0.00008   0.00000  -0.00252  -0.00199  -6.13645
   Y70      -11.47353   0.00010   0.00000   0.00356   0.00127 -11.47226
   Z70       10.77275   0.00011   0.00000   0.00530   0.00571  10.77845
   X71       -0.37032  -0.00011   0.00000  -0.00598  -0.00508  -0.37540
   Y71        0.03449   0.00001   0.00000  -0.00437  -0.00643   0.02806
   Z71       23.27167  -0.00008   0.00000  -0.00527  -0.00524  23.26643
   X72      -17.42138   0.00001   0.00000   0.00851   0.00903 -17.41235
   Y72       -5.51658  -0.00005   0.00000   0.00030  -0.00059  -5.51717
   Z72       23.37292   0.00007   0.00000  -0.00531  -0.00558  23.36734
   X73       -8.89413   0.00233   0.00000   0.00432   0.00524  -8.88889
   Y73       -2.86747  -0.00190   0.00000  -0.00577  -0.00756  -2.87503
   Z73       16.99868   0.00017   0.00000   0.00057   0.00045  16.99913
         Item               Value     Threshold  Converged?
 Maximum Force            0.056546     0.000450     NO 
 RMS     Force            0.014035     0.000300     NO 
 Maximum Displacement     0.111993     0.001800     NO 
 RMS     Displacement     0.020302     0.001200     NO 
 Predicted change in Energy=-2.332087D-02
 GradGradGradGradGradGradGradGradGradGradGradGradGradGradGradGradGradGrad

 Unable to Open any file for archive entry.
 1\1\GINC-X11P1N2\Force\UwB97XD\def2SVP\C8H8Cl1K3O40V1W12(1-)\MAYUMIAO\
 01-Jun-2024\0\\# def2svp wb97xd scrf=(smd,solvent=acetonitrile) g09def
 ault scf=(xqc,maxcycle=64) force guess=read nosymm\\Title Card\\-1,1\C
 l,-9.85639142,7.54527583,10.37187295\C,-8.31064284,4.25531139,12.23975
 296\C,-9.0753645,3.9407884,11.10145846\C,-10.00932051,2.89153638,11.19
 464412\C,-10.18388741,2.19127047,12.38207683\C,-9.42560869,2.52291179,
 13.50604044\C,-8.48426358,3.55128418,13.42743368\H,-7.57278682,5.06063
 432,12.19880879\H,-10.59909272,2.62858198,10.31085123\H,-10.91262791,1
 .37780936,12.43359514\H,-9.55912282,1.97354571,14.43910105\H,-7.882638
 36,3.80840678,14.30340749\C,-8.92585467,4.65159008,9.83349302\C,-8.118
 3579,5.68066479,9.59454223\H,-9.61156362,4.32154645,9.04048185\H,-8.04
 642936,6.11925793,8.59160129\H,-7.36783309,6.04209096,10.31195401\O,-0
 .98748407,-1.76161255,7.44680626\O,-8.43356395,-1.32585325,7.45377955\
 O,-7.07676882,1.35510925,10.5049409\O,-2.32270344,-4.36608707,10.57470
 226\W,-3.42449004,0.74942418,6.52233032\W,-6.02259526,-3.82742163,6.59
 938886\W,-3.64073736,0.92982387,11.38839821\W,-5.77190258,-3.8748313,1
 1.45919035\W,-2.47299871,-2.53753549,6.3722877\W,-6.94480693,-0.541963
 51,6.35093229\W,-6.8235791,-0.24853915,11.60345875\W,-2.58085621,-2.69
 296665,11.63285327\O,-3.20871074,1.94390908,5.35438061\O,-6.13473062,-
 5.08064017,5.46679763\O,-2.70954439,1.76135571,12.53179798\O,-6.694809
 57,-4.67194232,12.6332498\O,-2.68572892,-0.86080931,5.58589502\O,-6.72
 703909,-2.27636033,5.62653178\O,-5.32744899,0.58110126,12.37046522\O,-
 4.06603357,-3.52205458,12.41757777\O,0.28899283,-0.00492429,9.28445197
 \O,-9.71049357,-3.0142479,9.34656879\O,-6.44881566,3.41226279,8.665772
 88\O,-2.96980648,-6.4422327,8.73754748\O,-1.79818561,0.7845547,7.48583
 191\O,-7.62969831,-3.8754411,7.55805568\O,-4.55150232,2.2382473,10.430
 08632\O,-4.85702206,-5.22339887,10.52764748\O,-1.65346844,-3.47747109,
 5.22840217\O,-7.81576653,0.26485856,5.15455518\O,-8.0330096,-0.1828911
 7,12.78030095\O,-1.34612274,-2.78979458,12.78610716\W,-1.2538651,-0.53
 261819,8.8347581\W,-8.16995158,-2.49416467,8.87896411\W,-5.96744336,1.
 85573594,9.05950995\W,-3.45110723,-4.87840998,9.17217648\O,-4.24305069
 ,-3.07098703,6.09063123\O,-5.17023333,-0.05397319,6.03924987\O,-6.1656
 4553,-1.99019317,11.90394368\O,-3.21588024,-0.95883131,11.91065484\O,-
 4.39920584,1.58746675,7.86807051\O,-5.01127004,-4.64533706,7.95051395\
 O,-2.36756359,0.58812005,10.06008143\O,-7.04482719,-3.59445995,10.1205
 2608\O,-2.57256416,-3.85964841,7.87123861\O,-6.85888486,0.78372465,7.8
 1211755\O,-7.84381246,-1.16049373,10.15146294\O,-1.57809063,-1.8446388
 7,10.14246522\O,-3.38814103,-1.13951784,8.03046591\O,-6.03152061,-1.93
 295333,8.05571642\O,-5.15222277,-0.20217922,9.9337072\O,-4.2425316,-2.
 80925864,9.96815765\K,-3.24621633,-6.07153106,5.70069153\K,-0.19596302
 ,0.01824939,12.31483829\K,-9.21899946,-2.9192475,12.36841677\V,-4.7065
 7029,-1.51739713,8.99531159\\Version=ES64L-G16RevC.01\HF=-7327.7023998
 \S2=1.019535\S2-1=0.\S2A=0.15699\RMSD=4.657e-10\RMSF=1.403e-02\Dipole=
 1.7940389,-6.8686429,5.4637138\Quadrupole=-20.7637487,45.7381455,-24.9
 743968,93.9141395,142.2035379,-64.8452442\PG=C01 [X(C8H8Cl1K3O40V1W12)
 ]\\@
 The archive entry for this job was punched.


 IN THE FIGHT BETWEEN YOU AND THE WORLD, BACK THE WORLD

                                        -- FRANZ KAFKA
 Job cpu time:       0 days 23 hours  0 minutes 18.0 seconds.
 Elapsed time:       0 days  0 hours 26 minutes 15.9 seconds.
 File lengths (MBytes):  RWF=   1848 Int=      0 D2E=      0 Chk=    306 Scr=      1
 Normal termination of Gaussian 16 at Sat Jun  1 12:38:18 2024.
