 Entering Gaussian System, Link 0=g16
 Input=JOBS/51_A.gjf
 Output=JOBS/51_A.log
 Initial command:
 /data/app/gaussian/C01-avx2//g16/l1.exe "/tmp/Gau-677073.inp" -scrdir="/tmp/"
 Entering Link 1 = /data/app/gaussian/C01-avx2//g16/l1.exe PID=    677074.
  
 Copyright (c) 1988-2019, Gaussian, Inc.  All Rights Reserved.
  
 This is part of the Gaussian(R) 16 program.  It is based on
 the Gaussian(R) 09 system (copyright 2009, Gaussian, Inc.),
 the Gaussian(R) 03 system (copyright 2003, Gaussian, Inc.),
 the Gaussian(R) 98 system (copyright 1998, Gaussian, Inc.),
 the Gaussian(R) 94 system (copyright 1995, Gaussian, Inc.),
 the Gaussian 92(TM) system (copyright 1992, Gaussian, Inc.),
 the Gaussian 90(TM) system (copyright 1990, Gaussian, Inc.),
 the Gaussian 88(TM) system (copyright 1988, Gaussian, Inc.),
 the Gaussian 86(TM) system (copyright 1986, Carnegie Mellon
 University), and the Gaussian 82(TM) system (copyright 1983,
 Carnegie Mellon University). Gaussian is a federally registered
 trademark of Gaussian, Inc.
  
 This software contains proprietary and confidential information,
 including trade secrets, belonging to Gaussian, Inc.
  
 This software is provided under written license and may be
 used, copied, transmitted, or stored only in accord with that
 written license.
  
 The following legend is applicable only to US Government
 contracts under FAR:
  
                    RESTRICTED RIGHTS LEGEND
  
 Use, reproduction and disclosure by the US Government is
 subject to restrictions as set forth in subparagraphs (a)
 and (c) of the Commercial Computer Software - Restricted
 Rights clause in FAR 52.227-19.
  
 Gaussian, Inc.
 340 Quinnipiac St., Bldg. 40, Wallingford CT 06492
  
  
 ---------------------------------------------------------------
 Warning -- This program may not be used in any manner that
 competes with the business of Gaussian, Inc. or will provide
 assistance to any competitor of Gaussian, Inc.  The licensee
 of this program is prohibited from giving any competitor of
 Gaussian, Inc. access to this program.  By using this program,
 the user acknowledges that Gaussian, Inc. is engaged in the
 business of creating and licensing software in the field of
 computational chemistry and represents and warrants to the
 licensee that it is not a competitor of Gaussian, Inc. and that
 it will not use this program in any manner prohibited above.
 ---------------------------------------------------------------
  

 Cite this work as:
 Gaussian 16, Revision C.01,
 M. J. Frisch, G. W. Trucks, H. B. Schlegel, G. E. Scuseria, 
 M. A. Robb, J. R. Cheeseman, G. Scalmani, V. Barone, 
 G. A. Petersson, H. Nakatsuji, X. Li, M. Caricato, A. V. Marenich, 
 J. Bloino, B. G. Janesko, R. Gomperts, B. Mennucci, H. P. Hratchian, 
 J. V. Ortiz, A. F. Izmaylov, J. L. Sonnenberg, D. Williams-Young, 
 F. Ding, F. Lipparini, F. Egidi, J. Goings, B. Peng, A. Petrone, 
 T. Henderson, D. Ranasinghe, V. G. Zakrzewski, J. Gao, N. Rega, 
 G. Zheng, W. Liang, M. Hada, M. Ehara, K. Toyota, R. Fukuda, 
 J. Hasegawa, M. Ishida, T. Nakajima, Y. Honda, O. Kitao, H. Nakai, 
 T. Vreven, K. Throssell, J. A. Montgomery, Jr., J. E. Peralta, 
 F. Ogliaro, M. J. Bearpark, J. J. Heyd, E. N. Brothers, K. N. Kudin, 
 V. N. Staroverov, T. A. Keith, R. Kobayashi, J. Normand, 
 K. Raghavachari, A. P. Rendell, J. C. Burant, S. S. Iyengar, 
 J. Tomasi, M. Cossi, J. M. Millam, M. Klene, C. Adamo, R. Cammi, 
 J. W. Ochterski, R. L. Martin, K. Morokuma, O. Farkas, 
 J. B. Foresman, and D. J. Fox, Gaussian, Inc., Wallingford CT, 2019.
 
 ******************************************
 Gaussian 16:  ES64L-G16RevC.01  3-Jul-2019
                 2-Jun-2024 
 ******************************************
 %chk=a.chk
 %nprocshared=56
 Will use up to   56 processors via shared memory.
 %mem=96gb
 ----------------------------------------------------------------------
 # def2svp wb97xd scrf=(smd,solvent=acetonitrile) g09default scf=(xqc,m
 axcycle=64) force guess=read nosymm
 ----------------------------------------------------------------------
 1/10=7,30=1,38=1,158=3,167=1/1,3;
 2/12=2,15=1,17=6,18=5,40=1/2;
 3/5=43,7=101,11=2,25=1,27=10,30=1,70=32201,71=1,72=2,74=-58,75=-4,116=-2,158=3/1,2,3;
 4/5=1,60=-1/1;
 5/5=2,7=64,8=3,13=1,38=6,53=2,87=10/2,8;
 6/7=2,8=2,9=2,10=2,28=1,87=10/1;
 7/29=1,30=1,87=10/1,2,3,16;
 1/10=7,30=1,158=3,167=1/3;
 99//99;
 Using 2006 physical constants.
 ----------
 Title Card
 ----------
 Symbolic Z-matrix:
 Charge = -1 Multiplicity = 1
 17                   -9.6532    8.2761    10.54725 
 6                    -8.34337   4.24866   12.21496 
 6                    -9.13905   3.93132   11.098 
 6                    -10.05086   2.86546   11.21508 
 6                    -10.2054   2.18079   12.41577 
 6                    -9.43868   2.53567   13.52662 
 6                    -8.49418   3.5586    13.41442 
 1                    -7.59399   5.04041   12.14498 
 1                    -10.65123   2.58281   10.3458 
 1                    -10.92536   1.3618    12.48522 
 1                    -9.56494   2.00594   14.47343 
 1                    -7.87037   3.82068   14.27268 
 6                    -9.07674   4.6726    9.8371 
 6                    -8.40989   5.82495   9.6157 
 1                    -9.65868   4.2403    9.01536 
 1                    -8.41986   6.28614   8.62667 
 1                    -7.78787   6.30544   10.37039 
 8                    -0.97524  -1.80147   7.46616 
 8                    -8.39047  -1.33284   7.4618 
 8                    -7.02038   1.34744   10.47289 
 8                    -2.33439  -4.39767   10.55485 
 74                   -3.40127   0.68997   6.47671 
 74                   -5.98891  -3.81972   6.55797 
 74                   -3.61035   0.86875   11.41738 
 74                   -5.76127  -3.8646    11.4827 
 74                   -2.42924  -2.59273   6.40292 
 74                   -6.93762  -0.5341    6.37081 
 74                   -6.81625  -0.25016   11.56068 
 74                   -2.54292  -2.73892   11.60264 
 8                    -3.16678   1.87135   5.29422 
 8                    -6.12213  -5.07062   5.41625 
 8                    -2.68184   1.70916   12.56661 
 8                    -6.6811   -4.66451   12.66531 
 8                    -2.65774  -0.91734   5.58869 
 8                    -6.70039  -2.26844   5.62042 
 8                    -5.30654   0.55001   12.35942 
 8                    -4.0496   -3.53344   12.40757 
 8                     0.31318  -0.01788   9.27934 
 8                    -9.69105  -3.04259   9.32657 
 8                    -6.34387   3.43001   8.66433 
 8                    -3.01142  -6.49456   8.74371 
 8                    -1.77896   0.74566   7.47306 
 8                    -7.59702  -3.88334   7.54107 
 8                    -4.48987   2.19521   10.42623 
 8                    -4.87306  -5.2333    10.53024 
 8                    -1.59983  -3.53583   5.25632 
 8                    -7.81465   0.27823   5.17858 
 8                    -8.03888  -0.16661   12.73707 
 8                    -1.30609  -2.85976   12.76133 
 74                   -1.24514  -0.53496   8.83798 
 74                   -8.13168  -2.53996   8.87401 
 74                   -5.86906   1.85794   9.04325 
 74                   -3.49516  -4.92013   9.16404 
 8                    -4.21104  -3.11358   6.07336 
 8                    -5.14918  -0.06326   6.01759 
 8                    -6.16754  -1.99897   11.9082 
 8                    -3.17171  -0.99105   11.92013 
 8                    -4.35068   1.57934   7.83257 
 8                    -5.00779  -4.68287   7.92421 
 8                    -2.32053   0.56365   10.07731 
 8                    -7.04439  -3.61532   10.13005 
 8                    -2.56941  -3.91015   7.86894 
 8                    -6.80687   0.79412   7.80265 
 8                    -7.82239  -1.17762   10.13944 
 8                    -1.55532  -1.87323   10.13933 
 8                    -3.35361  -1.16038   8.01093 
 8                    -6.01611  -1.96062   8.03382 
 8                    -5.1134   -0.21021   9.94282 
 8                    -4.23596  -2.84939   9.97537 
 19                   -3.21287  -6.13325   5.64689 
 19                   -0.11338   0.04685   12.33168 
 19                   -9.28409  -2.82645   12.42864 
 23                   -4.68183  -1.54195   8.9894 
 

 GradGradGradGradGradGradGradGradGradGradGradGradGradGradGradGradGradGrad
 Berny optimization.
 Initialization pass.
 Trust Radius=3.00D-01 FncErr=1.00D-07 GrdErr=1.00D-07 EigMax=2.50D+02 EigMin=1.00D-04
 Number of steps in this run=      2 maximum allowed number of steps=      2.
 GradGradGradGradGradGradGradGradGradGradGradGradGradGradGradGradGradGrad

 Symmetry turned off by external request.
 Stoichiometry    C8H8ClK3O40VW12(1-)
 Framework group  C1[X(C8H8ClK3O40VW12)]
 Deg. of freedom   213
 Full point group                 C1      NOp   1
                          Input orientation:                          
 ---------------------------------------------------------------------
 Center     Atomic      Atomic             Coordinates (Angstroms)
 Number     Number       Type             X           Y           Z
 ---------------------------------------------------------------------
      1         17           0       -9.653199    8.276103   10.547248
      2          6           0       -8.343372    4.248664   12.214963
      3          6           0       -9.139048    3.931319   11.098000
      4          6           0      -10.050859    2.865461   11.215076
      5          6           0      -10.205400    2.180795   12.415771
      6          6           0       -9.438675    2.535667   13.526620
      7          6           0       -8.494183    3.558598   13.414419
      8          1           0       -7.593992    5.040414   12.144978
      9          1           0      -10.651233    2.582809   10.345799
     10          1           0      -10.925364    1.361795   12.485219
     11          1           0       -9.564935    2.005940   14.473430
     12          1           0       -7.870365    3.820681   14.272679
     13          6           0       -9.076739    4.672596    9.837099
     14          6           0       -8.409885    5.824946    9.615703
     15          1           0       -9.658684    4.240299    9.015363
     16          1           0       -8.419856    6.286139    8.626672
     17          1           0       -7.787866    6.305436   10.370392
     18          8           0       -0.975239   -1.801465    7.466162
     19          8           0       -8.390470   -1.332838    7.461803
     20          8           0       -7.020377    1.347438   10.472892
     21          8           0       -2.334390   -4.397672   10.554855
     22         74           0       -3.401269    0.689973    6.476707
     23         74           0       -5.988912   -3.819721    6.557972
     24         74           0       -3.610350    0.868749   11.417375
     25         74           0       -5.761273   -3.864596   11.482698
     26         74           0       -2.429236   -2.592729    6.402925
     27         74           0       -6.937618   -0.534103    6.370808
     28         74           0       -6.816251   -0.250157   11.560677
     29         74           0       -2.542921   -2.738919   11.602636
     30          8           0       -3.166784    1.871349    5.294218
     31          8           0       -6.122135   -5.070623    5.416253
     32          8           0       -2.681838    1.709165   12.566611
     33          8           0       -6.681098   -4.664509   12.665310
     34          8           0       -2.657744   -0.917340    5.588693
     35          8           0       -6.700388   -2.268443    5.620419
     36          8           0       -5.306544    0.550007   12.359419
     37          8           0       -4.049598   -3.533440   12.407568
     38          8           0        0.313177   -0.017882    9.279335
     39          8           0       -9.691052   -3.042591    9.326574
     40          8           0       -6.343868    3.430006    8.664334
     41          8           0       -3.011421   -6.494556    8.743709
     42          8           0       -1.778962    0.745658    7.473056
     43          8           0       -7.597017   -3.883335    7.541069
     44          8           0       -4.489871    2.195206   10.426232
     45          8           0       -4.873064   -5.233296   10.530236
     46          8           0       -1.599833   -3.535832    5.256316
     47          8           0       -7.814652    0.278230    5.178575
     48          8           0       -8.038880   -0.166613   12.737067
     49          8           0       -1.306085   -2.859762   12.761331
     50         74           0       -1.245145   -0.534963    8.837977
     51         74           0       -8.131683   -2.539959    8.874011
     52         74           0       -5.869065    1.857944    9.043253
     53         74           0       -3.495164   -4.920126    9.164040
     54          8           0       -4.211044   -3.113582    6.073361
     55          8           0       -5.149176   -0.063258    6.017590
     56          8           0       -6.167540   -1.998969   11.908198
     57          8           0       -3.171715   -0.991046   11.920131
     58          8           0       -4.350678    1.579341    7.832572
     59          8           0       -5.007791   -4.682872    7.924205
     60          8           0       -2.320526    0.563652   10.077310
     61          8           0       -7.044390   -3.615322   10.130051
     62          8           0       -2.569406   -3.910154    7.868938
     63          8           0       -6.806874    0.794124    7.802653
     64          8           0       -7.822389   -1.177622   10.139438
     65          8           0       -1.555322   -1.873229   10.139334
     66          8           0       -3.353613   -1.160378    8.010934
     67          8           0       -6.016110   -1.960617    8.033820
     68          8           0       -5.113399   -0.210206    9.942815
     69          8           0       -4.235960   -2.849390    9.975372
     70         19           0       -3.212869   -6.133248    5.646885
     71         19           0       -0.113383    0.046852   12.331685
     72         19           0       -9.284089   -2.826447   12.428644
     73         23           0       -4.681828   -1.541954    8.989395
 ---------------------------------------------------------------------
 Rotational constants (GHZ):           0.0172151           0.0132207           0.0129970
 Standard basis: def2SVP (5D, 7F)
  1217 basis functions,  2313 primitive gaussians,  1337 cartesian basis functions
   321 alpha electrons      321 beta electrons
       nuclear repulsion energy     20976.3852859187 Hartrees.
 NAtoms=   73 NActive=   73 NUniq=   73 SFac= 1.00D+00 NAtFMM=   60 NAOKFM=T Big=T
 Integral buffers will be    131072 words long.
 Raffenetti 2 integral format.
 Two-electron integral symmetry is turned off.
 Nuclear repulsion after empirical dispersion term =    20976.1088369488 Hartrees.
 Force PCM accuracy= 1.00D-10.
 ------------------------------------------------------------------------------
 Polarizable Continuum Model (PCM)
 =================================
 Model                : PCM (using non-symmetric T matrix).
 Atomic radii         : SMD-Coulomb.
 Polarization charges : Total charges.
 Charge compensation  : None.
 Solution method      : On-the-fly selection.
 Cavity type          : VdW (van der Waals Surface) (Alpha=1.000).
 Cavity algorithm     : GePol (No added spheres)
                        Default sphere list used, NSphG=   73.
                        Lebedev-Laikov grids with approx.  5.0 points / Ang**2.
                        Smoothing algorithm: York/Karplus (Gamma=1.0000).
                        Polarization charges: spherical gaussians, with
                                              point-specific exponents (IZeta= 3).
                        Self-potential: point-specific (ISelfS= 7).
                        Self-field    : sphere-specific E.n sum rule (ISelfD= 2).
 1st derivatives      : Analytical E(r).r(x)/FMM algorithm (CHGder, D1EAlg=3).
                        Cavity 1st derivative terms included.
 Solvent              : Acetonitrile, Eps=  35.688000 Eps(inf)=   1.806874
 ------------------------------------------------------------------------------
 ------------------------------------------------------------------------------
 Atomic radii for non-electrostatic terms: SMD-CDS.
 ------------------------------------------------------------------------------
 Nuclear repulsion after PCM non-electrostatic terms =    20976.1031330708 Hartrees.
 One-electron integrals computed using PRISM.
   1 Symmetry operations used in ECPInt.
 ECPInt:  NShTT=  127765 NPrTT=  468030 LenC2=   96530 LenP2D=  220886.
 LDataN:  DoStor=T MaxTD1= 8 Len=  415
 NBasis=  1217 RedAO= T EigKep=  1.38D-04  NBF=  1217
 NBsUse=  1217 1.00D-06 EigRej= -1.00D+00 NBFU=  1217
 Defaulting to unpruned grid for atomic number  74.
 Defaulting to unpruned grid for atomic number  74.
 Defaulting to unpruned grid for atomic number  74.
 Defaulting to unpruned grid for atomic number  74.
 Defaulting to unpruned grid for atomic number  74.
 Defaulting to unpruned grid for atomic number  74.
 Defaulting to unpruned grid for atomic number  74.
 Defaulting to unpruned grid for atomic number  74.
 Initial guess from the checkpoint file:  "a.chk"
 B after Tr=     0.000942   -0.000744    0.000156
         Rot=    1.000000   -0.000005    0.000010    0.000030 Ang=  -0.00 deg.
 Requested convergence on RMS density matrix=1.00D-08 within  64 cycles.
 Requested convergence on MAX density matrix=1.00D-06.
 Requested convergence on             energy=1.00D-06.
 No special actions if energy rises.
 Defaulting to unpruned grid for atomic number  74.
 Defaulting to unpruned grid for atomic number  74.
 Defaulting to unpruned grid for atomic number  74.
 Defaulting to unpruned grid for atomic number  74.
 Defaulting to unpruned grid for atomic number  74.
 Defaulting to unpruned grid for atomic number  74.
 Defaulting to unpruned grid for atomic number  74.
 Defaulting to unpruned grid for atomic number  74.
 Defaulting to unpruned grid for atomic number  74.
 Defaulting to unpruned grid for atomic number  74.
 Defaulting to unpruned grid for atomic number  74.
 Defaulting to unpruned grid for atomic number  74.
 Defaulting to unpruned grid for atomic number  74.
 Defaulting to unpruned grid for atomic number  74.
 Defaulting to unpruned grid for atomic number  74.
 Defaulting to unpruned grid for atomic number  74.
 Defaulting to unpruned grid for atomic number  74.
 Defaulting to unpruned grid for atomic number  74.
 Defaulting to unpruned grid for atomic number  74.
 Defaulting to unpruned grid for atomic number  74.
 Defaulting to unpruned grid for atomic number  74.
 Defaulting to unpruned grid for atomic number  74.
 Defaulting to unpruned grid for atomic number  74.
 Defaulting to unpruned grid for atomic number  74.
 Defaulting to unpruned grid for atomic number  74.
 Defaulting to unpruned grid for atomic number  74.
 Defaulting to unpruned grid for atomic number  74.
 Defaulting to unpruned grid for atomic number  74.
 Defaulting to unpruned grid for atomic number  74.
 Defaulting to unpruned grid for atomic number  74.
 Defaulting to unpruned grid for atomic number  74.
 Defaulting to unpruned grid for atomic number  74.
 Defaulting to unpruned grid for atomic number  74.
 Defaulting to unpruned grid for atomic number  74.
 Defaulting to unpruned grid for atomic number  74.
 Defaulting to unpruned grid for atomic number  74.
 Defaulting to unpruned grid for atomic number  74.
 Defaulting to unpruned grid for atomic number  74.
 Defaulting to unpruned grid for atomic number  74.
 Defaulting to unpruned grid for atomic number  74.
 Defaulting to unpruned grid for atomic number  74.
 Defaulting to unpruned grid for atomic number  74.
 Defaulting to unpruned grid for atomic number  74.
 Defaulting to unpruned grid for atomic number  74.
 Defaulting to unpruned grid for atomic number  74.
 Defaulting to unpruned grid for atomic number  74.
 Defaulting to unpruned grid for atomic number  74.
 Defaulting to unpruned grid for atomic number  74.
 Defaulting to unpruned grid for atomic number  74.
 Defaulting to unpruned grid for atomic number  74.
 Defaulting to unpruned grid for atomic number  74.
 Defaulting to unpruned grid for atomic number  74.
 Defaulting to unpruned grid for atomic number  74.
 Defaulting to unpruned grid for atomic number  74.
 Defaulting to unpruned grid for atomic number  74.
 Defaulting to unpruned grid for atomic number  74.
 Inv3:  Mode=1 IEnd=    87382827.
 Iteration    1 A*A^-1 deviation from unit magnitude is 4.33D-15 for   1979.
 Iteration    1 A*A^-1 deviation from orthogonality  is 2.92D-15 for    736    136.
 Iteration    1 A^-1*A deviation from unit magnitude is 3.44D-15 for   4721.
 Iteration    1 A^-1*A deviation from orthogonality  is 2.66D-10 for    924    901.
 Iteration    2 A*A^-1 deviation from unit magnitude is 4.66D-15 for   4144.
 Iteration    2 A*A^-1 deviation from orthogonality  is 4.58D-15 for    970    722.
 Iteration    2 A^-1*A deviation from unit magnitude is 1.33D-15 for   4708.
 Iteration    2 A^-1*A deviation from orthogonality  is 6.56D-16 for   4146   4076.
 Error on total polarization charges =  0.01612
 SCF Done:  E(RwB97XD) =  -7327.70179150     A.U. after   10 cycles
            NFock= 10  Conv=0.47D-08     -V/T= 2.0832
 SMD-CDS (non-electrostatic) energy       (kcal/mol) =      -3.58
 (included in total energy above)
 QCSCF skips out because SCF is already converged.

 **********************************************************************

            Population analysis using the SCF Density.

 **********************************************************************

 Alpha  occ. eigenvalues -- -197.29511-130.00091-130.00084-129.99976-101.48316
 Alpha  occ. eigenvalues --  -22.62628 -19.33652 -19.33645 -19.33643 -19.33619
 Alpha  occ. eigenvalues --  -19.30728 -19.30686 -19.30685 -19.30683 -19.30672
 Alpha  occ. eigenvalues --  -19.30667 -19.30666 -19.30633 -19.30556 -19.30373
 Alpha  occ. eigenvalues --  -19.30346 -19.30182 -19.29319 -19.29310 -19.29300
 Alpha  occ. eigenvalues --  -19.29276 -19.29268 -19.29255 -19.29223 -19.29199
 Alpha  occ. eigenvalues --  -19.29195 -19.29171 -19.29170 -19.29146 -19.29130
 Alpha  occ. eigenvalues --  -19.29099 -19.29090 -19.29081 -19.29079 -19.29055
 Alpha  occ. eigenvalues --  -19.29055 -19.29002 -19.28985 -19.28965 -19.28931
 Alpha  occ. eigenvalues --  -19.28855 -19.11585 -19.11577 -19.11568 -13.37496
 Alpha  occ. eigenvalues --  -13.37487 -13.37374 -10.70425 -10.70418 -10.70417
 Alpha  occ. eigenvalues --  -10.70416 -10.70410 -10.70409 -10.70304 -10.70298
 Alpha  occ. eigenvalues --  -10.70292 -10.29858 -10.29346 -10.29286 -10.29064
 Alpha  occ. eigenvalues --  -10.28976 -10.28965 -10.28095 -10.27540  -9.38790
 Alpha  occ. eigenvalues --   -7.13616  -7.13568  -7.13560  -3.23323  -3.23318
 Alpha  occ. eigenvalues --   -3.23308  -3.23299  -3.23294  -3.23281  -3.23266
 Alpha  occ. eigenvalues --   -3.23260  -3.23229  -3.22984  -3.22971  -3.22790
 Alpha  occ. eigenvalues --   -2.91851  -1.94228  -1.94193  -1.94182  -1.87722
 Alpha  occ. eigenvalues --   -1.87677  -1.87662  -1.87633  -1.87490  -1.87473
 Alpha  occ. eigenvalues --   -1.87469  -1.87453  -1.87429  -1.87283  -1.87252
 Alpha  occ. eigenvalues --   -1.87103  -1.86630  -1.86512  -1.86502  -1.86486
 Alpha  occ. eigenvalues --   -1.86460  -1.86439  -1.86346  -1.86337  -1.86319
 Alpha  occ. eigenvalues --   -1.86300  -1.86294  -1.86265  -1.86151  -1.86138
 Alpha  occ. eigenvalues --   -1.86127  -1.86118  -1.86047  -1.86032  -1.85993
 Alpha  occ. eigenvalues --   -1.85926  -1.85910  -1.85810  -1.85720  -1.85672
 Alpha  occ. eigenvalues --   -1.51183  -1.51178  -1.51072  -1.13074  -1.11305
 Alpha  occ. eigenvalues --   -1.11223  -1.11218  -1.08970  -1.08533  -1.08491
 Alpha  occ. eigenvalues --   -1.08319  -1.07570  -1.07513  -1.07500  -1.06900
 Alpha  occ. eigenvalues --   -1.06892  -1.06873  -1.06328  -1.06310  -1.05315
 Alpha  occ. eigenvalues --   -1.05306  -1.04980  -1.04976  -1.04968  -1.04192
 Alpha  occ. eigenvalues --   -1.04182  -1.04171  -1.04027  -1.04008  -1.03996
 Alpha  occ. eigenvalues --   -1.03940  -1.03916  -1.03897  -1.03764  -1.03738
 Alpha  occ. eigenvalues --   -1.03617  -1.03552  -1.03305  -1.03263  -1.03118
 Alpha  occ. eigenvalues --   -1.03105  -1.03025  -1.02963  -0.94368  -0.86653
 Alpha  occ. eigenvalues --   -0.86647  -0.86549  -0.86490  -0.86462  -0.86454
 Alpha  occ. eigenvalues --   -0.86451  -0.86446  -0.86361  -0.86323  -0.82806
 Alpha  occ. eigenvalues --   -0.79755  -0.71562  -0.69668  -0.68008  -0.64618
 Alpha  occ. eigenvalues --   -0.63993  -0.63915  -0.63905  -0.63329  -0.63310
 Alpha  occ. eigenvalues --   -0.63181  -0.62939  -0.62692  -0.62607  -0.62012
 Alpha  occ. eigenvalues --   -0.61629  -0.61618  -0.61521  -0.61259  -0.61248
 Alpha  occ. eigenvalues --   -0.61178  -0.60417  -0.59490  -0.59473  -0.59458
 Alpha  occ. eigenvalues --   -0.59421  -0.59372  -0.58571  -0.58003  -0.57975
 Alpha  occ. eigenvalues --   -0.57883  -0.57078  -0.57040  -0.57011  -0.56298
 Alpha  occ. eigenvalues --   -0.56278  -0.56123  -0.55703  -0.54861  -0.54810
 Alpha  occ. eigenvalues --   -0.54771  -0.54522  -0.54243  -0.54111  -0.54096
 Alpha  occ. eigenvalues --   -0.54019  -0.53961  -0.53237  -0.53198  -0.53070
 Alpha  occ. eigenvalues --   -0.53037  -0.52905  -0.52705  -0.52669  -0.52639
 Alpha  occ. eigenvalues --   -0.52598  -0.52512  -0.52468  -0.52441  -0.51611
 Alpha  occ. eigenvalues --   -0.51590  -0.51328  -0.51308  -0.51265  -0.51226
 Alpha  occ. eigenvalues --   -0.51171  -0.51164  -0.50932  -0.50764  -0.50587
 Alpha  occ. eigenvalues --   -0.50570  -0.50563  -0.49874  -0.49864  -0.49299
 Alpha  occ. eigenvalues --   -0.49279  -0.49249  -0.49217  -0.49162  -0.49075
 Alpha  occ. eigenvalues --   -0.48898  -0.48080  -0.48029  -0.47926  -0.47690
 Alpha  occ. eigenvalues --   -0.47387  -0.47288  -0.47247  -0.46998  -0.46929
 Alpha  occ. eigenvalues --   -0.46812  -0.46552  -0.46490  -0.46477  -0.46191
 Alpha  occ. eigenvalues --   -0.46142  -0.46106  -0.45590  -0.45102  -0.44919
 Alpha  occ. eigenvalues --   -0.44876  -0.44214  -0.44144  -0.44034  -0.43510
 Alpha  occ. eigenvalues --   -0.43278  -0.43226  -0.43114  -0.43099  -0.43067
 Alpha  occ. eigenvalues --   -0.42702  -0.42679  -0.42656  -0.42589  -0.42579
 Alpha  occ. eigenvalues --   -0.42496  -0.42462  -0.42441  -0.42285  -0.42268
 Alpha  occ. eigenvalues --   -0.42251  -0.42025  -0.41914  -0.41857  -0.41838
 Alpha  occ. eigenvalues --   -0.41168  -0.41157  -0.41131  -0.41014  -0.40545
 Alpha  occ. eigenvalues --   -0.40516  -0.40497  -0.40383  -0.39444  -0.39431
 Alpha  occ. eigenvalues --   -0.36976  -0.32542  -0.29160  -0.25101  -0.25076
 Alpha  occ. eigenvalues --   -0.23562
 Alpha virt. eigenvalues --   -0.09515  -0.09289  -0.08542  -0.08480  -0.07064
 Alpha virt. eigenvalues --   -0.07038  -0.06942  -0.04524  -0.04190  -0.04147
 Alpha virt. eigenvalues --   -0.03722  -0.03501  -0.03453  -0.03253  -0.03151
 Alpha virt. eigenvalues --   -0.03113  -0.03084  -0.02222  -0.02171  -0.02135
 Alpha virt. eigenvalues --   -0.01521  -0.01504  -0.01458  -0.01310  -0.01251
 Alpha virt. eigenvalues --   -0.00108  -0.00093  -0.00031   0.01396   0.01455
 Alpha virt. eigenvalues --    0.01904   0.01928   0.02026   0.02124   0.02163
 Alpha virt. eigenvalues --    0.02180   0.02244   0.02288   0.02763   0.02832
 Alpha virt. eigenvalues --    0.02896   0.02972   0.03006   0.04384   0.04520
 Alpha virt. eigenvalues --    0.06754   0.07277   0.07526   0.07544   0.07803
 Alpha virt. eigenvalues --    0.08017   0.08479   0.08531   0.08795   0.09155
 Alpha virt. eigenvalues --    0.09341   0.09386   0.09664   0.09888   0.10260
 Alpha virt. eigenvalues --    0.10333   0.10380   0.10445   0.10483   0.10642
 Alpha virt. eigenvalues --    0.10894   0.11050   0.11060   0.11641   0.11724
 Alpha virt. eigenvalues --    0.12215   0.13119   0.13235   0.13322   0.13591
 Alpha virt. eigenvalues --    0.13752   0.14447   0.14550   0.14678   0.14994
 Alpha virt. eigenvalues --    0.15558   0.16154   0.16337   0.16579   0.16754
 Alpha virt. eigenvalues --    0.16772   0.16904   0.17084   0.17250   0.17717
 Alpha virt. eigenvalues --    0.17908   0.18164   0.18226   0.18370   0.18577
 Alpha virt. eigenvalues --    0.18749   0.19061   0.19308   0.19414   0.19576
 Alpha virt. eigenvalues --    0.19657   0.20194   0.20280   0.20497   0.20587
 Alpha virt. eigenvalues --    0.20760   0.20884   0.20990   0.21373   0.21421
 Alpha virt. eigenvalues --    0.21536   0.21629   0.21730   0.21871   0.22032
 Alpha virt. eigenvalues --    0.22444   0.22734   0.22918   0.23130   0.23219
 Alpha virt. eigenvalues --    0.23471   0.23790   0.23985   0.24280   0.24582
 Alpha virt. eigenvalues --    0.24740   0.25212   0.25424   0.25654   0.25860
 Alpha virt. eigenvalues --    0.26009   0.26210   0.26420   0.26606   0.26657
 Alpha virt. eigenvalues --    0.26966   0.27222   0.27353   0.27444   0.27754
 Alpha virt. eigenvalues --    0.28024   0.28274   0.28326   0.28664   0.28743
 Alpha virt. eigenvalues --    0.29172   0.29477   0.29888   0.30255   0.30505
 Alpha virt. eigenvalues --    0.30719   0.30909   0.31256   0.31489   0.31837
 Alpha virt. eigenvalues --    0.32308   0.34751   0.35206   0.35759   0.36316
 Alpha virt. eigenvalues --    0.36662   0.36923   0.37265   0.38106   0.38393
 Alpha virt. eigenvalues --    0.38645   0.39190   0.39523   0.39637   0.40222
 Alpha virt. eigenvalues --    0.40703   0.40849   0.40971   0.41119   0.41746
 Alpha virt. eigenvalues --    0.42127   0.42478   0.42810   0.43293   0.43550
 Alpha virt. eigenvalues --    0.43705   0.44511   0.44771   0.44899   0.45274
 Alpha virt. eigenvalues --    0.45787   0.46333   0.46545   0.46690   0.47348
 Alpha virt. eigenvalues --    0.47400   0.47646   0.47857   0.48086   0.48222
 Alpha virt. eigenvalues --    0.48425   0.48459   0.48585   0.48698   0.48989
 Alpha virt. eigenvalues --    0.49154   0.49403   0.49451   0.49778   0.49842
 Alpha virt. eigenvalues --    0.50180   0.50535   0.50667   0.50714   0.50978
 Alpha virt. eigenvalues --    0.51616   0.51706   0.51851   0.52209   0.52424
 Alpha virt. eigenvalues --    0.52665   0.52893   0.53016   0.53143   0.53313
 Alpha virt. eigenvalues --    0.53659   0.54034   0.54284   0.54352   0.54517
 Alpha virt. eigenvalues --    0.54939   0.55392   0.55644   0.56353   0.56433
 Alpha virt. eigenvalues --    0.56839   0.57398   0.57783   0.58025   0.58288
 Alpha virt. eigenvalues --    0.58568   0.59074   0.59442   0.60136   0.60760
 Alpha virt. eigenvalues --    0.61346   0.62271   0.62576   0.62768   0.63201
 Alpha virt. eigenvalues --    0.64101   0.65264   0.65673   0.65707   0.65928
 Alpha virt. eigenvalues --    0.66106   0.66554   0.66993   0.67366   0.67423
 Alpha virt. eigenvalues --    0.67818   0.68331   0.69646   0.70234   0.71085
 Alpha virt. eigenvalues --    0.71393   0.71881   0.72127   0.72188   0.72251
 Alpha virt. eigenvalues --    0.72544   0.72695   0.73238   0.73387   0.73968
 Alpha virt. eigenvalues --    0.74599   0.74836   0.75534   0.75657   0.75860
 Alpha virt. eigenvalues --    0.76166   0.76781   0.76891   0.77180   0.77462
 Alpha virt. eigenvalues --    0.77925   0.78454   0.79043   0.79476   0.79722
 Alpha virt. eigenvalues --    0.80271   0.80472   0.80619   0.80711   0.81492
 Alpha virt. eigenvalues --    0.81522   0.81814   0.82012   0.82519   0.83164
 Alpha virt. eigenvalues --    0.84005   0.84222   0.84766   0.85357   0.85826
 Alpha virt. eigenvalues --    0.87188   0.87546   0.87960   0.88049   0.88740
 Alpha virt. eigenvalues --    0.88864   0.89019   0.89486   0.89650   0.90234
 Alpha virt. eigenvalues --    0.90716   0.90962   0.91223   0.91485   0.91737
 Alpha virt. eigenvalues --    0.92853   0.93038   0.93554   0.93887   0.94052
 Alpha virt. eigenvalues --    0.94194   0.94775   0.95659   0.95911   0.96537
 Alpha virt. eigenvalues --    0.96822   0.97055   0.97282   0.97696   0.97792
 Alpha virt. eigenvalues --    0.98129   0.98290   0.98402   0.98541   0.98779
 Alpha virt. eigenvalues --    0.98907   0.99440   0.99915   1.00405   1.00606
 Alpha virt. eigenvalues --    1.00887   1.01279   1.01581   1.01683   1.01767
 Alpha virt. eigenvalues --    1.02120   1.02232   1.02438   1.02453   1.02644
 Alpha virt. eigenvalues --    1.02910   1.03455   1.03531   1.03679   1.03827
 Alpha virt. eigenvalues --    1.04111   1.04191   1.04365   1.04619   1.04684
 Alpha virt. eigenvalues --    1.04964   1.05084   1.05209   1.05408   1.05793
 Alpha virt. eigenvalues --    1.05927   1.06345   1.06438   1.06983   1.07135
 Alpha virt. eigenvalues --    1.07522   1.07817   1.08610   1.09063   1.09269
 Alpha virt. eigenvalues --    1.09419   1.09852   1.09899   1.10126   1.10223
 Alpha virt. eigenvalues --    1.10740   1.10848   1.10961   1.11026   1.11276
 Alpha virt. eigenvalues --    1.11481   1.11669   1.11752   1.12084   1.12483
 Alpha virt. eigenvalues --    1.12804   1.13448   1.13625   1.14144   1.14801
 Alpha virt. eigenvalues --    1.15277   1.15773   1.16086   1.16278   1.16620
 Alpha virt. eigenvalues --    1.17045   1.17652   1.17848   1.18607   1.18666
 Alpha virt. eigenvalues --    1.19434   1.20608   1.20956   1.21169   1.21317
 Alpha virt. eigenvalues --    1.21481   1.21922   1.22164   1.22989   1.23528
 Alpha virt. eigenvalues --    1.25109   1.26073   1.26503   1.26729   1.27093
 Alpha virt. eigenvalues --    1.27561   1.28001   1.28327   1.28524   1.28597
 Alpha virt. eigenvalues --    1.28781   1.29150   1.29164   1.29417   1.29696
 Alpha virt. eigenvalues --    1.30125   1.30240   1.30383   1.30780   1.30843
 Alpha virt. eigenvalues --    1.31226   1.32204   1.32498   1.33007   1.33197
 Alpha virt. eigenvalues --    1.33264   1.33457   1.33640   1.33899   1.34042
 Alpha virt. eigenvalues --    1.34305   1.34362   1.34571   1.34812   1.34908
 Alpha virt. eigenvalues --    1.34928   1.35244   1.35583   1.35782   1.36092
 Alpha virt. eigenvalues --    1.36157   1.36594   1.36753   1.36855   1.36999
 Alpha virt. eigenvalues --    1.37126   1.37306   1.37599   1.37916   1.37920
 Alpha virt. eigenvalues --    1.38187   1.38507   1.38712   1.38949   1.39058
 Alpha virt. eigenvalues --    1.39348   1.39516   1.39598   1.39776   1.40188
 Alpha virt. eigenvalues --    1.40307   1.40451   1.40532   1.40709   1.40945
 Alpha virt. eigenvalues --    1.41098   1.41216   1.41434   1.41896   1.41962
 Alpha virt. eigenvalues --    1.42593   1.43036   1.43303   1.43463   1.43502
 Alpha virt. eigenvalues --    1.43922   1.44289   1.44570   1.44729   1.45673
 Alpha virt. eigenvalues --    1.46343   1.47170   1.47586   1.47708   1.48107
 Alpha virt. eigenvalues --    1.48247   1.48677   1.49186   1.49582   1.49884
 Alpha virt. eigenvalues --    1.50502   1.51011   1.51314   1.51921   1.53328
 Alpha virt. eigenvalues --    1.53732   1.55340   1.55788   1.55794   1.56021
 Alpha virt. eigenvalues --    1.56180   1.56345   1.56658   1.56770   1.57139
 Alpha virt. eigenvalues --    1.57184   1.58023   1.58245   1.59229   1.59342
 Alpha virt. eigenvalues --    1.59853   1.60246   1.60349   1.60470   1.60544
 Alpha virt. eigenvalues --    1.60694   1.61205   1.61892   1.62217   1.62396
 Alpha virt. eigenvalues --    1.64021   1.64445   1.65130   1.65746   1.66763
 Alpha virt. eigenvalues --    1.67473   1.67916   1.69895   1.70509   1.70858
 Alpha virt. eigenvalues --    1.71276   1.71640   1.72324   1.73175   1.74154
 Alpha virt. eigenvalues --    1.75284   1.75451   1.75572   1.75946   1.76789
 Alpha virt. eigenvalues --    1.76951   1.76998   1.77618   1.77865   1.78715
 Alpha virt. eigenvalues --    1.78894   1.79386   1.79968   1.80484   1.80747
 Alpha virt. eigenvalues --    1.81161   1.81276   1.82088   1.82231   1.82925
 Alpha virt. eigenvalues --    1.82995   1.83252   1.83955   1.84188   1.84534
 Alpha virt. eigenvalues --    1.85194   1.85488   1.85747   1.86127   1.86332
 Alpha virt. eigenvalues --    1.86540   1.87149   1.87433   1.88169   1.88671
 Alpha virt. eigenvalues --    1.89370   1.89920   1.90160   1.90336   1.90368
 Alpha virt. eigenvalues --    1.90755   1.90954   1.91296   1.92349   1.93239
 Alpha virt. eigenvalues --    1.94878   1.95308   1.95504   1.95712   1.96034
 Alpha virt. eigenvalues --    1.98091   1.99280   1.99483   1.99551   2.04136
 Alpha virt. eigenvalues --    2.06257   2.07331   2.08161   2.08575   2.08734
 Alpha virt. eigenvalues --    2.09066   2.09117   2.09545   2.10198   2.11064
 Alpha virt. eigenvalues --    2.11533   2.11994   2.12762   2.14763   2.15578
 Alpha virt. eigenvalues --    2.15989   2.16857   2.17265   2.17486   2.17794
 Alpha virt. eigenvalues --    2.19986   2.20392   2.20474   2.20702   2.20875
 Alpha virt. eigenvalues --    2.21160   2.22235   2.24349   2.25346   2.26102
 Alpha virt. eigenvalues --    2.26433   2.26828   2.27396   2.28501   2.28961
 Alpha virt. eigenvalues --    2.29175   2.29907   2.30431   2.33453   2.35699
 Alpha virt. eigenvalues --    2.36727   2.40293   2.41001   2.41077   2.43633
 Alpha virt. eigenvalues --    2.44252   2.50357   2.51553   2.57232   2.64717
 Alpha virt. eigenvalues --    2.64780   2.64914   2.65428   2.65960   2.66598
 Alpha virt. eigenvalues --    2.66752   2.66823   2.66938   2.66953   2.67052
 Alpha virt. eigenvalues --    2.67096   2.67157   2.67326   2.67351   2.67412
 Alpha virt. eigenvalues --    2.67641   2.67681   2.67784   2.67832   2.67891
 Alpha virt. eigenvalues --    2.68577   2.68902   2.69226   2.69378   2.69997
 Alpha virt. eigenvalues --    2.70187   2.70296   2.70651   2.70723   2.70830
 Alpha virt. eigenvalues --    2.70996   2.71367   2.71423   2.71523   2.71589
 Alpha virt. eigenvalues --    2.71651   2.71909   2.72702   2.72934   2.72975
 Alpha virt. eigenvalues --    2.73120   2.73209   2.73255   2.73337   2.73373
 Alpha virt. eigenvalues --    2.73500   2.73764   2.73881   2.73905   2.73988
 Alpha virt. eigenvalues --    2.74051   2.74147   2.74316   2.74524   2.74694
 Alpha virt. eigenvalues --    2.74756   2.74903   2.75040   2.75551   2.75951
 Alpha virt. eigenvalues --    2.76153   2.76309   2.76455   2.76707   2.76895
 Alpha virt. eigenvalues --    2.77081   2.77201   2.77203   2.78439   2.78586
 Alpha virt. eigenvalues --    2.78628   2.78912   2.79782   2.80063   2.80154
 Alpha virt. eigenvalues --    2.81099   2.81822   2.81840   2.82135   2.82316
 Alpha virt. eigenvalues --    2.82361   2.82701   2.83086   2.83253   2.83646
 Alpha virt. eigenvalues --    2.83770   2.83918   2.83996   2.84244   2.85096
 Alpha virt. eigenvalues --    2.85543   2.86117   2.86183   2.86303   2.86350
 Alpha virt. eigenvalues --    2.86607   2.86801   2.86920   2.88264   2.88556
 Alpha virt. eigenvalues --    2.88694   2.89106   2.89676   2.89750   2.89836
 Alpha virt. eigenvalues --    2.89919   2.90024   2.90100   2.90592   2.90670
 Alpha virt. eigenvalues --    2.90785   2.91755   2.91897   2.92063   2.92086
 Alpha virt. eigenvalues --    2.92269   2.92511   2.92770   2.92904   2.93049
 Alpha virt. eigenvalues --    2.93358   2.93492   2.93667   2.93980   2.94122
 Alpha virt. eigenvalues --    2.94185   2.94997   2.95171   2.95378   2.95726
 Alpha virt. eigenvalues --    2.95809   2.95831   2.96369   2.96572   2.96633
 Alpha virt. eigenvalues --    2.96727   2.96914   2.96959   2.97186   2.97393
 Alpha virt. eigenvalues --    2.97579   2.97726   2.97922   2.98287   2.99150
 Alpha virt. eigenvalues --    2.99293   2.99402   2.99633   2.99699   3.00025
 Alpha virt. eigenvalues --    3.00091   3.00388   3.00999   3.01333   3.01360
 Alpha virt. eigenvalues --    3.02683   3.03078   3.03328   3.03671   3.05211
 Alpha virt. eigenvalues --    3.06557   3.06770   3.07204   3.11025   3.11668
 Alpha virt. eigenvalues --    3.11800   3.11928   3.12213   3.12699   3.13733
 Alpha virt. eigenvalues --    3.13865   3.14034   3.16735   3.19717   3.21821
 Alpha virt. eigenvalues --    3.21867   3.23904   3.32609   3.41233   3.41612
 Alpha virt. eigenvalues --    3.42242   3.43273   3.45001   3.45022   3.45964
 Alpha virt. eigenvalues --    3.46359   3.46441   3.47252   3.47548   3.47899
 Alpha virt. eigenvalues --    3.48082   3.51226   3.51851   3.52443   3.53611
 Alpha virt. eigenvalues --    3.53937   3.54356   3.54677   3.54785   3.55001
 Alpha virt. eigenvalues --    3.55261   3.55403   3.55606   3.56718   3.57500
 Alpha virt. eigenvalues --    3.57688   3.58582   3.59510   3.59640   3.60358
 Alpha virt. eigenvalues --    3.60645   3.61275   3.61547   3.62146   3.62432
 Alpha virt. eigenvalues --    3.69419   3.74739  68.64108  68.65264  68.66236
 Alpha virt. eigenvalues --   68.68324  68.72524  68.73560  68.81671  68.82642
 Alpha virt. eigenvalues --   68.83402  68.85547  68.86729  68.88066 576.22549
 Alpha virt. eigenvalues --  576.23679 576.24631 576.26674 576.30878 576.31902
 Alpha virt. eigenvalues --  576.39864 576.40812 576.41551 576.43602 576.44754
 Alpha virt. eigenvalues --  576.46083
          Condensed to atoms (all electrons):
 Mulliken charges:
               1
     1  Cl  -0.896154
     2  C   -0.079529
     3  C    0.048409
     4  C   -0.078784
     5  C   -0.033800
     6  C   -0.033814
     7  C   -0.049884
     8  H    0.030507
     9  H    0.029486
    10  H    0.041185
    11  H    0.036977
    12  H    0.040045
    13  C   -0.123127
    14  C    0.022215
    15  H    0.021435
    16  H    0.037449
    17  H    0.024543
    18  O   -0.663962
    19  O   -0.663796
    20  O   -0.655457
    21  O   -0.664343
    22  W    1.736098
    23  W    1.678268
    24  W    1.688120
    25  W    1.698424
    26  W    1.678121
    27  W    1.729962
    28  W    1.621731
    29  W    1.689317
    30  O   -0.320072
    31  O   -0.365741
    32  O   -0.367864
    33  O   -0.360446
    34  O   -0.665456
    35  O   -0.671564
    36  O   -0.661985
    37  O   -0.665021
    38  O   -0.368271
    39  O   -0.365002
    40  O   -0.297341
    41  O   -0.365270
    42  O   -0.670899
    43  O   -0.664385
    44  O   -0.661748
    45  O   -0.666220
    46  O   -0.368911
    47  O   -0.320488
    48  O   -0.362405
    49  O   -0.362228
    50  W    1.676257
    51  W    1.682042
    52  W    1.685422
    53  W    1.688022
    54  O   -0.726285
    55  O   -0.709400
    56  O   -0.726736
    57  O   -0.724201
    58  O   -0.707365
    59  O   -0.728101
    60  O   -0.726204
    61  O   -0.722101
    62  O   -0.725815
    63  O   -0.708697
    64  O   -0.725424
    65  O   -0.727199
    66  O   -0.802812
    67  O   -0.801984
    68  O   -0.798798
    69  O   -0.810396
    70  K    0.863205
    71  K    0.863244
    72  K    0.860344
    73  V    1.194656
 Sum of Mulliken charges =  -1.00000
 Mulliken charges with hydrogens summed into heavy atoms:
               1
     1  Cl  -0.896154
     2  C   -0.049022
     3  C    0.048409
     4  C   -0.049298
     5  C    0.007386
     6  C    0.003163
     7  C   -0.009839
    13  C   -0.101692
    14  C    0.084207
    18  O   -0.663962
    19  O   -0.663796
    20  O   -0.655457
    21  O   -0.664343
    22  W    1.736098
    23  W    1.678268
    24  W    1.688120
    25  W    1.698424
    26  W    1.678121
    27  W    1.729962
    28  W    1.621731
    29  W    1.689317
    30  O   -0.320072
    31  O   -0.365741
    32  O   -0.367864
    33  O   -0.360446
    34  O   -0.665456
    35  O   -0.671564
    36  O   -0.661985
    37  O   -0.665021
    38  O   -0.368271
    39  O   -0.365002
    40  O   -0.297341
    41  O   -0.365270
    42  O   -0.670899
    43  O   -0.664385
    44  O   -0.661748
    45  O   -0.666220
    46  O   -0.368911
    47  O   -0.320488
    48  O   -0.362405
    49  O   -0.362228
    50  W    1.676257
    51  W    1.682042
    52  W    1.685422
    53  W    1.688022
    54  O   -0.726285
    55  O   -0.709400
    56  O   -0.726736
    57  O   -0.724201
    58  O   -0.707365
    59  O   -0.728101
    60  O   -0.726204
    61  O   -0.722101
    62  O   -0.725815
    63  O   -0.708697
    64  O   -0.725424
    65  O   -0.727199
    66  O   -0.802812
    67  O   -0.801984
    68  O   -0.798798
    69  O   -0.810396
    70  K    0.863205
    71  K    0.863244
    72  K    0.860344
    73  V    1.194656
 Electronic spatial extent (au):  <R**2>=         317293.5192
 Charge=             -1.0000 electrons
 Dipole moment (field-independent basis, Debye):
    X=             50.3449    Y=            -51.2165    Z=            -38.7234  Tot=             81.5920
 Quadrupole moment (field-independent basis, Debye-Ang):
   XX=          -1042.1256   YY=           -890.1844   ZZ=           -914.7676
   XY=            447.9173   XZ=            450.6141   YZ=           -477.9768
 Traceless Quadrupole moment (field-independent basis, Debye-Ang):
   XX=            -93.0998   YY=             58.8415   ZZ=             34.2583
   XY=            447.9173   XZ=            450.6141   YZ=           -477.9768
 Octapole moment (field-independent basis, Debye-Ang**2):
  XXX=          13212.1286  YYY=          -1095.7102  ZZZ=         -19144.4983  XYY=           6057.9816
  XXY=          -3546.3857  XXZ=          -9289.1368  XZZ=           7254.3813  YZZ=          -4176.1708
  YYZ=          -9060.2324  XYZ=           4736.4411
 Hexadecapole moment (field-independent basis, Debye-Ang**3):
 XXXX=        -155939.8464 YYYY=         -54208.8855 ZZZZ=        -346280.0363 XXXY=          35479.1603
 XXXZ=         120489.4969 YYYX=          20809.3820 YYYZ=         -13095.4694 ZZZX=         126635.3607
 ZZZY=         -35674.9051 XXYY=         -55251.7802 XXZZ=        -106361.2796 YYZZ=        -100048.0447
 XXYZ=         -41187.8119 YYXZ=          61412.9872 ZZXY=          49776.3465
 N-N= 2.097610313307D+04 E-N=-5.903653413140D+04  KE= 6.765128646192D+03
   1 Symmetry operations used in ECPInt.
 ECPInt:  NShTT=  127765 NPrTT=  468030 LenC2=   96530 LenP2D=  220886.
 LDataN:  DoStor=T MaxTD1= 9 Len=  602
 D1PCM: PCM CHGder 1st derivatives, ID1Alg=3 FixD1E=F DoIter=F DoCFld=F I1PDM=0.
 Calling FoFJK, ICntrl=      2127 FMM=T ISym2X=0 I1Cent= 0 IOpClX= 0 NMat=1 NMatS=1 NMatT=0.
 Defaulting to unpruned grid for atomic number  74.
 Defaulting to unpruned grid for atomic number  74.
 Defaulting to unpruned grid for atomic number  74.
 Defaulting to unpruned grid for atomic number  74.
 Defaulting to unpruned grid for atomic number  74.
 Defaulting to unpruned grid for atomic number  74.
 Defaulting to unpruned grid for atomic number  74.
 Defaulting to unpruned grid for atomic number  74.
 Defaulting to unpruned grid for atomic number  74.
 Defaulting to unpruned grid for atomic number  74.
 Defaulting to unpruned grid for atomic number  74.
 Defaulting to unpruned grid for atomic number  74.
 Defaulting to unpruned grid for atomic number  74.
 Defaulting to unpruned grid for atomic number  74.
 Defaulting to unpruned grid for atomic number  74.
 Defaulting to unpruned grid for atomic number  74.
 Defaulting to unpruned grid for atomic number  74.
 Defaulting to unpruned grid for atomic number  74.
 Defaulting to unpruned grid for atomic number  74.
 Defaulting to unpruned grid for atomic number  74.
 Defaulting to unpruned grid for atomic number  74.
 Defaulting to unpruned grid for atomic number  74.
 Defaulting to unpruned grid for atomic number  74.
 Defaulting to unpruned grid for atomic number  74.
 Defaulting to unpruned grid for atomic number  74.
 Defaulting to unpruned grid for atomic number  74.
 Defaulting to unpruned grid for atomic number  74.
 Defaulting to unpruned grid for atomic number  74.
 Defaulting to unpruned grid for atomic number  74.
 Defaulting to unpruned grid for atomic number  74.
 Defaulting to unpruned grid for atomic number  74.
 Defaulting to unpruned grid for atomic number  74.
 Defaulting to unpruned grid for atomic number  74.
 Defaulting to unpruned grid for atomic number  74.
 Defaulting to unpruned grid for atomic number  74.
 Defaulting to unpruned grid for atomic number  74.
 Defaulting to unpruned grid for atomic number  74.
 Defaulting to unpruned grid for atomic number  74.
 Defaulting to unpruned grid for atomic number  74.
 Defaulting to unpruned grid for atomic number  74.
 Defaulting to unpruned grid for atomic number  74.
 Defaulting to unpruned grid for atomic number  74.
 Defaulting to unpruned grid for atomic number  74.
 Defaulting to unpruned grid for atomic number  74.
 Defaulting to unpruned grid for atomic number  74.
 Defaulting to unpruned grid for atomic number  74.
 Defaulting to unpruned grid for atomic number  74.
 Defaulting to unpruned grid for atomic number  74.
 Defaulting to unpruned grid for atomic number  74.
 Defaulting to unpruned grid for atomic number  74.
 Defaulting to unpruned grid for atomic number  74.
 Defaulting to unpruned grid for atomic number  74.
 Defaulting to unpruned grid for atomic number  74.
 Defaulting to unpruned grid for atomic number  74.
 Defaulting to unpruned grid for atomic number  74.
 Defaulting to unpruned grid for atomic number  74.
 -------------------------------------------------------------------
 Center     Atomic                   Forces (Hartrees/Bohr)
 Number     Number              X              Y              Z
 -------------------------------------------------------------------
      1       17          -0.002941975    0.007781399    0.002294346
      2        6          -0.001552044   -0.000720385   -0.001956707
      3        6          -0.000727721   -0.002151901    0.003513311
      4        6           0.001423866    0.002027781    0.000514549
      5        6           0.000753337   -0.000011435    0.001357508
      6        6           0.000102660   -0.000294697    0.000809472
      7        6          -0.001082549   -0.001175099    0.000384047
      8        1          -0.000338440    0.000530018   -0.000160627
      9        1          -0.000438827    0.000260196   -0.000048304
     10        1          -0.000266054   -0.000074204    0.000215472
     11        1           0.000484217   -0.000374639   -0.000073198
     12        1           0.000060466    0.000267878    0.000190521
     13        6           0.007861043    0.010989100   -0.007759745
     14        6          -0.001670120   -0.017641562    0.000317390
     15        1          -0.000965048    0.000278961   -0.000002593
     16        1          -0.000397583    0.000939002    0.000781922
     17        1          -0.001541502    0.000492693   -0.000440380
     18        8          -0.003424884    0.000541473    0.000785547
     19        8           0.003339206   -0.000822010    0.001007355
     20        8           0.002686785   -0.003009774   -0.000523763
     21        8          -0.002469999    0.002359038   -0.000997850
     22       74           0.001727421    0.010662011   -0.009827325
     23       74          -0.002468752   -0.010396550   -0.010197190
     24       74           0.006736673    0.008660677    0.010055687
     25       74          -0.007309478   -0.007451689    0.010380286
     26       74           0.008277058   -0.007691459   -0.010977564
     27       74          -0.008285426    0.008253498   -0.010785892
     28       74          -0.011799857    0.003088915    0.011017705
     29       74           0.011120396   -0.001865744    0.010986710
     30        8          -0.000526087   -0.002657475    0.003446894
     31        8           0.000249847    0.003129957    0.003179894
     32        8          -0.002370772   -0.002044639   -0.003171047
     33        8           0.002421450    0.001875355   -0.003348305
     34        8          -0.001242972   -0.000681341    0.003259572
     35        8           0.001394928    0.000102336    0.003460632
     36        8           0.000774523   -0.001488240   -0.003322957
     37        8          -0.000334131    0.001220806   -0.003383433
     38        8          -0.004445348   -0.001846841   -0.001374660
     39        8           0.004555164    0.001749846   -0.001482928
     40        8           0.002103614   -0.006106065    0.000910403
     41        8          -0.001108279    0.004837503    0.001353049
     42        8          -0.001985277   -0.002789554    0.001340692
     43        8           0.002429897    0.002539047    0.001085976
     44        8          -0.000317610   -0.003653983   -0.000661194
     45        8           0.000872686    0.003346848   -0.001323076
     46        8          -0.002698026    0.003047017    0.003117732
     47        8           0.002888697   -0.002529599    0.003226052
     48        8           0.004305840   -0.000391536   -0.003495876
     49        8          -0.004016360    0.000384455   -0.003153851
     50       74           0.014595276    0.004901653    0.003105118
     51       74          -0.014909625   -0.003970517    0.003349211
     52       74          -0.005757653    0.015893682   -0.003295129
     53       74           0.004800646   -0.014591170   -0.002902618
     54        8          -0.000670483    0.001488753    0.002105833
     55        8           0.000727566   -0.001549166    0.002032772
     56        8           0.001782834   -0.000156687   -0.002110460
     57        8          -0.001378971   -0.000568993   -0.002166859
     58        8           0.000344666   -0.002523475    0.001209996
     59        8           0.000328563    0.002218553    0.001476732
     60        8          -0.001398190   -0.001671215   -0.001581442
     61        8           0.001710154    0.001407307   -0.001426584
     62        8          -0.001343066    0.002065828    0.000783343
     63        8           0.001140974   -0.002610711    0.000524338
     64        8           0.002391987   -0.000233473   -0.000973592
     65        8          -0.002385695   -0.000276382   -0.000824978
     66        8          -0.027071883   -0.004933042    0.017337598
     67        8           0.027523287    0.005618890    0.017223147
     68        8           0.011589452   -0.026032345   -0.017429232
     69        8          -0.011415382    0.024859177   -0.017612597
     70       19           0.000184202   -0.000965479   -0.000633954
     71       19           0.000707981    0.000070878    0.000570323
     72       19          -0.000915738   -0.000324672    0.000540891
     73       23          -0.000425552    0.000387213    0.000173879
 -------------------------------------------------------------------
 Cartesian Forces:  Max     0.027523287 RMS     0.006222510

 GradGradGradGradGradGradGradGradGradGradGradGradGradGradGradGradGradGrad
 Berny optimization.
 Search for a local minimum.
 Step number   1 out of a maximum of    2
 All quantities printed in internal units (Hartrees-Bohrs-Radians)
 Second derivative matrix not updated -- first step.
 ITU=  0
     Eigenvalues ---   -0.00000   0.00000   0.00000   0.00010   0.00093
     Eigenvalues ---    0.00094   0.00256   0.00544   0.00640   0.01641
     Eigenvalues ---    0.01953   0.02903   0.02928   0.03213   0.03432
     Eigenvalues ---    0.03454   0.03724   0.03734   0.04160   0.04495
     Eigenvalues ---    0.04605   0.04615   0.04649   0.04845   0.04856
     Eigenvalues ---    0.04989   0.05361   0.05578   0.05610   0.06374
     Eigenvalues ---    0.06412   0.06532   0.06783   0.06858   0.07046
     Eigenvalues ---    0.07299   0.07398   0.07602   0.08368   0.08392
     Eigenvalues ---    0.08724   0.08763   0.08908   0.08935   0.09739
     Eigenvalues ---    0.09977   0.10122   0.10426   0.10471   0.10559
     Eigenvalues ---    0.10831   0.10901   0.11593   0.11701   0.12067
     Eigenvalues ---    0.12094   0.12186   0.12544   0.12550   0.12691
     Eigenvalues ---    0.12714   0.12812   0.12837   0.13097   0.13160
     Eigenvalues ---    0.13818   0.14007   0.14342   0.14579   0.14758
     Eigenvalues ---    0.16934   0.16964   0.17119   0.17153   0.17587
     Eigenvalues ---    0.17689   0.18584   0.19870   0.20020   0.20270
     Eigenvalues ---    0.20934   0.21046   0.21999   0.22126   0.22187
     Eigenvalues ---    0.22619   0.23180   0.23432   0.24009   0.24036
     Eigenvalues ---    0.24638   0.24792   0.24982   0.25571   0.26256
     Eigenvalues ---    0.26390   0.26603   0.27639   0.27738   0.27991
     Eigenvalues ---    0.28328   0.28357   0.28891   0.29634   0.29919
     Eigenvalues ---    0.30546   0.30643   0.30662   0.30736   0.30775
     Eigenvalues ---    0.30976   0.31225   0.31442   0.31587   0.32374
     Eigenvalues ---    0.32538   0.32590   0.32760   0.32908   0.33441
     Eigenvalues ---    0.33556   0.35113   0.35599   0.35903   0.36924
     Eigenvalues ---    0.37489   0.37655   0.37856   0.38334   0.38636
     Eigenvalues ---    0.38985   0.39229   0.40220   0.40306   0.41219
     Eigenvalues ---    0.42297   0.42342   0.43585   0.44283   0.44848
     Eigenvalues ---    0.45373   0.45640   0.46002   0.48145   0.48407
     Eigenvalues ---    0.48638   0.48963   0.49019   0.49640   0.49774
     Eigenvalues ---    0.50116   0.50895   0.51360   0.52062   0.52496
     Eigenvalues ---    0.53189   0.54021   0.56471   0.58543   0.64490
     Eigenvalues ---    0.67520   0.76657   0.81495   0.82730   0.96836
     Eigenvalues ---    0.97258   0.98724   0.99339   1.01559   1.04422
     Eigenvalues ---    1.07358   1.11068   1.11599   1.12244   1.15399
     Eigenvalues ---    1.18754   1.19246   1.20414   1.22144   1.22556
     Eigenvalues ---    1.22772   1.26098   1.26599   1.26790   1.27128
     Eigenvalues ---    1.27758   1.29304   1.29578   1.45251   1.45578
     Eigenvalues ---    1.45778   1.48175   1.51422   1.51813   1.52140
     Eigenvalues ---    1.52704   1.55754   1.55822   1.57197   1.58600
     Eigenvalues ---    1.58676   1.59355   1.61774   1.64321   1.74904
     Eigenvalues ---    1.85250   1.89048   1.95210   1.95374   1.96143
     Eigenvalues ---    2.07046   2.13538   3.60550
 Eigenvalue     1 is  -1.11D-16 should be greater than     0.000000 Eigenvector:
                          Y15       Y16       Y9        Y13       Y14
   1                    0.17433   0.17433   0.17433   0.17433   0.17433
                          Y4        Y3        Y10       Y17       Y5
   1                    0.17433   0.17433   0.17433   0.17433   0.17433
 Eigenvalue     2 is   3.24D-07 Eigenvector:
                          Y16       X16       X11       Y11       Y15
   1                    0.31998  -0.27131   0.26515  -0.24594   0.23382
                          Y14       X14       Y17       Y13       X6
   1                    0.23363  -0.19284   0.19208   0.18579   0.18487
 Eigenvalue     3 is   2.93D-06 Eigenvector:
                          X9        X10       Y12       X12       Y8
   1                    0.33877   0.29137   0.27381  -0.25364   0.25170
                          Y9        X15       Y10       X17       X8
   1                   -0.24499   0.23301  -0.22225  -0.20822  -0.20720
 Quadratic step=2.733D+01 exceeds max=3.000D-01 adjusted using Lamda=-1.222D-02.
 Angle between NR and scaled steps=  41.41 degrees.
 Angle between quadratic step and forces=  65.24 degrees.
 Linear search not attempted -- first point.
 B after Tr=    -0.000172    0.006458    0.001356
         Rot=    1.000000   -0.000131    0.000015    0.000056 Ang=  -0.02 deg.
 Variable       Old X    -DE/DX   Delta X   Delta X   Delta X     New X
                                 (Linear)    (Quad)   (Total)
    X1      -18.24190  -0.00294   0.00000  -0.00288  -0.00191 -18.24381
    Y1       15.63957   0.00778   0.00000   0.00781   0.01110  15.65067
    Z1       19.93141   0.00229   0.00000   0.00240   0.00729  19.93870
    X2      -15.76669  -0.00155   0.00000  -0.01070  -0.01067 -15.77736
    Y2        8.02881  -0.00072   0.00000  -0.01167  -0.00947   8.01935
    Z2       23.08293  -0.00196   0.00000  -0.01115  -0.00818  23.07476
    X3      -17.27030  -0.00073   0.00000   0.00403   0.00405 -17.26624
    Y3        7.42912  -0.00215   0.00000  -0.03097  -0.02806   7.40106
    Z3       20.97218   0.00351   0.00000  -0.01244  -0.00967  20.96251
    X4      -18.99337   0.00142   0.00000  -0.01057  -0.01078 -19.00415
    Y4        5.41494   0.00203   0.00000  -0.00880  -0.00575   5.40918
    Z4       21.19342   0.00051   0.00000   0.01426   0.01645  21.20987
    X5      -19.28541   0.00075   0.00000  -0.00617  -0.00659 -19.29200
    Y5        4.12110  -0.00001   0.00000  -0.00158   0.00091   4.12201
    Z5       23.46241   0.00136   0.00000   0.02172   0.02357  23.48598
    X6      -17.83651   0.00010   0.00000   0.00323   0.00282 -17.83369
    Y6        4.79172  -0.00029   0.00000  -0.00500  -0.00322   4.78849
    Z6       25.56161   0.00081   0.00000   0.01467   0.01674  25.57834
    X7      -16.05168  -0.00108   0.00000  -0.00762  -0.00781 -16.05949
    Y7        6.72478  -0.00118   0.00000   0.00106   0.00270   6.72748
    Z7       25.34958   0.00038   0.00000   0.00011   0.00274  25.35232
    X8      -14.35057  -0.00034   0.00000  -0.01821  -0.01801 -14.36857
    Y8        9.52500   0.00053   0.00000  -0.00366  -0.00158   9.52342
    Z8       22.95068  -0.00016   0.00000  -0.01681  -0.01341  22.93728
    X9      -20.12791  -0.00044   0.00000  -0.02135  -0.02157 -20.14948
    Y9        4.88080   0.00026   0.00000  -0.00712  -0.00352   4.87728
    Z9       19.55073  -0.00005   0.00000   0.02035   0.02237  19.57310
   X10      -20.64595  -0.00027   0.00000  -0.01131  -0.01191 -20.65786
   Y10        2.57342  -0.00007   0.00000   0.00297   0.00558   2.57900
   Z10       23.59364   0.00022   0.00000   0.02842   0.02983  23.62347
   X11      -18.07511   0.00048   0.00000   0.01820   0.01763 -18.05748
   Y11        3.79068  -0.00037   0.00000  -0.00859  -0.00725   3.78342
   Z11       27.35082  -0.00007   0.00000   0.01429   0.01609  27.36691
   X12      -14.87283   0.00006   0.00000  -0.00712  -0.00730 -14.88014
   Y12        7.22004   0.00027   0.00000   0.01548   0.01656   7.23660
   Z12       26.97146   0.00019   0.00000  -0.00351  -0.00071  26.97074
   X13      -17.15255   0.00786   0.00000   0.04142   0.04167 -17.11088
   Y13        8.82993   0.01099   0.00000  -0.07169  -0.06816   8.76177
   Z13       18.58942  -0.00776   0.00000  -0.04723  -0.04410  18.54532
   X14      -15.89238  -0.00167   0.00000   0.07077   0.07127 -15.82111
   Y14       11.00755  -0.01764   0.00000  -0.11921  -0.11571  10.89184
   Z14       18.17105   0.00032   0.00000  -0.05446  -0.05074  18.12031
   X15      -18.25227  -0.00097   0.00000   0.00480   0.00500 -18.24726
   Y15        8.01300   0.00028   0.00000  -0.05046  -0.04640   7.96660
   Z15       17.03657  -0.00000   0.00000  -0.03195  -0.02907  17.00750
   X16      -15.91122  -0.00040   0.00000   0.05245   0.05311 -15.85812
   Y16       11.87908   0.00094   0.00000  -0.08510  -0.08111  11.79797
   Z16       16.30205   0.00078   0.00000  -0.03745  -0.03349  16.26855
   X17      -14.71693  -0.00154   0.00000   0.03547   0.03603 -14.68090
   Y17       11.91555   0.00049   0.00000  -0.09673  -0.09374  11.82181
   Z17       19.59720  -0.00044   0.00000  -0.04098  -0.03699  19.56021
   X18       -1.84293  -0.00342   0.00000  -0.02023  -0.02121  -1.86414
   Y18       -3.40428   0.00054   0.00000   0.00273   0.00571  -3.39856
   Z18       14.10900   0.00079   0.00000   0.00739   0.00781  14.11681
   X19      -15.85569   0.00334   0.00000   0.01506   0.01418 -15.84152
   Y19       -2.51870  -0.00082   0.00000   0.00834   0.01289  -2.50581
   Z19       14.10076   0.00101   0.00000   0.01115   0.01138  14.11214
   X20      -13.26659   0.00269   0.00000   0.01120   0.01072 -13.25587
   Y20        2.54629  -0.00301   0.00000  -0.01170  -0.00893   2.53736
   Z20       19.79090  -0.00052   0.00000  -0.00236  -0.00074  19.79016
   X21       -4.41136  -0.00247   0.00000  -0.01153  -0.01324  -4.42460
   Y21       -8.31040   0.00236   0.00000   0.01749   0.01923  -8.29116
   Z21       19.94578  -0.00100   0.00000  -0.01057  -0.01151  19.93427
   X22       -6.42747   0.00173   0.00000  -0.00730  -0.00770  -6.43516
   Y22        1.30386   0.01066   0.00000   0.02196   0.02594   1.32981
   Z22       12.23920  -0.00983   0.00000  -0.00401  -0.00250  12.23670
   X23      -11.31740  -0.00247   0.00000   0.00368   0.00233 -11.31508
   Y23       -7.21823  -0.01040   0.00000  -0.00510  -0.00061  -7.21884
   Z23       12.39277  -0.01020   0.00000  -0.00545  -0.00632  12.38645
   X24       -6.82257   0.00674   0.00000   0.01574   0.01510  -6.80748
   Y24        1.64170   0.00866   0.00000   0.00289   0.00448   1.64618
   Z24       21.57571   0.01006   0.00000   0.00888   0.01046  21.58617
   X25      -10.88723  -0.00731   0.00000  -0.01679  -0.01843 -10.90566
   Y25       -7.30303  -0.00745   0.00000   0.00301   0.00502  -7.29801
   Z25       21.69915   0.01038   0.00000   0.00628   0.00540  21.70455
   X26       -4.59059   0.00828   0.00000  -0.00658  -0.00767  -4.59826
   Y26       -4.89955  -0.00769   0.00000  -0.00468  -0.00086  -4.90041
   Z26       12.09977  -0.01098   0.00000  -0.00874  -0.00880  12.09097
   X27      -13.11020  -0.00829   0.00000  -0.00138  -0.00203 -13.11223
   Y27       -1.00931   0.00825   0.00000   0.01983   0.02462  -0.98469
   Z27       12.03908  -0.01079   0.00000  -0.00729  -0.00659  12.03249
   X28      -12.88085  -0.01180   0.00000  -0.00747  -0.00835 -12.88920
   Y28       -0.47273   0.00309   0.00000  -0.00408  -0.00189  -0.47462
   Z28       21.84651   0.01102   0.00000   0.01119   0.01203  21.85854
   X29       -4.80542   0.01112   0.00000   0.00662   0.00521  -4.80022
   Y29       -5.17581  -0.00187   0.00000   0.01020   0.01146  -5.16434
   Z29       21.92580   0.01099   0.00000   0.00737   0.00723  21.93304
   X30       -5.98436  -0.00053   0.00000   0.01107   0.01099  -5.97336
   Y30        3.53634  -0.00266   0.00000   0.01580   0.02031   3.55665
   Z30       10.00462   0.00345   0.00000   0.00506   0.00717  10.01179
   X31      -11.56916   0.00025   0.00000  -0.01073  -0.01228 -11.58144
   Y31       -9.58209   0.00313   0.00000   0.00211   0.00719  -9.57490
   Z31       10.23524   0.00318   0.00000   0.00008  -0.00141  10.23382
   X32       -5.06794  -0.00237   0.00000   0.00303   0.00250  -5.06544
   Y32        3.22985  -0.00204   0.00000   0.00851   0.00933   3.23919
   Z32       23.74745  -0.00317   0.00000   0.00314   0.00519  23.75264
   X33      -12.62545   0.00242   0.00000  -0.00335  -0.00524 -12.63068
   Y33       -8.81464   0.00188   0.00000  -0.00470  -0.00307  -8.81772
   Z33       23.93397  -0.00335   0.00000  -0.00006  -0.00139  23.93258
   X34       -5.02241  -0.00124   0.00000  -0.01582  -0.01650  -5.03891
   Y34       -1.73352  -0.00068   0.00000   0.00478   0.00904  -1.72448
   Z34       10.56110   0.00326   0.00000   0.01138   0.01214  10.57324
   X35      -12.66190   0.00139   0.00000   0.00887   0.00790 -12.65400
   Y35       -4.28674   0.00010   0.00000   0.00955   0.01465  -4.27209
   Z35       10.62105   0.00346   0.00000   0.01354   0.01339  10.63445
   X36      -10.02792   0.00077   0.00000   0.00780   0.00704 -10.02088
   Y36        1.03936  -0.00149   0.00000  -0.01091  -0.00943   1.02993
   Z36       23.35592  -0.00332   0.00000  -0.00693  -0.00561  23.35031
   X37       -7.65263  -0.00033   0.00000  -0.00655  -0.00818  -7.66081
   Y37       -6.67723   0.00122   0.00000   0.01343   0.01463  -6.66261
   Z37       23.44691  -0.00338   0.00000  -0.01122  -0.01184  23.43507
   X38        0.59182  -0.00445   0.00000   0.00417   0.00346   0.59528
   Y38       -0.03379  -0.00185   0.00000  -0.00519  -0.00337  -0.03716
   Z38       17.53540  -0.00137   0.00000  -0.00247  -0.00111  17.53429
   X39      -18.31344   0.00456   0.00000  -0.00670  -0.00805 -18.32148
   Y39       -5.74966   0.00175   0.00000   0.01264   0.01654  -5.73312
   Z39       17.62467  -0.00148   0.00000  -0.00190  -0.00259  17.62208
   X40      -11.98817   0.00210   0.00000   0.00179   0.00185 -11.98632
   Y40        6.48177  -0.00611   0.00000   0.00564   0.00916   6.49093
   Z40       16.37322   0.00091   0.00000   0.00912   0.01181  16.38503
   X41       -5.69076  -0.00111   0.00000   0.00280   0.00075  -5.69001
   Y41      -12.27293   0.00484   0.00000   0.00512   0.00790 -12.26504
   Z41       16.52321   0.00135   0.00000   0.00092  -0.00110  16.52211
   X42       -3.36175  -0.00199   0.00000  -0.01255  -0.01299  -3.37474
   Y42        1.40909  -0.00279   0.00000  -0.00241   0.00073   1.40982
   Z42       14.12203   0.00134   0.00000   0.01193   0.01355  14.13558
   X43      -14.35628   0.00243   0.00000   0.01058   0.00915 -14.34713
   Y43       -7.33844   0.00254   0.00000   0.01277   0.01711  -7.32133
   Z43       14.25055   0.00109   0.00000   0.01062   0.00963  14.26018
   X44       -8.48463  -0.00032   0.00000   0.00518   0.00487  -8.47975
   Y44        4.14834  -0.00365   0.00000  -0.01259  -0.01033   4.13801
   Z44       19.70272  -0.00066   0.00000  -0.00294  -0.00076  19.70196
   X45       -9.20876   0.00087   0.00000  -0.00652  -0.00839  -9.21715
   Y45       -9.88950   0.00335   0.00000   0.01842   0.02071  -9.86878
   Z45       19.89926  -0.00132   0.00000  -0.01109  -0.01259  19.88668
   X46       -3.02325  -0.00270   0.00000  -0.00545  -0.00667  -3.02991
   Y46       -6.68175   0.00305   0.00000   0.01088   0.01509  -6.66667
   Z46        9.93300   0.00312   0.00000  -0.00748  -0.00796   9.92504
   X47      -14.76755   0.00289   0.00000  -0.00558  -0.00599 -14.77354
   Y47        0.52578  -0.00253   0.00000   0.00107   0.00663   0.53241
   Z47        9.78609   0.00323   0.00000  -0.00391  -0.00286   9.78322
   X48      -15.19128   0.00431   0.00000   0.00295   0.00202 -15.18926
   Y48       -0.31485  -0.00039   0.00000   0.00674   0.00861  -0.30624
   Z48       24.06957  -0.00350   0.00000   0.00749   0.00831  24.07788
   X49       -2.46814  -0.00402   0.00000  -0.00408  -0.00559  -2.47373
   Y49       -5.40417   0.00038   0.00000  -0.00210  -0.00166  -5.40583
   Z49       24.11542  -0.00315   0.00000   0.00436   0.00423  24.11965
   X50       -2.35298   0.01460   0.00000   0.00594   0.00515  -2.34783
   Y50       -1.01093   0.00490   0.00000   0.00586   0.00822  -1.00272
   Z50       16.70136   0.00311   0.00000   0.01218   0.01321  16.71456
   X51      -15.36665  -0.01491   0.00000  -0.00930  -0.01051 -15.37717
   Y51       -4.79983  -0.00397   0.00000   0.00435   0.00815  -4.79168
   Z51       16.76945   0.00335   0.00000   0.01353   0.01317  16.78262
   X52      -11.09093  -0.00576   0.00000  -0.00150  -0.00180 -11.09272
   Y52        3.51101   0.01589   0.00000   0.01337   0.01661   3.52762
   Z52       17.08927  -0.00330   0.00000  -0.00684  -0.00490  17.08437
   X53       -6.60490   0.00480   0.00000  -0.00210  -0.00384  -6.60874
   Y53       -9.29769  -0.01459   0.00000  -0.00245   0.00023  -9.29746
   Z53       17.31753  -0.00290   0.00000  -0.01293  -0.01420  17.30333
   X54       -7.95772  -0.00067   0.00000  -0.00319  -0.00437  -7.96209
   Y54       -5.88382   0.00149   0.00000  -0.00470  -0.00034  -5.88416
   Z54       11.47699   0.00211   0.00000  -0.00870  -0.00912  11.46787
   X55       -9.73053   0.00073   0.00000  -0.00377  -0.00430  -9.73483
   Y55       -0.11954  -0.00155   0.00000   0.02240   0.02698  -0.09256
   Z55       11.37160   0.00203   0.00000  -0.00701  -0.00597  11.36562
   X56      -11.65496   0.00178   0.00000  -0.01102  -0.01230 -11.66726
   Y56       -3.77750  -0.00016   0.00000  -0.00277  -0.00088  -3.77839
   Z56       22.50323  -0.00211   0.00000   0.01023   0.01025  22.51348
   X57       -5.99367  -0.00138   0.00000   0.01113   0.01006  -5.98361
   Y57       -1.87281  -0.00057   0.00000   0.00724   0.00848  -1.86432
   Z57       22.52578  -0.00217   0.00000   0.00916   0.00985  22.53563
   X58       -8.22159   0.00034   0.00000  -0.00334  -0.00362  -8.22521
   Y58        2.98452  -0.00252   0.00000   0.01702   0.02054   3.00506
   Z58       14.80142   0.00121   0.00000  -0.00357  -0.00168  14.79973
   X59       -9.46335   0.00033   0.00000   0.00112  -0.00050  -9.46385
   Y59       -8.84935   0.00222   0.00000  -0.00542  -0.00181  -8.85116
   Z59       14.97458   0.00148   0.00000  -0.00789  -0.00914  14.96544
   X60       -4.38516  -0.00140   0.00000   0.01321   0.01258  -4.37258
   Y60        1.06515  -0.00167   0.00000   0.00504   0.00701   1.07216
   Z60       19.04336  -0.00158   0.00000   0.00930   0.01080  19.05416
   X61      -13.31197   0.00171   0.00000  -0.01493  -0.01645 -13.32842
   Y61       -6.83197   0.00141   0.00000   0.00296   0.00591  -6.82606
   Z61       19.14302  -0.00143   0.00000   0.00857   0.00774  19.15077
   X62       -4.85547  -0.00134   0.00000  -0.00387  -0.00532  -4.86079
   Y62       -7.38912   0.00207   0.00000  -0.00232   0.00080  -7.38832
   Z62       14.87014   0.00078   0.00000  -0.01126  -0.01198  14.85816
   X63      -12.86313   0.00114   0.00000  -0.00142  -0.00187 -12.86500
   Y63        1.50068  -0.00261   0.00000   0.01416   0.01821   1.51888
   Z63       14.74488   0.00052   0.00000  -0.00765  -0.00629  14.73859
   X64      -14.78217   0.00239   0.00000  -0.00792  -0.00892 -14.79109
   Y64       -2.22538  -0.00023   0.00000   0.00120   0.00431  -2.22107
   Z64       19.16076  -0.00097   0.00000   0.01247   0.01280  19.17356
   X65       -2.93913  -0.00239   0.00000   0.00542   0.00427  -2.93486
   Y65       -3.53989  -0.00028   0.00000   0.00604   0.00782  -3.53207
   Z65       19.16057  -0.00082   0.00000   0.00941   0.00975  19.17032
   X66       -6.33741  -0.02707   0.00000  -0.05111  -0.05198  -6.38939
   Y66       -2.19280  -0.00493   0.00000  -0.00073   0.00248  -2.19032
   Z66       15.13847   0.01734   0.00000   0.02895   0.02954  15.16801
   X67      -11.36880   0.02752   0.00000   0.04600   0.04495 -11.32385
   Y67       -3.70503   0.00562   0.00000   0.01532   0.01907  -3.68595
   Z67       15.18172   0.01722   0.00000   0.02987   0.02992  15.21164
   X68       -9.66292   0.01159   0.00000   0.02186   0.02108  -9.64185
   Y68       -0.39723  -0.02603   0.00000  -0.03977  -0.03713  -0.43436
   Z68       18.78920  -0.01743   0.00000  -0.02715  -0.02620  18.76300
   X69       -8.00480  -0.01142   0.00000  -0.02433  -0.02566  -8.03047
   Y69       -5.38457   0.02486   0.00000   0.04678   0.04922  -5.33535
   Z69       18.85072  -0.01761   0.00000  -0.02918  -0.02946  18.82126
   X70       -6.07144   0.00018   0.00000  -0.00219  -0.00399  -6.07543
   Y70      -11.59016  -0.00097   0.00000  -0.00437  -0.00002 -11.59018
   Z70       10.67107  -0.00063   0.00000  -0.01023  -0.01208  10.65898
   X71       -0.21426   0.00071   0.00000   0.01098   0.01011  -0.20415
   Y71        0.08854   0.00007   0.00000   0.00343   0.00382   0.09236
   Z71       23.30351   0.00057   0.00000   0.00912   0.01049  23.31400
   X72      -17.54438  -0.00092   0.00000  -0.01252  -0.01400 -17.55839
   Y72       -5.34121  -0.00032   0.00000   0.00172   0.00400  -5.33721
   Z72       23.48673   0.00054   0.00000   0.01006   0.00949  23.49623
   X73       -8.84737  -0.00043   0.00000  -0.00238  -0.00339  -8.85076
   Y73       -2.91387   0.00039   0.00000   0.00560   0.00861  -2.90526
   Z73       16.98749   0.00017   0.00000   0.00093   0.00126  16.98875
         Item               Value     Threshold  Converged?
 Maximum Force            0.027523     0.000450     NO 
 RMS     Force            0.006223     0.000300     NO 
 Maximum Displacement     0.115714     0.001800     NO 
 RMS     Displacement     0.020217     0.001200     NO 
 Predicted change in Energy=-6.303521D-03
 GradGradGradGradGradGradGradGradGradGradGradGradGradGradGradGradGradGrad

 Unable to Open any file for archive entry.
 1\1\GINC-X11P1N2\Force\RwB97XD\def2SVP\C8H8Cl1K3O40V1W12(1-)\MAYUMIAO\
 02-Jun-2024\0\\# def2svp wb97xd scrf=(smd,solvent=acetonitrile) g09def
 ault scf=(xqc,maxcycle=64) force guess=read nosymm\\Title Card\\-1,1\C
 l,-9.65319879,8.27610263,10.54724768\C,-8.34337198,4.24866448,12.21496
 269\C,-9.13904847,3.93131884,11.09800042\C,-10.05085862,2.86546141,11.
 21507569\C,-10.20540015,2.18079452,12.41577134\C,-9.43867539,2.5356666
 4,13.52661988\C,-8.49418251,3.55859771,13.41441862\H,-7.59399244,5.040
 41386,12.1449779\H,-10.65123272,2.58280891,10.34579885\H,-10.9253636,1
 .361795,12.4852186\H,-9.56493547,2.00593996,14.47342984\H,-7.87036507,
 3.82068098,14.27267944\C,-9.07673895,4.6725962,9.8370986\C,-8.4098853,
 5.82494597,9.61570326\H,-9.65868381,4.24029895,9.01536258\H,-8.4198558
 2,6.28613915,8.62667157\H,-7.78786636,6.30543569,10.3703918\O,-0.97523
 87,-1.80146539,7.46616244\O,-8.39047046,-1.33283753,7.46180272\O,-7.02
 037712,1.34743804,10.47289227\O,-2.3343902,-4.39767236,10.55485459\W,-
 3.40126876,0.68997342,6.4767067\W,-5.98891217,-3.81972121,6.55797232\W
 ,-3.6103497,0.86874906,11.41737539\W,-5.76127282,-3.86459616,11.482697
 53\W,-2.42923601,-2.59272945,6.4029246\W,-6.93761847,-0.53410302,6.370
 80834\W,-6.81625107,-0.25015722,11.56067671\W,-2.54292075,-2.73891942,
 11.60263569\O,-3.16678434,1.87134937,5.29421775\O,-6.12213498,-5.07062
 275,5.41625312\O,-2.68183845,1.70916476,12.56661079\O,-6.68109842,-4.6
 6450885,12.66530961\O,-2.65774394,-0.91733955,5.5886932\O,-6.70038761,
 -2.26844271,5.62041934\O,-5.30654431,0.55000709,12.35941947\O,-4.04959
 808,-3.53344048,12.40756832\O,0.31317687,-0.01788173,9.27933513\O,-9.6
 9105247,-3.04259078,9.32657439\O,-6.34386768,3.43000602,8.66433399\O,-
 3.01142063,-6.4945563,8.7437086\O,-1.77896186,0.74565821,7.4730564\O,-
 7.5970166,-3.88333518,7.54106889\O,-4.4898707,2.19520572,10.42623191\O
 ,-4.87306402,-5.23329609,10.53023609\O,-1.59983267,-3.53583242,5.25631
 587\O,-7.81465189,0.27822996,5.17857516\O,-8.03888021,-0.16661262,12.7
 3706668\O,-1.30608523,-2.85976196,12.76133065\W,-1.24514462,-0.5349625
 2,8.83797742\W,-8.1316833,-2.53995946,8.87401093\W,-5.86906474,1.85794
 404,9.0432531\W,-3.49516436,-4.92012595,9.16404044\O,-4.2110443,-3.113
 58152,6.07336132\O,-5.14917593,-0.06325825,6.0175902\O,-6.16754031,-1.
 99896943,11.90819834\O,-3.17171467,-0.99104574,11.92013094\O,-4.350678
 11,1.57934076,7.8325717\O,-5.00779124,-4.68287195,7.92420549\O,-2.3205
 2562,0.563652,10.07731014\O,-7.04438971,-3.61532217,10.13005143\O,-2.5
 6940562,-3.91015361,7.86893806\O,-6.80687416,0.79412351,7.80265271\O,-
 7.82238889,-1.17762219,10.13943775\O,-1.55532201,-1.87322903,10.139334
 37\O,-3.35361262,-1.16037792,8.01093403\O,-6.01611045,-1.96061706,8.03
 38201\O,-5.1133993,-0.2102063,9.94281506\O,-4.23595991,-2.84938951,9.9
 753717\K,-3.21286941,-6.13324802,5.64688538\K,-0.11338321,0.04685243,1
 2.33168463\K,-9.28408867,-2.82644694,12.42864442\V,-4.68182814,-1.5419
 5361,8.989395\\Version=ES64L-G16RevC.01\HF=-7327.7017915\RMSD=4.725e-0
 9\RMSF=6.223e-03\Dipole=10.0557645,-21.9336122,2.4575258\Quadrupole=-6
 9.2174063,43.7472041,25.4702022,333.0155821,335.0205266,-355.3640441\P
 G=C01 [X(C8H8Cl1K3O40V1W12)]\\@
 The archive entry for this job was punched.


 WE TEND TO MEET ANY NEW SITUATION BY REORGANIZING. IT CAN BE A
 WONDERFUL METHOD FOR CREATING THE ILLUSION OF PROGRESS WHILE PRODUCING
 CONFUSION, INEFFICIENCY, AND DEMORALIZATION.
     -- PETRONIUS ARBITER, 210 B.C.
 Job cpu time:       0 days  8 hours 36 minutes 47.6 seconds.
 Elapsed time:       0 days  0 hours  9 minutes 46.7 seconds.
 File lengths (MBytes):  RWF=   1256 Int=      0 D2E=      0 Chk=    249 Scr=      1
 Normal termination of Gaussian 16 at Sun Jun  2 18:27:00 2024.
