 Entering Gaussian System, Link 0=g16
 Input=JOBS/52_A.gjf
 Output=JOBS/52_A.log
 Initial command:
 /data/app/gaussian/C01-avx2//g16/l1.exe "/tmp/Gau-679066.inp" -scrdir="/tmp/"
 Entering Link 1 = /data/app/gaussian/C01-avx2//g16/l1.exe PID=    679067.
  
 Copyright (c) 1988-2019, Gaussian, Inc.  All Rights Reserved.
  
 This is part of the Gaussian(R) 16 program.  It is based on
 the Gaussian(R) 09 system (copyright 2009, Gaussian, Inc.),
 the Gaussian(R) 03 system (copyright 2003, Gaussian, Inc.),
 the Gaussian(R) 98 system (copyright 1998, Gaussian, Inc.),
 the Gaussian(R) 94 system (copyright 1995, Gaussian, Inc.),
 the Gaussian 92(TM) system (copyright 1992, Gaussian, Inc.),
 the Gaussian 90(TM) system (copyright 1990, Gaussian, Inc.),
 the Gaussian 88(TM) system (copyright 1988, Gaussian, Inc.),
 the Gaussian 86(TM) system (copyright 1986, Carnegie Mellon
 University), and the Gaussian 82(TM) system (copyright 1983,
 Carnegie Mellon University). Gaussian is a federally registered
 trademark of Gaussian, Inc.
  
 This software contains proprietary and confidential information,
 including trade secrets, belonging to Gaussian, Inc.
  
 This software is provided under written license and may be
 used, copied, transmitted, or stored only in accord with that
 written license.
  
 The following legend is applicable only to US Government
 contracts under FAR:
  
                    RESTRICTED RIGHTS LEGEND
  
 Use, reproduction and disclosure by the US Government is
 subject to restrictions as set forth in subparagraphs (a)
 and (c) of the Commercial Computer Software - Restricted
 Rights clause in FAR 52.227-19.
  
 Gaussian, Inc.
 340 Quinnipiac St., Bldg. 40, Wallingford CT 06492
  
  
 ---------------------------------------------------------------
 Warning -- This program may not be used in any manner that
 competes with the business of Gaussian, Inc. or will provide
 assistance to any competitor of Gaussian, Inc.  The licensee
 of this program is prohibited from giving any competitor of
 Gaussian, Inc. access to this program.  By using this program,
 the user acknowledges that Gaussian, Inc. is engaged in the
 business of creating and licensing software in the field of
 computational chemistry and represents and warrants to the
 licensee that it is not a competitor of Gaussian, Inc. and that
 it will not use this program in any manner prohibited above.
 ---------------------------------------------------------------
  

 Cite this work as:
 Gaussian 16, Revision C.01,
 M. J. Frisch, G. W. Trucks, H. B. Schlegel, G. E. Scuseria, 
 M. A. Robb, J. R. Cheeseman, G. Scalmani, V. Barone, 
 G. A. Petersson, H. Nakatsuji, X. Li, M. Caricato, A. V. Marenich, 
 J. Bloino, B. G. Janesko, R. Gomperts, B. Mennucci, H. P. Hratchian, 
 J. V. Ortiz, A. F. Izmaylov, J. L. Sonnenberg, D. Williams-Young, 
 F. Ding, F. Lipparini, F. Egidi, J. Goings, B. Peng, A. Petrone, 
 T. Henderson, D. Ranasinghe, V. G. Zakrzewski, J. Gao, N. Rega, 
 G. Zheng, W. Liang, M. Hada, M. Ehara, K. Toyota, R. Fukuda, 
 J. Hasegawa, M. Ishida, T. Nakajima, Y. Honda, O. Kitao, H. Nakai, 
 T. Vreven, K. Throssell, J. A. Montgomery, Jr., J. E. Peralta, 
 F. Ogliaro, M. J. Bearpark, J. J. Heyd, E. N. Brothers, K. N. Kudin, 
 V. N. Staroverov, T. A. Keith, R. Kobayashi, J. Normand, 
 K. Raghavachari, A. P. Rendell, J. C. Burant, S. S. Iyengar, 
 J. Tomasi, M. Cossi, J. M. Millam, M. Klene, C. Adamo, R. Cammi, 
 J. W. Ochterski, R. L. Martin, K. Morokuma, O. Farkas, 
 J. B. Foresman, and D. J. Fox, Gaussian, Inc., Wallingford CT, 2019.
 
 ******************************************
 Gaussian 16:  ES64L-G16RevC.01  3-Jul-2019
                 2-Jun-2024 
 ******************************************
 %chk=a.chk
 %nprocshared=56
 Will use up to   56 processors via shared memory.
 %mem=96gb
 ----------------------------------------------------------------------
 # def2svp wb97xd scrf=(smd,solvent=acetonitrile) g09default scf=(xqc,m
 axcycle=64) force guess=read nosymm
 ----------------------------------------------------------------------
 1/10=7,30=1,38=1,158=3,167=1/1,3;
 2/12=2,15=1,17=6,18=5,40=1/2;
 3/5=43,7=101,11=2,25=1,27=10,30=1,70=32201,71=1,72=2,74=-58,75=-4,116=-2,158=3/1,2,3;
 4/5=1,60=-1/1;
 5/5=2,7=64,8=3,13=1,38=6,53=2,87=10/2,8;
 6/7=2,8=2,9=2,10=2,28=1,87=10/1;
 7/29=1,30=1,87=10/1,2,3,16;
 1/10=7,30=1,158=3,167=1/3;
 99//99;
 Using 2006 physical constants.
 ----------
 Title Card
 ----------
 Symbolic Z-matrix:
 Charge = -1 Multiplicity = 1
 17                   -9.64988   8.27473   10.54588 
 6                    -8.34438   4.24978   12.21447 
 6                    -9.13976   3.93159   11.09754 
 6                    -10.05201   2.86628   11.21522 
 6                    -10.20572   2.18133   12.41586 
 6                    -9.43756   2.53553   13.52609 
 6                    -8.49418   3.55945   13.41371 
 1                    -7.59651   5.0431    12.14469 
 1                    -10.65392   2.58505   10.34656 
 1                    -10.92617   1.3629    12.48584 
 1                    -9.56198   2.00448   14.47233 
 1                    -7.87051   3.82221   14.27202 
 6                    -9.07841   4.67301   9.83672 
 6                    -8.41262   5.82614   9.61679 
 1                    -9.66098   4.24124   9.01515 
 1                    -8.42512   6.29065   8.62941 
 1                    -7.78983   6.3048    10.37194 
 8                    -0.97519  -1.80208   7.46582 
 8                    -8.38961  -1.33265   7.46187 
 8                    -7.01974   1.34713   10.47322 
 8                    -2.33446  -4.3979    10.55493 
 74                   -3.40053   0.69055   6.47752 
 74                   -5.98883  -3.82029   6.55805 
 74                   -3.60971   0.86883   11.41666 
 74                   -5.76134  -3.86534   11.48268 
 74                   -2.42942  -2.59251   6.40247 
 74                   -6.93668  -0.53445   6.37021 
 74                   -6.81532  -0.25057   11.56123 
 74                   -2.54322  -2.73948   11.60306 
 8                    -3.166     1.87229   5.29533 
 8                    -6.1222   -5.07105   5.41624 
 8                    -2.68107   1.70895   12.56598 
 8                    -6.68108  -4.66554   12.66512 
 8                    -2.65811  -0.91726   5.58879 
 8                    -6.7001   -2.26878   5.62036 
 8                    -5.30555   0.54981   12.35926 
 8                    -4.04969  -3.53407   12.4078 
 8                     0.31416  -0.01916   9.27877 
 8                    -9.69083  -3.04232   9.32598 
 8                    -6.34431   3.42965   8.66444 
 8                    -3.01125  -6.49475   8.74375 
 8                    -1.77823   0.74498   7.47303 
 8                    -7.59695  -3.88328   7.54106 
 8                    -4.48934   2.19506   10.426 
 8                    -4.87292  -5.23374   10.53032 
 8                    -1.60006  -3.53473   5.25534 
 8                    -7.81347   0.27752   5.17758 
 8                    -8.03738  -0.16599   12.73809 
 8                    -1.30711  -2.86035   12.76246 
 74                   -1.24442  -0.5361    8.83815 
 74                   -8.13127  -2.53972   8.87391 
 74                   -5.86937   1.85754   9.04328 
 74                   -3.495    -4.9204    9.16391 
 8                    -4.21123  -3.11399   6.07343 
 8                    -5.14855  -0.06325   6.0179 
 8                    -6.16722  -1.99945   11.9087 
 8                    -3.17165  -0.99149   11.91927 
 8                    -4.35012   1.5792    7.83317 
 8                    -5.00806  -4.68344   7.92441 
 8                    -2.3196    0.56325   10.07692 
 8                    -7.04415  -3.61549   10.13007 
 8                    -2.56975  -3.91024   7.86884 
 8                    -6.80645   0.79385   7.80265 
 8                    -7.82181  -1.1778    10.13989 
 8                    -1.55456  -1.87393   10.13955 
 8                    -3.35333  -1.16066   8.01137 
 8                    -6.01535  -1.9611    8.03382 
 8                    -5.11281  -0.21056   9.94269 
 8                    -4.23616  -2.84973   9.97555 
 19                   -3.21314  -6.13325   5.64711 
 19                   -0.1144    0.04535   12.33042 
 19                   -9.28381  -2.82541   12.42772 
 23                   -4.68148  -1.54232   8.98953 
 

 GradGradGradGradGradGradGradGradGradGradGradGradGradGradGradGradGradGrad
 Berny optimization.
 Initialization pass.
 Trust Radius=3.00D-01 FncErr=1.00D-07 GrdErr=1.00D-07 EigMax=2.50D+02 EigMin=1.00D-04
 Number of steps in this run=      2 maximum allowed number of steps=      2.
 GradGradGradGradGradGradGradGradGradGradGradGradGradGradGradGradGradGrad

 Symmetry turned off by external request.
 Stoichiometry    C8H8ClK3O40VW12(1-)
 Framework group  C1[X(C8H8ClK3O40VW12)]
 Deg. of freedom   213
 Full point group                 C1      NOp   1
                          Input orientation:                          
 ---------------------------------------------------------------------
 Center     Atomic      Atomic             Coordinates (Angstroms)
 Number     Number       Type             X           Y           Z
 ---------------------------------------------------------------------
      1         17           0       -9.649876    8.274733   10.545883
      2          6           0       -8.344377    4.249780   12.214472
      3          6           0       -9.139758    3.931587   11.097536
      4          6           0      -10.052011    2.866277   11.215218
      5          6           0      -10.205716    2.181330   12.415857
      6          6           0       -9.437563    2.535530   13.526085
      7          6           0       -8.494175    3.559454   13.413713
      8          1           0       -7.596509    5.043097   12.144689
      9          1           0      -10.653924    2.585053   10.346558
     10          1           0      -10.926166    1.362902   12.485844
     11          1           0       -9.561982    2.004478   14.472325
     12          1           0       -7.870514    3.822213   14.272015
     13          6           0       -9.078412    4.673010    9.836721
     14          6           0       -8.412620    5.826135    9.616791
     15          1           0       -9.660982    4.241245    9.015147
     16          1           0       -8.425122    6.290646    8.629409
     17          1           0       -7.789826    6.304799   10.371942
     18          8           0       -0.975191   -1.802077    7.465820
     19          8           0       -8.389608   -1.332648    7.461870
     20          8           0       -7.019739    1.347126   10.473220
     21          8           0       -2.334458   -4.397897   10.554928
     22         74           0       -3.400534    0.690547    6.477520
     23         74           0       -5.988830   -3.820288    6.558052
     24         74           0       -3.609705    0.868828   11.416662
     25         74           0       -5.761341   -3.865336   11.482678
     26         74           0       -2.429422   -2.592511    6.402467
     27         74           0       -6.936680   -0.534448    6.370205
     28         74           0       -6.815323   -0.250567   11.561232
     29         74           0       -2.543216   -2.739477   11.603058
     30          8           0       -3.166001    1.872288    5.295332
     31          8           0       -6.122203   -5.071053    5.416242
     32          8           0       -2.681068    1.708949   12.565977
     33          8           0       -6.681079   -4.665542   12.665120
     34          8           0       -2.658107   -0.917262    5.588794
     35          8           0       -6.700095   -2.268778    5.620359
     36          8           0       -5.305555    0.549807   12.359258
     37          8           0       -4.049687   -3.534071   12.407798
     38          8           0        0.314158   -0.019158    9.278773
     39          8           0       -9.690834   -3.042323    9.325983
     40          8           0       -6.344314    3.429647    8.664444
     41          8           0       -3.011254   -6.494751    8.743746
     42          8           0       -1.778230    0.744981    7.473028
     43          8           0       -7.596946   -3.883281    7.541060
     44          8           0       -4.489343    2.195062   10.426004
     45          8           0       -4.872917   -5.233739   10.530322
     46          8           0       -1.600063   -3.534735    5.255342
     47          8           0       -7.813471    0.277517    5.177580
     48          8           0       -8.037376   -0.165992   12.738090
     49          8           0       -1.307105   -2.860345   12.762460
     50         74           0       -1.244418   -0.536100    8.838151
     51         74           0       -8.131273   -2.539716    8.873907
     52         74           0       -5.869374    1.857539    9.043284
     53         74           0       -3.495005   -4.920401    9.163910
     54          8           0       -4.211227   -3.113991    6.073426
     55          8           0       -5.148554   -0.063247    6.017900
     56          8           0       -6.167221   -1.999455   11.908696
     57          8           0       -3.171646   -0.991491   11.919270
     58          8           0       -4.350121    1.579203    7.833167
     59          8           0       -5.008063   -4.683440    7.924411
     60          8           0       -2.319596    0.563249   10.076920
     61          8           0       -7.044155   -3.615492   10.130066
     62          8           0       -2.569751   -3.910240    7.868845
     63          8           0       -6.806445    0.793846    7.802651
     64          8           0       -7.821813   -1.177804   10.139894
     65          8           0       -1.554560   -1.873926   10.139554
     66          8           0       -3.353333   -1.160657    8.011368
     67          8           0       -6.015348   -1.961105    8.033822
     68          8           0       -5.112806   -0.210558    9.942687
     69          8           0       -4.236160   -2.849731    9.975548
     70         19           0       -3.213145   -6.133252    5.647105
     71         19           0       -0.114401    0.045348   12.330418
     72         19           0       -9.283807   -2.825410   12.427715
     73         23           0       -4.681484   -1.542320    8.989535
 ---------------------------------------------------------------------
 Rotational constants (GHZ):           0.0172151           0.0132209           0.0129975
 Standard basis: def2SVP (5D, 7F)
  1217 basis functions,  2313 primitive gaussians,  1337 cartesian basis functions
   321 alpha electrons      321 beta electrons
       nuclear repulsion energy     20976.7008805525 Hartrees.
 NAtoms=   73 NActive=   73 NUniq=   73 SFac= 1.00D+00 NAtFMM=   60 NAOKFM=T Big=T
 Integral buffers will be    131072 words long.
 Raffenetti 2 integral format.
 Two-electron integral symmetry is turned off.
 Nuclear repulsion after empirical dispersion term =    20976.4244434626 Hartrees.
 Force PCM accuracy= 1.00D-10.
 ------------------------------------------------------------------------------
 Polarizable Continuum Model (PCM)
 =================================
 Model                : PCM (using non-symmetric T matrix).
 Atomic radii         : SMD-Coulomb.
 Polarization charges : Total charges.
 Charge compensation  : None.
 Solution method      : On-the-fly selection.
 Cavity type          : VdW (van der Waals Surface) (Alpha=1.000).
 Cavity algorithm     : GePol (No added spheres)
                        Default sphere list used, NSphG=   73.
                        Lebedev-Laikov grids with approx.  5.0 points / Ang**2.
                        Smoothing algorithm: York/Karplus (Gamma=1.0000).
                        Polarization charges: spherical gaussians, with
                                              point-specific exponents (IZeta= 3).
                        Self-potential: point-specific (ISelfS= 7).
                        Self-field    : sphere-specific E.n sum rule (ISelfD= 2).
 1st derivatives      : Analytical E(r).r(x)/FMM algorithm (CHGder, D1EAlg=3).
                        Cavity 1st derivative terms included.
 Solvent              : Acetonitrile, Eps=  35.688000 Eps(inf)=   1.806874
 ------------------------------------------------------------------------------
 ------------------------------------------------------------------------------
 Atomic radii for non-electrostatic terms: SMD-CDS.
 ------------------------------------------------------------------------------
 Nuclear repulsion after PCM non-electrostatic terms =    20976.4187414488 Hartrees.
 One-electron integrals computed using PRISM.
   1 Symmetry operations used in ECPInt.
 ECPInt:  NShTT=  127765 NPrTT=  468030 LenC2=   96528 LenP2D=  220886.
 LDataN:  DoStor=T MaxTD1= 8 Len=  415
 NBasis=  1217 RedAO= T EigKep=  1.38D-04  NBF=  1217
 NBsUse=  1217 1.00D-06 EigRej= -1.00D+00 NBFU=  1217
 Defaulting to unpruned grid for atomic number  74.
 Defaulting to unpruned grid for atomic number  74.
 Defaulting to unpruned grid for atomic number  74.
 Defaulting to unpruned grid for atomic number  74.
 Defaulting to unpruned grid for atomic number  74.
 Defaulting to unpruned grid for atomic number  74.
 Defaulting to unpruned grid for atomic number  74.
 Defaulting to unpruned grid for atomic number  74.
 Initial guess from the checkpoint file:  "a.chk"
 B after Tr=     0.001112   -0.000839    0.000195
         Rot=    1.000000   -0.000007    0.000012    0.000034 Ang=  -0.00 deg.
 Requested convergence on RMS density matrix=1.00D-08 within  64 cycles.
 Requested convergence on MAX density matrix=1.00D-06.
 Requested convergence on             energy=1.00D-06.
 No special actions if energy rises.
 Defaulting to unpruned grid for atomic number  74.
 Defaulting to unpruned grid for atomic number  74.
 Defaulting to unpruned grid for atomic number  74.
 Defaulting to unpruned grid for atomic number  74.
 Defaulting to unpruned grid for atomic number  74.
 Defaulting to unpruned grid for atomic number  74.
 Defaulting to unpruned grid for atomic number  74.
 Defaulting to unpruned grid for atomic number  74.
 Defaulting to unpruned grid for atomic number  74.
 Defaulting to unpruned grid for atomic number  74.
 Defaulting to unpruned grid for atomic number  74.
 Defaulting to unpruned grid for atomic number  74.
 Defaulting to unpruned grid for atomic number  74.
 Defaulting to unpruned grid for atomic number  74.
 Defaulting to unpruned grid for atomic number  74.
 Defaulting to unpruned grid for atomic number  74.
 Defaulting to unpruned grid for atomic number  74.
 Defaulting to unpruned grid for atomic number  74.
 Defaulting to unpruned grid for atomic number  74.
 Defaulting to unpruned grid for atomic number  74.
 Defaulting to unpruned grid for atomic number  74.
 Defaulting to unpruned grid for atomic number  74.
 Defaulting to unpruned grid for atomic number  74.
 Defaulting to unpruned grid for atomic number  74.
 Defaulting to unpruned grid for atomic number  74.
 Defaulting to unpruned grid for atomic number  74.
 Defaulting to unpruned grid for atomic number  74.
 Defaulting to unpruned grid for atomic number  74.
 Defaulting to unpruned grid for atomic number  74.
 Defaulting to unpruned grid for atomic number  74.
 Defaulting to unpruned grid for atomic number  74.
 Defaulting to unpruned grid for atomic number  74.
 Defaulting to unpruned grid for atomic number  74.
 Defaulting to unpruned grid for atomic number  74.
 Defaulting to unpruned grid for atomic number  74.
 Defaulting to unpruned grid for atomic number  74.
 Defaulting to unpruned grid for atomic number  74.
 Defaulting to unpruned grid for atomic number  74.
 Defaulting to unpruned grid for atomic number  74.
 Defaulting to unpruned grid for atomic number  74.
 Defaulting to unpruned grid for atomic number  74.
 Defaulting to unpruned grid for atomic number  74.
 Defaulting to unpruned grid for atomic number  74.
 Defaulting to unpruned grid for atomic number  74.
 Defaulting to unpruned grid for atomic number  74.
 Defaulting to unpruned grid for atomic number  74.
 Defaulting to unpruned grid for atomic number  74.
 Defaulting to unpruned grid for atomic number  74.
 Defaulting to unpruned grid for atomic number  74.
 Defaulting to unpruned grid for atomic number  74.
 Defaulting to unpruned grid for atomic number  74.
 Defaulting to unpruned grid for atomic number  74.
 Defaulting to unpruned grid for atomic number  74.
 Defaulting to unpruned grid for atomic number  74.
 Defaulting to unpruned grid for atomic number  74.
 Defaulting to unpruned grid for atomic number  74.
 Inv3:  Mode=1 IEnd=    87350448.
 Iteration    1 A*A^-1 deviation from unit magnitude is 4.22D-15 for   1643.
 Iteration    1 A*A^-1 deviation from orthogonality  is 3.54D-15 for    875    746.
 Iteration    1 A^-1*A deviation from unit magnitude is 3.55D-15 for   2236.
 Iteration    1 A^-1*A deviation from orthogonality  is 4.13D-10 for    765    735.
 Iteration    2 A*A^-1 deviation from unit magnitude is 4.44D-15 for   4010.
 Iteration    2 A*A^-1 deviation from orthogonality  is 5.33D-15 for   3515   2225.
 Iteration    2 A^-1*A deviation from unit magnitude is 1.11D-15 for    372.
 Iteration    2 A^-1*A deviation from orthogonality  is 6.15D-16 for   4938   4810.
 Error on total polarization charges =  0.01613
 SCF Done:  E(RwB97XD) =  -7327.70181253     A.U. after   10 cycles
            NFock= 10  Conv=0.53D-08     -V/T= 2.0832
 SMD-CDS (non-electrostatic) energy       (kcal/mol) =      -3.58
 (included in total energy above)
 QCSCF skips out because SCF is already converged.

 **********************************************************************

            Population analysis using the SCF Density.

 **********************************************************************

 Alpha  occ. eigenvalues -- -197.29494-130.00087-130.00086-129.99977-101.48329
 Alpha  occ. eigenvalues --  -22.62613 -19.33646 -19.33639 -19.33636 -19.33613
 Alpha  occ. eigenvalues --  -19.30728 -19.30688 -19.30685 -19.30683 -19.30673
 Alpha  occ. eigenvalues --  -19.30669 -19.30665 -19.30632 -19.30558 -19.30371
 Alpha  occ. eigenvalues --  -19.30346 -19.30180 -19.29319 -19.29311 -19.29300
 Alpha  occ. eigenvalues --  -19.29276 -19.29267 -19.29256 -19.29224 -19.29200
 Alpha  occ. eigenvalues --  -19.29197 -19.29172 -19.29171 -19.29146 -19.29131
 Alpha  occ. eigenvalues --  -19.29098 -19.29090 -19.29083 -19.29081 -19.29057
 Alpha  occ. eigenvalues --  -19.29055 -19.29005 -19.28986 -19.28965 -19.28934
 Alpha  occ. eigenvalues --  -19.28857 -19.11570 -19.11563 -19.11554 -13.37492
 Alpha  occ. eigenvalues --  -13.37489 -13.37375 -10.70422 -10.70419 -10.70415
 Alpha  occ. eigenvalues --  -10.70413 -10.70412 -10.70411 -10.70306 -10.70299
 Alpha  occ. eigenvalues --  -10.70293 -10.29852 -10.29344 -10.29285 -10.29060
 Alpha  occ. eigenvalues --  -10.28971 -10.28959 -10.28086 -10.27523  -9.38803
 Alpha  occ. eigenvalues --   -7.13629  -7.13582  -7.13573  -3.23323  -3.23319
 Alpha  occ. eigenvalues --   -3.23307  -3.23299  -3.23294  -3.23280  -3.23265
 Alpha  occ. eigenvalues --   -3.23260  -3.23229  -3.22983  -3.22969  -3.22789
 Alpha  occ. eigenvalues --   -2.91841  -1.94219  -1.94185  -1.94173  -1.87723
 Alpha  occ. eigenvalues --   -1.87678  -1.87662  -1.87634  -1.87491  -1.87473
 Alpha  occ. eigenvalues --   -1.87469  -1.87453  -1.87430  -1.87281  -1.87252
 Alpha  occ. eigenvalues --   -1.87101  -1.86630  -1.86512  -1.86502  -1.86486
 Alpha  occ. eigenvalues --   -1.86460  -1.86439  -1.86346  -1.86337  -1.86319
 Alpha  occ. eigenvalues --   -1.86300  -1.86294  -1.86265  -1.86151  -1.86138
 Alpha  occ. eigenvalues --   -1.86127  -1.86118  -1.86047  -1.86032  -1.85993
 Alpha  occ. eigenvalues --   -1.85926  -1.85909  -1.85809  -1.85720  -1.85672
 Alpha  occ. eigenvalues --   -1.51180  -1.51180  -1.51073  -1.13071  -1.11301
 Alpha  occ. eigenvalues --   -1.11219  -1.11215  -1.08970  -1.08533  -1.08491
 Alpha  occ. eigenvalues --   -1.08321  -1.07570  -1.07512  -1.07500  -1.06901
 Alpha  occ. eigenvalues --   -1.06893  -1.06874  -1.06328  -1.06310  -1.05317
 Alpha  occ. eigenvalues --   -1.05307  -1.04981  -1.04977  -1.04969  -1.04193
 Alpha  occ. eigenvalues --   -1.04183  -1.04172  -1.04028  -1.04009  -1.03997
 Alpha  occ. eigenvalues --   -1.03940  -1.03917  -1.03898  -1.03764  -1.03738
 Alpha  occ. eigenvalues --   -1.03618  -1.03553  -1.03304  -1.03264  -1.03118
 Alpha  occ. eigenvalues --   -1.03105  -1.03026  -1.02963  -0.94365  -0.86651
 Alpha  occ. eigenvalues --   -0.86649  -0.86550  -0.86487  -0.86459  -0.86456
 Alpha  occ. eigenvalues --   -0.86453  -0.86443  -0.86362  -0.86325  -0.82805
 Alpha  occ. eigenvalues --   -0.79749  -0.71579  -0.69663  -0.68003  -0.64619
 Alpha  occ. eigenvalues --   -0.63994  -0.63915  -0.63905  -0.63327  -0.63309
 Alpha  occ. eigenvalues --   -0.63181  -0.62932  -0.62690  -0.62607  -0.62009
 Alpha  occ. eigenvalues --   -0.61629  -0.61617  -0.61520  -0.61259  -0.61249
 Alpha  occ. eigenvalues --   -0.61179  -0.60418  -0.59489  -0.59471  -0.59457
 Alpha  occ. eigenvalues --   -0.59420  -0.59371  -0.58570  -0.58004  -0.57976
 Alpha  occ. eigenvalues --   -0.57885  -0.57077  -0.57039  -0.57010  -0.56297
 Alpha  occ. eigenvalues --   -0.56278  -0.56123  -0.55703  -0.54861  -0.54811
 Alpha  occ. eigenvalues --   -0.54771  -0.54519  -0.54243  -0.54112  -0.54097
 Alpha  occ. eigenvalues --   -0.54020  -0.53962  -0.53238  -0.53200  -0.53071
 Alpha  occ. eigenvalues --   -0.53038  -0.52905  -0.52706  -0.52671  -0.52640
 Alpha  occ. eigenvalues --   -0.52602  -0.52511  -0.52469  -0.52436  -0.51612
 Alpha  occ. eigenvalues --   -0.51592  -0.51327  -0.51309  -0.51264  -0.51226
 Alpha  occ. eigenvalues --   -0.51172  -0.51163  -0.50929  -0.50765  -0.50589
 Alpha  occ. eigenvalues --   -0.50571  -0.50565  -0.49875  -0.49866  -0.49299
 Alpha  occ. eigenvalues --   -0.49277  -0.49248  -0.49216  -0.49163  -0.49076
 Alpha  occ. eigenvalues --   -0.48898  -0.48080  -0.48029  -0.47925  -0.47684
 Alpha  occ. eigenvalues --   -0.47388  -0.47289  -0.47248  -0.46998  -0.46931
 Alpha  occ. eigenvalues --   -0.46813  -0.46551  -0.46491  -0.46479  -0.46191
 Alpha  occ. eigenvalues --   -0.46142  -0.46106  -0.45589  -0.45102  -0.44920
 Alpha  occ. eigenvalues --   -0.44877  -0.44214  -0.44144  -0.44034  -0.43506
 Alpha  occ. eigenvalues --   -0.43280  -0.43228  -0.43115  -0.43100  -0.43068
 Alpha  occ. eigenvalues --   -0.42703  -0.42680  -0.42657  -0.42589  -0.42580
 Alpha  occ. eigenvalues --   -0.42497  -0.42463  -0.42442  -0.42286  -0.42269
 Alpha  occ. eigenvalues --   -0.42253  -0.42026  -0.41915  -0.41858  -0.41839
 Alpha  occ. eigenvalues --   -0.41167  -0.41159  -0.41131  -0.41016  -0.40546
 Alpha  occ. eigenvalues --   -0.40518  -0.40498  -0.40380  -0.39444  -0.39432
 Alpha  occ. eigenvalues --   -0.36975  -0.32543  -0.29165  -0.25113  -0.25087
 Alpha  occ. eigenvalues --   -0.23556
 Alpha virt. eigenvalues --   -0.09501  -0.09277  -0.08539  -0.08477  -0.07060
 Alpha virt. eigenvalues --   -0.07034  -0.06942  -0.04510  -0.04182  -0.04138
 Alpha virt. eigenvalues --   -0.03721  -0.03498  -0.03450  -0.03250  -0.03149
 Alpha virt. eigenvalues --   -0.03111  -0.03082  -0.02221  -0.02169  -0.02135
 Alpha virt. eigenvalues --   -0.01519  -0.01502  -0.01455  -0.01309  -0.01249
 Alpha virt. eigenvalues --   -0.00107  -0.00091  -0.00029   0.01397   0.01457
 Alpha virt. eigenvalues --    0.01905   0.01929   0.02027   0.02127   0.02165
 Alpha virt. eigenvalues --    0.02179   0.02245   0.02290   0.02764   0.02833
 Alpha virt. eigenvalues --    0.02898   0.02974   0.03007   0.04395   0.04521
 Alpha virt. eigenvalues --    0.06756   0.07278   0.07526   0.07545   0.07803
 Alpha virt. eigenvalues --    0.08018   0.08480   0.08531   0.08795   0.09155
 Alpha virt. eigenvalues --    0.09341   0.09386   0.09664   0.09888   0.10259
 Alpha virt. eigenvalues --    0.10332   0.10378   0.10443   0.10483   0.10642
 Alpha virt. eigenvalues --    0.10895   0.11051   0.11060   0.11641   0.11724
 Alpha virt. eigenvalues --    0.12216   0.13120   0.13235   0.13323   0.13593
 Alpha virt. eigenvalues --    0.13753   0.14451   0.14552   0.14679   0.14996
 Alpha virt. eigenvalues --    0.15558   0.16154   0.16337   0.16579   0.16753
 Alpha virt. eigenvalues --    0.16772   0.16906   0.17083   0.17250   0.17718
 Alpha virt. eigenvalues --    0.17908   0.18163   0.18225   0.18371   0.18577
 Alpha virt. eigenvalues --    0.18748   0.19060   0.19306   0.19413   0.19576
 Alpha virt. eigenvalues --    0.19656   0.20193   0.20281   0.20495   0.20587
 Alpha virt. eigenvalues --    0.20760   0.20884   0.20991   0.21371   0.21420
 Alpha virt. eigenvalues --    0.21534   0.21629   0.21727   0.21871   0.22032
 Alpha virt. eigenvalues --    0.22447   0.22734   0.22916   0.23131   0.23219
 Alpha virt. eigenvalues --    0.23469   0.23788   0.23983   0.24280   0.24582
 Alpha virt. eigenvalues --    0.24741   0.25212   0.25426   0.25657   0.25860
 Alpha virt. eigenvalues --    0.26009   0.26210   0.26421   0.26605   0.26660
 Alpha virt. eigenvalues --    0.26966   0.27224   0.27356   0.27444   0.27754
 Alpha virt. eigenvalues --    0.28027   0.28273   0.28325   0.28660   0.28743
 Alpha virt. eigenvalues --    0.29170   0.29482   0.29889   0.30269   0.30507
 Alpha virt. eigenvalues --    0.30721   0.30911   0.31255   0.31487   0.31835
 Alpha virt. eigenvalues --    0.32309   0.34755   0.35207   0.35762   0.36320
 Alpha virt. eigenvalues --    0.36662   0.36924   0.37269   0.38108   0.38398
 Alpha virt. eigenvalues --    0.38647   0.39191   0.39522   0.39641   0.40227
 Alpha virt. eigenvalues --    0.40705   0.40851   0.40970   0.41121   0.41747
 Alpha virt. eigenvalues --    0.42125   0.42479   0.42809   0.43292   0.43548
 Alpha virt. eigenvalues --    0.43703   0.44508   0.44768   0.44898   0.45272
 Alpha virt. eigenvalues --    0.45786   0.46333   0.46547   0.46688   0.47352
 Alpha virt. eigenvalues --    0.47396   0.47646   0.47855   0.48086   0.48222
 Alpha virt. eigenvalues --    0.48424   0.48458   0.48585   0.48696   0.48986
 Alpha virt. eigenvalues --    0.49155   0.49401   0.49450   0.49781   0.49839
 Alpha virt. eigenvalues --    0.50181   0.50527   0.50661   0.50718   0.50978
 Alpha virt. eigenvalues --    0.51617   0.51708   0.51855   0.52212   0.52424
 Alpha virt. eigenvalues --    0.52664   0.52894   0.53015   0.53144   0.53313
 Alpha virt. eigenvalues --    0.53655   0.54035   0.54280   0.54352   0.54514
 Alpha virt. eigenvalues --    0.54941   0.55393   0.55644   0.56352   0.56434
 Alpha virt. eigenvalues --    0.56835   0.57399   0.57780   0.58025   0.58288
 Alpha virt. eigenvalues --    0.58568   0.59075   0.59444   0.60141   0.60764
 Alpha virt. eigenvalues --    0.61349   0.62280   0.62583   0.62768   0.63208
 Alpha virt. eigenvalues --    0.64112   0.65265   0.65675   0.65709   0.65929
 Alpha virt. eigenvalues --    0.66111   0.66551   0.66995   0.67368   0.67425
 Alpha virt. eigenvalues --    0.67821   0.68332   0.69643   0.70233   0.71088
 Alpha virt. eigenvalues --    0.71395   0.71885   0.72129   0.72193   0.72254
 Alpha virt. eigenvalues --    0.72546   0.72700   0.73241   0.73385   0.73971
 Alpha virt. eigenvalues --    0.74600   0.74837   0.75537   0.75659   0.75865
 Alpha virt. eigenvalues --    0.76167   0.76781   0.76893   0.77178   0.77460
 Alpha virt. eigenvalues --    0.77941   0.78460   0.79050   0.79476   0.79720
 Alpha virt. eigenvalues --    0.80271   0.80491   0.80624   0.80714   0.81491
 Alpha virt. eigenvalues --    0.81522   0.81816   0.82014   0.82517   0.83174
 Alpha virt. eigenvalues --    0.84006   0.84224   0.84763   0.85365   0.85834
 Alpha virt. eigenvalues --    0.87188   0.87542   0.87961   0.88050   0.88735
 Alpha virt. eigenvalues --    0.88873   0.89019   0.89489   0.89650   0.90240
 Alpha virt. eigenvalues --    0.90711   0.90961   0.91224   0.91484   0.91737
 Alpha virt. eigenvalues --    0.92849   0.93042   0.93551   0.93886   0.94058
 Alpha virt. eigenvalues --    0.94192   0.94780   0.95654   0.95904   0.96532
 Alpha virt. eigenvalues --    0.96825   0.97055   0.97280   0.97698   0.97794
 Alpha virt. eigenvalues --    0.98131   0.98289   0.98401   0.98541   0.98780
 Alpha virt. eigenvalues --    0.98908   0.99438   0.99916   1.00403   1.00604
 Alpha virt. eigenvalues --    1.00886   1.01277   1.01577   1.01678   1.01746
 Alpha virt. eigenvalues --    1.02121   1.02233   1.02437   1.02455   1.02647
 Alpha virt. eigenvalues --    1.02908   1.03443   1.03527   1.03670   1.03831
 Alpha virt. eigenvalues --    1.04114   1.04193   1.04364   1.04622   1.04688
 Alpha virt. eigenvalues --    1.04969   1.05087   1.05215   1.05414   1.05794
 Alpha virt. eigenvalues --    1.05929   1.06350   1.06457   1.06985   1.07135
 Alpha virt. eigenvalues --    1.07522   1.07820   1.08612   1.09066   1.09266
 Alpha virt. eigenvalues --    1.09421   1.09852   1.09901   1.10124   1.10226
 Alpha virt. eigenvalues --    1.10743   1.10847   1.10960   1.11027   1.11277
 Alpha virt. eigenvalues --    1.11480   1.11672   1.11751   1.12089   1.12482
 Alpha virt. eigenvalues --    1.12800   1.13447   1.13620   1.14143   1.14808
 Alpha virt. eigenvalues --    1.15277   1.15770   1.16101   1.16275   1.16626
 Alpha virt. eigenvalues --    1.17048   1.17652   1.17848   1.18618   1.18665
 Alpha virt. eigenvalues --    1.19458   1.20605   1.20957   1.21167   1.21315
 Alpha virt. eigenvalues --    1.21482   1.21923   1.22159   1.22985   1.23536
 Alpha virt. eigenvalues --    1.25110   1.26068   1.26501   1.26723   1.27085
 Alpha virt. eigenvalues --    1.27559   1.28048   1.28334   1.28524   1.28601
 Alpha virt. eigenvalues --    1.28788   1.29146   1.29164   1.29415   1.29699
 Alpha virt. eigenvalues --    1.30131   1.30235   1.30384   1.30775   1.30839
 Alpha virt. eigenvalues --    1.31214   1.32202   1.32497   1.33004   1.33200
 Alpha virt. eigenvalues --    1.33268   1.33462   1.33645   1.33899   1.34046
 Alpha virt. eigenvalues --    1.34305   1.34357   1.34569   1.34808   1.34906
 Alpha virt. eigenvalues --    1.34932   1.35239   1.35596   1.35786   1.36095
 Alpha virt. eigenvalues --    1.36160   1.36587   1.36750   1.36848   1.37000
 Alpha virt. eigenvalues --    1.37142   1.37305   1.37592   1.37914   1.37919
 Alpha virt. eigenvalues --    1.38190   1.38508   1.38711   1.38955   1.39069
 Alpha virt. eigenvalues --    1.39352   1.39518   1.39604   1.39782   1.40192
 Alpha virt. eigenvalues --    1.40316   1.40459   1.40537   1.40712   1.40949
 Alpha virt. eigenvalues --    1.41098   1.41230   1.41456   1.41905   1.41974
 Alpha virt. eigenvalues --    1.42589   1.43042   1.43300   1.43455   1.43498
 Alpha virt. eigenvalues --    1.43918   1.44284   1.44567   1.44710   1.45672
 Alpha virt. eigenvalues --    1.46333   1.47167   1.47585   1.47706   1.48102
 Alpha virt. eigenvalues --    1.48245   1.48670   1.49188   1.49584   1.49886
 Alpha virt. eigenvalues --    1.50499   1.51011   1.51315   1.51917   1.53321
 Alpha virt. eigenvalues --    1.53724   1.55348   1.55787   1.55795   1.56019
 Alpha virt. eigenvalues --    1.56181   1.56350   1.56661   1.56768   1.57144
 Alpha virt. eigenvalues --    1.57184   1.58024   1.58248   1.59231   1.59337
 Alpha virt. eigenvalues --    1.59849   1.60245   1.60352   1.60471   1.60546
 Alpha virt. eigenvalues --    1.60696   1.61204   1.61898   1.62216   1.62400
 Alpha virt. eigenvalues --    1.64047   1.64443   1.65127   1.65749   1.66766
 Alpha virt. eigenvalues --    1.67476   1.67919   1.69888   1.70516   1.70864
 Alpha virt. eigenvalues --    1.71278   1.71644   1.72329   1.73203   1.74154
 Alpha virt. eigenvalues --    1.75277   1.75451   1.75569   1.75944   1.76779
 Alpha virt. eigenvalues --    1.76947   1.76997   1.77617   1.77861   1.78719
 Alpha virt. eigenvalues --    1.78890   1.79383   1.79952   1.80488   1.80750
 Alpha virt. eigenvalues --    1.81168   1.81279   1.82090   1.82253   1.82930
 Alpha virt. eigenvalues --    1.83008   1.83255   1.83954   1.84187   1.84533
 Alpha virt. eigenvalues --    1.85194   1.85501   1.85750   1.86124   1.86332
 Alpha virt. eigenvalues --    1.86543   1.87153   1.87429   1.88165   1.88670
 Alpha virt. eigenvalues --    1.89370   1.89923   1.90162   1.90341   1.90371
 Alpha virt. eigenvalues --    1.90764   1.90959   1.91301   1.92347   1.93252
 Alpha virt. eigenvalues --    1.94878   1.95303   1.95496   1.95705   1.96036
 Alpha virt. eigenvalues --    1.98108   1.99283   1.99483   1.99550   2.04148
 Alpha virt. eigenvalues --    2.06263   2.07309   2.08163   2.08571   2.08738
 Alpha virt. eigenvalues --    2.09063   2.09121   2.09542   2.10195   2.11054
 Alpha virt. eigenvalues --    2.11534   2.11993   2.12754   2.14764   2.15595
 Alpha virt. eigenvalues --    2.15988   2.16856   2.17265   2.17480   2.17799
 Alpha virt. eigenvalues --    2.20004   2.20410   2.20491   2.20704   2.20881
 Alpha virt. eigenvalues --    2.21170   2.22235   2.24338   2.25354   2.26105
 Alpha virt. eigenvalues --    2.26432   2.26819   2.27386   2.28499   2.28959
 Alpha virt. eigenvalues --    2.29172   2.29900   2.30432   2.33467   2.35696
 Alpha virt. eigenvalues --    2.36742   2.40283   2.41001   2.41074   2.43631
 Alpha virt. eigenvalues --    2.44260   2.50381   2.51576   2.57241   2.64718
 Alpha virt. eigenvalues --    2.64780   2.64916   2.65436   2.65964   2.66596
 Alpha virt. eigenvalues --    2.66759   2.66825   2.66938   2.66955   2.67053
 Alpha virt. eigenvalues --    2.67095   2.67156   2.67325   2.67351   2.67411
 Alpha virt. eigenvalues --    2.67641   2.67681   2.67787   2.67834   2.67893
 Alpha virt. eigenvalues --    2.68589   2.68903   2.69225   2.69378   2.69999
 Alpha virt. eigenvalues --    2.70187   2.70295   2.70650   2.70722   2.70828
 Alpha virt. eigenvalues --    2.70997   2.71367   2.71423   2.71524   2.71589
 Alpha virt. eigenvalues --    2.71651   2.71910   2.72701   2.72931   2.72974
 Alpha virt. eigenvalues --    2.73116   2.73206   2.73256   2.73336   2.73373
 Alpha virt. eigenvalues --    2.73500   2.73762   2.73880   2.73904   2.73987
 Alpha virt. eigenvalues --    2.74051   2.74146   2.74315   2.74524   2.74694
 Alpha virt. eigenvalues --    2.74756   2.74902   2.75043   2.75556   2.75950
 Alpha virt. eigenvalues --    2.76155   2.76306   2.76454   2.76707   2.76895
 Alpha virt. eigenvalues --    2.77078   2.77200   2.77202   2.78438   2.78584
 Alpha virt. eigenvalues --    2.78629   2.78910   2.79786   2.80063   2.80155
 Alpha virt. eigenvalues --    2.81096   2.81823   2.81838   2.82135   2.82319
 Alpha virt. eigenvalues --    2.82361   2.82707   2.83093   2.83258   2.83648
 Alpha virt. eigenvalues --    2.83764   2.83920   2.83995   2.84244   2.85103
 Alpha virt. eigenvalues --    2.85549   2.86121   2.86190   2.86306   2.86355
 Alpha virt. eigenvalues --    2.86607   2.86799   2.86919   2.88256   2.88548
 Alpha virt. eigenvalues --    2.88693   2.89104   2.89676   2.89747   2.89836
 Alpha virt. eigenvalues --    2.89924   2.90021   2.90100   2.90590   2.90666
 Alpha virt. eigenvalues --    2.90783   2.91755   2.91899   2.92063   2.92085
 Alpha virt. eigenvalues --    2.92272   2.92508   2.92771   2.92906   2.93050
 Alpha virt. eigenvalues --    2.93360   2.93499   2.93667   2.93984   2.94122
 Alpha virt. eigenvalues --    2.94185   2.94999   2.95171   2.95379   2.95728
 Alpha virt. eigenvalues --    2.95813   2.95838   2.96377   2.96577   2.96638
 Alpha virt. eigenvalues --    2.96731   2.96918   2.96963   2.97193   2.97397
 Alpha virt. eigenvalues --    2.97582   2.97725   2.97922   2.98304   2.99149
 Alpha virt. eigenvalues --    2.99302   2.99401   2.99638   2.99706   3.00028
 Alpha virt. eigenvalues --    3.00090   3.00393   3.01007   3.01342   3.01380
 Alpha virt. eigenvalues --    3.02696   3.03098   3.03339   3.03684   3.05209
 Alpha virt. eigenvalues --    3.06556   3.06767   3.07202   3.11031   3.11668
 Alpha virt. eigenvalues --    3.11798   3.11925   3.12216   3.12697   3.13735
 Alpha virt. eigenvalues --    3.13867   3.14034   3.16748   3.19728   3.21804
 Alpha virt. eigenvalues --    3.21864   3.23914   3.32612   3.41221   3.41594
 Alpha virt. eigenvalues --    3.42227   3.43262   3.44991   3.45006   3.45948
 Alpha virt. eigenvalues --    3.46354   3.46434   3.47245   3.47534   3.47887
 Alpha virt. eigenvalues --    3.48122   3.51223   3.51839   3.52423   3.53605
 Alpha virt. eigenvalues --    3.53931   3.54351   3.54675   3.54789   3.55005
 Alpha virt. eigenvalues --    3.55261   3.55393   3.55594   3.56701   3.57492
 Alpha virt. eigenvalues --    3.57685   3.58565   3.59502   3.59637   3.60345
 Alpha virt. eigenvalues --    3.60639   3.61269   3.61543   3.62134   3.62426
 Alpha virt. eigenvalues --    3.69435   3.74750  68.64120  68.65273  68.66246
 Alpha virt. eigenvalues --   68.68334  68.72530  68.73566  68.81668  68.82642
 Alpha virt. eigenvalues --   68.83398  68.85553  68.86736  68.88066 576.22561
 Alpha virt. eigenvalues --  576.23688 576.24640 576.26683 576.30884 576.31908
 Alpha virt. eigenvalues --  576.39861 576.40812 576.41547 576.43609 576.44761
 Alpha virt. eigenvalues --  576.46083
          Condensed to atoms (all electrons):
 Mulliken charges:
               1
     1  Cl  -0.895325
     2  C   -0.079707
     3  C    0.048525
     4  C   -0.078954
     5  C   -0.033785
     6  C   -0.033858
     7  C   -0.049855
     8  H    0.030473
     9  H    0.029394
    10  H    0.041117
    11  H    0.036925
    12  H    0.040033
    13  C   -0.123361
    14  C    0.022612
    15  H    0.021294
    16  H    0.037165
    17  H    0.024518
    18  O   -0.663949
    19  O   -0.663729
    20  O   -0.655430
    21  O   -0.664349
    22  W    1.735892
    23  W    1.678171
    24  W    1.688083
    25  W    1.698354
    26  W    1.678070
    27  W    1.729823
    28  W    1.621519
    29  W    1.689212
    30  O   -0.320143
    31  O   -0.365744
    32  O   -0.367876
    33  O   -0.360376
    34  O   -0.665326
    35  O   -0.671509
    36  O   -0.661935
    37  O   -0.664944
    38  O   -0.368246
    39  O   -0.365024
    40  O   -0.297421
    41  O   -0.365183
    42  O   -0.670859
    43  O   -0.664374
    44  O   -0.661611
    45  O   -0.666192
    46  O   -0.368719
    47  O   -0.320472
    48  O   -0.362317
    49  O   -0.362198
    50  W    1.676049
    51  W    1.681949
    52  W    1.685341
    53  W    1.687890
    54  O   -0.726344
    55  O   -0.709325
    56  O   -0.726705
    57  O   -0.724222
    58  O   -0.707247
    59  O   -0.728035
    60  O   -0.726236
    61  O   -0.722057
    62  O   -0.725821
    63  O   -0.708597
    64  O   -0.725522
    65  O   -0.727158
    66  O   -0.802751
    67  O   -0.801936
    68  O   -0.798842
    69  O   -0.810453
    70  K    0.863248
    71  K    0.863146
    72  K    0.860373
    73  V    1.194849
 Sum of Mulliken charges =  -1.00000
 Mulliken charges with hydrogens summed into heavy atoms:
               1
     1  Cl  -0.895325
     2  C   -0.049234
     3  C    0.048525
     4  C   -0.049560
     5  C    0.007332
     6  C    0.003068
     7  C   -0.009822
    13  C   -0.102067
    14  C    0.084295
    18  O   -0.663949
    19  O   -0.663729
    20  O   -0.655430
    21  O   -0.664349
    22  W    1.735892
    23  W    1.678171
    24  W    1.688083
    25  W    1.698354
    26  W    1.678070
    27  W    1.729823
    28  W    1.621519
    29  W    1.689212
    30  O   -0.320143
    31  O   -0.365744
    32  O   -0.367876
    33  O   -0.360376
    34  O   -0.665326
    35  O   -0.671509
    36  O   -0.661935
    37  O   -0.664944
    38  O   -0.368246
    39  O   -0.365024
    40  O   -0.297421
    41  O   -0.365183
    42  O   -0.670859
    43  O   -0.664374
    44  O   -0.661611
    45  O   -0.666192
    46  O   -0.368719
    47  O   -0.320472
    48  O   -0.362317
    49  O   -0.362198
    50  W    1.676049
    51  W    1.681949
    52  W    1.685341
    53  W    1.687890
    54  O   -0.726344
    55  O   -0.709325
    56  O   -0.726705
    57  O   -0.724222
    58  O   -0.707247
    59  O   -0.728035
    60  O   -0.726236
    61  O   -0.722057
    62  O   -0.725821
    63  O   -0.708597
    64  O   -0.725522
    65  O   -0.727158
    66  O   -0.802751
    67  O   -0.801936
    68  O   -0.798842
    69  O   -0.810453
    70  K    0.863248
    71  K    0.863146
    72  K    0.860373
    73  V    1.194849
 Electronic spatial extent (au):  <R**2>=         317282.8460
 Charge=             -1.0000 electrons
 Dipole moment (field-independent basis, Debye):
    X=             50.3151    Y=            -51.1921    Z=            -38.7337  Tot=             81.5631
 Quadrupole moment (field-independent basis, Debye-Ang):
   XX=          -1041.7083   YY=           -889.8438   ZZ=           -915.0247
   XY=            447.4555   XZ=            450.3167   YZ=           -477.6450
 Traceless Quadrupole moment (field-independent basis, Debye-Ang):
   XX=            -92.8494   YY=             59.0151   ZZ=             33.8342
   XY=            447.4555   XZ=            450.3167   YZ=           -477.6450
 Octapole moment (field-independent basis, Debye-Ang**2):
  XXX=          13206.0104  YYY=          -1091.8454  ZZZ=         -19149.3600  XYY=           6053.6066
  XXY=          -3540.4524  XXZ=          -9284.9224  XZZ=           7251.4663  YZZ=          -4171.7986
  YYZ=          -9056.3749  XYZ=           4730.9388
 Hexadecapole moment (field-independent basis, Debye-Ang**3):
 XXXX=        -155858.8615 YYYY=         -54179.3405 ZZZZ=        -346361.7564 XXXY=          35409.0304
 XXXZ=         120427.5305 YYYX=          20764.8794 YYYZ=         -13050.2412 ZZZX=         126608.8101
 ZZZY=         -35618.5285 XXYY=         -55199.8431 XXZZ=        -106319.1271 YYZZ=        -100005.3842
 XXYZ=         -41119.9363 YYXZ=          61364.1982 ZZXY=          49711.1245
 N-N= 2.097641874145D+04 E-N=-5.903718425245D+04  KE= 6.765134601808D+03
   1 Symmetry operations used in ECPInt.
 ECPInt:  NShTT=  127765 NPrTT=  468030 LenC2=   96528 LenP2D=  220886.
 LDataN:  DoStor=T MaxTD1= 9 Len=  602
 D1PCM: PCM CHGder 1st derivatives, ID1Alg=3 FixD1E=F DoIter=F DoCFld=F I1PDM=0.
 Calling FoFJK, ICntrl=      2127 FMM=T ISym2X=0 I1Cent= 0 IOpClX= 0 NMat=1 NMatS=1 NMatT=0.
 Defaulting to unpruned grid for atomic number  74.
 Defaulting to unpruned grid for atomic number  74.
 Defaulting to unpruned grid for atomic number  74.
 Defaulting to unpruned grid for atomic number  74.
 Defaulting to unpruned grid for atomic number  74.
 Defaulting to unpruned grid for atomic number  74.
 Defaulting to unpruned grid for atomic number  74.
 Defaulting to unpruned grid for atomic number  74.
 Defaulting to unpruned grid for atomic number  74.
 Defaulting to unpruned grid for atomic number  74.
 Defaulting to unpruned grid for atomic number  74.
 Defaulting to unpruned grid for atomic number  74.
 Defaulting to unpruned grid for atomic number  74.
 Defaulting to unpruned grid for atomic number  74.
 Defaulting to unpruned grid for atomic number  74.
 Defaulting to unpruned grid for atomic number  74.
 Defaulting to unpruned grid for atomic number  74.
 Defaulting to unpruned grid for atomic number  74.
 Defaulting to unpruned grid for atomic number  74.
 Defaulting to unpruned grid for atomic number  74.
 Defaulting to unpruned grid for atomic number  74.
 Defaulting to unpruned grid for atomic number  74.
 Defaulting to unpruned grid for atomic number  74.
 Defaulting to unpruned grid for atomic number  74.
 Defaulting to unpruned grid for atomic number  74.
 Defaulting to unpruned grid for atomic number  74.
 Defaulting to unpruned grid for atomic number  74.
 Defaulting to unpruned grid for atomic number  74.
 Defaulting to unpruned grid for atomic number  74.
 Defaulting to unpruned grid for atomic number  74.
 Defaulting to unpruned grid for atomic number  74.
 Defaulting to unpruned grid for atomic number  74.
 Defaulting to unpruned grid for atomic number  74.
 Defaulting to unpruned grid for atomic number  74.
 Defaulting to unpruned grid for atomic number  74.
 Defaulting to unpruned grid for atomic number  74.
 Defaulting to unpruned grid for atomic number  74.
 Defaulting to unpruned grid for atomic number  74.
 Defaulting to unpruned grid for atomic number  74.
 Defaulting to unpruned grid for atomic number  74.
 Defaulting to unpruned grid for atomic number  74.
 Defaulting to unpruned grid for atomic number  74.
 Defaulting to unpruned grid for atomic number  74.
 Defaulting to unpruned grid for atomic number  74.
 Defaulting to unpruned grid for atomic number  74.
 Defaulting to unpruned grid for atomic number  74.
 Defaulting to unpruned grid for atomic number  74.
 Defaulting to unpruned grid for atomic number  74.
 Defaulting to unpruned grid for atomic number  74.
 Defaulting to unpruned grid for atomic number  74.
 Defaulting to unpruned grid for atomic number  74.
 Defaulting to unpruned grid for atomic number  74.
 Defaulting to unpruned grid for atomic number  74.
 Defaulting to unpruned grid for atomic number  74.
 Defaulting to unpruned grid for atomic number  74.
 Defaulting to unpruned grid for atomic number  74.
 -------------------------------------------------------------------
 Center     Atomic                   Forces (Hartrees/Bohr)
 Number     Number              X              Y              Z
 -------------------------------------------------------------------
      1       17          -0.003027069    0.007917212    0.002352993
      2        6          -0.001499368   -0.000611067   -0.002065605
      3        6          -0.000789255   -0.002110830    0.003501845
      4        6           0.001402688    0.002007071    0.000530441
      5        6           0.000860753    0.000027716    0.001423671
      6        6           0.000022213   -0.000329370    0.000686298
      7        6          -0.001025063   -0.001239839    0.000561835
      8        1          -0.000340198    0.000432649   -0.000153638
      9        1          -0.000417935    0.000191163   -0.000051189
     10        1          -0.000276696   -0.000135597    0.000218871
     11        1           0.000437243   -0.000340433   -0.000018110
     12        1           0.000039735    0.000233335    0.000128677
     13        6           0.007778268    0.010949619   -0.007671335
     14        6          -0.001597477   -0.017555085    0.000208315
     15        1          -0.000990622    0.000305540    0.000017346
     16        1          -0.000306524    0.000869845    0.000750465
     17        1          -0.001509686    0.000510997   -0.000485276
     18        8          -0.003400976    0.000527322    0.000784285
     19        8           0.003306994   -0.000807818    0.000994349
     20        8           0.002667871   -0.002997354   -0.000523119
     21        8          -0.002447385    0.002340014   -0.000998847
     22       74           0.001736250    0.010650011   -0.009843010
     23       74          -0.002450755   -0.010336929   -0.010123439
     24       74           0.006725228    0.008607939    0.010015171
     25       74          -0.007273516   -0.007414046    0.010314152
     26       74           0.008170395   -0.007597147   -0.010848342
     27       74          -0.008235724    0.008205944   -0.010727209
     28       74          -0.011757489    0.003069736    0.010990495
     29       74           0.011044801   -0.001851394    0.010905180
     30        8          -0.000536713   -0.002704014    0.003465553
     31        8           0.000250428    0.003086620    0.003160004
     32        8          -0.002347066   -0.002026020   -0.003145902
     33        8           0.002393293    0.001879562   -0.003330460
     34        8          -0.001209444   -0.000693147    0.003237566
     35        8           0.001391781    0.000109092    0.003446168
     36        8           0.000765218   -0.001492982   -0.003299140
     37        8          -0.000332780    0.001233254   -0.003373507
     38        8          -0.004453672   -0.001849541   -0.001342040
     39        8           0.004599993    0.001779779   -0.001466128
     40        8           0.002125840   -0.006164757    0.000923110
     41        8          -0.001066136    0.004726585    0.001308269
     42        8          -0.001982195   -0.002767123    0.001347456
     43        8           0.002423490    0.002522498    0.001084389
     44        8          -0.000316533   -0.003642760   -0.000653652
     45        8           0.000870905    0.003336013   -0.001330779
     46        8          -0.002637796    0.002913465    0.003051312
     47        8           0.002861628   -0.002484597    0.003229951
     48        8           0.004267673   -0.000437061   -0.003512933
     49        8          -0.003933950    0.000398490   -0.003158571
     50       74           0.014547903    0.004870918    0.003087670
     51       74          -0.014931953   -0.003968262    0.003367900
     52       74          -0.005764785    0.015930843   -0.003303245
     53       74           0.004761678   -0.014406514   -0.002859997
     54        8          -0.000655389    0.001477146    0.002077650
     55        8           0.000717781   -0.001537608    0.002008032
     56        8           0.001754944   -0.000158025   -0.002101044
     57        8          -0.001353411   -0.000547853   -0.002117139
     58        8           0.000326997   -0.002493917    0.001189816
     59        8           0.000346569    0.002196922    0.001445172
     60        8          -0.001393147   -0.001659560   -0.001547872
     61        8           0.001683522    0.001396661   -0.001415241
     62        8          -0.001312499    0.002025794    0.000755406
     63        8           0.001129775   -0.002583348    0.000507674
     64        8           0.002367796   -0.000225720   -0.000966495
     65        8          -0.002375867   -0.000264236   -0.000813708
     66        8          -0.026932350   -0.004908198    0.017230360
     67        8           0.027340854    0.005613463    0.017127504
     68        8           0.011495520   -0.025881667   -0.017319715
     69        8          -0.011329663    0.024748664   -0.017536510
     70       19           0.000187516   -0.000972054   -0.000640635
     71       19           0.000734520    0.000077989    0.000594737
     72       19          -0.000930517   -0.000335245    0.000550686
     73       23          -0.000396459    0.000361249    0.000163058
 -------------------------------------------------------------------
 Cartesian Forces:  Max     0.027340854 RMS     0.006190596

 GradGradGradGradGradGradGradGradGradGradGradGradGradGradGradGradGradGrad
 Berny optimization.
 Search for a local minimum.
 Step number   1 out of a maximum of    2
 All quantities printed in internal units (Hartrees-Bohrs-Radians)
 Second derivative matrix not updated -- first step.
 ITU=  0
     Eigenvalues ---    0.00000   0.00000   0.00000   0.00010   0.00093
     Eigenvalues ---    0.00094   0.00256   0.00544   0.00641   0.01642
     Eigenvalues ---    0.01952   0.02903   0.02928   0.03212   0.03432
     Eigenvalues ---    0.03454   0.03724   0.03734   0.04160   0.04496
     Eigenvalues ---    0.04605   0.04615   0.04648   0.04845   0.04856
     Eigenvalues ---    0.04989   0.05361   0.05577   0.05609   0.06374
     Eigenvalues ---    0.06412   0.06532   0.06783   0.06859   0.07046
     Eigenvalues ---    0.07300   0.07397   0.07601   0.08368   0.08392
     Eigenvalues ---    0.08724   0.08763   0.08908   0.08938   0.09739
     Eigenvalues ---    0.09976   0.10121   0.10425   0.10471   0.10558
     Eigenvalues ---    0.10831   0.10901   0.11592   0.11698   0.12066
     Eigenvalues ---    0.12095   0.12185   0.12543   0.12551   0.12688
     Eigenvalues ---    0.12713   0.12811   0.12837   0.13099   0.13158
     Eigenvalues ---    0.13820   0.14005   0.14342   0.14577   0.14756
     Eigenvalues ---    0.16931   0.16962   0.17117   0.17152   0.17588
     Eigenvalues ---    0.17688   0.18583   0.19870   0.20020   0.20269
     Eigenvalues ---    0.20933   0.21052   0.22000   0.22120   0.22185
     Eigenvalues ---    0.22619   0.23180   0.23427   0.24005   0.24034
     Eigenvalues ---    0.24637   0.24788   0.24980   0.25579   0.26252
     Eigenvalues ---    0.26386   0.26603   0.27638   0.27736   0.27987
     Eigenvalues ---    0.28329   0.28358   0.28895   0.29638   0.29929
     Eigenvalues ---    0.30547   0.30650   0.30662   0.30739   0.30779
     Eigenvalues ---    0.30979   0.31227   0.31443   0.31587   0.32379
     Eigenvalues ---    0.32545   0.32595   0.32759   0.32910   0.33445
     Eigenvalues ---    0.33558   0.35111   0.35597   0.35904   0.36921
     Eigenvalues ---    0.37492   0.37659   0.37853   0.38339   0.38634
     Eigenvalues ---    0.38980   0.39236   0.40226   0.40307   0.41219
     Eigenvalues ---    0.42298   0.42342   0.43583   0.44280   0.44851
     Eigenvalues ---    0.45379   0.45639   0.45999   0.48133   0.48410
     Eigenvalues ---    0.48634   0.48963   0.49025   0.49652   0.49778
     Eigenvalues ---    0.50117   0.50895   0.51363   0.52059   0.52492
     Eigenvalues ---    0.53191   0.54001   0.56422   0.58560   0.64493
     Eigenvalues ---    0.67516   0.76660   0.81501   0.82733   0.96846
     Eigenvalues ---    0.97259   0.98739   0.99343   1.01580   1.04431
     Eigenvalues ---    1.07368   1.11099   1.11630   1.12249   1.15437
     Eigenvalues ---    1.18784   1.19271   1.20427   1.22153   1.22574
     Eigenvalues ---    1.22780   1.26140   1.26608   1.26801   1.27140
     Eigenvalues ---    1.27746   1.29298   1.29588   1.45237   1.45588
     Eigenvalues ---    1.45763   1.48152   1.51446   1.51837   1.52146
     Eigenvalues ---    1.52715   1.55764   1.55835   1.57216   1.58604
     Eigenvalues ---    1.58690   1.59358   1.61787   1.64346   1.74895
     Eigenvalues ---    1.85376   1.89104   1.94989   1.95297   1.95837
     Eigenvalues ---    2.06473   2.12778   3.55570
 Eigenvalue     1 is   0.00D+00 Eigenvector:
                          Y16       Y14       Y15       Y17       Y13
   1                    0.17433   0.17433   0.17433   0.17433   0.17433
                          Y8        Y3        Y9        Y2        Y4
   1                    0.17433   0.17433   0.17433   0.17433   0.17433
 Eigenvalue     2 is   3.19D-07 Eigenvector:
                          Y16       X16       X11       Y11       Y15
   1                    0.31945  -0.27132   0.26530  -0.24585   0.23434
                          Y14       X14       Y17       Y13       X6
   1                    0.23322  -0.19262   0.19122   0.18592   0.18487
 Eigenvalue     3 is   2.90D-06 Eigenvector:
                          X9        X10       Y12       X12       Y8
   1                    0.33846   0.29190   0.27303  -0.25305   0.25159
                          Y9        X15       Y10       X17       X8
   1                   -0.24477   0.23248  -0.22277  -0.20874  -0.20748
 Quadratic step=2.801D+01 exceeds max=3.000D-01 adjusted using Lamda=-1.248D-02.
 Angle between NR and scaled steps=  40.97 degrees.
 Angle between quadratic step and forces=  65.29 degrees.
 Linear search not attempted -- first point.
 B after Tr=    -0.000238    0.006543    0.001356
         Rot=    1.000000   -0.000131    0.000014    0.000053 Ang=  -0.02 deg.
 Variable       Old X    -DE/DX   Delta X   Delta X   Delta X     New X
                                 (Linear)    (Quad)   (Total)
    X1      -18.23562  -0.00303   0.00000  -0.00297  -0.00211 -18.23773
    Y1       15.63698   0.00792   0.00000   0.00794   0.01122  15.64820
    Z1       19.92883   0.00235   0.00000   0.00246   0.00738  19.93621
    X2      -15.76859  -0.00150   0.00000  -0.01047  -0.01051 -15.77910
    Y2        8.03092  -0.00061   0.00000  -0.01195  -0.00976   8.02116
    Z2       23.08201  -0.00207   0.00000  -0.01091  -0.00791  23.07410
    X3      -17.27164  -0.00079   0.00000   0.00316   0.00311 -17.26853
    Y3        7.42962  -0.00211   0.00000  -0.02994  -0.02703   7.40259
    Z3       20.97130   0.00350   0.00000  -0.01183  -0.00904  20.96226
    X4      -18.99555   0.00140   0.00000  -0.01046  -0.01073 -19.00628
    Y4        5.41648   0.00201   0.00000  -0.00884  -0.00581   5.41067
    Z4       21.19369   0.00053   0.00000   0.01437   0.01659  21.21028
    X5      -19.28601   0.00086   0.00000  -0.00586  -0.00633 -19.29234
    Y5        4.12212   0.00003   0.00000  -0.00198   0.00048   4.12259
    Z5       23.46257   0.00142   0.00000   0.02165   0.02353  23.48610
    X6      -17.83441   0.00002   0.00000   0.00250   0.00204 -17.83237
    Y6        4.79146  -0.00033   0.00000  -0.00493  -0.00317   4.78829
    Z6       25.56060   0.00069   0.00000   0.01487   0.01697  25.57756
    X7      -16.05167  -0.00103   0.00000  -0.00746  -0.00771 -16.05937
    Y7        6.72639  -0.00124   0.00000   0.00032   0.00195   6.72835
    Z7       25.34824   0.00056   0.00000   0.00039   0.00304  25.35128
    X8      -14.35532  -0.00034   0.00000  -0.01686  -0.01674 -14.37206
    Y8        9.53007   0.00043   0.00000  -0.00529  -0.00321   9.52686
    Z8       22.95014  -0.00015   0.00000  -0.01666  -0.01323  22.93690
    X9      -20.13300  -0.00042   0.00000  -0.02020  -0.02048 -20.15348
    Y9        4.88504   0.00019   0.00000  -0.00841  -0.00484   4.88021
    Z9       19.55216  -0.00005   0.00000   0.02013   0.02218  19.57434
   X10      -20.64746  -0.00028   0.00000  -0.01037  -0.01101 -20.65847
   Y10        2.57551  -0.00014   0.00000   0.00180   0.00437   2.57988
   Z10       23.59483   0.00022   0.00000   0.02796   0.02940  23.62423
   X11      -18.06953   0.00044   0.00000   0.01625   0.01563 -18.05389
   Y11        3.78791  -0.00034   0.00000  -0.00755  -0.00623   3.78168
   Z11       27.34873  -0.00002   0.00000   0.01495   0.01677  27.36550
   X12      -14.87312   0.00004   0.00000  -0.00653  -0.00677 -14.87988
   Y12        7.22294   0.00023   0.00000   0.01394   0.01502   7.23796
   Z12       26.97020   0.00013   0.00000  -0.00356  -0.00074  26.96946
   X13      -17.15571   0.00778   0.00000   0.04036   0.04052 -17.11519
   Y13        8.83071   0.01095   0.00000  -0.07005  -0.06652   8.76418
   Z13       18.58871  -0.00767   0.00000  -0.04642  -0.04327  18.54544
   X14      -15.89755  -0.00160   0.00000   0.07163   0.07203 -15.82552
   Y14       11.00980  -0.01756   0.00000  -0.11860  -0.11510  10.89470
   Z14       18.17310   0.00021   0.00000  -0.05536  -0.05162  18.12149
   X15      -18.25661  -0.00099   0.00000   0.00277   0.00290 -18.25371
   Y15        8.01479   0.00031   0.00000  -0.04831  -0.04427   7.97052
   Z15       17.03616   0.00002   0.00000  -0.03063  -0.02772  17.00844
   X16      -15.92117  -0.00031   0.00000   0.05477   0.05533 -15.86585
   Y16       11.88760   0.00087   0.00000  -0.08656  -0.08258  11.80502
   Z16       16.30722   0.00075   0.00000  -0.03915  -0.03517  16.27205
   X17      -14.72064  -0.00151   0.00000   0.03722   0.03768 -14.68295
   Y17       11.91434   0.00051   0.00000  -0.09576  -0.09276  11.82158
   Z17       19.60013  -0.00049   0.00000  -0.04276  -0.03874  19.56139
   X18       -1.84284  -0.00340   0.00000  -0.02001  -0.02101  -1.86386
   Y18       -3.40543   0.00053   0.00000   0.00267   0.00572  -3.39971
   Z18       14.10836   0.00078   0.00000   0.00744   0.00786  14.11621
   X19      -15.85406   0.00331   0.00000   0.01470   0.01379 -15.84028
   Y19       -2.51834  -0.00081   0.00000   0.00838   0.01293  -2.50541
   Z19       14.10089   0.00099   0.00000   0.01113   0.01137  14.11227
   X20      -13.26538   0.00267   0.00000   0.01095   0.01042 -13.25497
   Y20        2.54570  -0.00300   0.00000  -0.01158  -0.00880   2.53690
   Z20       19.79152  -0.00052   0.00000  -0.00232  -0.00068  19.79084
   X21       -4.41149  -0.00245   0.00000  -0.01125  -0.01295  -4.42444
   Y21       -8.31082   0.00234   0.00000   0.01748   0.01929  -8.29153
   Z21       19.94592  -0.00100   0.00000  -0.01063  -0.01157  19.93435
   X22       -6.42608   0.00174   0.00000  -0.00729  -0.00774  -6.43381
   Y22        1.30494   0.01065   0.00000   0.02172   0.02575   1.33069
   Z22       12.24074  -0.00984   0.00000  -0.00419  -0.00268  12.23806
   X23      -11.31725  -0.00245   0.00000   0.00366   0.00230 -11.31495
   Y23       -7.21930  -0.01034   0.00000  -0.00509  -0.00058  -7.21988
   Z23       12.39292  -0.01012   0.00000  -0.00542  -0.00628  12.38664
   X24       -6.82135   0.00673   0.00000   0.01563   0.01494  -6.80641
   Y24        1.64185   0.00861   0.00000   0.00293   0.00455   1.64640
   Z24       21.57436   0.01002   0.00000   0.00905   0.01064  21.58500
   X25      -10.88736  -0.00727   0.00000  -0.01672  -0.01835 -10.90571
   Y25       -7.30443  -0.00741   0.00000   0.00306   0.00509  -7.29933
   Z25       21.69912   0.01031   0.00000   0.00615   0.00528  21.70440
   X26       -4.59094   0.00817   0.00000  -0.00639  -0.00750  -4.59844
   Y26       -4.89914  -0.00760   0.00000  -0.00487  -0.00099  -4.90013
   Z26       12.09891  -0.01085   0.00000  -0.00869  -0.00874  12.09017
   X27      -13.10842  -0.00824   0.00000  -0.00157  -0.00226 -13.11068
   Y27       -1.00996   0.00821   0.00000   0.01987   0.02467  -0.98529
   Z27       12.03794  -0.01073   0.00000  -0.00719  -0.00647  12.03148
   X28      -12.87909  -0.01176   0.00000  -0.00769  -0.00861 -12.88770
   Y28       -0.47350   0.00307   0.00000  -0.00411  -0.00191  -0.47541
   Z28       21.84756   0.01099   0.00000   0.01116   0.01202  21.85958
   X29       -4.80598   0.01104   0.00000   0.00681   0.00539  -4.80059
   Y29       -5.17686  -0.00185   0.00000   0.01027   0.01159  -5.16527
   Z29       21.92660   0.01091   0.00000   0.00726   0.00712  21.93373
   X30       -5.98288  -0.00054   0.00000   0.01090   0.01075  -5.97213
   Y30        3.53811  -0.00270   0.00000   0.01529   0.01985   3.55797
   Z30       10.00673   0.00347   0.00000   0.00470   0.00682  10.01354
   X31      -11.56929   0.00025   0.00000  -0.01062  -0.01218 -11.58146
   Y31       -9.58290   0.00309   0.00000   0.00199   0.00709  -9.57581
   Z31       10.23521   0.00316   0.00000   0.00012  -0.00136  10.23385
   X32       -5.06649  -0.00235   0.00000   0.00300   0.00242  -5.06406
   Y32        3.22945  -0.00203   0.00000   0.00852   0.00939   3.23884
   Z32       23.74626  -0.00315   0.00000   0.00338   0.00543  23.75169
   X33      -12.62541   0.00239   0.00000  -0.00340  -0.00527 -12.63068
   Y33       -8.81660   0.00188   0.00000  -0.00459  -0.00296  -8.81956
   Z33       23.93361  -0.00333   0.00000  -0.00017  -0.00148  23.93213
   X34       -5.02309  -0.00121   0.00000  -0.01541  -0.01614  -5.03923
   Y34       -1.73337  -0.00069   0.00000   0.00453   0.00885  -1.72452
   Z34       10.56129   0.00324   0.00000   0.01128   0.01204  10.57333
   X35      -12.66135   0.00139   0.00000   0.00871   0.00771 -12.65363
   Y35       -4.28737   0.00011   0.00000   0.00959   0.01471  -4.27266
   Z35       10.62094   0.00345   0.00000   0.01349   0.01337  10.63431
   X36      -10.02605   0.00077   0.00000   0.00757   0.00677 -10.01928
   Y36        1.03898  -0.00149   0.00000  -0.01098  -0.00947   1.02951
   Z36       23.35561  -0.00330   0.00000  -0.00674  -0.00540  23.35021
   X37       -7.65280  -0.00033   0.00000  -0.00641  -0.00804  -7.66083
   Y37       -6.67843   0.00123   0.00000   0.01355   0.01478  -6.66365
   Z37       23.44734  -0.00337   0.00000  -0.01128  -0.01188  23.43546
   X38        0.59367  -0.00445   0.00000   0.00408   0.00333   0.59700
   Y38       -0.03620  -0.00185   0.00000  -0.00500  -0.00310  -0.03930
   Z38       17.53434  -0.00134   0.00000  -0.00226  -0.00090  17.53344
   X39      -18.31302   0.00460   0.00000  -0.00674  -0.00810 -18.32112
   Y39       -5.74916   0.00178   0.00000   0.01267   0.01656  -5.73260
   Z39       17.62355  -0.00147   0.00000  -0.00172  -0.00239  17.62117
   X40      -11.98902   0.00213   0.00000   0.00183   0.00181 -11.98720
   Y40        6.48109  -0.00616   0.00000   0.00562   0.00916   6.49025
   Z40       16.37343   0.00092   0.00000   0.00912   0.01183  16.38525
   X41       -5.69044  -0.00107   0.00000   0.00301   0.00099  -5.68945
   Y41      -12.27330   0.00473   0.00000   0.00495   0.00779 -12.26551
   Z41       16.52329   0.00131   0.00000   0.00079  -0.00122  16.52206
   X42       -3.36037  -0.00198   0.00000  -0.01260  -0.01310  -3.37346
   Y42        1.40781  -0.00277   0.00000  -0.00228   0.00093   1.40874
   Z42       14.12198   0.00135   0.00000   0.01190   0.01352  14.13550
   X43      -14.35615   0.00242   0.00000   0.01047   0.00904 -14.34710
   Y43       -7.33834   0.00252   0.00000   0.01270   0.01705  -7.32129
   Z43       14.25054   0.00108   0.00000   0.01061   0.00964  14.26018
   X44       -8.48363  -0.00032   0.00000   0.00506   0.00469  -8.47894
   Y44        4.14807  -0.00364   0.00000  -0.01250  -0.01020   4.13786
   Z44       19.70229  -0.00065   0.00000  -0.00276  -0.00057  19.70172
   X45       -9.20848   0.00087   0.00000  -0.00640  -0.00826  -9.21674
   Y45       -9.89033   0.00334   0.00000   0.01844   0.02077  -9.86957
   Z45       19.89943  -0.00133   0.00000  -0.01116  -0.01265  19.88678
   X46       -3.02368  -0.00264   0.00000  -0.00523  -0.00647  -3.03015
   Y46       -6.67968   0.00291   0.00000   0.01019   0.01447  -6.66521
   Z46        9.93116   0.00305   0.00000  -0.00739  -0.00787   9.92329
   X47      -14.76532   0.00286   0.00000  -0.00583  -0.00629 -14.77161
   Y47        0.52443  -0.00248   0.00000   0.00153   0.00709   0.53152
   Z47        9.78421   0.00323   0.00000  -0.00355  -0.00248   9.78172
   X48      -15.18844   0.00427   0.00000   0.00258   0.00161 -15.18682
   Y48       -0.31368  -0.00044   0.00000   0.00635   0.00822  -0.30546
   Z48       24.07150  -0.00351   0.00000   0.00737   0.00820  24.07971
   X49       -2.47007  -0.00393   0.00000  -0.00361  -0.00512  -2.47519
   Y49       -5.40527   0.00040   0.00000  -0.00193  -0.00143  -5.40670
   Z49       24.11756  -0.00316   0.00000   0.00411   0.00398  24.12153
   X50       -2.35161   0.01455   0.00000   0.00593   0.00511  -2.34650
   Y50       -1.01308   0.00487   0.00000   0.00594   0.00836  -1.00472
   Z50       16.70168   0.00309   0.00000   0.01217   0.01320  16.71488
   X51      -15.36588  -0.01493   0.00000  -0.00949  -0.01072 -15.37660
   Y51       -4.79937  -0.00397   0.00000   0.00436   0.00816  -4.79121
   Z51       16.76925   0.00337   0.00000   0.01351   0.01317  16.78243
   X52      -11.09151  -0.00576   0.00000  -0.00160  -0.00196 -11.09347
   Y52        3.51024   0.01593   0.00000   0.01345   0.01671   3.52695
   Z52       17.08933  -0.00330   0.00000  -0.00678  -0.00482  17.08451
   X53       -6.60460   0.00476   0.00000  -0.00192  -0.00364  -6.60825
   Y53       -9.29821  -0.01441   0.00000  -0.00241   0.00031  -9.29790
   Z53       17.31728  -0.00286   0.00000  -0.01293  -0.01420  17.30308
   X54       -7.95806  -0.00066   0.00000  -0.00305  -0.00425  -7.96231
   Y54       -5.88459   0.00148   0.00000  -0.00477  -0.00037  -5.88496
   Z54       11.47711   0.00208   0.00000  -0.00873  -0.00914  11.46797
   X55       -9.72936   0.00072   0.00000  -0.00388  -0.00445  -9.73381
   Y55       -0.11952  -0.00154   0.00000   0.02221   0.02682  -0.09270
   Z55       11.37218   0.00201   0.00000  -0.00708  -0.00603  11.36616
   X56      -11.65436   0.00175   0.00000  -0.01116  -0.01245 -11.66681
   Y56       -3.77842  -0.00016   0.00000  -0.00276  -0.00085  -3.77928
   Z56       22.50417  -0.00210   0.00000   0.01012   0.01015  22.51432
   X57       -5.99354  -0.00135   0.00000   0.01125   0.01016  -5.98338
   Y57       -1.87365  -0.00055   0.00000   0.00730   0.00859  -1.86505
   Z57       22.52416  -0.00212   0.00000   0.00934   0.01003  22.53419
   X58       -8.22054   0.00033   0.00000  -0.00351  -0.00385  -8.22439
   Y58        2.98426  -0.00249   0.00000   0.01699   0.02054   3.00480
   Z58       14.80254   0.00119   0.00000  -0.00380  -0.00190  14.80064
   X59       -9.46387   0.00035   0.00000   0.00128  -0.00033  -9.46420
   Y59       -8.85042   0.00220   0.00000  -0.00541  -0.00177  -8.85219
   Z59       14.97497   0.00145   0.00000  -0.00795  -0.00918  14.96578
   X60       -4.38340  -0.00139   0.00000   0.01312   0.01245  -4.37095
   Y60        1.06439  -0.00166   0.00000   0.00511   0.00714   1.07152
   Z60       19.04262  -0.00155   0.00000   0.00944   0.01095  19.05357
   X61      -13.31152   0.00168   0.00000  -0.01501  -0.01653 -13.32805
   Y61       -6.83229   0.00140   0.00000   0.00297   0.00593  -6.82636
   Z61       19.14305  -0.00142   0.00000   0.00851   0.00769  19.15074
   X62       -4.85613  -0.00131   0.00000  -0.00362  -0.00507  -4.86120
   Y62       -7.38928   0.00203   0.00000  -0.00248   0.00069  -7.38859
   Z62       14.86996   0.00076   0.00000  -0.01130  -0.01201  14.85795
   X63      -12.86232   0.00113   0.00000  -0.00155  -0.00205 -12.86437
   Y63        1.50015  -0.00258   0.00000   0.01427   0.01834   1.51849
   Z63       14.74487   0.00051   0.00000  -0.00760  -0.00622  14.73866
   X64      -14.78108   0.00237   0.00000  -0.00814  -0.00916 -14.79025
   Y64       -2.22573  -0.00023   0.00000   0.00124   0.00435  -2.22138
   Z64       19.16162  -0.00097   0.00000   0.01242   0.01277  19.17439
   X65       -2.93769  -0.00238   0.00000   0.00549   0.00433  -2.93336
   Y65       -3.54121  -0.00026   0.00000   0.00617   0.00801  -3.53319
   Z65       19.16098  -0.00081   0.00000   0.00937   0.00972  19.17070
   X66       -6.33688  -0.02693   0.00000  -0.05080  -0.05171  -6.38859
   Y66       -2.19332  -0.00491   0.00000  -0.00072   0.00254  -2.19078
   Z66       15.13929   0.01723   0.00000   0.02869   0.02929  15.16858
   X67      -11.36736   0.02734   0.00000   0.04557   0.04451 -11.32286
   Y67       -3.70595   0.00561   0.00000   0.01535   0.01912  -3.68683
   Z67       15.18172   0.01713   0.00000   0.02968   0.02974  15.21147
   X68       -9.66180   0.01150   0.00000   0.02160   0.02078  -9.64103
   Y68       -0.39790  -0.02588   0.00000  -0.03946  -0.03679  -0.43469
   Z68       18.78896  -0.01732   0.00000  -0.02692  -0.02595  18.76300
   X69       -8.00518  -0.01133   0.00000  -0.02409  -0.02543  -8.03061
   Y69       -5.38521   0.02475   0.00000   0.04664   0.04912  -5.33610
   Z69       18.85105  -0.01754   0.00000  -0.02909  -0.02936  18.82170
   X70       -6.07196   0.00019   0.00000  -0.00204  -0.00382  -6.07579
   Y70      -11.59017  -0.00097   0.00000  -0.00452  -0.00012 -11.59029
   Z70       10.67148  -0.00064   0.00000  -0.01020  -0.01205  10.65944
   X71       -0.21619   0.00073   0.00000   0.01107   0.01017  -0.20601
   Y71        0.08570   0.00008   0.00000   0.00353   0.00400   0.08969
   Z71       23.30111   0.00059   0.00000   0.00919   0.01057  23.31168
   X72      -17.54385  -0.00093   0.00000  -0.01263  -0.01411 -17.55796
   Y72       -5.33925  -0.00034   0.00000   0.00164   0.00391  -5.33534
   Z72       23.48498   0.00055   0.00000   0.00998   0.00944  23.49441
   X73       -8.84672  -0.00040   0.00000  -0.00239  -0.00342  -8.85015
   Y73       -2.91456   0.00036   0.00000   0.00564   0.00869  -2.90588
   Z73       16.98776   0.00016   0.00000   0.00087   0.00121  16.98897
         Item               Value     Threshold  Converged?
 Maximum Force            0.027341     0.000450     NO 
 RMS     Force            0.006191     0.000300     NO 
 Maximum Displacement     0.115102     0.001800     NO 
 RMS     Displacement     0.020155     0.001200     NO 
 Predicted change in Energy=-6.254063D-03
 GradGradGradGradGradGradGradGradGradGradGradGradGradGradGradGradGradGrad

 Unable to Open any file for archive entry.
 1\1\GINC-X11P1N2\Force\RwB97XD\def2SVP\C8H8Cl1K3O40V1W12(1-)\MAYUMIAO\
 02-Jun-2024\0\\# def2svp wb97xd scrf=(smd,solvent=acetonitrile) g09def
 ault scf=(xqc,maxcycle=64) force guess=read nosymm\\Title Card\\-1,1\C
 l,-9.6498755,8.27473324,10.54588336\C,-8.3443769,4.24978006,12.2144720
 4\C,-9.13975813,3.93158681,11.0975357\C,-10.05201106,2.86627661,11.215
 21839\C,-10.20571595,2.18133021,12.41585731\C,-9.43756326,2.5355303,13
 .5260853\C,-8.49417532,3.55945432,13.41371253\H,-7.59650919,5.04309652
 ,12.14468876\H,-10.65392379,2.58505309,10.34655755\H,-10.92616572,1.36
 290227,12.48584404\H,-9.56198199,2.00447751,14.47232517\H,-7.87051448,
 3.82221265,14.27201514\C,-9.07841186,4.67300985,9.83672143\C,-8.412620
 24,5.82613544,9.61679104\H,-9.66098225,4.24124489,9.01514726\H,-8.4251
 2209,6.29064565,8.62940855\H,-7.78982621,6.30479927,10.37194195\O,-0.9
 751914,-1.80207727,7.46582035\O,-8.38960774,-1.33264796,7.4618699\O,-7
 .01973896,1.34712599,10.47322031\O,-2.33445817,-4.39789683,10.55492819
 \W,-3.40053426,0.69054662,6.47751959\W,-5.98883033,-3.82028842,6.55805
 197\W,-3.60970521,0.86882808,11.41666155\W,-5.7613408,-3.86533629,11.4
 8267778\W,-2.42942247,-2.59251121,6.40246675\W,-6.9366796,-0.53444814,
 6.37020507\W,-6.81532292,-0.25056714,11.56123166\W,-2.54321639,-2.7394
 7662,11.60305788\O,-3.16600149,1.87228802,5.29533225\O,-6.12220335,-5.
 07105313,5.41624175\O,-2.68106842,1.7089492,12.56597734\O,-6.68107942,
 -4.66554232,12.66511956\O,-2.65810687,-0.91726178,5.58879376\O,-6.7000
 954,-2.26877821,5.62035914\O,-5.30555466,0.54980686,12.35925796\O,-4.0
 4968691,-3.53407059,12.40779798\O,0.31415786,-0.01915774,9.27877267\O,
 -9.69083383,-3.04232307,9.32598348\O,-6.34431417,3.4296471,8.66444393\
 O,-3.01125375,-6.49475089,8.74374591\O,-1.77822956,0.74498134,7.473027
 98\O,-7.59694619,-3.88328103,7.54106043\O,-4.48934308,2.1950621,10.426
 00424\O,-4.87291728,-5.23373941,10.53032241\O,-1.6000631,-3.53473454,5
 .25534205\O,-7.81347149,0.27751725,5.17758013\O,-8.03737587,-0.1659918
 9,12.7380902\O,-1.30710529,-2.86034519,12.76246047\W,-1.24441766,-0.53
 610006,8.83815077\W,-8.13127258,-2.53971614,8.87390698\W,-5.86937402,1
 .85753854,9.04328406\W,-3.49500498,-4.92040116,9.1639095\O,-4.21122656
 ,-3.11399098,6.0734263\O,-5.14855355,-0.0632465,6.01789962\O,-6.167220
 51,-1.99945472,11.90869584\O,-3.17164636,-0.99149057,11.91926983\O,-4.
 35012147,1.57920269,7.83316658\O,-5.00806325,-4.68343953,7.92441067\O,
 -2.3195956,0.56324872,10.07692046\O,-7.04415487,-3.61549166,10.1300659
 5\O,-2.56975134,-3.91023963,7.86884459\O,-6.80644525,0.79384602,7.8026
 5142\O,-7.82181307,-1.17780436,10.1398938\O,-1.55456013,-1.87392638,10
 .13955356\O,-3.35333271,-1.16065696,8.01136765\O,-6.01534814,-1.961104
 66,8.03382156\O,-5.11280563,-0.21055807,9.94268724\O,-4.23615957,-2.84
 973077,9.97554797\K,-3.21314488,-6.13325227,5.64710533\K,-0.11440122,0
 .04534839,12.3304184\K,-9.28380686,-2.82541013,12.42771523\V,-4.681483
 59,-1.5423204,8.98953454\\Version=ES64L-G16RevC.01\HF=-7327.7018125\RM
 SD=5.289e-09\RMSF=6.191e-03\Dipole=10.0444672,-21.9244115,2.4533395\Qu
 adrupole=-69.0312213,43.8763128,25.1549085,332.6721969,334.7994471,-35
 5.1173598\PG=C01 [X(C8H8Cl1K3O40V1W12)]\\@
 The archive entry for this job was punched.


 THE WISE MAN HAS THE POWER TO REASON AWAY
 WHAT A FOOL BELIEVES.
                     - DOOBIE BROTHERS
 Job cpu time:       0 days  8 hours 45 minutes 49.4 seconds.
 Elapsed time:       0 days  0 hours  9 minutes 56.5 seconds.
 File lengths (MBytes):  RWF=   1256 Int=      0 D2E=      0 Chk=    249 Scr=      1
 Normal termination of Gaussian 16 at Sun Jun  2 19:00:40 2024.
